<event>
 5    0  0.5634041E-005  0.2662845E+03  0.7546771E-02  0.1103425E+00
         21   -1    0    0  502  501  0.00000000000E+00  0.00000000000E+00  0.87058623011E+03  0.87058623011E+03  0.00000000000E+00 0.  1.
         21   -1    0    0  501  502 -0.00000000000E+00 -0.00000000000E+00 -0.81447914881E+02  0.81447914881E+02  0.00000000000E+00 0.  1.
         25    1    1    2    0    0  0.79753821168E+01 -0.59252284453E+02  0.30238834087E+03  0.33262313303E+03  0.12500000000E+03 0.  0.
         25    1    1    2    0    0  0.78622220296E+02 -0.84351523188E+02  0.17520246646E+03  0.24416702735E+03  0.12500000000E+03 0.  0.
         25    1    1    2    0    0 -0.86597602413E+02  0.14360380764E+03  0.31154750790E+03  0.37524398462E+03  0.12500000000E+03 0.  0.
</event>
<event>
 5    0  0.5634041E-005  0.3269936E+03  0.7546771E-02  0.1072475E+00
         21   -1    0    0  502  501  0.00000000000E+00  0.00000000000E+00  0.21913780067E+03  0.21913780067E+03  0.00000000000E+00 0.  1.
         21   -1    0    0  501  502 -0.00000000000E+00 -0.00000000000E+00 -0.48793401795E+03  0.48793401795E+03  0.00000000000E+00 0.  1.
         25    1    1    2    0    0 -0.97315220760E+02 -0.47309627230E+02 -0.58662965551E+01  0.16543236218E+03  0.12500000000E+03 0.  0.
         25    1    1    2    0    0 -0.14293839865E+03  0.60166144010E+02 -0.80462125471E+02  0.21482668440E+03  0.12500000000E+03 0.  0.
         25    1    1    2    0    0  0.24025361941E+03 -0.12856516780E+02 -0.18246779526E+03  0.32681277204E+03  0.12500000000E+03 0.  0.
</event>
<event>
 5    0  0.5634041E-005  0.2370268E+03  0.7546771E-02  0.1121789E+00
         21   -1    0    0  502  501  0.00000000000E+00  0.00000000000E+00  0.24523416582E+03  0.24523416582E+03  0.00000000000E+00 0.  1.
         21   -1    0    0  501  502 -0.00000000000E+00 -0.00000000000E+00 -0.22909418404E+03  0.22909418404E+03  0.00000000000E+00 0.  1.
         25    1    1    2    0    0  0.37450595778E+01 -0.37815972870E+02  0.25661172887E+02  0.13314491755E+03  0.12500000000E+03 0.  0.
         25    1    1    2    0    0 -0.23867767451E+02  0.49777639250E+02  0.10320490183E+03  0.17124174565E+03  0.12500000000E+03 0.  0.
         25    1    1    2    0    0  0.20122707874E+02 -0.11961666380E+02 -0.11272609293E+03  0.16994168665E+03  0.12500000000E+03 0.  0.
</event>
<event>
 5    0  0.5634041E-005  0.2572098E+03  0.7546771E-02  0.1108831E+00
         21   -1    0    0  502  501  0.00000000000E+00  0.00000000000E+00  0.61861669603E+03  0.61861669603E+03  0.00000000000E+00 0. -1.
         21   -1    0    0  501  502 -0.00000000000E+00 -0.00000000000E+00 -0.10694328310E+03  0.10694328310E+03  0.00000000000E+00 0. -1.
         25    1    1    2    0    0  0.60077344878E+02  0.50396679840E+01  0.21374816710E+03  0.25484890536E+03  0.12500000000E+03 0.  0.
         25    1    1    2    0    0  0.11866315862E+02  0.32332626768E+02 -0.85507803207E+01  0.12993969390E+03  0.12500000000E+03 0.  0.
         25    1    1    2    0    0 -0.71943660740E+02 -0.37372294752E+02  0.30647602615E+03  0.34077137988E+03  0.12500000000E+03 0.  0.
</event>
<event>
 5    0  0.5634041E-005  0.4193548E+03  0.7546771E-02  0.1037277E+00
         21   -1    0    0  502  501  0.00000000000E+00  0.00000000000E+00  0.21735600284E+04  0.21735600284E+04  0.00000000000E+00 0. -1.
         21   -1    0    0  501  502 -0.00000000000E+00 -0.00000000000E+00 -0.80908011898E+02  0.80908011898E+02  0.00000000000E+00 0. -1.
         25    1    1    2    0    0 -0.64142547891E+02  0.21546454809E+03  0.38648388760E+03  0.46425643055E+03  0.12500000000E+03 0.  0.
         25    1    1    2    0    0  0.14731647777E+03 -0.11637100145E+03  0.31477520059E+03  0.38723737101E+03  0.12500000000E+03 0.  0.
         25    1    1    2    0    0 -0.83173929878E+02 -0.99093546636E+02  0.13913929283E+04  0.14029742387E+04  0.12500000000E+03 0.  0.
</event>
<event>
 5    0  0.5634041E-005  0.2939252E+03  0.7546771E-02  0.1088317E+00
         21   -1    0    0  502  501  0.00000000000E+00  0.00000000000E+00  0.10290143107E+04  0.10290143107E+04  0.00000000000E+00 0. -1.
         21   -1    0    0  501  502 -0.00000000000E+00 -0.00000000000E+00 -0.83956080062E+02  0.83956080062E+02  0.00000000000E+00 0. -1.
         25    1    1    2    0    0  0.10710549434E+03 -0.15841816816E+02  0.15278960571E+03  0.22514931422E+03  0.12500000000E+03 0.  0.
         25    1    1    2    0    0  0.58361351007E+02 -0.64666445672E+02  0.17683281946E+03  0.23341517201E+03  0.12500000000E+03 0.  0.
         25    1    1    2    0    0 -0.16546684535E+03  0.80508262488E+02  0.61543580546E+03  0.65440590453E+03  0.12500000000E+03 0.  0.
</event>
<event>
 5    0  0.5634041E-005  0.2644740E+03  0.7546771E-02  0.1104485E+00
         21   -1    0    0  502  501  0.00000000000E+00  0.00000000000E+00  0.44937398185E+02  0.44937398185E+02  0.00000000000E+00 0. -1.
         21   -1    0    0  501  502 -0.00000000000E+00 -0.00000000000E+00 -0.15565324928E+04  0.15565324928E+04  0.00000000000E+00 0. -1.
         25    1    1    2    0    0  0.31806555450E+02  0.14261624941E+03 -0.60889480969E+03  0.63853656186E+03  0.12500000000E+03 0.  0.
         25    1    1    2    0    0  0.40067872618E+02 -0.12905171431E+03 -0.59557772700E+03  0.62337597667E+03  0.12500000000E+03 0.  0.
         25    1    1    2    0    0 -0.71874428068E+02 -0.13564535100E+02 -0.30712255789E+03  0.33955735243E+03  0.12500000000E+03 0.  0.
</event>
<event>
 5    0  0.5634041E-005  0.3334114E+03  0.7546771E-02  0.1069637E+00
         21   -1    0    0  502  501  0.00000000000E+00  0.00000000000E+00  0.13168393208E+03  0.13168393208E+03  0.00000000000E+00 0. -1.
         21   -1    0    0  501  502 -0.00000000000E+00 -0.00000000000E+00 -0.84416642226E+03  0.84416642226E+03  0.00000000000E+00 0. -1.
         25    1    1    2    0    0  0.18852266845E+03  0.17512258511E+03 -0.36317146196E+03  0.46230642124E+03  0.12500000000E+03 0.  0.
         25    1    1    2    0    0 -0.12778699218E+03 -0.56134312697E+02 -0.22279416035E+03  0.29110619079E+03  0.12500000000E+03 0.  0.
         25    1    1    2    0    0 -0.60735676274E+02 -0.11898827242E+03 -0.12651686788E+03  0.22243774231E+03  0.12500000000E+03 0.  0.
</event>
<event>
 5    0  0.5634041E-005  0.2349006E+03  0.7546771E-02  0.1123237E+00
         21   -1    0    0  502  501  0.00000000000E+00  0.00000000000E+00  0.29023259221E+04  0.29023259221E+04  0.00000000000E+00 0. -1.
         21   -1    0    0  501  502 -0.00000000000E+00 -0.00000000000E+00 -0.19011750269E+02  0.19011750269E+02  0.00000000000E+00 0. -1.
         25    1    1    2    0    0 -0.61124402807E+02 -0.46089029612E+02  0.14034236350E+04  0.14110575079E+04  0.12500000000E+03 0.  0.
         25    1    1    2    0    0  0.43855950491E+02  0.88813888022E+02  0.62275912372E+03  0.64285704264E+03  0.12500000000E+03 0.  0.
         25    1    1    2    0    0  0.17268452316E+02 -0.42724858409E+02  0.85713141313E+03  0.86742312187E+03  0.12500000000E+03 0.  0.
</event>
<event>
 5    0  0.5634041E-005  0.4565593E+03  0.7546771E-02  0.1025784E+00
         21   -1    0    0  502  501  0.00000000000E+00  0.00000000000E+00  0.76119262528E+03  0.76119262528E+03  0.00000000000E+00 0.  1.
         21   -1    0    0  501  502 -0.00000000000E+00 -0.00000000000E+00 -0.27384180016E+03  0.27384180016E+03  0.00000000000E+00 0.  1.
         25    1    1    2    0    0 -0.71124691107E+02  0.37543970784E+03  0.23076849615E+03  0.46356530794E+03  0.12500000000E+03 0.  0.
         25    1    1    2    0    0 -0.70043273945E+02 -0.15434228038E+03  0.16260345282E+03  0.26606856749E+03  0.12500000000E+03 0.  0.
         25    1    1    2    0    0  0.14116796505E+03 -0.22109742746E+03  0.93978876153E+02  0.30540055002E+03  0.12500000000E+03 0.  0.
</event>
<event>
 5    0  0.5634041E-005  0.2805346E+03  0.7546771E-02  0.1095397E+00
         21   -1    0    0  502  501  0.00000000000E+00  0.00000000000E+00  0.83646522985E+02  0.83646522985E+02  0.00000000000E+00 0. -1.
         21   -1    0    0  501  502 -0.00000000000E+00 -0.00000000000E+00 -0.94086003348E+03  0.94086003348E+03  0.00000000000E+00 0. -1.
         25    1    1    2    0    0  0.14926494438E+03 -0.31885816625E+02 -0.33418000786E+03  0.38806958986E+03  0.12500000000E+03 0.  0.
         25    1    1    2    0    0 -0.15195231796E+03  0.83555180107E+02 -0.23183004025E+03  0.31534289689E+03  0.12500000000E+03 0.  0.
         25    1    1    2    0    0  0.26873735741E+01 -0.51669363481E+02 -0.29120346238E+03  0.32109406971E+03  0.12500000000E+03 0.  0.
</event>
<event>
 5    0  0.5634041E-005  0.3271330E+03  0.7546771E-02  0.1072413E+00
         21   -1    0    0  502  501  0.00000000000E+00  0.00000000000E+00  0.20886801817E+03  0.20886801817E+03  0.00000000000E+00 0.  1.
         21   -1    0    0  501  502 -0.00000000000E+00 -0.00000000000E+00 -0.51236179783E+03  0.51236179783E+03  0.00000000000E+00 0.  1.
         25    1    1    2    0    0  0.16613233035E+03  0.67830080631E+02  0.87960485913E+01  0.21886809155E+03  0.12500000000E+03 0.  0.
         25    1    1    2    0    0 -0.33465121391E+01 -0.11616976994E+03 -0.79544458813E+02  0.18830543147E+03  0.12500000000E+03 0.  0.
         25    1    1    2    0    0 -0.16278581821E+03  0.48339689311E+02 -0.23274536944E+03  0.31405629299E+03  0.12500000000E+03 0.  0.
</event>
<event>
 5    0  0.6485700E-005  0.2901931E+03  0.7546771E-02  0.1090248E+00
         21   -1    0    0  502  501  0.00000000000E+00  0.00000000000E+00  0.20510624381E+03  0.20510624381E+03  0.00000000000E+00 0. -1.
         21   -1    0    0  501  502 -0.00000000000E+00 -0.00000000000E+00 -0.41057769788E+03  0.41057769788E+03  0.00000000000E+00 0. -1.
         25    1    1    2    0    0 -0.54700593887E+02 -0.80002979217E+02 -0.24749959077E+03  0.29372381430E+03  0.12500000000E+03 0.  0.
         25    1    1    2    0    0 -0.52237130335E+02  0.19330607944E+02  0.51875295841E+02  0.14635038950E+03  0.12500000000E+03 0.  0.
         25    1    1    2    0    0  0.10693772422E+03  0.60672371273E+02 -0.98471591448E+01  0.17560973789E+03  0.12500000000E+03 0.  0.
</event>
<event>
 5    0  0.5634041E-005  0.3463493E+03  0.7546771E-02  0.1064123E+00
         21   -1    0    0  502  501  0.00000000000E+00  0.00000000000E+00  0.91384202024E+03  0.91384202024E+03  0.00000000000E+00 0. -1.
         21   -1    0    0  501  502 -0.00000000000E+00 -0.00000000000E+00 -0.13126757339E+03  0.13126757339E+03  0.00000000000E+00 0. -1.
         25    1    1    2    0    0  0.14139912903E+03  0.21955111464E+03  0.42432870088E+03  0.51368886694E+03  0.12500000000E+03 0.  0.
         25    1    1    2    0    0 -0.18443030949E+02 -0.33496146859E+02  0.16738576003E+03  0.21237968336E+03  0.12500000000E+03 0.  0.
         25    1    1    2    0    0 -0.12295609808E+03 -0.18605496778E+03  0.19085998594E+03  0.31904104332E+03  0.12500000000E+03 0.  0.
</event>
<event>
 5    0  0.5634041E-005  0.4128204E+03  0.7546771E-02  0.1039429E+00
         21   -1    0    0  502  501  0.00000000000E+00  0.00000000000E+00  0.19930169206E+03  0.19930169206E+03  0.00000000000E+00 0.  1.
         21   -1    0    0  501  502 -0.00000000000E+00 -0.00000000000E+00 -0.85508911859E+03  0.85508911859E+03  0.00000000000E+00 0.  1.
         25    1    1    2    0    0  0.26401656612E+03  0.15300923879E+03 -0.79479411884E+02  0.33920281728E+03  0.12500000000E+03 0.  0.
         25    1    1    2    0    0 -0.13489051101E+03 -0.13084763977E+03 -0.41627981170E+03  0.47352976298E+03  0.12500000000E+03 0.  0.
         25    1    1    2    0    0 -0.12912605511E+03 -0.22161599020E+02 -0.16002820295E+03  0.24165823039E+03  0.12500000000E+03 0.  0.
</event>
<event>
 5    0  0.5634041E-005  0.2769119E+03  0.7546771E-02  0.1097388E+00
         21   -1    0    0  502  501  0.00000000000E+00  0.00000000000E+00  0.20176060986E+03  0.20176060986E+03  0.00000000000E+00 0.  1.
         21   -1    0    0  501  502 -0.00000000000E+00 -0.00000000000E+00 -0.38005537373E+03  0.38005537373E+03  0.00000000000E+00 0.  1.
         25    1    1    2    0    0 -0.12071576591E+03  0.14537975586E+02 -0.46612709209E+02  0.18050316765E+03  0.12500000000E+03 0.  0.
         25    1    1    2    0    0  0.17705903476E+03 -0.60293204928E+02 -0.35647211256E+02  0.22777378256E+03  0.12500000000E+03 0.  0.
         25    1    1    2    0    0 -0.56343268855E+02  0.45755229342E+02 -0.96034843400E+02  0.17353903337E+03  0.12500000000E+03 0.  0.
</event>
<event>
 5    0  0.5634041E-005  0.2598493E+03  0.7546771E-02  0.1107234E+00
         21   -1    0    0  502  501  0.00000000000E+00  0.00000000000E+00  0.88270782070E+03  0.88270782070E+03  0.00000000000E+00 0.  1.
         21   -1    0    0  501  502 -0.00000000000E+00 -0.00000000000E+00 -0.76493780378E+02  0.76493780378E+02  0.00000000000E+00 0.  1.
         25    1    1    2    0    0  0.28736315472E+02 -0.15258093436E+03  0.26921072161E+03  0.33497183462E+03  0.12500000000E+03 0.  0.
         25    1    1    2    0    0 -0.17730997868E+02  0.16922451242E+02  0.16124268883E+03  0.20548713425E+03  0.12500000000E+03 0.  0.
         25    1    1    2    0    0 -0.11005317604E+02  0.13565848312E+03  0.37576062989E+03  0.41874263222E+03  0.12500000000E+03 0.  0.
</event>
<event>
 5    0  0.5634041E-005  0.4182841E+03  0.7546771E-02  0.1037626E+00
         21   -1    0    0  502  501  0.00000000000E+00  0.00000000000E+00  0.16882435694E+03  0.16882435694E+03  0.00000000000E+00 0. -1.
         21   -1    0    0  501  502 -0.00000000000E+00 -0.00000000000E+00 -0.10363527971E+04  0.10363527971E+04  0.00000000000E+00 0. -1.
         25    1    1    2    0    0  0.56669506226E+02  0.93211048348E+02 -0.65944311137E+02  0.17853118675E+03  0.12500000000E+03 0.  0.
         25    1    1    2    0    0 -0.22046133955E+03 -0.98684571611E+01 -0.75911945624E+03  0.80036737660E+03  0.12500000000E+03 0.  0.
         25    1    1    2    0    0  0.16379183332E+03 -0.83342591187E+02 -0.42464672769E+02  0.22627859068E+03  0.12500000000E+03 0.  0.
</event>
<event>
 5    0  0.5634041E-005  0.3798808E+03  0.7546771E-02  0.1050978E+00
         21   -1    0    0  502  501  0.00000000000E+00  0.00000000000E+00  0.18664106630E+03  0.18664106630E+03  0.00000000000E+00 0. -1.
         21   -1    0    0  501  502 -0.00000000000E+00 -0.00000000000E+00 -0.77319217232E+03  0.77319217232E+03  0.00000000000E+00 0. -1.
         25    1    1    2    0    0 -0.70854734136E+02  0.13159829287E+03 -0.27515289492E+03  0.33715370325E+03  0.12500000000E+03 0.  0.
         25    1    1    2    0    0  0.15163786298E+03  0.13181359690E+03 -0.14051980172E+03  0.27520843100E+03  0.12500000000E+03 0.  0.
         25    1    1    2    0    0 -0.80783128841E+02 -0.26341188977E+03 -0.17087840939E+03  0.34747110437E+03  0.12500000000E+03 0.  0.
</event>
<event>
 5    0  0.5634041E-005  0.2338747E+03  0.7546771E-02  0.1123942E+00
         21   -1    0    0  502  501  0.00000000000E+00  0.00000000000E+00  0.30582723221E+03  0.30582723221E+03  0.00000000000E+00 0. -1.
         21   -1    0    0  501  502 -0.00000000000E+00 -0.00000000000E+00 -0.17885054200E+03  0.17885054200E+03  0.00000000000E+00 0. -1.
         25    1    1    2    0    0 -0.47248120443E+02 -0.71494975175E+00  0.15320522737E+03  0.20329716607E+03  0.12500000000E+03 0.  0.
         25    1    1    2    0    0 -0.13441054272E+02 -0.34080072205E+02  0.17926234252E+02  0.13148560049E+03  0.12500000000E+03 0.  0.
         25    1    1    2    0    0  0.60689174715E+02  0.34795021956E+02 -0.44154771419E+02  0.14989500765E+03  0.12500000000E+03 0.  0.
</event>
<event>
 5    0  0.5634041E-005  0.3130104E+03  0.7546771E-02  0.1078912E+00
         21   -1    0    0  502  501  0.00000000000E+00  0.00000000000E+00  0.17228223525E+03  0.17228223525E+03  0.00000000000E+00 0. -1.
         21   -1    0    0  501  502 -0.00000000000E+00 -0.00000000000E+00 -0.56869201187E+03  0.56869201187E+03  0.00000000000E+00 0. -1.
         25    1    1    2    0    0 -0.19857082465E+01  0.13120029999E+03 -0.26098049214E+02  0.18309442899E+03  0.12500000000E+03 0.  0.
         25    1    1    2    0    0 -0.50254608539E+02 -0.29262866309E+02  0.13266611560E+02  0.13850214441E+03  0.12500000000E+03 0.  0.
         25    1    1    2    0    0  0.52240316785E+02 -0.10193743368E+03 -0.38357833897E+03  0.41937767372E+03  0.12500000000E+03 0.  0.
</event>
<event>
 5    0  0.5634041E-005  0.3549241E+03  0.7546771E-02  0.1060612E+00
         21   -1    0    0  502  501  0.00000000000E+00  0.00000000000E+00  0.10145741355E+04  0.10145741355E+04  0.00000000000E+00 0. -1.
         21   -1    0    0  501  502 -0.00000000000E+00 -0.00000000000E+00 -0.12416156153E+03  0.12416156153E+03  0.00000000000E+00 0. -1.
         25    1    1    2    0    0 -0.15496759236E+03 -0.11654771854E+03  0.69405775343E+03  0.73139557729E+03  0.12500000000E+03 0.  0.
         25    1    1    2    0    0  0.35426251022E+02  0.63482894773E+02  0.17212984796E+03  0.22480832224E+03  0.12500000000E+03 0.  0.
         25    1    1    2    0    0  0.11954134134E+03  0.53064823771E+02  0.24224972601E+02  0.18253179753E+03  0.12500000000E+03 0.  0.
</event>
<event>
 5    0  0.5634041E-005  0.2721546E+03  0.7546771E-02  0.1100053E+00
         21   -1    0    0  502  501  0.00000000000E+00  0.00000000000E+00  0.28307991225E+03  0.28307991225E+03  0.00000000000E+00 0. -1.
         21   -1    0    0  501  502 -0.00000000000E+00 -0.00000000000E+00 -0.26165101571E+03  0.26165101571E+03  0.00000000000E+00 0. -1.
         25    1    1    2    0    0  0.17850618724E+02 -0.10819627196E+03 -0.10531634649E+03  0.19682888684E+03  0.12500000000E+03 0.  0.
         25    1    1    2    0    0  0.20983978393E+02  0.15576014844E+02  0.13692149371E+03  0.18723096706E+03  0.12500000000E+03 0.  0.
         25    1    1    2    0    0 -0.38834597117E+02  0.92620257119E+02 -0.10176250684E+02  0.16067107406E+03  0.12500000000E+03 0.  0.
</event>
<event>
 5    0  0.5634041E-005  0.3516259E+03  0.7546771E-02  0.1061950E+00
         21   -1    0    0  502  501  0.00000000000E+00  0.00000000000E+00  0.40083335423E+03  0.40083335423E+03  0.00000000000E+00 0. -1.
         21   -1    0    0  501  502 -0.00000000000E+00 -0.00000000000E+00 -0.30845931327E+03  0.30845931327E+03  0.00000000000E+00 0. -1.
         25    1    1    2    0    0  0.28449711380E+03 -0.35172838741E+02  0.94644426608E+02  0.32673889244E+03  0.12500000000E+03 0.  0.
         25    1    1    2    0    0 -0.17017445200E+03  0.27892396683E+02  0.19660489150E+00  0.21298443267E+03  0.12500000000E+03 0.  0.
         25    1    1    2    0    0 -0.11432266180E+03  0.72804420576E+01 -0.24669905344E+01  0.16956934240E+03  0.12500000000E+03 0.  0.
</event>
<event>
 5    0  0.5634041E-005  0.6558592E+03  0.7546771E-02  0.9795847E-01
         21   -1    0    0  502  501  0.00000000000E+00  0.00000000000E+00  0.16643286814E+03  0.16643286814E+03  0.00000000000E+00 0.  1.
         21   -1    0    0  501  502 -0.00000000000E+00 -0.00000000000E+00 -0.25845332289E+04  0.25845332289E+04  0.00000000000E+00 0.  1.
         25    1    1    2    0    0  0.34234095838E+02  0.12715514489E+03  0.84027956160E+02  0.20006524337E+03  0.12500000000E+03 0.  0.
         25    1    1    2    0    0 -0.15901345032E+03  0.32484796730E+02 -0.17510745365E+04  0.17630166113E+04  0.12500000000E+03 0.  0.
         25    1    1    2    0    0  0.12477935448E+03 -0.15963994162E+03 -0.75105378047E+03  0.78788424240E+03  0.12500000000E+03 0.  0.
</event>
<event>
 5    0  0.5634041E-005  0.5202177E+03  0.7546771E-02  0.1008632E+00
         21   -1    0    0  502  501  0.00000000000E+00  0.00000000000E+00  0.87828566238E+02  0.87828566238E+02  0.00000000000E+00 0. -1.
         21   -1    0    0  501  502 -0.00000000000E+00 -0.00000000000E+00 -0.30813031418E+04  0.30813031418E+04  0.00000000000E+00 0. -1.
         25    1    1    2    0    0 -0.12657668027E+03 -0.19006715197E+03 -0.95832124950E+03  0.99305175872E+03  0.12500000000E+03 0.  0.
         25    1    1    2    0    0  0.25394187707E+02 -0.20926919691E+03 -0.29527549014E+03  0.38373307991E+03  0.12500000000E+03 0.  0.
         25    1    1    2    0    0  0.10118249257E+03  0.39933634887E+03 -0.17398778359E+04  0.17923468694E+04  0.12500000000E+03 0.  0.
</event>
<event>
 5    0  0.5634041E-005  0.5380837E+03  0.7546771E-02  0.1004290E+00
         21   -1    0    0  502  501  0.00000000000E+00  0.00000000000E+00  0.32455034349E+03  0.32455034349E+03  0.00000000000E+00 0.  1.
         21   -1    0    0  501  502 -0.00000000000E+00 -0.00000000000E+00 -0.89210820502E+03  0.89210820502E+03  0.00000000000E+00 0.  1.
         25    1    1    2    0    0  0.47939409394E+02  0.36009668439E+00  0.13991907653E+03  0.19365088335E+03  0.12500000000E+03 0.  0.
         25    1    1    2    0    0 -0.27680633576E+02  0.22020902889E+03  0.16896619384E+02  0.25528166724E+03  0.12500000000E+03 0.  0.
         25    1    1    2    0    0 -0.20258775818E+02 -0.22056912557E+03 -0.72437355745E+03  0.76772599792E+03  0.12500000000E+03 0.  0.
</event>
<event>
 5    0  0.5634041E-005  0.3181415E+03  0.7546771E-02  0.1076508E+00
         21   -1    0    0  502  501  0.00000000000E+00  0.00000000000E+00  0.53390054651E+03  0.53390054651E+03  0.00000000000E+00 0. -1.
         21   -1    0    0  501  502 -0.00000000000E+00 -0.00000000000E+00 -0.18957466787E+03  0.18957466787E+03  0.00000000000E+00 0. -1.
         25    1    1    2    0    0  0.25405294935E+02  0.63474502572E+02 -0.10332824110E+03  0.17600047414E+03  0.12500000000E+03 0.  0.
         25    1    1    2    0    0 -0.27277256151E+02 -0.10646477269E+03  0.15990405512E+03  0.23080966915E+03  0.12500000000E+03 0.  0.
         25    1    1    2    0    0  0.18719612157E+01  0.42990270120E+02  0.28775006462E+03  0.31666507110E+03  0.12500000000E+03 0.  0.
</event>
<event>
 5    0  0.5634041E-005  0.2114153E+03  0.7546771E-02  0.1140450E+00
         21   -1    0    0  502  501  0.00000000000E+00  0.00000000000E+00  0.40816863048E+03  0.40816863048E+03  0.00000000000E+00 0.  1.
         21   -1    0    0  501  502 -0.00000000000E+00 -0.00000000000E+00 -0.10950483283E+03  0.10950483283E+03  0.00000000000E+00 0.  1.
         25    1    1    2    0    0  0.10097538153E+02  0.55005474910E+02  0.11276908192E+03  0.17739624681E+03  0.12500000000E+03 0.  0.
         25    1    1    2    0    0  0.36449128506E+01  0.30373603907E+02  0.11488874127E+03  0.17251163461E+03  0.12500000000E+03 0.  0.
         25    1    1    2    0    0 -0.13742451003E+02 -0.85379078817E+02  0.71005974457E+02  0.16776558189E+03  0.12500000000E+03 0.  0.
</event>
<event>
 5    0  0.5634041E-005  0.5375377E+03  0.7546771E-02  0.1004420E+00
         21   -1    0    0  502  501  0.00000000000E+00  0.00000000000E+00  0.12773239359E+03  0.12773239359E+03  0.00000000000E+00 0.  1.
         21   -1    0    0  501  502 -0.00000000000E+00 -0.00000000000E+00 -0.22621258688E+04  0.22621258688E+04  0.00000000000E+00 0.  1.
         25    1    1    2    0    0  0.27330761622E+03 -0.36353625792E+03 -0.59590951708E+03  0.75999264237E+03  0.12500000000E+03 0.  0.
         25    1    1    2    0    0 -0.19607644897E+03  0.29339368563E+03 -0.10279962799E+04  0.10940416720E+04  0.12500000000E+03 0.  0.
         25    1    1    2    0    0 -0.77231167248E+02  0.70142572292E+02 -0.51048767824E+03  0.53582394803E+03  0.12500000000E+03 0.  0.
</event>
<event>
 5    0  0.5634041E-005  0.2417532E+03  0.7546771E-02  0.1118630E+00
         21   -1    0    0  502  501  0.00000000000E+00  0.00000000000E+00  0.61916253378E+02  0.61916253378E+02  0.00000000000E+00 0.  1.
         21   -1    0    0  501  502 -0.00000000000E+00 -0.00000000000E+00 -0.94393028059E+03  0.94393028059E+03  0.00000000000E+00 0.  1.
         25    1    1    2    0    0 -0.18532349427E+02  0.12111480587E+03 -0.23654319778E+03  0.29426166688E+03  0.12500000000E+03 0.  0.
         25    1    1    2    0    0  0.18136376985E+02 -0.84527996710E+02 -0.46367333239E+03  0.48794658475E+03  0.12500000000E+03 0.  0.
         25    1    1    2    0    0  0.39597244128E+00 -0.36586809160E+02 -0.18179749703E+03  0.22363828234E+03  0.12500000000E+03 0.  0.
</event>
<event>
 5    0  0.5634041E-005  0.2426111E+03  0.7546771E-02  0.1118066E+00
         21   -1    0    0  502  501  0.00000000000E+00  0.00000000000E+00  0.64655493366E+02  0.64655493366E+02  0.00000000000E+00 0.  1.
         21   -1    0    0  501  502 -0.00000000000E+00 -0.00000000000E+00 -0.91036573550E+03  0.91036573550E+03  0.00000000000E+00 0.  1.
         25    1    1    2    0    0  0.11777825045E+03  0.39600061908E+02 -0.21640523234E+03  0.27909873838E+03  0.12500000000E+03 0.  0.
         25    1    1    2    0    0 -0.32834501827E+02  0.91072164446E+01 -0.20106844961E+03  0.23919566746E+03  0.12500000000E+03 0.  0.
         25    1    1    2    0    0 -0.84943748624E+02 -0.48707278353E+02 -0.42823656018E+03  0.45672682303E+03  0.12500000000E+03 0.  0.
</event>
<event>
 5    0  0.5634041E-005  0.4983891E+03  0.7546771E-02  0.1014200E+00
         21   -1    0    0  502  501  0.00000000000E+00  0.00000000000E+00  0.19361706475E+04  0.19361706475E+04  0.00000000000E+00 0. -1.
         21   -1    0    0  501  502 -0.00000000000E+00 -0.00000000000E+00 -0.12829019382E+03  0.12829019382E+03  0.00000000000E+00 0. -1.
         25    1    1    2    0    0 -0.12586686869E+03  0.13262558957E+03  0.15646791280E+03  0.27118116339E+03  0.12500000000E+03 0.  0.
         25    1    1    2    0    0  0.32857654964E+03 -0.22044694487E+01  0.13138194397E+04  0.13600418849E+04  0.12500000000E+03 0.  0.
         25    1    1    2    0    0 -0.20270968095E+03 -0.13042112012E+03  0.33759310124E+03  0.43323779305E+03  0.12500000000E+03 0.  0.
</event>
<event>
 5    0  0.5634041E-005  0.5653041E+03  0.7546771E-02  0.9980124E-01
         21   -1    0    0  502  501  0.00000000000E+00  0.00000000000E+00  0.76412961132E+03  0.76412961132E+03  0.00000000000E+00 0. -1.
         21   -1    0    0  501  502 -0.00000000000E+00 -0.00000000000E+00 -0.41821277669E+03  0.41821277669E+03  0.00000000000E+00 0. -1.
         25    1    1    2    0    0 -0.67649253779E+02  0.37664061628E+03  0.40747793246E+03  0.57279825490E+03  0.12500000000E+03 0.  0.
         25    1    1    2    0    0 -0.52583260624E+02 -0.34632446370E+03 -0.16329608812E+03  0.40619729916E+03  0.12500000000E+03 0.  0.
         25    1    1    2    0    0  0.12023251440E+03 -0.30316152588E+02  0.10173499029E+03  0.20334683395E+03  0.12500000000E+03 0.  0.
</event>
<event>
 5    0  0.5634041E-005  0.2840822E+03  0.7546771E-02  0.1093480E+00
         21   -1    0    0  502  501  0.00000000000E+00  0.00000000000E+00  0.97255020123E+03  0.97255020123E+03  0.00000000000E+00 0.  1.
         21   -1    0    0  501  502 -0.00000000000E+00 -0.00000000000E+00 -0.82980465143E+02  0.82980465143E+02  0.00000000000E+00 0.  1.
         25    1    1    2    0    0  0.30571274706E+01  0.76765432675E+02  0.15404124426E+03  0.21273453555E+03  0.12500000000E+03 0.  0.
         25    1    1    2    0    0  0.84233300010E+02 -0.13190794435E+03  0.59646563215E+03  0.62919885962E+03  0.12500000000E+03 0.  0.
         25    1    1    2    0    0 -0.87290427481E+02  0.55142511676E+02  0.13906285968E+03  0.21359727120E+03  0.12500000000E+03 0.  0.
</event>
<event>
 5    0  0.5634041E-005  0.3868246E+03  0.7546771E-02  0.1048440E+00
         21   -1    0    0  502  501  0.00000000000E+00  0.00000000000E+00  0.83561376679E+02  0.83561376679E+02  0.00000000000E+00 0.  1.
         21   -1    0    0  501  502 -0.00000000000E+00 -0.00000000000E+00 -0.17906991349E+04  0.17906991349E+04  0.00000000000E+00 0.  1.
         25    1    1    2    0    0 -0.27772100842E+03 -0.21424586214E+02 -0.53665323050E+03  0.61742178550E+03  0.12500000000E+03 0.  0.
         25    1    1    2    0    0  0.13159115907E+03 -0.53156451587E+02 -0.88295616080E+03  0.90298306927E+03  0.12500000000E+03 0.  0.
         25    1    1    2    0    0  0.14612984935E+03  0.74581037802E+02 -0.28752836696E+03  0.35385565684E+03  0.12500000000E+03 0.  0.
</event>
<event>
 5    0  0.5634041E-005  0.3343748E+03  0.7546771E-02  0.1069217E+00
         21   -1    0    0  502  501  0.00000000000E+00  0.00000000000E+00  0.15463898700E+04  0.15463898700E+04  0.00000000000E+00 0. -1.
         21   -1    0    0  501  502 -0.00000000000E+00 -0.00000000000E+00 -0.72301610367E+02  0.72301610367E+02  0.00000000000E+00 0. -1.
         25    1    1    2    0    0 -0.69153063202E+02 -0.81729209693E+02  0.18797708982E+03  0.24984434387E+03  0.12500000000E+03 0.  0.
         25    1    1    2    0    0 -0.13776122872E+03  0.42045417480E+02  0.82439170114E+03  0.84616348904E+03  0.12500000000E+03 0.  0.
         25    1    1    2    0    0  0.20691429192E+03  0.39683792212E+02  0.46171946864E+03  0.52268364743E+03  0.12500000000E+03 0.  0.
</event>
<event>
 5    0  0.5634041E-005  0.2857198E+03  0.7546771E-02  0.1092605E+00
         21   -1    0    0  502  501  0.00000000000E+00  0.00000000000E+00  0.10063725767E+03  0.10063725767E+03  0.00000000000E+00 0. -1.
         21   -1    0    0  501  502 -0.00000000000E+00 -0.00000000000E+00 -0.81118887011E+03  0.81118887011E+03  0.00000000000E+00 0. -1.
         25    1    1    2    0    0  0.68725122533E+02  0.61576415136E+02 -0.35690853617E+03  0.38926019648E+03  0.12500000000E+03 0.  0.
         25    1    1    2    0    0 -0.47781314894E+02 -0.29558396462E+02 -0.36642846406E+03  0.39121806211E+03  0.12500000000E+03 0.  0.
         25    1    1    2    0    0 -0.20943807640E+02 -0.32018018674E+02  0.12785387787E+02  0.13134786918E+03  0.12500000000E+03 0.  0.
</event>
<event>
 5    0  0.5634041E-005  0.3756430E+03  0.7546771E-02  0.1052556E+00
         21   -1    0    0  502  501  0.00000000000E+00  0.00000000000E+00  0.96013514880E+03  0.96013514880E+03  0.00000000000E+00 0. -1.
         21   -1    0    0  501  502 -0.00000000000E+00 -0.00000000000E+00 -0.14696646993E+03  0.14696646993E+03  0.00000000000E+00 0. -1.
         25    1    1    2    0    0 -0.73052535884E+02 -0.15440949308E+03  0.15382500862E+03  0.26166027178E+03  0.12500000000E+03 0.  0.
         25    1    1    2    0    0  0.17597887787E+03 -0.20181087466E+02  0.53403593081E+03  0.57636378889E+03  0.12500000000E+03 0.  0.
         25    1    1    2    0    0 -0.10292634198E+03  0.17459058054E+03  0.12530773944E+03  0.26907755806E+03  0.12500000000E+03 0.  0.
</event>
<event>
 5    0  0.6488928E-005  0.2864652E+03  0.7546771E-02  0.1092209E+00
         21   -1    0    0  502  501  0.00000000000E+00  0.00000000000E+00  0.60825435966E+03  0.60825435966E+03  0.00000000000E+00 0. -1.
         21   -1    0    0  501  502 -0.00000000000E+00 -0.00000000000E+00 -0.13491444132E+03  0.13491444132E+03  0.00000000000E+00 0. -1.
         25    1    1    2    0    0 -0.17309738312E+02  0.12332853804E+03  0.79435443370E+02  0.19350593014E+03  0.12500000000E+03 0.  0.
         25    1    1    2    0    0 -0.33271546294E+02 -0.42712762401E+02  0.36543381937E+03  0.38999775923E+03  0.12500000000E+03 0.  0.
         25    1    1    2    0    0  0.50581284606E+02 -0.80615775637E+02  0.28470655600E+02  0.15966511161E+03  0.12500000000E+03 0.  0.
</event>
<event>
 5    0  0.5634041E-005  0.2944707E+03  0.7546771E-02  0.1088038E+00
         21   -1    0    0  502  501  0.00000000000E+00  0.00000000000E+00  0.50550701404E+03  0.50550701404E+03  0.00000000000E+00 0. -1.
         21   -1    0    0  501  502 -0.00000000000E+00 -0.00000000000E+00 -0.17153663474E+03  0.17153663474E+03  0.00000000000E+00 0. -1.
         25    1    1    2    0    0 -0.12315958967E+03 -0.96266810138E+02  0.21362730529E+03  0.29274085609E+03  0.12500000000E+03 0.  0.
         25    1    1    2    0    0  0.67758216955E+01  0.17183253020E+02  0.14740839103E+03  0.19415305738E+03  0.12500000000E+03 0.  0.
         25    1    1    2    0    0  0.11638376797E+03  0.79083557118E+02 -0.27065317019E+02  0.19014973531E+03  0.12500000000E+03 0.  0.
</event>
<event>
 5    0  0.5634041E-005  0.4563614E+03  0.7546771E-02  0.1025842E+00
         21   -1    0    0  502  501  0.00000000000E+00  0.00000000000E+00  0.47250727123E+03  0.47250727123E+03  0.00000000000E+00 0.  1.
         21   -1    0    0  501  502 -0.00000000000E+00 -0.00000000000E+00 -0.44076731652E+03  0.44076731652E+03  0.00000000000E+00 0.  1.
         25    1    1    2    0    0  0.17681346640E+02 -0.11172375475E+03  0.78332065574E+02  0.18589174240E+03  0.12500000000E+03 0.  0.
         25    1    1    2    0    0  0.94823595376E+02  0.36765313224E+03  0.57695290407E+02  0.40387384964E+03  0.12500000000E+03 0.  0.
         25    1    1    2    0    0 -0.11250494202E+03 -0.25592937749E+03 -0.10428740127E+03  0.32350899571E+03  0.12500000000E+03 0.  0.
</event>
<event>
 5    0  0.5634041E-005  0.2742488E+03  0.7546771E-02  0.1098872E+00
         21   -1    0    0  502  501  0.00000000000E+00  0.00000000000E+00  0.76961084120E+03  0.76961084120E+03  0.00000000000E+00 0.  1.
         21   -1    0    0  501  502 -0.00000000000E+00 -0.00000000000E+00 -0.97727854127E+02  0.97727854127E+02  0.00000000000E+00 0.  1.
         25    1    1    2    0    0  0.14148210123E+03 -0.21429401440E+02  0.13599338101E+03  0.23365702192E+03  0.12500000000E+03 0.  0.
         25    1    1    2    0    0 -0.12835108284E+03  0.72650804276E+02  0.24026866926E+03  0.30839288782E+03  0.12500000000E+03 0.  0.
         25    1    1    2    0    0 -0.13131018390E+02 -0.51221402835E+02  0.29562093680E+03  0.32528878559E+03  0.12500000000E+03 0.  0.
</event>
<event>
 5    0  0.5634041E-005  0.4190031E+03  0.7546771E-02  0.1037391E+00
         21   -1    0    0  502  501  0.00000000000E+00  0.00000000000E+00  0.55189003444E+03  0.55189003444E+03  0.00000000000E+00 0. -1.
         21   -1    0    0  501  502 -0.00000000000E+00 -0.00000000000E+00 -0.31811331635E+03  0.31811331635E+03  0.00000000000E+00 0. -1.
         25    1    1    2    0    0 -0.24940101529E+03  0.15204980038E+03  0.10232394844E+03  0.33378915298E+03  0.12500000000E+03 0.  0.
         25    1    1    2    0    0 -0.25937498318E+02 -0.94043206326E+01  0.15502314748E+03  0.20104320760E+03  0.12500000000E+03 0.  0.
         25    1    1    2    0    0  0.27533851361E+03 -0.14264547975E+03 -0.23570377827E+02  0.33517099021E+03  0.12500000000E+03 0.  0.
</event>
<event>
 5    0  0.5634041E-005  0.2970222E+03  0.7546771E-02  0.1086739E+00
         21   -1    0    0  502  501  0.00000000000E+00  0.00000000000E+00  0.19459719734E+03  0.19459719734E+03  0.00000000000E+00 0. -1.
         21   -1    0    0  501  502 -0.00000000000E+00 -0.00000000000E+00 -0.45335784852E+03  0.45335784852E+03  0.00000000000E+00 0. -1.
         25    1    1    2    0    0  0.70478073038E+02  0.85651607989E+02 -0.40731369558E+02  0.17200988691E+03  0.12500000000E+03 0.  0.
         25    1    1    2    0    0 -0.67901709116E+02  0.11059383370E+03 -0.44285326206E+02  0.18554737473E+03  0.12500000000E+03 0.  0.
         25    1    1    2    0    0 -0.25763639229E+01 -0.19624544169E+03 -0.17374395541E+03  0.29039778422E+03  0.12500000000E+03 0.  0.
</event>
<event>
 5    0  0.5634041E-005  0.2450251E+03  0.7546771E-02  0.1116490E+00
         21   -1    0    0  502  501  0.00000000000E+00  0.00000000000E+00  0.33616412804E+04  0.33616412804E+04  0.00000000000E+00 0.  1.
         21   -1    0    0  501  502 -0.00000000000E+00 -0.00000000000E+00 -0.17859517420E+02  0.17859517420E+02  0.00000000000E+00 0.  1.
         25    1    1    2    0    0 -0.17625266620E+02 -0.57910589783E+02  0.86351831801E+03  0.87461601401E+03  0.12500000000E+03 0.  0.
         25    1    1    2    0    0  0.10157771137E+03 -0.40758337478E+02  0.99896469054E+03  0.10126868847E+04  0.12500000000E+03 0.  0.
         25    1    1    2    0    0 -0.83952444747E+02  0.98668927261E+02  0.14812987544E+04  0.14921978991E+04  0.12500000000E+03 0.  0.
</event>
<event>
 5    0  0.5634041E-005  0.4136594E+03  0.7546771E-02  0.1039150E+00
         21   -1    0    0  502  501  0.00000000000E+00  0.00000000000E+00  0.87065867721E+03  0.87065867721E+03  0.00000000000E+00 0. -1.
         21   -1    0    0  501  502 -0.00000000000E+00 -0.00000000000E+00 -0.19653411753E+03  0.19653411753E+03  0.00000000000E+00 0. -1.
         25    1    1    2    0    0  0.22526790775E+02  0.31772200320E+03  0.17558167409E+03  0.38458893886E+03  0.12500000000E+03 0.  0.
         25    1    1    2    0    0 -0.80901663160E+02 -0.47821648680E+02  0.22694136792E+03  0.27560728157E+03  0.12500000000E+03 0.  0.
         25    1    1    2    0    0  0.58374872386E+02 -0.26990035452E+03  0.27160151767E+03  0.40699657431E+03  0.12500000000E+03 0.  0.
</event>
<event>
 5    0  0.5634041E-005  0.2498891E+03  0.7546771E-02  0.1113375E+00
         21   -1    0    0  502  501  0.00000000000E+00  0.00000000000E+00  0.41376780695E+02  0.41376780695E+02  0.00000000000E+00 0. -1.
         21   -1    0    0  501  502 -0.00000000000E+00 -0.00000000000E+00 -0.15091692495E+04  0.15091692495E+04  0.00000000000E+00 0. -1.
         25    1    1    2    0    0 -0.63836670197E+02  0.72517902708E+02 -0.67764817668E+03  0.69582039208E+03  0.12500000000E+03 0.  0.
         25    1    1    2    0    0  0.27521574511E+02 -0.11792930845E+03 -0.31378925227E+03  0.35882231493E+03  0.12500000000E+03 0.  0.
         25    1    1    2    0    0  0.36315095685E+02  0.45411405741E+02 -0.47635503983E+03  0.49590332315E+03  0.12500000000E+03 0.  0.
</event>
<event>
 5    0  0.5634041E-005  0.2180605E+03  0.7546771E-02  0.1135337E+00
         21   -1    0    0  502  501  0.00000000000E+00  0.00000000000E+00  0.10261884651E+04  0.10261884651E+04  0.00000000000E+00 0. -1.
         21   -1    0    0  501  502 -0.00000000000E+00 -0.00000000000E+00 -0.46336887393E+02  0.46336887393E+02  0.00000000000E+00 0. -1.
         25    1    1    2    0    0  0.53753251915E+02  0.25686542398E+02  0.33143557016E+03  0.35919875796E+03  0.12500000000E+03 0.  0.
         25    1    1    2    0    0 -0.61832796251E+02 -0.83152327031E-01  0.49159768320E+03  0.51099567878E+03  0.12500000000E+03 0.  0.
         25    1    1    2    0    0  0.80795443361E+01 -0.25603390071E+02  0.15681832437E+03  0.20233091577E+03  0.12500000000E+03 0.  0.
</event>
<event>
 5    0  0.5634041E-005  0.3814460E+03  0.7546771E-02  0.1050401E+00
         21   -1    0    0  502  501  0.00000000000E+00  0.00000000000E+00  0.10054592501E+03  0.10054592501E+03  0.00000000000E+00 0.  1.
         21   -1    0    0  501  502 -0.00000000000E+00 -0.00000000000E+00 -0.14471105363E+04  0.14471105363E+04  0.00000000000E+00 0.  1.
         25    1    1    2    0    0 -0.74858000093E+02 -0.15882698479E+02 -0.52021409478E+02  0.15552236924E+03  0.12500000000E+03 0.  0.
         25    1    1    2    0    0  0.14493910159E+03  0.12543637951E+03 -0.11127411638E+04  0.11360279601E+04  0.12500000000E+03 0.  0.
         25    1    1    2    0    0 -0.70081101495E+02 -0.10955368103E+03 -0.18180203795E+03  0.25610613194E+03  0.12500000000E+03 0.  0.
</event>
<event>
 5    0  0.5634041E-005  0.3758030E+03  0.7546771E-02  0.1052496E+00
         21   -1    0    0  502  501  0.00000000000E+00  0.00000000000E+00  0.46912446186E+03  0.46912446186E+03  0.00000000000E+00 0. -1.
         21   -1    0    0  501  502 -0.00000000000E+00 -0.00000000000E+00 -0.30104564162E+03  0.30104564162E+03  0.00000000000E+00 0. -1.
         25    1    1    2    0    0 -0.13924882254E+03  0.43815831269E+02 -0.20224805196E+01  0.19219560889E+03  0.12500000000E+03 0.  0.
         25    1    1    2    0    0  0.21588031290E+03  0.12141895371E+03 -0.31097495927E+02  0.27917543959E+03  0.12500000000E+03 0.  0.
         25    1    1    2    0    0 -0.76631490366E+02 -0.16523478497E+03  0.20119879669E+03  0.29879905500E+03  0.12500000000E+03 0.  0.
</event>
<event>
 5    0  0.5634041E-005  0.4200727E+03  0.7546771E-02  0.1037043E+00
         21   -1    0    0  502  501  0.00000000000E+00  0.00000000000E+00  0.11529560785E+04  0.11529560785E+04  0.00000000000E+00 0. -1.
         21   -1    0    0  501  502 -0.00000000000E+00 -0.00000000000E+00 -0.15305099882E+03  0.15305099882E+03  0.00000000000E+00 0. -1.
         25    1    1    2    0    0 -0.17692687348E+03 -0.90125730136E+02  0.65848793350E+03  0.69904014503E+03  0.12500000000E+03 0.  0.
         25    1    1    2    0    0  0.25563869781E+03 -0.21135090848E+02  0.30650392355E+03  0.41876901872E+03  0.12500000000E+03 0.  0.
         25    1    1    2    0    0 -0.78711824330E+02  0.11126082098E+03  0.34913222669E+02  0.18819791362E+03  0.12500000000E+03 0.  0.
</event>
<event>
 5    0  0.5634041E-005  0.2400061E+03  0.7546771E-02  0.1119789E+00
         21   -1    0    0  502  501  0.00000000000E+00  0.00000000000E+00  0.10541762470E+04  0.10541762470E+04  0.00000000000E+00 0. -1.
         21   -1    0    0  501  502 -0.00000000000E+00 -0.00000000000E+00 -0.54642601881E+02  0.54642601881E+02  0.00000000000E+00 0. -1.
         25    1    1    2    0    0 -0.36703223075E+01 -0.29241508777E+02  0.52496332751E+03  0.54044429161E+03  0.12500000000E+03 0.  0.
         25    1    1    2    0    0  0.89601013465E+02 -0.14867922082E+02  0.22226235286E+03  0.27069346173E+03  0.12500000000E+03 0.  0.
         25    1    1    2    0    0 -0.85930691157E+02  0.44109430859E+02  0.25230796476E+03  0.29768109557E+03  0.12500000000E+03 0.  0.
</event>
<event>
 5    0  0.5914465E-005  0.3114777E+03  0.7546771E-02  0.1079640E+00
         21   -1    0    0  502  501  0.00000000000E+00  0.00000000000E+00  0.19893892654E+03  0.19893892654E+03  0.00000000000E+00 0. -1.
         21   -1    0    0  501  502 -0.00000000000E+00 -0.00000000000E+00 -0.48767905988E+03  0.48767905988E+03  0.00000000000E+00 0. -1.
         25    1    1    2    0    0 -0.14584102141E+03 -0.40667385454E+02 -0.19449749451E+03  0.27636518437E+03  0.12500000000E+03 0.  0.
         25    1    1    2    0    0  0.12141528910E+03 -0.25754695015E+02 -0.17260716745E+03  0.24662362214E+03  0.12500000000E+03 0.  0.
         25    1    1    2    0    0  0.24425732310E+02  0.66422080469E+02  0.78364528611E+02  0.16362917991E+03  0.12500000000E+03 0.  0.
</event>
<event>
 5    0  0.5634041E-005  0.4458175E+03  0.7546771E-02  0.1028977E+00
         21   -1    0    0  502  501  0.00000000000E+00  0.00000000000E+00  0.94068265504E+03  0.94068265504E+03  0.00000000000E+00 0. -1.
         21   -1    0    0  501  502 -0.00000000000E+00 -0.00000000000E+00 -0.21128619823E+03  0.21128619823E+03  0.00000000000E+00 0. -1.
         25    1    1    2    0    0  0.15689848003E+03 -0.26846600772E+03  0.26078729262E+03  0.42464825718E+03  0.12500000000E+03 0.  0.
         25    1    1    2    0    0 -0.10319007431E+03 -0.76718453803E+02  0.10489906222E+03  0.20775640987E+03  0.12500000000E+03 0.  0.
         25    1    1    2    0    0 -0.53708405722E+02  0.34518446152E+03  0.36371010197E+03  0.51956418622E+03  0.12500000000E+03 0.  0.
</event>
<event>
 5    0  0.5634041E-005  0.2452253E+03  0.7546771E-02  0.1116360E+00
         21   -1    0    0  502  501  0.00000000000E+00  0.00000000000E+00  0.51786393387E+03  0.51786393387E+03  0.00000000000E+00 0. -1.
         21   -1    0    0  501  502 -0.00000000000E+00 -0.00000000000E+00 -0.11612209999E+03  0.11612209999E+03  0.00000000000E+00 0. -1.
         25    1    1    2    0    0  0.59150404842E+02 -0.12231347014E+03  0.20486027093E+03  0.27577542671E+03  0.12500000000E+03 0.  0.
         25    1    1    2    0    0 -0.84199519733E+01  0.10004375398E+03  0.12775026915E+03  0.20499946236E+03  0.12500000000E+03 0.  0.
         25    1    1    2    0    0 -0.50730452869E+02  0.22269716157E+02  0.69131293804E+02  0.15321114479E+03  0.12500000000E+03 0.  0.
</event>
<event>
 5    0  0.6506095E-005  0.4359796E+03  0.7546771E-02  0.1031988E+00
         21   -1    0    0  502  501  0.00000000000E+00  0.00000000000E+00  0.37323904783E+03  0.37323904783E+03  0.00000000000E+00 0. -1.
         21   -1    0    0  501  502 -0.00000000000E+00 -0.00000000000E+00 -0.50926679199E+03  0.50926679199E+03  0.00000000000E+00 0. -1.
         25    1    1    2    0    0 -0.21547392975E+03 -0.49314240751E+00 -0.14879712926E+03  0.29016347680E+03  0.12500000000E+03 0.  0.
         25    1    1    2    0    0  0.17230140405E+03 -0.10202521176E+03 -0.20848384340E+03  0.31494036044E+03  0.12500000000E+03 0.  0.
         25    1    1    2    0    0  0.43172525704E+02  0.10251835416E+03  0.22125322850E+03  0.27740200258E+03  0.12500000000E+03 0.  0.
</event>
<event>
 5    0  0.5634041E-005  0.3963706E+03  0.7546771E-02  0.1045044E+00
         21   -1    0    0  502  501  0.00000000000E+00  0.00000000000E+00  0.11665779482E+03  0.11665779482E+03  0.00000000000E+00 0.  1.
         21   -1    0    0  501  502 -0.00000000000E+00 -0.00000000000E+00 -0.13467564519E+04  0.13467564519E+04  0.00000000000E+00 0.  1.
         25    1    1    2    0    0  0.32569542594E+02 -0.19476661258E+03 -0.64431399956E+02  0.24242774961E+03  0.12500000000E+03 0.  0.
         25    1    1    2    0    0 -0.42866726298E+01 -0.39310034956E+01 -0.46257523945E+03  0.47920212907E+03  0.12500000000E+03 0.  0.
         25    1    1    2    0    0 -0.28282869964E+02  0.19869761607E+03 -0.70309201769E+03  0.74178436807E+03  0.12500000000E+03 0.  0.
</event>
<event>
 5    0  0.5634041E-005  0.4980700E+03  0.7546771E-02  0.1014284E+00
         21   -1    0    0  502  501  0.00000000000E+00  0.00000000000E+00  0.90676283162E+03  0.90676283162E+03  0.00000000000E+00 0.  1.
         21   -1    0    0  501  502 -0.00000000000E+00 -0.00000000000E+00 -0.27358169468E+03  0.27358169468E+03  0.00000000000E+00 0.  1.
         25    1    1    2    0    0  0.10928029227E+03  0.14792186893E+03 -0.13176715183E+03  0.25847755006E+03  0.12500000000E+03 0.  0.
         25    1    1    2    0    0  0.13271896281E+03  0.33092114654E+02  0.31798997202E+03  0.36803808695E+03  0.12500000000E+03 0.  0.
         25    1    1    2    0    0 -0.24199925508E+03 -0.18101398358E+03  0.44695831674E+03  0.55382888929E+03  0.12500000000E+03 0.  0.
</event>
<event>
 5    0  0.5634041E-005  0.3780292E+03  0.7546771E-02  0.1051665E+00
         21   -1    0    0  502  501  0.00000000000E+00  0.00000000000E+00  0.85712843968E+02  0.85712843968E+02  0.00000000000E+00 0.  1.
         21   -1    0    0  501  502 -0.00000000000E+00 -0.00000000000E+00 -0.16672653807E+04  0.16672653807E+04  0.00000000000E+00 0.  1.
         25    1    1    2    0    0 -0.14222091871E+03 -0.50873726833E+02 -0.60609670826E+03  0.63701895228E+03  0.12500000000E+03 0.  0.
         25    1    1    2    0    0 -0.21779220696E+02 -0.86913206089E+02 -0.79375119077E+03  0.80851356989E+03  0.12500000000E+03 0.  0.
         25    1    1    2    0    0  0.16400013941E+03  0.13778693292E+03 -0.18170463766E+03  0.30744570245E+03  0.12500000000E+03 0.  0.
</event>
<event>
 5    0  0.5634041E-005  0.3352232E+03  0.7546771E-02  0.1068849E+00
         21   -1    0    0  502  501  0.00000000000E+00  0.00000000000E+00  0.58566825228E+03  0.58566825228E+03  0.00000000000E+00 0. -1.
         21   -1    0    0  501  502 -0.00000000000E+00 -0.00000000000E+00 -0.19187417741E+03  0.19187417741E+03  0.00000000000E+00 0. -1.
         25    1    1    2    0    0 -0.23128749000E+03  0.55308895931E+02  0.13773745771E+03  0.30190989427E+03  0.12500000000E+03 0.  0.
         25    1    1    2    0    0  0.18833089468E+03  0.13208358159E+02  0.69292048268E+02  0.23678972648E+03  0.12500000000E+03 0.  0.
         25    1    1    2    0    0  0.42956595324E+02 -0.68517254091E+02  0.18676456890E+03  0.23884280895E+03  0.12500000000E+03 0.  0.
</event>
<event>
 5    0  0.5634041E-005  0.2670094E+03  0.7546771E-02  0.1103004E+00
         21   -1    0    0  502  501  0.00000000000E+00  0.00000000000E+00  0.44479763538E+03  0.44479763538E+03  0.00000000000E+00 0. -1.
         21   -1    0    0  501  502 -0.00000000000E+00 -0.00000000000E+00 -0.16028412657E+03  0.16028412657E+03  0.00000000000E+00 0. -1.
         25    1    1    2    0    0  0.93994838703E+01  0.78194434640E+02  0.10013203667E+02  0.14808100538E+03  0.12500000000E+03 0.  0.
         25    1    1    2    0    0 -0.56512505367E+02 -0.11468496787E+03  0.37782300931E+02  0.18275340594E+03  0.12500000000E+03 0.  0.
         25    1    1    2    0    0  0.47113021497E+02  0.36490533232E+02  0.23671800421E+03  0.27424735063E+03  0.12500000000E+03 0.  0.
</event>
<event>
 5    0  0.5634041E-005  0.2733304E+03  0.7546771E-02  0.1099389E+00
         21   -1    0    0  502  501  0.00000000000E+00  0.00000000000E+00  0.18232506786E+03  0.18232506786E+03  0.00000000000E+00 0.  1.
         21   -1    0    0  501  502 -0.00000000000E+00 -0.00000000000E+00 -0.40975995956E+03  0.40975995956E+03  0.00000000000E+00 0.  1.
         25    1    1    2    0    0 -0.23084220795E+02 -0.89447151084E+02 -0.18029112811E+03  0.23804109931E+03  0.12500000000E+03 0.  0.
         25    1    1    2    0    0 -0.84104715889E+02  0.26350919122E+02  0.38921950953E+02  0.15782234455E+03  0.12500000000E+03 0.  0.
         25    1    1    2    0    0  0.10718893668E+03  0.63096231962E+02 -0.86065714543E+02  0.19622158356E+03  0.12500000000E+03 0.  0.
</event>
<event>
 5    0  0.5634041E-005  0.2822272E+03  0.7546771E-02  0.1094479E+00
         21   -1    0    0  502  501  0.00000000000E+00  0.00000000000E+00  0.53757161505E+03  0.53757161505E+03  0.00000000000E+00 0. -1.
         21   -1    0    0  501  502 -0.00000000000E+00 -0.00000000000E+00 -0.14817036136E+03  0.14817036136E+03  0.00000000000E+00 0. -1.
         25    1    1    2    0    0  0.11725213612E+03  0.63627205327E+02  0.18408195838E+03  0.25943718331E+03  0.12500000000E+03 0.  0.
         25    1    1    2    0    0 -0.34255735871E+02 -0.28546162142E+02 -0.38222043176E+02  0.13810960646E+03  0.12500000000E+03 0.  0.
         25    1    1    2    0    0 -0.82996400254E+02 -0.35081043184E+02  0.24354133849E+03  0.28819518664E+03  0.12500000000E+03 0.  0.
</event>
<event>
 5    0  0.5634041E-005  0.3826665E+03  0.7546771E-02  0.1049953E+00
         21   -1    0    0  502  501  0.00000000000E+00  0.00000000000E+00  0.40278400362E+03  0.40278400362E+03  0.00000000000E+00 0.  1.
         21   -1    0    0  501  502 -0.00000000000E+00 -0.00000000000E+00 -0.36355372079E+03  0.36355372079E+03  0.00000000000E+00 0.  1.
         25    1    1    2    0    0 -0.14021458398E+03  0.12628452013E+03 -0.51574501264E+02  0.23214831200E+03  0.12500000000E+03 0.  0.
         25    1    1    2    0    0 -0.10292743241E+03  0.39695767369E+02  0.13074883216E+03  0.21187276229E+03  0.12500000000E+03 0.  0.
         25    1    1    2    0    0  0.24314201638E+03 -0.16598028750E+03 -0.39944048055E+02  0.32231665012E+03  0.12500000000E+03 0.  0.
</event>
<event>
 5    0  0.5634041E-005  0.2664521E+03  0.7546771E-02  0.1103328E+00
         21   -1    0    0  502  501  0.00000000000E+00  0.00000000000E+00  0.10036396918E+04  0.10036396918E+04  0.00000000000E+00 0. -1.
         21   -1    0    0  501  502 -0.00000000000E+00 -0.00000000000E+00 -0.70739238367E+02  0.70739238367E+02  0.00000000000E+00 0. -1.
         25    1    1    2    0    0  0.13115974849E+02 -0.88386855198E+01  0.18106677404E+03  0.22059086069E+03  0.12500000000E+03 0.  0.
         25    1    1    2    0    0 -0.11988909906E+03  0.57617549655E+02  0.59151961002E+03  0.61904250834E+03  0.12500000000E+03 0.  0.
         25    1    1    2    0    0  0.10677312421E+03 -0.48778864135E+02  0.16031406943E+03  0.23474556119E+03  0.12500000000E+03 0.  0.
</event>
<event>
 5    0  0.5634041E-005  0.1990612E+03  0.7546771E-02  0.1150534E+00
         21   -1    0    0  502  501  0.00000000000E+00  0.00000000000E+00  0.21289654878E+02  0.21289654878E+02  0.00000000000E+00 0. -1.
         21   -1    0    0  501  502 -0.00000000000E+00 -0.00000000000E+00 -0.18612493746E+04  0.18612493746E+04  0.00000000000E+00 0. -1.
         25    1    1    2    0    0 -0.38189142630E+02  0.17473260564E+02 -0.51438302027E+03  0.53101658825E+03  0.12500000000E+03 0.  0.
         25    1    1    2    0    0 -0.16235615154E+02  0.39707075271E+00 -0.63485424816E+03  0.64724699248E+03  0.12500000000E+03 0.  0.
         25    1    1    2    0    0  0.54424757784E+02 -0.17870331317E+02 -0.69072245134E+03  0.70427544880E+03  0.12500000000E+03 0.  0.
</event>
<event>
 5    0  0.5634041E-005  0.2536926E+03  0.7546771E-02  0.1110993E+00
         21   -1    0    0  502  501  0.00000000000E+00  0.00000000000E+00  0.44057448151E+03  0.44057448151E+03  0.00000000000E+00 0.  1.
         21   -1    0    0  501  502 -0.00000000000E+00 -0.00000000000E+00 -0.14608186846E+03  0.14608186846E+03  0.00000000000E+00 0.  1.
         25    1    1    2    0    0  0.87808354647E+02  0.19813762125E+02  0.13932885341E+03  0.20770272436E+03  0.12500000000E+03 0.  0.
         25    1    1    2    0    0  0.27739162037E+02  0.74571002752E+02  0.42899948998E+02  0.15425855304E+03  0.12500000000E+03 0.  0.
         25    1    1    2    0    0 -0.11554751668E+03 -0.94384764878E+02  0.11226381064E+03  0.22469507256E+03  0.12500000000E+03 0.  0.
</event>
<event>
 5    0  0.5634041E-005  0.4195586E+03  0.7546771E-02  0.1037210E+00
         21   -1    0    0  502  501  0.00000000000E+00  0.00000000000E+00  0.16894265225E+03  0.16894265225E+03  0.00000000000E+00 0.  1.
         21   -1    0    0  501  502 -0.00000000000E+00 -0.00000000000E+00 -0.10419475462E+04  0.10419475462E+04  0.00000000000E+00 0.  1.
         25    1    1    2    0    0  0.22759651661E+03  0.82661348335E+02 -0.61309277190E+03  0.67092534595E+03  0.12500000000E+03 0.  0.
         25    1    1    2    0    0 -0.27585136165E+03 -0.11470362266E+03 -0.23459699394E+03  0.39988954017E+03  0.12500000000E+03 0.  0.
         25    1    1    2    0    0  0.48254845035E+02  0.32042274321E+02 -0.25315128112E+02  0.14007531233E+03  0.12500000000E+03 0.  0.
</event>
<event>
 5    0  0.5634041E-005  0.2817355E+03  0.7546771E-02  0.1094745E+00
         21   -1    0    0  502  501  0.00000000000E+00  0.00000000000E+00  0.92179860540E+03  0.92179860540E+03  0.00000000000E+00 0. -1.
         21   -1    0    0  501  502 -0.00000000000E+00 -0.00000000000E+00 -0.86108696209E+02  0.86108696209E+02  0.00000000000E+00 0. -1.
         25    1    1    2    0    0  0.75222606538E+02  0.18013821874E+02  0.13119329613E+03  0.19702695060E+03  0.12500000000E+03 0.  0.
         25    1    1    2    0    0 -0.92998038866E+02 -0.73317678575E+02  0.63220541156E+03  0.65523491942E+03  0.12500000000E+03 0.  0.
         25    1    1    2    0    0  0.17775432329E+02  0.55303856700E+02  0.72291201505E+02  0.15564543159E+03  0.12500000000E+03 0.  0.
</event>
<event>
 5    0  0.5634041E-005  0.3229741E+03  0.7546771E-02  0.1074289E+00
         21   -1    0    0  502  501  0.00000000000E+00  0.00000000000E+00  0.51423369767E+03  0.51423369767E+03  0.00000000000E+00 0. -1.
         21   -1    0    0  501  502 -0.00000000000E+00 -0.00000000000E+00 -0.20284987624E+03  0.20284987624E+03  0.00000000000E+00 0. -1.
         25    1    1    2    0    0  0.15116481099E+03 -0.18555868442E+03  0.12900329780E+03  0.29924851927E+03  0.12500000000E+03 0.  0.
         25    1    1    2    0    0 -0.13005976825E+03  0.17057735281E+03  0.12192384327E+03  0.27659103413E+03  0.12500000000E+03 0.  0.
         25    1    1    2    0    0 -0.21105042741E+02  0.14981331615E+02  0.60456680374E+02  0.14124402050E+03  0.12500000000E+03 0.  0.
</event>
<event>
 5    0  0.5634041E-005  0.3703837E+03  0.7546771E-02  0.1054546E+00
         21   -1    0    0  502  501  0.00000000000E+00  0.00000000000E+00  0.17576010276E+04  0.17576010276E+04  0.00000000000E+00 0.  1.
         21   -1    0    0  501  502 -0.00000000000E+00 -0.00000000000E+00 -0.78051881431E+02  0.78051881431E+02  0.00000000000E+00 0.  1.
         25    1    1    2    0    0 -0.91992452060E+02 -0.16904726034E+03  0.96527147820E+03  0.99217620113E+03  0.12500000000E+03 0.  0.
         25    1    1    2    0    0  0.83084862186E+02  0.17098810040E+03  0.16752076874E+03  0.28253890486E+03  0.12500000000E+03 0.  0.
         25    1    1    2    0    0  0.89075898739E+01 -0.19408400526E+01  0.54675689919E+03  0.56093780299E+03  0.12500000000E+03 0.  0.
</event>
<event>
 5    0  0.5634041E-005  0.3243263E+03  0.7546771E-02  0.1073675E+00
         21   -1    0    0  502  501  0.00000000000E+00  0.00000000000E+00  0.11881770773E+04  0.11881770773E+04  0.00000000000E+00 0.  1.
         21   -1    0    0  501  502 -0.00000000000E+00 -0.00000000000E+00 -0.88528506511E+02  0.88528506511E+02  0.00000000000E+00 0.  1.
         25    1    1    2    0    0  0.44752522090E+01 -0.13015445655E+03  0.14796449283E+03  0.23340672994E+03  0.12500000000E+03 0.  0.
         25    1    1    2    0    0 -0.97934521496E+02 -0.70095996975E+02  0.39411050037E+03  0.43064220160E+03  0.12500000000E+03 0.  0.
         25    1    1    2    0    0  0.93459269287E+02  0.20025045353E+03  0.55757357758E+03  0.61265665227E+03  0.12500000000E+03 0.  0.
</event>
<event>
 5    0  0.5634041E-005  0.3606210E+03  0.7546771E-02  0.1058338E+00
         21   -1    0    0  502  501  0.00000000000E+00  0.00000000000E+00  0.68119921174E+03  0.68119921174E+03  0.00000000000E+00 0.  1.
         21   -1    0    0  501  502 -0.00000000000E+00 -0.00000000000E+00 -0.19090962810E+03  0.19090962810E+03  0.00000000000E+00 0.  1.
         25    1    1    2    0    0 -0.21325464782E+03 -0.20977695644E+03  0.19966988261E+03  0.38075842511E+03  0.12500000000E+03 0.  0.
         25    1    1    2    0    0  0.97620251847E+02  0.60545109424E+02  0.12527368564E+03  0.21098322246E+03  0.12500000000E+03 0.  0.
         25    1    1    2    0    0  0.11563439597E+03  0.14923184702E+03  0.16534601539E+03  0.28036719227E+03  0.12500000000E+03 0.  0.
</event>
<event>
 5    0  0.5634041E-005  0.4532782E+03  0.7546771E-02  0.1026749E+00
         21   -1    0    0  502  501  0.00000000000E+00  0.00000000000E+00  0.62688955134E+03  0.62688955134E+03  0.00000000000E+00 0.  1.
         21   -1    0    0  501  502 -0.00000000000E+00 -0.00000000000E+00 -0.32774698637E+03  0.32774698637E+03  0.00000000000E+00 0.  1.
         25    1    1    2    0    0 -0.53011412484E+02 -0.18182372113E+03  0.65020058319E+01  0.22701839463E+03  0.12500000000E+03 0.  0.
         25    1    1    2    0    0  0.14810119663E+03  0.32655782207E+03  0.33903368153E+03  0.50906071623E+03  0.12500000000E+03 0.  0.
         25    1    1    2    0    0 -0.95089784144E+02 -0.14473410094E+03 -0.46393122400E+02  0.21855742684E+03  0.12500000000E+03 0.  0.
</event>
<event>
 5    0  0.5634041E-005  0.2932811E+03  0.7546771E-02  0.1088648E+00
         21   -1    0    0  502  501  0.00000000000E+00  0.00000000000E+00  0.81906356742E+02  0.81906356742E+02  0.00000000000E+00 0. -1.
         21   -1    0    0  501  502 -0.00000000000E+00 -0.00000000000E+00 -0.10501481188E+04  0.10501481188E+04  0.00000000000E+00 0. -1.
         25    1    1    2    0    0  0.15961936545E+02 -0.10387531925E+03 -0.60710512076E+03  0.62868632323E+03  0.12500000000E+03 0.  0.
         25    1    1    2    0    0  0.36199699047E+02  0.97826854777E+02 -0.32429912135E+03  0.36287109534E+03  0.12500000000E+03 0.  0.
         25    1    1    2    0    0 -0.52161635593E+02  0.60484644754E+01 -0.36837519998E+02  0.14049705701E+03  0.12500000000E+03 0.  0.
</event>
<event>
 5    0  0.5634041E-005  0.2464450E+03  0.7546771E-02  0.1115572E+00
         21   -1    0    0  502  501  0.00000000000E+00  0.00000000000E+00  0.33285368962E+02  0.33285368962E+02  0.00000000000E+00 0. -1.
         21   -1    0    0  501  502 -0.00000000000E+00 -0.00000000000E+00 -0.18246798399E+04  0.18246798399E+04  0.00000000000E+00 0. -1.
         25    1    1    2    0    0  0.90522041384E+00 -0.41900152214E+02 -0.34259182699E+03  0.36708391697E+03  0.12500000000E+03 0.  0.
         25    1    1    2    0    0  0.77514571306E+01 -0.50155988262E+02 -0.11092519500E+04  0.11174258798E+04  0.12500000000E+03 0.  0.
         25    1    1    2    0    0 -0.86566775444E+01  0.92056140476E+02 -0.33955069394E+03  0.37345541210E+03  0.12500000000E+03 0.  0.
</event>
<event>
 5    0  0.5634041E-005  0.2748811E+03  0.7546771E-02  0.1098518E+00
         21   -1    0    0  502  501  0.00000000000E+00  0.00000000000E+00  0.88773094641E+02  0.88773094641E+02  0.00000000000E+00 0. -1.
         21   -1    0    0  501  502 -0.00000000000E+00 -0.00000000000E+00 -0.85115426445E+03  0.85115426445E+03  0.00000000000E+00 0. -1.
         25    1    1    2    0    0 -0.21898041427E+02 -0.11570701721E+02 -0.46546676061E+02  0.13566502279E+03  0.12500000000E+03 0.  0.
         25    1    1    2    0    0 -0.21057544831E+02 -0.12017123205E+03 -0.41479869416E+03  0.45007499585E+03  0.12500000000E+03 0.  0.
         25    1    1    2    0    0  0.42955586259E+02  0.13174193378E+03 -0.30103579959E+03  0.35418734046E+03  0.12500000000E+03 0.  0.
</event>
<event>
 5    0  0.5634041E-005  0.2766258E+03  0.7546771E-02  0.1097546E+00
         21   -1    0    0  502  501  0.00000000000E+00  0.00000000000E+00  0.78189003652E+03  0.78189003652E+03  0.00000000000E+00 0.  1.
         21   -1    0    0  501  502 -0.00000000000E+00 -0.00000000000E+00 -0.97867803514E+02  0.97867803514E+02  0.00000000000E+00 0.  1.
         25    1    1    2    0    0 -0.42516965456E+01  0.72650295214E+01  0.85574725215E+02  0.15171977845E+03  0.12500000000E+03 0.  0.
         25    1    1    2    0    0  0.33026409785E+01 -0.14747436206E+03  0.44603991209E+03  0.48614421531E+03  0.12500000000E+03 0.  0.
         25    1    1    2    0    0  0.94905556705E+00  0.14020933254E+03  0.15240759570E+03  0.24189384627E+03  0.12500000000E+03 0.  0.
</event>
<event>
 5    0  0.5634041E-005  0.3503489E+03  0.7546771E-02  0.1062472E+00
         21   -1    0    0  502  501  0.00000000000E+00  0.00000000000E+00  0.28118886471E+03  0.28118886471E+03  0.00000000000E+00 0.  1.
         21   -1    0    0  501  502 -0.00000000000E+00 -0.00000000000E+00 -0.43651925151E+03  0.43651925151E+03  0.00000000000E+00 0.  1.
         25    1    1    2    0    0 -0.17894544408E+02  0.13042735418E+03 -0.28621519075E+03  0.33893309790E+03  0.12500000000E+03 0.  0.
         25    1    1    2    0    0 -0.11983125642E+02 -0.10693884100E+03 -0.33997171725E+02  0.16840522171E+03  0.12500000000E+03 0.  0.
         25    1    1    2    0    0  0.29877670050E+02 -0.23488513179E+02  0.16488197567E+03  0.21036979660E+03  0.12500000000E+03 0.  0.
</event>
<event>
 5    0  0.5634041E-005  0.2448634E+03  0.7546771E-02  0.1116595E+00
         21   -1    0    0  502  501  0.00000000000E+00  0.00000000000E+00  0.26795882265E+03  0.26795882265E+03  0.00000000000E+00 0.  1.
         21   -1    0    0  501  502 -0.00000000000E+00 -0.00000000000E+00 -0.22375858288E+03  0.22375858288E+03  0.00000000000E+00 0.  1.
         25    1    1    2    0    0 -0.50449070548E+02 -0.39730045164E+02  0.10540570545E+03  0.17566715102E+03  0.12500000000E+03 0.  0.
         25    1    1    2    0    0  0.92038655543E+02  0.33012799707E+02 -0.87973504010E+02  0.18145329004E+03  0.12500000000E+03 0.  0.
         25    1    1    2    0    0 -0.41589584995E+02  0.67172454568E+01  0.26768038327E+02  0.13459696446E+03  0.12500000000E+03 0.  0.
</event>
<event>
 5    0  0.5634041E-005  0.3865941E+03  0.7546771E-02  0.1048523E+00
         21   -1    0    0  502  501  0.00000000000E+00  0.00000000000E+00  0.60039723436E+03  0.60039723436E+03  0.00000000000E+00 0.  1.
         21   -1    0    0  501  502 -0.00000000000E+00 -0.00000000000E+00 -0.24892690430E+03  0.24892690430E+03  0.00000000000E+00 0.  1.
         25    1    1    2    0    0 -0.56911380698E+02 -0.19359211321E+02  0.27295584712E+03  0.30617573188E+03  0.12500000000E+03 0.  0.
         25    1    1    2    0    0 -0.98079752998E+02  0.11698606312E+03 -0.13199097582E+03  0.23738575065E+03  0.12500000000E+03 0.  0.
         25    1    1    2    0    0  0.15499113370E+03 -0.97626851800E+02  0.21050545876E+03  0.30576265613E+03  0.12500000000E+03 0.  0.
</event>
<event>
 5    0  0.5634041E-005  0.2777510E+03  0.7546771E-02  0.1096924E+00
         21   -1    0    0  502  501  0.00000000000E+00  0.00000000000E+00  0.30241282392E+03  0.30241282392E+03  0.00000000000E+00 0. -1.
         21   -1    0    0  501  502 -0.00000000000E+00 -0.00000000000E+00 -0.25510035098E+03  0.25510035098E+03  0.00000000000E+00 0. -1.
         25    1    1    2    0    0 -0.11788864875E+03 -0.83201293400E+01 -0.15726275697E+02  0.17274048108E+03  0.12500000000E+03 0.  0.
         25    1    1    2    0    0  0.18011389299E+02 -0.62192639194E+02  0.13560383292E+03  0.19546287120E+03  0.12500000000E+03 0.  0.
         25    1    1    2    0    0  0.99877259454E+02  0.70512768534E+02 -0.72565084282E+02  0.18930982262E+03  0.12500000000E+03 0.  0.
</event>
<event>
 5    0  0.5634041E-005  0.3372013E+03  0.7546771E-02  0.1067994E+00
         21   -1    0    0  502  501  0.00000000000E+00  0.00000000000E+00  0.22946548502E+03  0.22946548502E+03  0.00000000000E+00 0. -1.
         21   -1    0    0  501  502 -0.00000000000E+00 -0.00000000000E+00 -0.49552005524E+03  0.49552005524E+03  0.00000000000E+00 0. -1.
         25    1    1    2    0    0  0.23794331953E+02  0.79176428909E+01 -0.15194227826E+02  0.12839284973E+03  0.12500000000E+03 0.  0.
         25    1    1    2    0    0  0.52074313629E+02  0.22699612224E+03 -0.13188431557E+03  0.29539371413E+03  0.12500000000E+03 0.  0.
         25    1    1    2    0    0 -0.75868645582E+02 -0.23491376513E+03 -0.11897602682E+03  0.30119897641E+03  0.12500000000E+03 0.  0.
</event>
<event>
 5    0  0.5634041E-005  0.4335454E+03  0.7546771E-02  0.1032746E+00
         21   -1    0    0  502  501  0.00000000000E+00  0.00000000000E+00  0.76483228714E+03  0.76483228714E+03  0.00000000000E+00 0.  1.
         21   -1    0    0  501  502 -0.00000000000E+00 -0.00000000000E+00 -0.24575536445E+03  0.24575536445E+03  0.00000000000E+00 0.  1.
         25    1    1    2    0    0  0.28833952589E+03 -0.12815263446E+03  0.81789472369E+02  0.34910929192E+03  0.12500000000E+03 0.  0.
         25    1    1    2    0    0 -0.56885513921E+02  0.14999490750E+03  0.30406556834E+03  0.36580774161E+03  0.12500000000E+03 0.  0.
         25    1    1    2    0    0 -0.23145401197E+03 -0.21842273044E+02  0.13322188198E+03  0.29567061807E+03  0.12500000000E+03 0.  0.
</event>
<event>
 5    0  0.5634041E-005  0.4332044E+03  0.7546771E-02  0.1032852E+00
         21   -1    0    0  502  501  0.00000000000E+00  0.00000000000E+00  0.16318081843E+03  0.16318081843E+03  0.00000000000E+00 0.  1.
         21   -1    0    0  501  502 -0.00000000000E+00 -0.00000000000E+00 -0.11500498948E+04  0.11500498948E+04  0.00000000000E+00 0.  1.
         25    1    1    2    0    0  0.23030886822E+03  0.83151390350E+01 -0.12098280180E+03  0.28874409890E+03  0.12500000000E+03 0.  0.
         25    1    1    2    0    0 -0.33910557029E+01  0.16733728254E+03 -0.20236016674E+03  0.29083999462E+03  0.12500000000E+03 0.  0.
         25    1    1    2    0    0 -0.22691781252E+03 -0.17565242158E+03 -0.66352610786E+03  0.73364661974E+03  0.12500000000E+03 0.  0.
</event>
<event>
 5    0  0.5634041E-005  0.6610724E+03  0.7546771E-02  0.9786222E-01
         21   -1    0    0  502  501  0.00000000000E+00  0.00000000000E+00  0.40522146758E+03  0.40522146758E+03  0.00000000000E+00 0. -1.
         21   -1    0    0  501  502 -0.00000000000E+00 -0.00000000000E+00 -0.10784638935E+04  0.10784638935E+04  0.00000000000E+00 0. -1.
         25    1    1    2    0    0  0.99756237675E+02  0.96068875826E+02 -0.99523099886E+02  0.21144829928E+03  0.12500000000E+03 0.  0.
         25    1    1    2    0    0 -0.11862720887E+02  0.28769354744E+03  0.21598332706E+03  0.38102768791E+03  0.12500000000E+03 0.  0.
         25    1    1    2    0    0 -0.87893516788E+02 -0.38376242326E+03 -0.78970265309E+03  0.89120937389E+03  0.12500000000E+03 0.  0.
</event>
<event>
 5    0  0.5634041E-005  0.3097041E+03  0.7546771E-02  0.1080488E+00
         21   -1    0    0  502  501  0.00000000000E+00  0.00000000000E+00  0.38882704144E+03  0.38882704144E+03  0.00000000000E+00 0.  1.
         21   -1    0    0  501  502 -0.00000000000E+00 -0.00000000000E+00 -0.24668205303E+03  0.24668205303E+03  0.00000000000E+00 0.  1.
         25    1    1    2    0    0 -0.93952073804E+02 -0.11217451636E+03  0.11426312407E+02  0.19278401103E+03  0.12500000000E+03 0.  0.
         25    1    1    2    0    0  0.88830891015E+02 -0.95111033020E+02  0.46026368559E+02  0.18622691106E+03  0.12500000000E+03 0.  0.
         25    1    1    2    0    0  0.51211827890E+01  0.20728554938E+03  0.84692307448E+02  0.25649817238E+03  0.12500000000E+03 0.  0.
</event>
<event>
 5    0  0.5634041E-005  0.3433953E+03  0.7546771E-02  0.1065359E+00
         21   -1    0    0  502  501  0.00000000000E+00  0.00000000000E+00  0.38214729123E+03  0.38214729123E+03  0.00000000000E+00 0.  1.
         21   -1    0    0  501  502 -0.00000000000E+00 -0.00000000000E+00 -0.30857296279E+03  0.30857296279E+03  0.00000000000E+00 0.  1.
         25    1    1    2    0    0  0.78418063911E+02  0.35239151045E+02 -0.15783185246E+03  0.21892255289E+03  0.12500000000E+03 0.  0.
         25    1    1    2    0    0  0.12015422999E+03 -0.27620450265E+02  0.84379017617E+02  0.19479411406E+03  0.12500000000E+03 0.  0.
         25    1    1    2    0    0 -0.19857229390E+03 -0.76187007808E+01  0.14702716328E+03  0.27700358707E+03  0.12500000000E+03 0.  0.
</event>
<event>
 5    0  0.5634041E-005  0.2320238E+03  0.7546771E-02  0.1125223E+00
         21   -1    0    0  502  501  0.00000000000E+00  0.00000000000E+00  0.55174185581E+02  0.55174185581E+02  0.00000000000E+00 0.  1.
         21   -1    0    0  501  502 -0.00000000000E+00 -0.00000000000E+00 -0.97572863692E+03  0.97572863692E+03  0.00000000000E+00 0.  1.
         25    1    1    2    0    0  0.51548222093E+01 -0.56602048170E+01 -0.21131375156E+03  0.24563613681E+03  0.12500000000E+03 0.  0.
         25    1    1    2    0    0 -0.71304933619E+02 -0.58698490036E+02 -0.50664656754E+03  0.52994872459E+03  0.12500000000E+03 0.  0.
         25    1    1    2    0    0  0.66150111409E+02  0.64358694853E+02 -0.20259413224E+03  0.25531796110E+03  0.12500000000E+03 0.  0.
</event>
<event>
 5    0  0.5634041E-005  0.2993146E+03  0.7546771E-02  0.1085584E+00
         21   -1    0    0  502  501  0.00000000000E+00  0.00000000000E+00  0.21582665662E+03  0.21582665662E+03  0.00000000000E+00 0. -1.
         21   -1    0    0  501  502 -0.00000000000E+00 -0.00000000000E+00 -0.41509810714E+03  0.41509810714E+03  0.00000000000E+00 0. -1.
         25    1    1    2    0    0 -0.10101328911E+03  0.52525931256E+02 -0.69315730318E+02  0.18273567933E+03  0.12500000000E+03 0.  0.
         25    1    1    2    0    0 -0.80842856994E+02  0.34942947840E+02  0.37806334004E+02  0.15751474858E+03  0.12500000000E+03 0.  0.
         25    1    1    2    0    0  0.18185614611E+03 -0.87468879095E+02 -0.16776205420E+03  0.29067433584E+03  0.12500000000E+03 0.  0.
</event>
<event>
 5    0  0.5634041E-005  0.2538259E+03  0.7546771E-02  0.1110911E+00
         21   -1    0    0  502  501  0.00000000000E+00  0.00000000000E+00  0.77816043072E+02  0.77816043072E+02  0.00000000000E+00 0.  1.
         21   -1    0    0  501  502 -0.00000000000E+00 -0.00000000000E+00 -0.82794737450E+03  0.82794737450E+03  0.00000000000E+00 0.  1.
         25    1    1    2    0    0 -0.72672614832E+02 -0.26298260622E+02 -0.46890297404E+03  0.49139384055E+03  0.12500000000E+03 0.  0.
         25    1    1    2    0    0  0.72358018844E+02 -0.47918604525E+00 -0.55058118658E+02  0.15457137167E+03  0.12500000000E+03 0.  0.
         25    1    1    2    0    0  0.31459598827E+00  0.26777446667E+02 -0.22617023873E+03  0.25979820536E+03  0.12500000000E+03 0.  0.
</event>
<event>
 5    0  0.5634041E-005  0.3708556E+03  0.7546771E-02  0.1054366E+00
         21   -1    0    0  502  501  0.00000000000E+00  0.00000000000E+00  0.10298880262E+04  0.10298880262E+04  0.00000000000E+00 0.  1.
         21   -1    0    0  501  502 -0.00000000000E+00 -0.00000000000E+00 -0.13354253157E+03  0.13354253157E+03  0.00000000000E+00 0.  1.
         25    1    1    2    0    0  0.16349024545E+03 -0.24458819162E+02  0.40320615044E+03  0.45335140228E+03  0.12500000000E+03 0.  0.
         25    1    1    2    0    0 -0.99657810385E+02 -0.19383721287E+03  0.25049632966E+03  0.35479283454E+03  0.12500000000E+03 0.  0.
         25    1    1    2    0    0 -0.63832435065E+02  0.21829603203E+03  0.24264301454E+03  0.35528632098E+03  0.12500000000E+03 0.  0.
</event>
<event>
 5    0  0.5634041E-005  0.2730445E+03  0.7546771E-02  0.1099550E+00
         21   -1    0    0  502  501  0.00000000000E+00  0.00000000000E+00  0.65427260660E+03  0.65427260660E+03  0.00000000000E+00 0.  1.
         21   -1    0    0  501  502 -0.00000000000E+00 -0.00000000000E+00 -0.11394837660E+03  0.11394837660E+03  0.00000000000E+00 0.  1.
         25    1    1    2    0    0 -0.56218864846E+02 -0.16647937303E+02  0.76548478178E+02  0.15786824916E+03  0.12500000000E+03 0.  0.
         25    1    1    2    0    0 -0.24599247387E+00  0.15569074066E+03  0.26360036694E+03  0.33068084416E+03  0.12500000000E+03 0.  0.
         25    1    1    2    0    0  0.56464857319E+02 -0.13904280336E+03  0.20017538488E+03  0.27967188988E+03  0.12500000000E+03 0.  0.
</event>
<event>
 5    0  0.5634041E-005  0.4601803E+03  0.7546771E-02  0.1024729E+00
         21   -1    0    0  502  501  0.00000000000E+00  0.00000000000E+00  0.11515545675E+03  0.11515545675E+03  0.00000000000E+00 0.  1.
         21   -1    0    0  501  502 -0.00000000000E+00 -0.00000000000E+00 -0.18389566784E+04  0.18389566784E+04  0.00000000000E+00 0.  1.
         25    1    1    2    0    0 -0.19650795137E+03 -0.42254452660E+02 -0.33214285564E+03  0.40785376089E+03  0.12500000000E+03 0.  0.
         25    1    1    2    0    0  0.29174867910E+03  0.24810410073E+03 -0.69920966738E+03  0.80696474242E+03  0.12500000000E+03 0.  0.
         25    1    1    2    0    0 -0.95240727724E+02 -0.20584964807E+03 -0.69244869859E+03  0.73929363179E+03  0.12500000000E+03 0.  0.
</event>
<event>
 5    0  0.5634041E-005  0.5689660E+03  0.7546771E-02  0.9971969E-01
         21   -1    0    0  502  501  0.00000000000E+00  0.00000000000E+00  0.49533810264E+03  0.49533810264E+03  0.00000000000E+00 0.  1.
         21   -1    0    0  501  502 -0.00000000000E+00 -0.00000000000E+00 -0.65353810679E+03  0.65353810679E+03  0.00000000000E+00 0.  1.
         25    1    1    2    0    0  0.24525655473E+03  0.27446296277E+03  0.62990997476E+02  0.39379380560E+03  0.12500000000E+03 0.  0.
         25    1    1    2    0    0  0.88721338071E+02  0.72153470422E+02 -0.19324685744E+03  0.25699600587E+03  0.12500000000E+03 0.  0.
         25    1    1    2    0    0 -0.33397789280E+03 -0.34661643319E+03 -0.27944144184E+02  0.49808639796E+03  0.12500000000E+03 0.  0.
</event>
<event>
 5    0  0.5634041E-005  0.5225818E+03  0.7546771E-02  0.1008047E+00
         21   -1    0    0  502  501  0.00000000000E+00  0.00000000000E+00  0.16074121498E+03  0.16074121498E+03  0.00000000000E+00 0.  1.
         21   -1    0    0  501  502 -0.00000000000E+00 -0.00000000000E+00 -0.16989526510E+04  0.16989526510E+04  0.00000000000E+00 0.  1.
         25    1    1    2    0    0  0.10159490432E+03 -0.11574375107E+03 -0.13295666651E+04  0.13442807212E+04  0.12500000000E+03 0.  0.
         25    1    1    2    0    0 -0.13914082050E+03 -0.27544604138E+02  0.46793665460E+02  0.19476529535E+03  0.12500000000E+03 0.  0.
         25    1    1    2    0    0  0.37545916174E+02  0.14328835521E+03 -0.25543843640E+03  0.32064784944E+03  0.12500000000E+03 0.  0.
</event>
<event>
 5    0  0.5634041E-005  0.3443988E+03  0.7546771E-02  0.1064938E+00
         21   -1    0    0  502  501  0.00000000000E+00  0.00000000000E+00  0.13015135200E+03  0.13015135200E+03  0.00000000000E+00 0. -1.
         21   -1    0    0  501  502 -0.00000000000E+00 -0.00000000000E+00 -0.91132794719E+03  0.91132794719E+03  0.00000000000E+00 0. -1.
         25    1    1    2    0    0 -0.65077618847E+02 -0.13351776524E+03 -0.31324770128E+03  0.36852572836E+03  0.12500000000E+03 0.  0.
         25    1    1    2    0    0  0.21850255526E+03  0.12767990907E+03 -0.23524992694E+03  0.36744122517E+03  0.12500000000E+03 0.  0.
         25    1    1    2    0    0 -0.15342493641E+03  0.58378561712E+01 -0.23267896697E+03  0.30551234565E+03  0.12500000000E+03 0.  0.
</event>
<event>
 5    0  0.5634041E-005  0.3025098E+03  0.7546771E-02  0.1083993E+00
         21   -1    0    0  502  501  0.00000000000E+00  0.00000000000E+00  0.32138157044E+03  0.32138157044E+03  0.00000000000E+00 0. -1.
         21   -1    0    0  501  502 -0.00000000000E+00 -0.00000000000E+00 -0.28474612467E+03  0.28474612467E+03  0.00000000000E+00 0. -1.
         25    1    1    2    0    0 -0.13891602568E+02  0.94329471419E+01 -0.16427656334E+03  0.20710805484E+03  0.12500000000E+03 0.  0.
         25    1    1    2    0    0  0.80865392951E+02  0.31038894168E+02  0.20036788098E+03  0.25154505055E+03  0.12500000000E+03 0.  0.
         25    1    1    2    0    0 -0.66973790383E+02 -0.40471841310E+02  0.54412813465E+00  0.14747458972E+03  0.12500000000E+03 0.  0.
</event>
<event>
 5    0  0.5634041E-005  0.3258660E+03  0.7546771E-02  0.1072981E+00
         21   -1    0    0  502  501  0.00000000000E+00  0.00000000000E+00  0.69333354835E+02  0.69333354835E+02  0.00000000000E+00 0. -1.
         21   -1    0    0  501  502 -0.00000000000E+00 -0.00000000000E+00 -0.15315667444E+04  0.15315667444E+04  0.00000000000E+00 0. -1.
         25    1    1    2    0    0  0.73760673102E+02  0.79806935065E+02 -0.35910376233E+03  0.39546212954E+03  0.12500000000E+03 0.  0.
         25    1    1    2    0    0 -0.11648061335E+03 -0.16784581598E+03 -0.96729954391E+03  0.99651059145E+03  0.12500000000E+03 0.  0.
         25    1    1    2    0    0  0.42719940246E+02  0.88038880918E+02 -0.13583008336E+03  0.20892737828E+03  0.12500000000E+03 0.  0.
</event>
<event>
 5    0  0.5634041E-005  0.3150546E+03  0.7546771E-02  0.1077948E+00
         21   -1    0    0  502  501  0.00000000000E+00  0.00000000000E+00  0.42912075744E+02  0.42912075744E+02  0.00000000000E+00 0. -1.
         21   -1    0    0  501  502 -0.00000000000E+00 -0.00000000000E+00 -0.23130878108E+04  0.23130878108E+04  0.00000000000E+00 0. -1.
         25    1    1    2    0    0  0.62081894036E+02 -0.71259717867E+02 -0.21063301486E+03  0.26253261875E+03  0.12500000000E+03 0.  0.
         25    1    1    2    0    0 -0.92569270154E+02  0.63494148111E+02 -0.47771155818E+03  0.50639303850E+03  0.12500000000E+03 0.  0.
         25    1    1    2    0    0  0.30487376119E+02  0.77655697560E+01 -0.15818311620E+04  0.15870742293E+04  0.12500000000E+03 0.  0.
</event>
<event>
 5    0  0.5634041E-005  0.2853585E+03  0.7546771E-02  0.1092798E+00
         21   -1    0    0  502  501  0.00000000000E+00  0.00000000000E+00  0.30759893045E+03  0.30759893045E+03  0.00000000000E+00 0.  1.
         21   -1    0    0  501  502 -0.00000000000E+00 -0.00000000000E+00 -0.26472607288E+03  0.26472607288E+03  0.00000000000E+00 0.  1.
         25    1    1    2    0    0 -0.19270893124E+02  0.17934014629E+02  0.17187404584E+03  0.21414640748E+03  0.12500000000E+03 0.  0.
         25    1    1    2    0    0 -0.89696400652E+02  0.27789281693E+02 -0.28385996063E+02  0.15889761873E+03  0.12500000000E+03 0.  0.
         25    1    1    2    0    0  0.10896729378E+03 -0.45723296322E+02 -0.10061519220E+03  0.19928097712E+03  0.12500000000E+03 0.  0.
</event>
<event>
 5    0  0.5634041E-005  0.2540338E+03  0.7546771E-02  0.1110782E+00
         21   -1    0    0  502  501  0.00000000000E+00  0.00000000000E+00  0.35075071781E+03  0.35075071781E+03  0.00000000000E+00 0.  1.
         21   -1    0    0  501  502 -0.00000000000E+00 -0.00000000000E+00 -0.18398578661E+03  0.18398578661E+03  0.00000000000E+00 0.  1.
         25    1    1    2    0    0 -0.67887678177E+02  0.61356136452E+01  0.12593900776E+03  0.19008423469E+03  0.12500000000E+03 0.  0.
         25    1    1    2    0    0  0.50252760319E+02 -0.85004594550E+02  0.95902799012E+02  0.18593941990E+03  0.12500000000E+03 0.  0.
         25    1    1    2    0    0  0.17634917858E+02  0.78868980904E+02 -0.55076875577E+02  0.15871284983E+03  0.12500000000E+03 0.  0.
</event>
<event>
 5    0  0.5634041E-005  0.2593378E+03  0.7546771E-02  0.1107542E+00
         21   -1    0    0  502  501  0.00000000000E+00  0.00000000000E+00  0.12867847251E+03  0.12867847251E+03  0.00000000000E+00 0. -1.
         21   -1    0    0  501  502 -0.00000000000E+00 -0.00000000000E+00 -0.52266773449E+03  0.52266773449E+03  0.00000000000E+00 0. -1.
         25    1    1    2    0    0 -0.66554184405E+02  0.11538660614E+02  0.34160988355E+02  0.14613204055E+03  0.12500000000E+03 0.  0.
         25    1    1    2    0    0  0.35857668286E+02  0.21157265144E+02 -0.25473757601E+03  0.28679197143E+03  0.12500000000E+03 0.  0.
         25    1    1    2    0    0  0.30696516119E+02 -0.32695925758E+02 -0.17341267432E+03  0.21842219502E+03  0.12500000000E+03 0.  0.
</event>
<event>
 5    0  0.5634041E-005  0.2956693E+03  0.7546771E-02  0.1087426E+00
         21   -1    0    0  502  501  0.00000000000E+00  0.00000000000E+00  0.11312558246E+04  0.11312558246E+04  0.00000000000E+00 0. -1.
         21   -1    0    0  501  502 -0.00000000000E+00 -0.00000000000E+00 -0.77277233855E+02  0.77277233855E+02  0.00000000000E+00 0. -1.
         25    1    1    2    0    0  0.29742615986E+02  0.18838218428E+03  0.25438967476E+03  0.34163076147E+03  0.12500000000E+03 0.  0.
         25    1    1    2    0    0 -0.52998283013E+02 -0.69739982223E+02  0.27881956204E+03  0.31786448575E+03  0.12500000000E+03 0.  0.
         25    1    1    2    0    0  0.23255667027E+02 -0.11864220206E+03  0.52076935396E+03  0.54903781125E+03  0.12500000000E+03 0.  0.
</event>
<event>
 5    0  0.5634041E-005  0.3459191E+03  0.7546771E-02  0.1064303E+00
         21   -1    0    0  502  501  0.00000000000E+00  0.00000000000E+00  0.16220926178E+03  0.16220926178E+03  0.00000000000E+00 0. -1.
         21   -1    0    0  501  502 -0.00000000000E+00 -0.00000000000E+00 -0.73768932086E+03  0.73768932086E+03  0.00000000000E+00 0. -1.
         25    1    1    2    0    0  0.57546430146E+02  0.14932864716E+03 -0.24747022054E+03  0.32012051877E+03  0.12500000000E+03 0.  0.
         25    1    1    2    0    0 -0.16246469466E+03 -0.94124070732E+02 -0.19475566727E+02  0.22640321420E+03  0.12500000000E+03 0.  0.
         25    1    1    2    0    0  0.10491826452E+03 -0.55204576432E+02 -0.30853427181E+03  0.35337484966E+03  0.12500000000E+03 0.  0.
</event>
<event>
 5    0  0.5634041E-005  0.3683348E+03  0.7546771E-02  0.1055332E+00
         21   -1    0    0  502  501  0.00000000000E+00  0.00000000000E+00  0.18926269899E+03  0.18926269899E+03  0.00000000000E+00 0. -1.
         21   -1    0    0  501  502 -0.00000000000E+00 -0.00000000000E+00 -0.71683706659E+03  0.71683706659E+03  0.00000000000E+00 0. -1.
         25    1    1    2    0    0 -0.83848921035E+02 -0.10958347935E+03 -0.12472853202E+03  0.22410128783E+03  0.12500000000E+03 0.  0.
         25    1    1    2    0    0  0.21815339580E+03 -0.13122698864E+02 -0.36647621249E+02  0.25442318579E+03  0.12500000000E+03 0.  0.
         25    1    1    2    0    0 -0.13430447477E+03  0.12270617822E+03 -0.36619821433E+03  0.42757529196E+03  0.12500000000E+03 0.  0.
</event>
<event>
 5    0  0.5634041E-005  0.2119304E+03  0.7546771E-02  0.1140046E+00
         21   -1    0    0  502  501  0.00000000000E+00  0.00000000000E+00  0.22432902403E+03  0.22432902403E+03  0.00000000000E+00 0. -1.
         21   -1    0    0  501  502 -0.00000000000E+00 -0.00000000000E+00 -0.20021710417E+03  0.20021710417E+03  0.00000000000E+00 0. -1.
         25    1    1    2    0    0 -0.16458988322E+02  0.43229090201E+02  0.28463942065E+02  0.13628957603E+03  0.12500000000E+03 0.  0.
         25    1    1    2    0    0 -0.29858716491E+02 -0.32072525963E+01 -0.55428607698E+02  0.13999699986E+03  0.12500000000E+03 0.  0.
         25    1    1    2    0    0  0.46317704813E+02 -0.40021837605E+02  0.51076585495E+02  0.14825955231E+03  0.12500000000E+03 0.  0.
</event>
<event>
 5    0  0.5634041E-005  0.2252025E+03  0.7546771E-02  0.1130063E+00
         21   -1    0    0  502  501  0.00000000000E+00  0.00000000000E+00  0.23436210185E+04  0.23436210185E+04  0.00000000000E+00 0. -1.
         21   -1    0    0  501  502 -0.00000000000E+00 -0.00000000000E+00 -0.21640080288E+02  0.21640080288E+02  0.00000000000E+00 0. -1.
         25    1    1    2    0    0 -0.78862926978E+02  0.11665414663E+02  0.93079772059E+03  0.94253108161E+03  0.12500000000E+03 0.  0.
         25    1    1    2    0    0  0.98098296938E+02 -0.33744528870E+02  0.61964956006E+03  0.64058765706E+03  0.12500000000E+03 0.  0.
         25    1    1    2    0    0 -0.19235369960E+02  0.22079114207E+02  0.77153365759E+03  0.78214236015E+03  0.12500000000E+03 0.  0.
</event>
<event>
 5    0  0.5634041E-005  0.2729688E+03  0.7546771E-02  0.1099592E+00
         21   -1    0    0  502  501  0.00000000000E+00  0.00000000000E+00  0.24261463407E+03  0.24261463407E+03  0.00000000000E+00 0.  1.
         21   -1    0    0  501  502 -0.00000000000E+00 -0.00000000000E+00 -0.30712054913E+03  0.30712054913E+03  0.00000000000E+00 0.  1.
         25    1    1    2    0    0  0.35745086385E+02  0.93385354346E+02 -0.71894172919E+02  0.17547737092E+03  0.12500000000E+03 0.  0.
         25    1    1    2    0    0  0.10665998808E+03 -0.17407306877E+02  0.33015795535E+02  0.16850640980E+03  0.12500000000E+03 0.  0.
         25    1    1    2    0    0 -0.14240507447E+03 -0.75978047469E+02 -0.25627537680E+02  0.20575140247E+03  0.12500000000E+03 0.  0.
</event>
<event>
 5    0  0.5634041E-005  0.4027293E+03  0.7546771E-02  0.1042839E+00
         21   -1    0    0  502  501  0.00000000000E+00  0.00000000000E+00  0.89849945566E+03  0.89849945566E+03  0.00000000000E+00 0.  1.
         21   -1    0    0  501  502 -0.00000000000E+00 -0.00000000000E+00 -0.18051304846E+03  0.18051304846E+03  0.00000000000E+00 0.  1.
         25    1    1    2    0    0 -0.15402676999E+02 -0.27658607924E+03  0.10529174979E+03  0.32163403779E+03  0.12500000000E+03 0.  0.
         25    1    1    2    0    0  0.82723039485E+02  0.16392445202E+03  0.17220539149E+03  0.28105875558E+03  0.12500000000E+03 0.  0.
         25    1    1    2    0    0 -0.67320362486E+02  0.11266162722E+03  0.44048926592E+03  0.47631971075E+03  0.12500000000E+03 0.  0.
</event>
<event>
 5    0  0.5634041E-005  0.2603169E+03  0.7546771E-02  0.1106953E+00
         21   -1    0    0  502  501  0.00000000000E+00  0.00000000000E+00  0.16022918356E+03  0.16022918356E+03  0.00000000000E+00 0.  1.
         21   -1    0    0  501  502 -0.00000000000E+00 -0.00000000000E+00 -0.42292479169E+03  0.42292479169E+03  0.00000000000E+00 0.  1.
         25    1    1    2    0    0 -0.58201722789E+02  0.44133008783E+02 -0.46589967848E+02  0.15208809324E+03  0.12500000000E+03 0.  0.
         25    1    1    2    0    0 -0.75440189084E+02 -0.22606042033E+02 -0.19639882982E+03  0.24576361736E+03  0.12500000000E+03 0.  0.
         25    1    1    2    0    0  0.13364191187E+03 -0.21526966750E+02 -0.19706810468E+02  0.18530226465E+03  0.12500000000E+03 0.  0.
</event>
<event>
 5    0  0.5634041E-005  0.1965144E+03  0.7546771E-02  0.1152714E+00
         21   -1    0    0  502  501  0.00000000000E+00  0.00000000000E+00  0.54260195415E+02  0.54260195415E+02  0.00000000000E+00 0.  1.
         21   -1    0    0  501  502 -0.00000000000E+00 -0.00000000000E+00 -0.71171746903E+03  0.71171746903E+03  0.00000000000E+00 0.  1.
         25    1    1    2    0    0 -0.35757510003E+02  0.14727274196E+01 -0.28717363977E+03  0.31523716124E+03  0.12500000000E+03 0.  0.
         25    1    1    2    0    0  0.32221923598E+02 -0.50031331990E+01 -0.15527921402E+03  0.20198989581E+03  0.12500000000E+03 0.  0.
         25    1    1    2    0    0  0.35355864050E+01  0.35304057794E+01 -0.21500441983E+03  0.24875060740E+03  0.12500000000E+03 0.  0.
</event>
<event>
 5    0  0.5634041E-005  0.4017406E+03  0.7546771E-02  0.1043179E+00
         21   -1    0    0  502  501  0.00000000000E+00  0.00000000000E+00  0.32857167630E+03  0.32857167630E+03  0.00000000000E+00 0. -1.
         21   -1    0    0  501  502 -0.00000000000E+00 -0.00000000000E+00 -0.49120345727E+03  0.49120345727E+03  0.00000000000E+00 0. -1.
         25    1    1    2    0    0  0.54113581390E+02  0.16693965871E+03  0.20954072293E+03  0.30054857162E+03  0.12500000000E+03 0.  0.
         25    1    1    2    0    0 -0.38061391458E+02 -0.10353437509E+03 -0.60920498410E+02  0.17749462942E+03  0.12500000000E+03 0.  0.
         25    1    1    2    0    0 -0.16052189933E+02 -0.63405283616E+02 -0.31125200548E+03  0.34173193253E+03  0.12500000000E+03 0.  0.
</event>
<event>
 5    0  0.5634041E-005  0.5170404E+03  0.7546771E-02  0.1009424E+00
         21   -1    0    0  502  501  0.00000000000E+00  0.00000000000E+00  0.97810507979E+03  0.97810507979E+03  0.00000000000E+00 0. -1.
         21   -1    0    0  501  502 -0.00000000000E+00 -0.00000000000E+00 -0.27331499543E+03  0.27331499543E+03  0.00000000000E+00 0. -1.
         25    1    1    2    0    0 -0.18936765017E+03 -0.22865515112E+03 -0.78293470430E+02  0.33150890271E+03  0.12500000000E+03 0.  0.
         25    1    1    2    0    0  0.15725895889E+03  0.10768931897E+03  0.67540452424E+03  0.71282791818E+03  0.12500000000E+03 0.  0.
         25    1    1    2    0    0  0.32108691281E+02  0.12096583215E+03  0.10767903055E+03  0.20708325433E+03  0.12500000000E+03 0.  0.
</event>
<event>
 5    0  0.5634041E-005  0.5204168E+03  0.7546771E-02  0.1008583E+00
         21   -1    0    0  502  501  0.00000000000E+00  0.00000000000E+00  0.34356537190E+03  0.34356537190E+03  0.00000000000E+00 0.  1.
         21   -1    0    0  501  502 -0.00000000000E+00 -0.00000000000E+00 -0.78830311559E+03  0.78830311559E+03  0.00000000000E+00 0.  1.
         25    1    1    2    0    0 -0.83451881050E+02 -0.94901001871E+01  0.12507217772E+03  0.19576089520E+03  0.12500000000E+03 0.  0.
         25    1    1    2    0    0  0.27092088540E+03 -0.16442914144E+03 -0.55483578919E+03  0.65107819935E+03  0.12500000000E+03 0.  0.
         25    1    1    2    0    0 -0.18746900435E+03  0.17391924163E+03 -0.14974132221E+02  0.28502939294E+03  0.12500000000E+03 0.  0.
</event>
<event>
 5    0  0.5634041E-005  0.2518280E+03  0.7546771E-02  0.1112155E+00
         21   -1    0    0  502  501  0.00000000000E+00  0.00000000000E+00  0.15110585077E+04  0.15110585077E+04  0.00000000000E+00 0.  1.
         21   -1    0    0  501  502 -0.00000000000E+00 -0.00000000000E+00 -0.41968809902E+02  0.41968809902E+02  0.00000000000E+00 0.  1.
         25    1    1    2    0    0 -0.28244504016E+02  0.64474998345E+02  0.57101673928E+03  0.58876132172E+03  0.12500000000E+03 0.  0.
         25    1    1    2    0    0  0.10289159756E+03 -0.74162701892E+02  0.67198963136E+03  0.69518476095E+03  0.12500000000E+03 0.  0.
         25    1    1    2    0    0 -0.74647093545E+02  0.96877035465E+01  0.22608332719E+03  0.26908123496E+03  0.12500000000E+03 0.  0.
</event>
<event>
 5    0  0.5634041E-005  0.2352143E+03  0.7546771E-02  0.1123023E+00
         21   -1    0    0  502  501  0.00000000000E+00  0.00000000000E+00  0.14235345662E+03  0.14235345662E+03  0.00000000000E+00 0. -1.
         21   -1    0    0  501  502 -0.00000000000E+00 -0.00000000000E+00 -0.38865080292E+03  0.38865080292E+03  0.00000000000E+00 0. -1.
         25    1    1    2    0    0  0.50527961650E+02  0.40911318669E+02 -0.18897623419E+03  0.23571980823E+03  0.12500000000E+03 0.  0.
         25    1    1    2    0    0 -0.75118228652E+02  0.63200544172E+00 -0.67902254325E+02  0.16086908917E+03  0.12500000000E+03 0.  0.
         25    1    1    2    0    0  0.24590267002E+02 -0.41543324111E+02  0.10581142218E+02  0.13441536214E+03  0.12500000000E+03 0.  0.
</event>
<event>
 5    0  0.5634041E-005  0.2696548E+03  0.7546771E-02  0.1101477E+00
         21   -1    0    0  502  501  0.00000000000E+00  0.00000000000E+00  0.23118284141E+03  0.23118284141E+03  0.00000000000E+00 0. -1.
         21   -1    0    0  501  502 -0.00000000000E+00 -0.00000000000E+00 -0.31452892185E+03  0.31452892185E+03  0.00000000000E+00 0. -1.
         25    1    1    2    0    0  0.35180775282E+02  0.15053096555E+02 -0.43881939380E+01  0.13079961357E+03  0.12500000000E+03 0.  0.
         25    1    1    2    0    0 -0.84991848688E+02  0.23846482024E+01 -0.18771445189E+03  0.24102077989E+03  0.12500000000E+03 0.  0.
         25    1    1    2    0    0  0.49811073406E+02 -0.17437744757E+02  0.10875656538E+03  0.17389136980E+03  0.12500000000E+03 0.  0.
</event>
<event>
 5    0  0.5634041E-005  0.2758677E+03  0.7546771E-02  0.1097968E+00
         21   -1    0    0  502  501  0.00000000000E+00  0.00000000000E+00  0.57447026992E+02  0.57447026992E+02  0.00000000000E+00 0.  1.
         21   -1    0    0  501  502 -0.00000000000E+00 -0.00000000000E+00 -0.13247509051E+04  0.13247509051E+04  0.00000000000E+00 0.  1.
         25    1    1    2    0    0  0.51348329573E+02 -0.97892810082E+02 -0.35227055616E+03  0.38979378901E+03  0.12500000000E+03 0.  0.
         25    1    1    2    0    0 -0.54086259493E+00  0.15446290594E+03 -0.72974397622E+03  0.75631366025E+03  0.12500000000E+03 0.  0.
         25    1    1    2    0    0 -0.50807466978E+02 -0.56570095857E+02 -0.18528934574E+03  0.23609048285E+03  0.12500000000E+03 0.  0.
</event>
<event>
 5    0  0.5634041E-005  0.2703231E+03  0.7546771E-02  0.1101095E+00
         21   -1    0    0  502  501  0.00000000000E+00  0.00000000000E+00  0.23781101318E+02  0.23781101318E+02  0.00000000000E+00 0.  1.
         21   -1    0    0  501  502 -0.00000000000E+00 -0.00000000000E+00 -0.30728008369E+04  0.30728008369E+04  0.00000000000E+00 0.  1.
         25    1    1    2    0    0 -0.98965287759E+02 -0.99422037690E+02 -0.12245293899E+04  0.12388608059E+04  0.12500000000E+03 0.  0.
         25    1    1    2    0    0  0.93269042517E+02 -0.33157596623E+02 -0.65628307175E+03  0.67537471879E+03  0.12500000000E+03 0.  0.
         25    1    1    2    0    0  0.56962452419E+01  0.13257963431E+03 -0.11682072740E+04  0.11823464135E+04  0.12500000000E+03 0.  0.
</event>
<event>
 5    0  0.5634041E-005  0.2681235E+03  0.7546771E-02  0.1102358E+00
         21   -1    0    0  502  501  0.00000000000E+00  0.00000000000E+00  0.31651593542E+02  0.31651593542E+02  0.00000000000E+00 0.  1.
         21   -1    0    0  501  502 -0.00000000000E+00 -0.00000000000E+00 -0.22712982444E+04  0.22712982444E+04  0.00000000000E+00 0.  1.
         25    1    1    2    0    0  0.10181180675E+03 -0.45054362320E+02 -0.13479377538E+04  0.13582918418E+04  0.12500000000E+03 0.  0.
         25    1    1    2    0    0 -0.12685357242E+03  0.46448009209E+02 -0.50687369049E+03  0.53925428557E+03  0.12500000000E+03 0.  0.
         25    1    1    2    0    0  0.25041765664E+02 -0.13936468892E+01 -0.38483520660E+03  0.40540371053E+03  0.12500000000E+03 0.  0.
</event>
<event>
 5    0  0.5634041E-005  0.2255670E+03  0.7546771E-02  0.1129799E+00
         21   -1    0    0  502  501  0.00000000000E+00  0.00000000000E+00  0.78688441247E+03  0.78688441247E+03  0.00000000000E+00 0. -1.
         21   -1    0    0  501  502 -0.00000000000E+00 -0.00000000000E+00 -0.64660695606E+02  0.64660695606E+02  0.00000000000E+00 0. -1.
         25    1    1    2    0    0 -0.64630496033E+02  0.78934182636E+02  0.32470417983E+03  0.36258172955E+03  0.12500000000E+03 0.  0.
         25    1    1    2    0    0  0.76732177847E+02 -0.48247857917E+02  0.19551090754E+03  0.24912887805E+03  0.12500000000E+03 0.  0.
         25    1    1    2    0    0 -0.12101681815E+02 -0.30686324719E+02  0.20200862949E+03  0.23983450047E+03  0.12500000000E+03 0.  0.
</event>
<event>
 5    0  0.5634041E-005  0.3237959E+03  0.7546771E-02  0.1073915E+00
         21   -1    0    0  502  501  0.00000000000E+00  0.00000000000E+00  0.31231314908E+03  0.31231314908E+03  0.00000000000E+00 0. -1.
         21   -1    0    0  501  502 -0.00000000000E+00 -0.00000000000E+00 -0.33570087177E+03  0.33570087177E+03  0.00000000000E+00 0. -1.
         25    1    1    2    0    0  0.11850747369E+03 -0.44864690697E+02 -0.12520480164E+03  0.21761917228E+03  0.12500000000E+03 0.  0.
         25    1    1    2    0    0 -0.20453232153E+03  0.78244395274E+02  0.10935353624E+03  0.27484332233E+03  0.12500000000E+03 0.  0.
         25    1    1    2    0    0  0.86024847847E+02 -0.33379704577E+02 -0.75364572813E+01  0.15555152623E+03  0.12500000000E+03 0.  0.
</event>
<event>
 5    0  0.5634041E-005  0.2439453E+03  0.7546771E-02  0.1117192E+00
         21   -1    0    0  502  501  0.00000000000E+00  0.00000000000E+00  0.32671128579E+03  0.32671128579E+03  0.00000000000E+00 0. -1.
         21   -1    0    0  501  502 -0.00000000000E+00 -0.00000000000E+00 -0.18214641412E+03  0.18214641412E+03  0.00000000000E+00 0. -1.
         25    1    1    2    0    0 -0.49296951356E+02  0.39796884215E+02 -0.82723196783E+02  0.16273324397E+03  0.12500000000E+03 0.  0.
         25    1    1    2    0    0  0.25498206308E+02 -0.19879696865E+02  0.87051963020E+02  0.15571899415E+03  0.12500000000E+03 0.  0.
         25    1    1    2    0    0  0.23798745048E+02 -0.19917187350E+02  0.14023610543E+03  0.19040546180E+03  0.12500000000E+03 0.  0.
</event>
<event>
 5    0  0.5634041E-005  0.3499715E+03  0.7546771E-02  0.1062627E+00
         21   -1    0    0  502  501  0.00000000000E+00  0.00000000000E+00  0.19365389135E+03  0.19365389135E+03  0.00000000000E+00 0.  1.
         21   -1    0    0  501  502 -0.00000000000E+00 -0.00000000000E+00 -0.63246896799E+03  0.63246896799E+03  0.00000000000E+00 0.  1.
         25    1    1    2    0    0  0.14375065078E+03  0.14938541828E+02 -0.58379133547E+02  0.19980123339E+03  0.12500000000E+03 0.  0.
         25    1    1    2    0    0  0.12205617948E+03  0.47662310580E+02 -0.69343289065E+02  0.19391466819E+03  0.12500000000E+03 0.  0.
         25    1    1    2    0    0 -0.26580683026E+03 -0.62600852409E+02 -0.31109265403E+03  0.43240695777E+03  0.12500000000E+03 0.  0.
</event>
<event>
 5    0  0.5634041E-005  0.3377782E+03  0.7546771E-02  0.1067746E+00
         21   -1    0    0  502  501  0.00000000000E+00  0.00000000000E+00  0.12777495591E+04  0.12777495591E+04  0.00000000000E+00 0.  1.
         21   -1    0    0  501  502 -0.00000000000E+00 -0.00000000000E+00 -0.89292994276E+02  0.89292994276E+02  0.00000000000E+00 0.  1.
         25    1    1    2    0    0  0.45506991734E+02 -0.88900367451E+01  0.20827440929E+03  0.24729162666E+03  0.12500000000E+03 0.  0.
         25    1    1    2    0    0  0.24916997781E+02 -0.15416738394E+03  0.83470647420E+03  0.85834045525E+03  0.12500000000E+03 0.  0.
         25    1    1    2    0    0 -0.70423989516E+02  0.16305742069E+03  0.14547568137E+03  0.26141047150E+03  0.12500000000E+03 0.  0.
</event>
<event>
 5    0  0.5634041E-005  0.3102938E+03  0.7546771E-02  0.1080205E+00
         21   -1    0    0  502  501  0.00000000000E+00  0.00000000000E+00  0.17318212571E+04  0.17318212571E+04  0.00000000000E+00 0.  1.
         21   -1    0    0  501  502 -0.00000000000E+00 -0.00000000000E+00 -0.55595958766E+02  0.55595958766E+02  0.00000000000E+00 0.  1.
         25    1    1    2    0    0 -0.79589459746E+02  0.12464457328E+03  0.84064653226E+03  0.86266003961E+03  0.12500000000E+03 0.  0.
         25    1    1    2    0    0  0.29856124955E+02 -0.14977692826E+03  0.22617246742E+03  0.30017245285E+03  0.12500000000E+03 0.  0.
         25    1    1    2    0    0  0.49733334791E+02  0.25132354979E+02  0.60940629868E+03  0.62458472342E+03  0.12500000000E+03 0.  0.
</event>
<event>
 5    0  0.5634041E-005  0.4996494E+03  0.7546771E-02  0.1013870E+00
         21   -1    0    0  502  501  0.00000000000E+00  0.00000000000E+00  0.31820282099E+03  0.31820282099E+03  0.00000000000E+00 0. -1.
         21   -1    0    0  501  502 -0.00000000000E+00 -0.00000000000E+00 -0.78456109339E+03  0.78456109339E+03  0.00000000000E+00 0. -1.
         25    1    1    2    0    0  0.24606775633E+03 -0.56495115693E+02 -0.55646298241E+03  0.62371234523E+03  0.12500000000E+03 0.  0.
         25    1    1    2    0    0 -0.20181915142E+03  0.16922504264E+03  0.22722094733E+02  0.29241986684E+03  0.12500000000E+03 0.  0.
         25    1    1    2    0    0 -0.44248604917E+02 -0.11272992695E+03  0.67382615272E+02  0.18663170231E+03  0.12500000000E+03 0.  0.
</event>
<event>
 5    0  0.5634041E-005  0.3402328E+03  0.7546771E-02  0.1066697E+00
         21   -1    0    0  502  501  0.00000000000E+00  0.00000000000E+00  0.14288524734E+04  0.14288524734E+04  0.00000000000E+00 0. -1.
         21   -1    0    0  501  502 -0.00000000000E+00 -0.00000000000E+00 -0.81014927558E+02  0.81014927558E+02  0.00000000000E+00 0. -1.
         25    1    1    2    0    0 -0.13738678405E+03  0.46333001264E+02  0.76437070146E+03  0.78797807374E+03  0.12500000000E+03 0.  0.
         25    1    1    2    0    0  0.21339480433E+03  0.22410981938E+02  0.44249204334E+03  0.50740891109E+03  0.12500000000E+03 0.  0.
         25    1    1    2    0    0 -0.76008020280E+02 -0.68743983202E+02  0.14097480101E+03  0.21448041610E+03  0.12500000000E+03 0.  0.
</event>
<event>
 5    0  0.5634041E-005  0.2259998E+03  0.7546771E-02  0.1129487E+00
         21   -1    0    0  502  501  0.00000000000E+00  0.00000000000E+00  0.41823744103E+03  0.41823744103E+03  0.00000000000E+00 0. -1.
         21   -1    0    0  501  502 -0.00000000000E+00 -0.00000000000E+00 -0.12212176859E+03  0.12212176859E+03  0.00000000000E+00 0. -1.
         25    1    1    2    0    0  0.20223765471E+02 -0.51948486973E+02  0.20935360481E+02  0.13845914671E+03  0.12500000000E+03 0.  0.
         25    1    1    2    0    0 -0.46421969010E+02  0.65328014203E+01  0.57262956616E+02  0.14526432081E+03  0.12500000000E+03 0.  0.
         25    1    1    2    0    0  0.26198203540E+02  0.45415685552E+02  0.21791735534E+03  0.25663574210E+03  0.12500000000E+03 0.  0.
</event>
<event>
 5    0  0.5634041E-005  0.3005944E+03  0.7546771E-02  0.1084944E+00
         21   -1    0    0  502  501  0.00000000000E+00  0.00000000000E+00  0.15721025409E+04  0.15721025409E+04  0.00000000000E+00 0.  1.
         21   -1    0    0  501  502 -0.00000000000E+00 -0.00000000000E+00 -0.57475243269E+02  0.57475243269E+02  0.00000000000E+00 0.  1.
         25    1    1    2    0    0 -0.18330583946E+02 -0.14340117427E+03  0.52940435122E+03  0.56284444937E+03  0.12500000000E+03 0.  0.
         25    1    1    2    0    0 -0.12138266013E+03  0.11288597512E+03  0.63836270433E+03  0.67127411378E+03  0.12500000000E+03 0.  0.
         25    1    1    2    0    0  0.13971324408E+03  0.30515199153E+02  0.34686024207E+03  0.39545922100E+03  0.12500000000E+03 0.  0.
</event>
<event>
 5    0  0.5634041E-005  0.2625972E+03  0.7546771E-02  0.1105593E+00
         21   -1    0    0  502  501  0.00000000000E+00  0.00000000000E+00  0.10199601612E+03  0.10199601612E+03  0.00000000000E+00 0. -1.
         21   -1    0    0  501  502 -0.00000000000E+00 -0.00000000000E+00 -0.67607842238E+03  0.67607842238E+03  0.00000000000E+00 0. -1.
         25    1    1    2    0    0  0.14118257722E+03 -0.34910828575E+01 -0.37068542410E+03  0.41590550779E+03  0.12500000000E+03 0.  0.
         25    1    1    2    0    0 -0.43221264859E+02 -0.30283158159E+02 -0.11137372108E+03  0.17553989049E+03  0.12500000000E+03 0.  0.
         25    1    1    2    0    0 -0.97961312360E+02  0.33774241016E+02 -0.92023261078E+02  0.18662904022E+03  0.12500000000E+03 0.  0.
</event>
<event>
 5    0  0.5634041E-005  0.2652721E+03  0.7546771E-02  0.1104016E+00
         21   -1    0    0  502  501  0.00000000000E+00  0.00000000000E+00  0.65136630801E+02  0.65136630801E+02  0.00000000000E+00 0. -1.
         21   -1    0    0  501  502 -0.00000000000E+00 -0.00000000000E+00 -0.10803332226E+04  0.10803332226E+04  0.00000000000E+00 0. -1.
         25    1    1    2    0    0  0.53925591602E+02  0.11215943805E+03 -0.26132379086E+03  0.31528214768E+03  0.12500000000E+03 0.  0.
         25    1    1    2    0    0 -0.63048594298E+02  0.44561487682E+02 -0.30912351774E+03  0.34226188897E+03  0.12500000000E+03 0.  0.
         25    1    1    2    0    0  0.91230026962E+01 -0.15672092573E+03 -0.44474928318E+03  0.48792581672E+03  0.12500000000E+03 0.  0.
</event>
<event>
 5    0  0.5634041E-005  0.4765880E+03  0.7546771E-02  0.1020077E+00
         21   -1    0    0  502  501  0.00000000000E+00  0.00000000000E+00  0.15939694969E+04  0.15939694969E+04  0.00000000000E+00 0. -1.
         21   -1    0    0  501  502 -0.00000000000E+00 -0.00000000000E+00 -0.14249714940E+03  0.14249714940E+03  0.00000000000E+00 0. -1.
         25    1    1    2    0    0  0.51400620156E+02  0.81148675996E+02  0.53674036025E+03  0.55941250048E+03  0.12500000000E+03 0.  0.
         25    1    1    2    0    0 -0.65919619752E+02 -0.27098187070E+03  0.89811940509E+03  0.94869385806E+03  0.12500000000E+03 0.  0.
         25    1    1    2    0    0  0.14518999596E+02  0.18983319470E+03  0.16612582190E+02  0.22836028781E+03  0.12500000000E+03 0.  0.
</event>
<event>
 5    0  0.5634041E-005  0.3292320E+03  0.7546771E-02  0.1071477E+00
         21   -1    0    0  502  501  0.00000000000E+00  0.00000000000E+00  0.27302990527E+03  0.27302990527E+03  0.00000000000E+00 0. -1.
         21   -1    0    0  501  502 -0.00000000000E+00 -0.00000000000E+00 -0.39700303116E+03  0.39700303116E+03  0.00000000000E+00 0. -1.
         25    1    1    2    0    0  0.29575552985E+02  0.20228487667E+02  0.94786775351E+02  0.16091438043E+03  0.12500000000E+03 0.  0.
         25    1    1    2    0    0  0.22151899895E+02  0.41774208427E+02 -0.30789827075E+03  0.33565180811E+03  0.12500000000E+03 0.  0.
         25    1    1    2    0    0 -0.51727452880E+02 -0.62002696094E+02  0.89138369510E+02  0.17346674789E+03  0.12500000000E+03 0.  0.
</event>
<event>
 5    0  0.5634041E-005  0.2897710E+03  0.7546771E-02  0.1090469E+00
         21   -1    0    0  502  501  0.00000000000E+00  0.00000000000E+00  0.29801690903E+04  0.29801690903E+04  0.00000000000E+00 0. -1.
         21   -1    0    0  501  502 -0.00000000000E+00 -0.00000000000E+00 -0.28175323071E+02  0.28175323071E+02  0.00000000000E+00 0. -1.
         25    1    1    2    0    0 -0.84066733985E+02  0.72596896315E+01  0.55388689381E+03  0.57405192273E+03  0.12500000000E+03 0.  0.
         25    1    1    2    0    0  0.62266335845E+02 -0.14767304358E+03  0.16563503306E+04  0.16687737540E+04  0.12500000000E+03 0.  0.
         25    1    1    2    0    0  0.21800398139E+02  0.14041335395E+03  0.74175654287E+03  0.76551873668E+03  0.12500000000E+03 0.  0.
</event>
<event>
 5    0  0.5634041E-005  0.2641760E+03  0.7546771E-02  0.1104660E+00
         21   -1    0    0  502  501  0.00000000000E+00  0.00000000000E+00  0.63583775834E+02  0.63583775834E+02  0.00000000000E+00 0.  1.
         21   -1    0    0  501  502 -0.00000000000E+00 -0.00000000000E+00 -0.10975904515E+04  0.10975904515E+04  0.00000000000E+00 0.  1.
         25    1    1    2    0    0  0.37995072138E+02 -0.85704278615E+02 -0.56846598454E+03  0.58954849203E+03  0.12500000000E+03 0.  0.
         25    1    1    2    0    0 -0.86333618273E+02  0.11957466606E+03 -0.27959100971E+03  0.33992311943E+03  0.12500000000E+03 0.  0.
         25    1    1    2    0    0  0.48338546135E+02 -0.33870387447E+02 -0.18594968144E+03  0.23170261590E+03  0.12500000000E+03 0.  0.
</event>
<event>
 5    0  0.5634041E-005  0.2935888E+03  0.7546771E-02  0.1088490E+00
         21   -1    0    0  502  501  0.00000000000E+00  0.00000000000E+00  0.10267218517E+04  0.10267218517E+04  0.00000000000E+00 0. -1.
         21   -1    0    0  501  502 -0.00000000000E+00 -0.00000000000E+00 -0.83951041484E+02  0.83951041484E+02  0.00000000000E+00 0. -1.
         25    1    1    2    0    0 -0.21575953842E+02 -0.67094681145E+02  0.53354405890E+03  0.55250473374E+03  0.12500000000E+03 0.  0.
         25    1    1    2    0    0 -0.65091952180E+02  0.98811636810E+02  0.35336179345E+03  0.39305248870E+03  0.12500000000E+03 0.  0.
         25    1    1    2    0    0  0.86667906023E+02 -0.31716955665E+02  0.55864957894E+02  0.16511567076E+03  0.12500000000E+03 0.  0.
</event>
<event>
 5    0  0.5634041E-005  0.2770360E+03  0.7546771E-02  0.1097319E+00
         21   -1    0    0  502  501  0.00000000000E+00  0.00000000000E+00  0.29885510001E+03  0.29885510001E+03  0.00000000000E+00 0.  1.
         21   -1    0    0  501  502 -0.00000000000E+00 -0.00000000000E+00 -0.25680994649E+03  0.25680994649E+03  0.00000000000E+00 0.  1.
         25    1    1    2    0    0  0.80684267433E+02  0.68953498274E+01 -0.13949982451E+03  0.20406542553E+03  0.12500000000E+03 0.  0.
         25    1    1    2    0    0  0.18635735537E+02 -0.27364523344E+02  0.35101710223E+02  0.13398969303E+03  0.12500000000E+03 0.  0.
         25    1    1    2    0    0 -0.99320002970E+02  0.20469173516E+02  0.14644326780E+03  0.21760992794E+03  0.12500000000E+03 0.  0.
</event>
<event>
 5    0  0.5634041E-005  0.2850036E+03  0.7546771E-02  0.1092987E+00
         21   -1    0    0  502  501  0.00000000000E+00  0.00000000000E+00  0.12131290999E+03  0.12131290999E+03  0.00000000000E+00 0.  1.
         21   -1    0    0  501  502 -0.00000000000E+00 -0.00000000000E+00 -0.66956633290E+03  0.66956633290E+03  0.00000000000E+00 0.  1.
         25    1    1    2    0    0  0.13510724047E+02  0.70701499123E+02 -0.23438679775E+03  0.27521521143E+03  0.12500000000E+03 0.  0.
         25    1    1    2    0    0 -0.10299163797E+03 -0.32136814115E+02 -0.31668650693E+03  0.35714898290E+03  0.12500000000E+03 0.  0.
         25    1    1    2    0    0  0.89480913922E+02 -0.38564685009E+02  0.28198817686E+01  0.15851504856E+03  0.12500000000E+03 0.  0.
</event>
<event>
 5    0  0.6374856E-005  0.3530101E+03  0.7546771E-02  0.1061386E+00
         21   -1    0    0  502  501  0.00000000000E+00  0.00000000000E+00  0.11851593655E+03  0.11851593655E+03  0.00000000000E+00 0. -1.
         21   -1    0    0  501  502 -0.00000000000E+00 -0.00000000000E+00 -0.10514712266E+04  0.10514712266E+04  0.00000000000E+00 0. -1.
         25    1    1    2    0    0 -0.19962596438E+03 -0.12683043742E+03 -0.38382789991E+03  0.46785183794E+03  0.12500000000E+03 0.  0.
         25    1    1    2    0    0  0.10066003428E+03  0.15897069442E+02 -0.53679391700E+02  0.16997539943E+03  0.12500000000E+03 0.  0.
         25    1    1    2    0    0  0.98965930099E+02  0.11093336797E+03 -0.49544799845E+03  0.53215992579E+03  0.12500000000E+03 0.  0.
</event>
<event>
 5    0  0.5634041E-005  0.2988429E+03  0.7546771E-02  0.1085820E+00
         21   -1    0    0  502  501  0.00000000000E+00  0.00000000000E+00  0.27421929750E+03  0.27421929750E+03  0.00000000000E+00 0.  1.
         21   -1    0    0  501  502 -0.00000000000E+00 -0.00000000000E+00 -0.32567768352E+03  0.32567768352E+03  0.00000000000E+00 0.  1.
         25    1    1    2    0    0 -0.32563558502E+02 -0.21084974630E+03 -0.21318366560E+02  0.24818838331E+03  0.12500000000E+03 0.  0.
         25    1    1    2    0    0 -0.32781010163E+02  0.59194167187E+02  0.18010916794E+01  0.14215058209E+03  0.12500000000E+03 0.  0.
         25    1    1    2    0    0  0.65344568666E+02  0.15165557912E+03 -0.31941111131E+02  0.20955801562E+03  0.12500000000E+03 0.  0.
</event>
<event>
 5    0  0.5634041E-005  0.2378159E+03  0.7546771E-02  0.1121256E+00
         21   -1    0    0  502  501  0.00000000000E+00  0.00000000000E+00  0.78053830776E+02  0.78053830776E+02  0.00000000000E+00 0. -1.
         21   -1    0    0  501  502 -0.00000000000E+00 -0.00000000000E+00 -0.72458180988E+03  0.72458180988E+03  0.00000000000E+00 0. -1.
         25    1    1    2    0    0  0.18084945720E+02 -0.42520656425E+02 -0.71211024638E+02  0.15109957483E+03  0.12500000000E+03 0.  0.
         25    1    1    2    0    0  0.45227076630E+02 -0.12864714219E+02 -0.39269557124E+03  0.41478404140E+03  0.12500000000E+03 0.  0.
         25    1    1    2    0    0 -0.63312022350E+02  0.55385370644E+02 -0.18262138323E+03  0.23675202442E+03  0.12500000000E+03 0.  0.
</event>
<event>
 5    0  0.5634041E-005  0.3729145E+03  0.7546771E-02  0.1053584E+00
         21   -1    0    0  502  501  0.00000000000E+00  0.00000000000E+00  0.27871294945E+03  0.27871294945E+03  0.00000000000E+00 0. -1.
         21   -1    0    0  501  502 -0.00000000000E+00 -0.00000000000E+00 -0.49895492810E+03  0.49895492810E+03  0.00000000000E+00 0. -1.
         25    1    1    2    0    0 -0.65355060596E+02  0.18220907505E+03  0.79535467905E+02  0.24376694122E+03  0.12500000000E+03 0.  0.
         25    1    1    2    0    0 -0.89578333358E+01 -0.16963237638E+03 -0.12026886241E+02  0.21124637722E+03  0.12500000000E+03 0.  0.
         25    1    1    2    0    0  0.74312893932E+02 -0.12576698670E+02 -0.28775056032E+03  0.32265455911E+03  0.12500000000E+03 0.  0.
</event>
<event>
 5    0  0.5634041E-005  0.2598954E+03  0.7546771E-02  0.1107206E+00
         21   -1    0    0  502  501  0.00000000000E+00  0.00000000000E+00  0.10946564423E+03  0.10946564423E+03  0.00000000000E+00 0. -1.
         21   -1    0    0  501  502 -0.00000000000E+00 -0.00000000000E+00 -0.61704837079E+03  0.61704837079E+03  0.00000000000E+00 0. -1.
         25    1    1    2    0    0 -0.28062315533E+02 -0.21198981400E+00 -0.35828814586E+03  0.38050352687E+03  0.12500000000E+03 0.  0.
         25    1    1    2    0    0 -0.63535185620E+02 -0.46084813244E+02 -0.94433751010E+02  0.17522346633E+03  0.12500000000E+03 0.  0.
         25    1    1    2    0    0  0.91597501153E+02  0.46296803058E+02 -0.54860829690E+02  0.17078702183E+03  0.12500000000E+03 0.  0.
</event>
<event>
 5    0  0.5660888E-005  0.3448267E+03  0.7546771E-02  0.1064759E+00
         21   -1    0    0  502  501  0.00000000000E+00  0.00000000000E+00  0.48872291550E+03  0.48872291550E+03  0.00000000000E+00 0. -1.
         21   -1    0    0  501  502 -0.00000000000E+00 -0.00000000000E+00 -0.24329827390E+03  0.24329827390E+03  0.00000000000E+00 0. -1.
         25    1    1    2    0    0  0.45855964326E+02  0.24674528936E+02 -0.74158028259E+02  0.15438916736E+03  0.12500000000E+03 0.  0.
         25    1    1    2    0    0 -0.11638177482E+03  0.91448701448E+02 -0.16235439285E+02  0.19441237614E+03  0.12500000000E+03 0.  0.
         25    1    1    2    0    0  0.70525810496E+02 -0.11612323038E+03  0.33581810914E+03  0.38321964590E+03  0.12500000000E+03 0.  0.
</event>
<event>
 5    0  0.6237819E-005  0.3187184E+03  0.7546771E-02  0.1076241E+00
         21   -1    0    0  502  501  0.00000000000E+00  0.00000000000E+00  0.31182085174E+03  0.31182085174E+03  0.00000000000E+00 0. -1.
         21   -1    0    0  501  502 -0.00000000000E+00 -0.00000000000E+00 -0.32576861483E+03  0.32576861483E+03  0.00000000000E+00 0. -1.
         25    1    1    2    0    0  0.94381212505E+02  0.89100088668E+01 -0.18095579596E+02  0.15792292909E+03  0.12500000000E+03 0.  0.
         25    1    1    2    0    0  0.11505168709E+03  0.20267630282E+02 -0.11550861729E+03  0.20643378650E+03  0.12500000000E+03 0.  0.
         25    1    1    2    0    0 -0.20943289960E+03 -0.29177639149E+02  0.11965643379E+03  0.27323275098E+03  0.12500000000E+03 0.  0.
</event>
<event>
 5    0  0.5634041E-005  0.2946540E+03  0.7546771E-02  0.1087944E+00
         21   -1    0    0  502  501  0.00000000000E+00  0.00000000000E+00  0.39526521385E+03  0.39526521385E+03  0.00000000000E+00 0. -1.
         21   -1    0    0  501  502 -0.00000000000E+00 -0.00000000000E+00 -0.21965248750E+03  0.21965248750E+03  0.00000000000E+00 0. -1.
         25    1    1    2    0    0  0.98397909130E+02 -0.60760849577E+02 -0.77713162437E+02  0.18718537597E+03  0.12500000000E+03 0.  0.
         25    1    1    2    0    0 -0.66004826488E+02  0.13462146445E+03  0.13037659491E+03  0.23473949883E+03  0.12500000000E+03 0.  0.
         25    1    1    2    0    0 -0.32393082642E+02 -0.73860614876E+02  0.12294929387E+03  0.19299282654E+03  0.12500000000E+03 0.  0.
</event>
<event>
 5    0  0.5634041E-005  0.2676698E+03  0.7546771E-02  0.1102621E+00
         21   -1    0    0  502  501  0.00000000000E+00  0.00000000000E+00  0.59444408515E+02  0.59444408515E+02  0.00000000000E+00 0.  1.
         21   -1    0    0  501  502 -0.00000000000E+00 -0.00000000000E+00 -0.12052794902E+04  0.12052794902E+04  0.00000000000E+00 0.  1.
         25    1    1    2    0    0 -0.66916040917E+02  0.12675848617E+03 -0.40712598430E+03  0.44935736050E+03  0.12500000000E+03 0.  0.
         25    1    1    2    0    0  0.16383278833E+02 -0.42651661319E+02 -0.12921437235E+03  0.18549644218E+03  0.12500000000E+03 0.  0.
         25    1    1    2    0    0  0.50532762083E+02 -0.84106824853E+02 -0.60949472506E+03  0.62987009606E+03  0.12500000000E+03 0.  0.
</event>
<event>
 5    0  0.5634041E-005  0.3160914E+03  0.7546771E-02  0.1077462E+00
         21   -1    0    0  502  501  0.00000000000E+00  0.00000000000E+00  0.10327613262E+04  0.10327613262E+04  0.00000000000E+00 0.  1.
         21   -1    0    0  501  502 -0.00000000000E+00 -0.00000000000E+00 -0.96744331089E+02  0.96744331089E+02  0.00000000000E+00 0.  1.
         25    1    1    2    0    0  0.16008425887E+03 -0.86311900757E+02  0.22634097478E+03  0.31612015281E+03  0.12500000000E+03 0.  0.
         25    1    1    2    0    0 -0.87673631139E+02  0.15182552785E+02  0.10081298519E+03  0.18359039596E+03  0.12500000000E+03 0.  0.
         25    1    1    2    0    0 -0.72410627730E+02  0.71129347972E+02  0.60886303512E+03  0.62979510850E+03  0.12500000000E+03 0.  0.
</event>
<event>
 5    0  0.5634041E-005  0.3617974E+03  0.7546771E-02  0.1057874E+00
         21   -1    0    0  502  501  0.00000000000E+00  0.00000000000E+00  0.50001943982E+03  0.50001943982E+03  0.00000000000E+00 0.  1.
         21   -1    0    0  501  502 -0.00000000000E+00 -0.00000000000E+00 -0.26178455571E+03  0.26178455571E+03  0.00000000000E+00 0.  1.
         25    1    1    2    0    0  0.22811065522E+03 -0.75712768104E+02  0.57273842500E+02  0.27689743104E+03  0.12500000000E+03 0.  0.
         25    1    1    2    0    0 -0.10590103478E+02  0.11413387562E+03  0.15503589267E+03  0.22978211391E+03  0.12500000000E+03 0.  0.
         25    1    1    2    0    0 -0.21752055175E+03 -0.38421107516E+02  0.25925148941E+02  0.25512445058E+03  0.12500000000E+03 0.  0.
</event>
<event>
 5    0  0.5634041E-005  0.3771214E+03  0.7546771E-02  0.1052003E+00
         21   -1    0    0  502  501  0.00000000000E+00  0.00000000000E+00  0.64692243984E+03  0.64692243984E+03  0.00000000000E+00 0.  1.
         21   -1    0    0  501  502 -0.00000000000E+00 -0.00000000000E+00 -0.21984170381E+03  0.21984170381E+03  0.00000000000E+00 0.  1.
         25    1    1    2    0    0  0.10432326764E+03  0.15854844947E+02  0.16551673950E+03  0.23271336733E+03  0.12500000000E+03 0.  0.
         25    1    1    2    0    0 -0.20202971033E+03 -0.22598495658E+02 -0.84603017968E+02  0.25319827509E+03  0.12500000000E+03 0.  0.
         25    1    1    2    0    0  0.97706442688E+02  0.67436507119E+01  0.34616701449E+03  0.38085250123E+03  0.12500000000E+03 0.  0.
</event>
<event>
 5    0  0.5634041E-005  0.5594451E+03  0.7546771E-02  0.9993311E-01
         21   -1    0    0  502  501  0.00000000000E+00  0.00000000000E+00  0.18127790709E+04  0.18127790709E+04  0.00000000000E+00 0. -1.
         21   -1    0    0  501  502 -0.00000000000E+00 -0.00000000000E+00 -0.17265139739E+03  0.17265139739E+03  0.00000000000E+00 0. -1.
         25    1    1    2    0    0  0.46863089718E+03 -0.88775904428E+02  0.89126296547E+03  0.10185630823E+04  0.12500000000E+03 0.  0.
         25    1    1    2    0    0 -0.36842203395E+03 -0.14171165575E+02  0.34426201446E+03  0.51968928374E+03  0.12500000000E+03 0.  0.
         25    1    1    2    0    0 -0.10020886323E+03  0.10294707000E+03  0.40460269363E+03  0.44717810230E+03  0.12500000000E+03 0.  0.
</event>
<event>
 5    0  0.5634041E-005  0.5109343E+03  0.7546771E-02  0.1010964E+00
         21   -1    0    0  502  501  0.00000000000E+00  0.00000000000E+00  0.13531629378E+04  0.13531629378E+04  0.00000000000E+00 0. -1.
         21   -1    0    0  501  502 -0.00000000000E+00 -0.00000000000E+00 -0.19292121900E+03  0.19292121900E+03  0.00000000000E+00 0. -1.
         25    1    1    2    0    0 -0.12631423502E+03 -0.35053844104E+02  0.34732591614E+02  0.18443267301E+03  0.12500000000E+03 0.  0.
         25    1    1    2    0    0  0.22623662605E+03  0.37139735973E+02  0.39720047373E+02  0.26413075004E+03  0.12500000000E+03 0.  0.
         25    1    1    2    0    0 -0.99922391029E+02 -0.20858918690E+01  0.10857890798E+04  0.10975207338E+04  0.12500000000E+03 0.  0.
</event>
<event>
 5    0  0.5634041E-005  0.2992816E+03  0.7546771E-02  0.1085600E+00
         21   -1    0    0  502  501  0.00000000000E+00  0.00000000000E+00  0.16540280618E+03  0.16540280618E+03  0.00000000000E+00 0. -1.
         21   -1    0    0  501  502 -0.00000000000E+00 -0.00000000000E+00 -0.54152325198E+03  0.54152325198E+03  0.00000000000E+00 0. -1.
         25    1    1    2    0    0  0.14898566952E+02 -0.44563492549E+02 -0.36630383461E+03  0.38988635705E+03  0.12500000000E+03 0.  0.
         25    1    1    2    0    0  0.61181025357E+02 -0.59228459805E+01 -0.63651049057E+02  0.15314912345E+03  0.12500000000E+03 0.  0.
         25    1    1    2    0    0 -0.76079592309E+02  0.50486338529E+02  0.53834437868E+02  0.16389057766E+03  0.12500000000E+03 0.  0.
</event>
<event>
 5    0  0.8713316E-005  0.2880220E+03  0.7546771E-02  0.1091386E+00
         21   -1    0    0  502  501  0.00000000000E+00  0.00000000000E+00  0.22710705353E+03  0.22710705353E+03  0.00000000000E+00 0. -1.
         21   -1    0    0  501  502 -0.00000000000E+00 -0.00000000000E+00 -0.36527552868E+03  0.36527552868E+03  0.00000000000E+00 0. -1.
         25    1    1    2    0    0  0.46933077334E+02 -0.16742877499E+03 -0.11769819660E+02  0.21447292859E+03  0.12500000000E+03 0.  0.
         25    1    1    2    0    0 -0.15442313060E+02  0.96654396372E+02  0.31801946844E+02  0.16191634011E+03  0.12500000000E+03 0.  0.
         25    1    1    2    0    0 -0.31490764274E+02  0.70774378619E+02 -0.15820060233E+03  0.21599331351E+03  0.12500000000E+03 0.  0.
</event>
<event>
 5    0  0.5634041E-005  0.2583427E+03  0.7546771E-02  0.1108143E+00
         21   -1    0    0  502  501  0.00000000000E+00  0.00000000000E+00  0.12344004664E+04  0.12344004664E+04  0.00000000000E+00 0.  1.
         21   -1    0    0  501  502 -0.00000000000E+00 -0.00000000000E+00 -0.54067483714E+02  0.54067483714E+02  0.00000000000E+00 0.  1.
         25    1    1    2    0    0  0.77677556037E+02 -0.32921111511E+01  0.45068948068E+03  0.47412092203E+03  0.12500000000E+03 0.  0.
         25    1    1    2    0    0  0.32988934226E+02 -0.86312497056E+02  0.45389905763E+03  0.47977856501E+03  0.12500000000E+03 0.  0.
         25    1    1    2    0    0 -0.11066649026E+03  0.89604608207E+02  0.27574444437E+03  0.33456846307E+03  0.12500000000E+03 0.  0.
</event>
<event>
 5    0  0.5634041E-005  0.2773568E+03  0.7546771E-02  0.1097141E+00
         21   -1    0    0  502  501  0.00000000000E+00  0.00000000000E+00  0.19352126794E+03  0.19352126794E+03  0.00000000000E+00 0. -1.
         21   -1    0    0  501  502 -0.00000000000E+00 -0.00000000000E+00 -0.39751088087E+03  0.39751088087E+03  0.00000000000E+00 0. -1.
         25    1    1    2    0    0 -0.54942698395E+02 -0.16294489003E+03 -0.88937239459E+02  0.23044428797E+03  0.12500000000E+03 0.  0.
         25    1    1    2    0    0  0.73519005537E+02  0.15352171427E+03 -0.45494889533E+02  0.21602950238E+03  0.12500000000E+03 0.  0.
         25    1    1    2    0    0 -0.18576307142E+02  0.94231757609E+01 -0.69557483934E+02  0.14455835846E+03  0.12500000000E+03 0.  0.
</event>
<event>
 5    0  0.5634041E-005  0.2635019E+03  0.7546771E-02  0.1105057E+00
         21   -1    0    0  502  501  0.00000000000E+00  0.00000000000E+00  0.75565441143E+03  0.75565441143E+03  0.00000000000E+00 0.  1.
         21   -1    0    0  501  502 -0.00000000000E+00 -0.00000000000E+00 -0.91884899848E+02  0.91884899848E+02  0.00000000000E+00 0.  1.
         25    1    1    2    0    0  0.73498972232E+02  0.64269658057E+02  0.27597690290E+03  0.31830950159E+03  0.12500000000E+03 0.  0.
         25    1    1    2    0    0 -0.11110323042E+03 -0.90666619683E+02  0.33643452821E+03  0.38649392687E+03  0.12500000000E+03 0.  0.
         25    1    1    2    0    0  0.37604258187E+02  0.26396961626E+02  0.51358080478E+02  0.14273588283E+03  0.12500000000E+03 0.  0.
</event>
<event>
 5    0  0.5634041E-005  0.3501816E+03  0.7546771E-02  0.1062541E+00
         21   -1    0    0  502  501  0.00000000000E+00  0.00000000000E+00  0.12528635496E+04  0.12528635496E+04  0.00000000000E+00 0. -1.
         21   -1    0    0  501  502 -0.00000000000E+00 -0.00000000000E+00 -0.97877511324E+02  0.97877511324E+02  0.00000000000E+00 0. -1.
         25    1    1    2    0    0  0.16912630560E+03  0.88984975203E+02  0.20973799359E+03  0.31005976684E+03  0.12500000000E+03 0.  0.
         25    1    1    2    0    0  0.51578347060E+02 -0.92323290946E+02  0.52367004894E+03  0.54867042575E+03  0.12500000000E+03 0.  0.
         25    1    1    2    0    0 -0.22070465266E+03  0.33383157423E+01  0.42157799577E+03  0.49201086835E+03  0.12500000000E+03 0.  0.
</event>
<event>
 5    0  0.5634041E-005  0.3322735E+03  0.7546771E-02  0.1070135E+00
         21   -1    0    0  502  501  0.00000000000E+00  0.00000000000E+00  0.55649964017E+03  0.55649964017E+03  0.00000000000E+00 0.  1.
         21   -1    0    0  501  502 -0.00000000000E+00 -0.00000000000E+00 -0.19839307050E+03  0.19839307050E+03  0.00000000000E+00 0.  1.
         25    1    1    2    0    0  0.12069000575E+02  0.16215578653E+03  0.16154209130E+03  0.26107663078E+03  0.12500000000E+03 0.  0.
         25    1    1    2    0    0  0.11893216534E+02  0.93292194615E+02  0.18731064822E+02  0.15754597730E+03  0.12500000000E+03 0.  0.
         25    1    1    2    0    0 -0.23962217109E+02 -0.25544798114E+03  0.17783341355E+03  0.33627010258E+03  0.12500000000E+03 0.  0.
</event>
<event>
 5    0  0.5634041E-005  0.3895120E+03  0.7546771E-02  0.1047473E+00
         21   -1    0    0  502  501  0.00000000000E+00  0.00000000000E+00  0.54901359938E+03  0.54901359938E+03  0.00000000000E+00 0.  1.
         21   -1    0    0  501  502 -0.00000000000E+00 -0.00000000000E+00 -0.27634947745E+03  0.27634947745E+03  0.00000000000E+00 0.  1.
         25    1    1    2    0    0 -0.10482004973E+03 -0.93436646374E+02 -0.67785883812E+02  0.19984387845E+03  0.12500000000E+03 0.  0.
         25    1    1    2    0    0 -0.12528054817E+03 -0.16962542861E+02 -0.54276865452E+01  0.17786906249E+03  0.12500000000E+03 0.  0.
         25    1    1    2    0    0  0.23010059791E+03  0.11039918923E+03  0.34587769228E+03  0.44765013588E+03  0.12500000000E+03 0.  0.
</event>
<event>
 5    0  0.5634041E-005  0.2393799E+03  0.7546771E-02  0.1120207E+00
         21   -1    0    0  502  501  0.00000000000E+00  0.00000000000E+00  0.22155192363E+04  0.22155192363E+04  0.00000000000E+00 0.  1.
         21   -1    0    0  501  502 -0.00000000000E+00 -0.00000000000E+00 -0.25864241000E+02  0.25864241000E+02  0.00000000000E+00 0.  1.
         25    1    1    2    0    0 -0.23497481820E+02 -0.93782038846E+02  0.80507394614E+03  0.82043662840E+03  0.12500000000E+03 0.  0.
         25    1    1    2    0    0  0.13351064328E+02  0.13036807679E+03  0.64622702271E+03  0.67112476578E+03  0.12500000000E+03 0.  0.
         25    1    1    2    0    0  0.10146417492E+02 -0.36586037948E+02  0.73835402642E+03  0.74982208309E+03  0.12500000000E+03 0.  0.
</event>
<event>
 5    0  0.5634041E-005  0.2673469E+03  0.7546771E-02  0.1102808E+00
         21   -1    0    0  502  501  0.00000000000E+00  0.00000000000E+00  0.22048640251E+03  0.22048640251E+03  0.00000000000E+00 0.  1.
         21   -1    0    0  501  502 -0.00000000000E+00 -0.00000000000E+00 -0.32416685175E+03  0.32416685175E+03  0.00000000000E+00 0.  1.
         25    1    1    2    0    0 -0.11823325364E+03  0.52858743043E+02 -0.83282999570E+02  0.19832853299E+03  0.12500000000E+03 0.  0.
         25    1    1    2    0    0  0.88124355850E+02  0.21595640041E+02  0.72990603115E+02  0.17083589174E+03  0.12500000000E+03 0.  0.
         25    1    1    2    0    0  0.30108897788E+02 -0.74454383084E+02 -0.93388052790E+02  0.17548882953E+03  0.12500000000E+03 0.  0.
</event>
<event>
 5    0  0.5634041E-005  0.3648294E+03  0.7546771E-02  0.1056688E+00
         21   -1    0    0  502  501  0.00000000000E+00  0.00000000000E+00  0.16470394746E+03  0.16470394746E+03  0.00000000000E+00 0. -1.
         21   -1    0    0  501  502 -0.00000000000E+00 -0.00000000000E+00 -0.80811945839E+03  0.80811945839E+03  0.00000000000E+00 0. -1.
         25    1    1    2    0    0 -0.11870545579E+03 -0.22586419973E+03 -0.16445223657E+03  0.32829127321E+03  0.12500000000E+03 0.  0.
         25    1    1    2    0    0 -0.63313074863E+02  0.52404747411E+02 -0.18666694597E+03  0.23921611927E+03  0.12500000000E+03 0.  0.
         25    1    1    2    0    0  0.18201853066E+03  0.17345945232E+03 -0.29229632839E+03  0.40531601336E+03  0.12500000000E+03 0.  0.
</event>
<event>
 5    0  0.5634041E-005  0.2848572E+03  0.7546771E-02  0.1093065E+00
         21   -1    0    0  502  501  0.00000000000E+00  0.00000000000E+00  0.16622394538E+03  0.16622394538E+03  0.00000000000E+00 0.  1.
         21   -1    0    0  501  502 -0.00000000000E+00 -0.00000000000E+00 -0.48815845735E+03  0.48815845735E+03  0.00000000000E+00 0.  1.
         25    1    1    2    0    0  0.41212842617E+02 -0.15222816912E+02 -0.37669000303E+02  0.13774681897E+03  0.12500000000E+03 0.  0.
         25    1    1    2    0    0 -0.45145813930E+02 -0.65449232812E+02  0.45391264751E+02  0.15494229089E+03  0.12500000000E+03 0.  0.
         25    1    1    2    0    0  0.39329713138E+01  0.80672049724E+02 -0.32965677642E+03  0.36169329287E+03  0.12500000000E+03 0.  0.
</event>
<event>
 5    0  0.5634041E-005  0.2028337E+03  0.7546771E-02  0.1147370E+00
         21   -1    0    0  502  501  0.00000000000E+00  0.00000000000E+00  0.66096542056E+02  0.66096542056E+02  0.00000000000E+00 0. -1.
         21   -1    0    0  501  502 -0.00000000000E+00 -0.00000000000E+00 -0.62244599061E+03  0.62244599061E+03  0.00000000000E+00 0. -1.
         25    1    1    2    0    0  0.50315688653E+02  0.12754045112E+02 -0.15889080373E+03  0.20872379285E+03  0.12500000000E+03 0.  0.
         25    1    1    2    0    0  0.11119375178E+02  0.10582253197E+02 -0.21389153031E+03  0.24821404337E+03  0.12500000000E+03 0.  0.
         25    1    1    2    0    0 -0.61435063831E+02 -0.23336298309E+02 -0.18356711452E+03  0.23160469645E+03  0.12500000000E+03 0.  0.
</event>
<event>
 5    0  0.5694230E-005  0.3091552E+03  0.7546771E-02  0.1080752E+00
         21   -1    0    0  502  501  0.00000000000E+00  0.00000000000E+00  0.13416914563E+03  0.13416914563E+03  0.00000000000E+00 0. -1.
         21   -1    0    0  501  502 -0.00000000000E+00 -0.00000000000E+00 -0.71236136151E+03  0.71236136151E+03  0.00000000000E+00 0. -1.
         25    1    1    2    0    0 -0.11006973205E+03 -0.77640814565E+02 -0.84274234631E+02  0.20216475613E+03  0.12500000000E+03 0.  0.
         25    1    1    2    0    0  0.20125030664E+02  0.75675132761E+02 -0.46478013768E+03  0.48762415748E+03  0.12500000000E+03 0.  0.
         25    1    1    2    0    0  0.89944701385E+02  0.19656818038E+01 -0.29137843565E+02  0.15674159352E+03  0.12500000000E+03 0.  0.
</event>
<event>
 5    0  0.5634041E-005  0.3397512E+03  0.7546771E-02  0.1066902E+00
         21   -1    0    0  502  501  0.00000000000E+00  0.00000000000E+00  0.22689020145E+04  0.22689020145E+04  0.00000000000E+00 0. -1.
         21   -1    0    0  501  502 -0.00000000000E+00 -0.00000000000E+00 -0.50875220118E+02  0.50875220118E+02  0.00000000000E+00 0. -1.
         25    1    1    2    0    0 -0.99147675350E+02  0.72092601564E+02  0.62473417618E+03  0.64880304840E+03  0.12500000000E+03 0.  0.
         25    1    1    2    0    0  0.12341612894E+03  0.16001803397E+03  0.69630126272E+03  0.73572940715E+03  0.12500000000E+03 0.  0.
         25    1    1    2    0    0 -0.24268453593E+02 -0.23211063553E+03  0.89699135552E+03  0.93524477910E+03  0.12500000000E+03 0.  0.
</event>
<event>
 5    0  0.5634041E-005  0.3453110E+03  0.7546771E-02  0.1064556E+00
         21   -1    0    0  502  501  0.00000000000E+00  0.00000000000E+00  0.57466291689E+03  0.57466291689E+03  0.00000000000E+00 0.  1.
         21   -1    0    0  501  502 -0.00000000000E+00 -0.00000000000E+00 -0.20749499150E+03  0.20749499150E+03  0.00000000000E+00 0.  1.
         25    1    1    2    0    0  0.27804674182E+02 -0.22254430927E+02  0.70041305128E+02  0.14764533188E+03  0.12500000000E+03 0.  0.
         25    1    1    2    0    0 -0.25206934915E+03 -0.14567382668E+02  0.71338524336E+02  0.29062923196E+03  0.12500000000E+03 0.  0.
         25    1    1    2    0    0  0.22426467496E+03  0.36821813595E+02  0.22578809593E+03  0.34388334454E+03  0.12500000000E+03 0.  0.
</event>
<event>
 5    0  0.5634041E-005  0.2610023E+03  0.7546771E-02  0.1106543E+00
         21   -1    0    0  502  501  0.00000000000E+00  0.00000000000E+00  0.72253518180E+03  0.72253518180E+03  0.00000000000E+00 0.  1.
         21   -1    0    0  501  502 -0.00000000000E+00 -0.00000000000E+00 -0.94282172942E+02  0.94282172942E+02  0.00000000000E+00 0.  1.
         25    1    1    2    0    0 -0.21058491701E+02 -0.18646892992E+02  0.89342848298E+01  0.12843670868E+03  0.12500000000E+03 0.  0.
         25    1    1    2    0    0 -0.35854813832E+02  0.54478778256E+02  0.19272459062E+03  0.23879127451E+03  0.12500000000E+03 0.  0.
         25    1    1    2    0    0  0.56913305533E+02 -0.35831885264E+02  0.42659413341E+03  0.44958937155E+03  0.12500000000E+03 0.  0.
</event>
<event>
 5    0  0.5634041E-005  0.2389588E+03  0.7546771E-02  0.1120488E+00
         21   -1    0    0  502  501  0.00000000000E+00  0.00000000000E+00  0.12150058378E+03  0.12150058378E+03  0.00000000000E+00 0.  1.
         21   -1    0    0  501  502 -0.00000000000E+00 -0.00000000000E+00 -0.46996746421E+03  0.46996746421E+03  0.00000000000E+00 0.  1.
         25    1    1    2    0    0 -0.55792834273E+02 -0.52184828090E+01 -0.42611186789E+02  0.14346005074E+03  0.12500000000E+03 0.  0.
         25    1    1    2    0    0  0.11017830328E+03 -0.40876269493E+02 -0.22499334297E+03  0.28294369104E+03  0.12500000000E+03 0.  0.
         25    1    1    2    0    0 -0.54385469002E+02  0.46094752302E+02 -0.80862350675E+02  0.16506430621E+03  0.12500000000E+03 0.  0.
</event>
<event>
 5    0  0.5634041E-005  0.5418481E+03  0.7546771E-02  0.1003399E+00
         21   -1    0    0  502  501  0.00000000000E+00  0.00000000000E+00  0.78699127779E+03  0.78699127779E+03  0.00000000000E+00 0.  1.
         21   -1    0    0  501  502 -0.00000000000E+00 -0.00000000000E+00 -0.37306560640E+03  0.37306560640E+03  0.00000000000E+00 0.  1.
         25    1    1    2    0    0 -0.43942070266E+03 -0.10288792922E+03  0.36658391699E+03  0.59471442567E+03  0.12500000000E+03 0.  0.
         25    1    1    2    0    0  0.35848407969E+03  0.14823271841E+03  0.28897270132E+02  0.40858759944E+03  0.12500000000E+03 0.  0.
         25    1    1    2    0    0  0.80936622971E+02 -0.45344789191E+02  0.18444484257E+02  0.15675485908E+03  0.12500000000E+03 0.  0.
</event>
<event>
 5    0  0.5634041E-005  0.3661641E+03  0.7546771E-02  0.1056169E+00
         21   -1    0    0  502  501  0.00000000000E+00  0.00000000000E+00  0.19653930515E+04  0.19653930515E+04  0.00000000000E+00 0.  1.
         21   -1    0    0  501  502 -0.00000000000E+00 -0.00000000000E+00 -0.68218506679E+02  0.68218506679E+02  0.00000000000E+00 0.  1.
         25    1    1    2    0    0 -0.31008128514E+02 -0.61668982542E+02  0.28732772906E+03  0.32085322397E+03  0.12500000000E+03 0.  0.
         25    1    1    2    0    0 -0.20853387379E+03  0.14608476388E+03  0.10167295806E+04  0.10555525448E+04  0.12500000000E+03 0.  0.
         25    1    1    2    0    0  0.23954200231E+03 -0.84415781339E+02  0.59311723522E+03  0.65720578948E+03  0.12500000000E+03 0.  0.
</event>
<event>
 5    0  0.5634041E-005  0.2712191E+03  0.7546771E-02  0.1100584E+00
         21   -1    0    0  502  501  0.00000000000E+00  0.00000000000E+00  0.23366774494E+03  0.23366774494E+03  0.00000000000E+00 0. -1.
         21   -1    0    0  501  502 -0.00000000000E+00 -0.00000000000E+00 -0.31480512297E+03  0.31480512297E+03  0.00000000000E+00 0. -1.
         25    1    1    2    0    0  0.12877382685E+02  0.61141460465E+02 -0.76154472781E+02  0.15914964309E+03  0.12500000000E+03 0.  0.
         25    1    1    2    0    0 -0.13132396721E+03 -0.29059824781E+02  0.72979502910E+02  0.19758913337E+03  0.12500000000E+03 0.  0.
         25    1    1    2    0    0  0.11844658453E+03 -0.32081635685E+02 -0.77962408157E+02  0.19173409144E+03  0.12500000000E+03 0.  0.
</event>
<event>
 5    0  0.5671716E-005  0.2907317E+03  0.7546771E-02  0.1089968E+00
         21   -1    0    0  502  501  0.00000000000E+00  0.00000000000E+00  0.26500301293E+03  0.26500301293E+03  0.00000000000E+00 0. -1.
         21   -1    0    0  501  502 -0.00000000000E+00 -0.00000000000E+00 -0.31895844570E+03  0.31895844570E+03  0.00000000000E+00 0. -1.
         25    1    1    2    0    0 -0.56354216868E+02  0.11941291671E+03 -0.75894501226E+01  0.18198308215E+03  0.12500000000E+03 0.  0.
         25    1    1    2    0    0  0.82899969095E+02 -0.90436930004E+02  0.10307644052E+03  0.20322646426E+03  0.12500000000E+03 0.  0.
         25    1    1    2    0    0 -0.26545752227E+02 -0.28975986707E+02 -0.14944242317E+03  0.19875191222E+03  0.12500000000E+03 0.  0.
</event>
<event>
 5    0  0.5682579E-005  0.2906267E+03  0.7546771E-02  0.1090022E+00
         21   -1    0    0  502  501  0.00000000000E+00  0.00000000000E+00  0.32331015878E+03  0.32331015878E+03  0.00000000000E+00 0. -1.
         21   -1    0    0  501  502 -0.00000000000E+00 -0.00000000000E+00 -0.26124717385E+03  0.26124717385E+03  0.00000000000E+00 0. -1.
         25    1    1    2    0    0  0.97418662275E+02  0.10344888730E+03 -0.12336311420E+03  0.22591043798E+03  0.12500000000E+03 0.  0.
         25    1    1    2    0    0 -0.87672974968E+01 -0.84762142533E+02  0.75108117164E+02  0.16890149667E+03  0.12500000000E+03 0.  0.
         25    1    1    2    0    0 -0.88651364779E+02 -0.18686744768E+02  0.11031798197E+03  0.18974539798E+03  0.12500000000E+03 0.  0.
</event>
<event>
 5    0  0.5634041E-005  0.2959084E+03  0.7546771E-02  0.1087304E+00
         21   -1    0    0  502  501  0.00000000000E+00  0.00000000000E+00  0.14780742372E+03  0.14780742372E+03  0.00000000000E+00 0. -1.
         21   -1    0    0  501  502 -0.00000000000E+00 -0.00000000000E+00 -0.59240452662E+03  0.59240452662E+03  0.00000000000E+00 0. -1.
         25    1    1    2    0    0 -0.24487701614E+02 -0.42730391256E+02 -0.51082440119E+02  0.14373569339E+03  0.12500000000E+03 0.  0.
         25    1    1    2    0    0  0.23671626081E+00 -0.46977805637E+02  0.37069470574E+02  0.13858613172E+03  0.12500000000E+03 0.  0.
         25    1    1    2    0    0  0.24250985353E+02  0.89708196893E+02 -0.43058413335E+03  0.45789012522E+03  0.12500000000E+03 0.  0.
</event>
<event>
 5    0  0.6529662E-005  0.2981738E+03  0.7546771E-02  0.1086157E+00
         21   -1    0    0  502  501  0.00000000000E+00  0.00000000000E+00  0.33421924416E+03  0.33421924416E+03  0.00000000000E+00 0. -1.
         21   -1    0    0  501  502 -0.00000000000E+00 -0.00000000000E+00 -0.26601575842E+03  0.26601575842E+03  0.00000000000E+00 0. -1.
         25    1    1    2    0    0 -0.55969643847E+01  0.55182171955E+02  0.13018094414E+03  0.18880804096E+03  0.12500000000E+03 0.  0.
         25    1    1    2    0    0 -0.20511167909E+02 -0.18338072990E+03 -0.58588231243E+02  0.23044908537E+03  0.12500000000E+03 0.  0.
         25    1    1    2    0    0  0.26108132294E+02  0.12819855795E+03 -0.33892271672E+01  0.18097787625E+03  0.12500000000E+03 0.  0.
</event>
<event>
 5    0  0.5634041E-005  0.3970251E+03  0.7546771E-02  0.1044815E+00
         21   -1    0    0  502  501  0.00000000000E+00  0.00000000000E+00  0.37855369343E+03  0.37855369343E+03  0.00000000000E+00 0.  1.
         21   -1    0    0  501  502 -0.00000000000E+00 -0.00000000000E+00 -0.41639773944E+03  0.41639773944E+03  0.00000000000E+00 0.  1.
         25    1    1    2    0    0 -0.11582963953E+03  0.16609450352E+03 -0.55280362117E+02  0.24430474398E+03  0.12500000000E+03 0.  0.
         25    1    1    2    0    0 -0.11357732585E+03  0.71596191819E+02  0.64230620400E+02  0.19436150912E+03  0.12500000000E+03 0.  0.
         25    1    1    2    0    0  0.22940696538E+03 -0.23769069534E+03 -0.46794304289E+02  0.35628517978E+03  0.12500000000E+03 0.  0.
</event>
<event>
 5    0  0.5634041E-005  0.3742823E+03  0.7546771E-02  0.1053068E+00
         21   -1    0    0  502  501  0.00000000000E+00  0.00000000000E+00  0.15996278615E+04  0.15996278615E+04  0.00000000000E+00 0. -1.
         21   -1    0    0  501  502 -0.00000000000E+00 -0.00000000000E+00 -0.87574884906E+02  0.87574884906E+02  0.00000000000E+00 0. -1.
         25    1    1    2    0    0 -0.11987090866E+03 -0.11133740399E+03  0.93920512881E+02  0.22629872958E+03  0.12500000000E+03 0.  0.
         25    1    1    2    0    0 -0.24725530132E+02  0.11601176332E+02  0.67990953890E+03  0.69184385538E+03  0.12500000000E+03 0.  0.
         25    1    1    2    0    0  0.14459643879E+03  0.99736227657E+02  0.73822292485E+03  0.76906016149E+03  0.12500000000E+03 0.  0.
</event>
<event>
 5    0  0.5634041E-005  0.2504054E+03  0.7546771E-02  0.1113049E+00
         21   -1    0    0  502  501  0.00000000000E+00  0.00000000000E+00  0.21668507704E+03  0.21668507704E+03  0.00000000000E+00 0. -1.
         21   -1    0    0  501  502 -0.00000000000E+00 -0.00000000000E+00 -0.28937321542E+03  0.28937321542E+03  0.00000000000E+00 0. -1.
         25    1    1    2    0    0  0.61337838211E+02  0.12602930185E+03  0.24469687244E+02  0.18939239931E+03  0.12500000000E+03 0.  0.
         25    1    1    2    0    0 -0.10777188602E+02 -0.96348331216E+02 -0.80808218800E+02  0.17763478530E+03  0.12500000000E+03 0.  0.
         25    1    1    2    0    0 -0.50560649608E+02 -0.29680970634E+02 -0.16349606822E+02  0.13903110785E+03  0.12500000000E+03 0.  0.
</event>
<event>
 5    0  0.5634041E-005  0.3769883E+03  0.7546771E-02  0.1052053E+00
         21   -1    0    0  502  501  0.00000000000E+00  0.00000000000E+00  0.56801936521E+03  0.56801936521E+03  0.00000000000E+00 0.  1.
         21   -1    0    0  501  502 -0.00000000000E+00 -0.00000000000E+00 -0.25020310381E+03  0.25020310381E+03  0.00000000000E+00 0.  1.
         25    1    1    2    0    0 -0.12747390452E+03  0.58219233659E+02  0.36668545405E+02  0.19133389068E+03  0.12500000000E+03 0.  0.
         25    1    1    2    0    0 -0.11607158839E+03 -0.10772696288E+03 -0.36090685195E+02  0.20495182293E+03  0.12500000000E+03 0.  0.
         25    1    1    2    0    0  0.24354549291E+03  0.49507729222E+02  0.31723840119E+03  0.42193675541E+03  0.12500000000E+03 0.  0.
</event>
<event>
 5    0  0.5634041E-005  0.3110170E+03  0.7546771E-02  0.1079859E+00
         21   -1    0    0  502  501  0.00000000000E+00  0.00000000000E+00  0.58697846997E+03  0.58697846997E+03  0.00000000000E+00 0.  1.
         21   -1    0    0  501  502 -0.00000000000E+00 -0.00000000000E+00 -0.16479578561E+03  0.16479578561E+03  0.00000000000E+00 0.  1.
         25    1    1    2    0    0 -0.15037367471E+02 -0.65547183984E+02 -0.68850542675E+01  0.14210897129E+03  0.12500000000E+03 0.  0.
         25    1    1    2    0    0  0.16533320110E+03 -0.39498668344E+02  0.19983076351E+03  0.29060720265E+03  0.12500000000E+03 0.  0.
         25    1    1    2    0    0 -0.15029583363E+03  0.10504585233E+03  0.22923697511E+03  0.31905808164E+03  0.12500000000E+03 0.  0.
</event>
<event>
 5    0  0.5634041E-005  0.4050703E+03  0.7546771E-02  0.1042038E+00
         21   -1    0    0  502  501  0.00000000000E+00  0.00000000000E+00  0.95982317057E+03  0.95982317057E+03  0.00000000000E+00 0.  1.
         21   -1    0    0  501  502 -0.00000000000E+00 -0.00000000000E+00 -0.17095022194E+03  0.17095022194E+03  0.00000000000E+00 0.  1.
         25    1    1    2    0    0  0.39914182670E+02 -0.25054845903E+03  0.37020869309E+03  0.46588319216E+03  0.12500000000E+03 0.  0.
         25    1    1    2    0    0 -0.11280853434E+03  0.16266063344E+02  0.33797483935E+03  0.37794489316E+03  0.12500000000E+03 0.  0.
         25    1    1    2    0    0  0.72894351673E+02  0.23428239568E+03  0.80689416191E+02  0.28694530719E+03  0.12500000000E+03 0.  0.
</event>
<event>
 5    0  0.7456907E-005  0.3009643E+03  0.7546771E-02  0.1084760E+00
         21   -1    0    0  502  501  0.00000000000E+00  0.00000000000E+00  0.46338753011E+03  0.46338753011E+03  0.00000000000E+00 0.  1.
         21   -1    0    0  501  502 -0.00000000000E+00 -0.00000000000E+00 -0.19547243345E+03  0.19547243345E+03  0.00000000000E+00 0.  1.
         25    1    1    2    0    0 -0.41987244030E+02  0.10792122728E+03  0.11588315187E+03  0.20606752497E+03  0.12500000000E+03 0.  0.
         25    1    1    2    0    0 -0.10700631476E+02 -0.21819206589E+03  0.90183398874E+02  0.26735804937E+03  0.12500000000E+03 0.  0.
         25    1    1    2    0    0  0.52687875506E+02  0.11027083861E+03  0.61848545922E+02  0.18543438922E+03  0.12500000000E+03 0.  0.
</event>
<event>
 5    0  0.5634041E-005  0.4766395E+03  0.7546771E-02  0.1020063E+00
         21   -1    0    0  502  501  0.00000000000E+00  0.00000000000E+00  0.23429754641E+03  0.23429754641E+03  0.00000000000E+00 0. -1.
         21   -1    0    0  501  502 -0.00000000000E+00 -0.00000000000E+00 -0.96964385121E+03  0.96964385121E+03  0.00000000000E+00 0. -1.
         25    1    1    2    0    0 -0.17217889674E+03 -0.22929012639E+03 -0.30548783410E+03  0.43722688770E+03  0.12500000000E+03 0.  0.
         25    1    1    2    0    0  0.25359275008E+03 -0.71129536974E+02 -0.26049945944E+03  0.39096503973E+03  0.12500000000E+03 0.  0.
         25    1    1    2    0    0 -0.81413853339E+02  0.30041966337E+03 -0.16935901126E+03  0.37574947019E+03  0.12500000000E+03 0.  0.
</event>
<event>
 5    0  0.5634041E-005  0.3716119E+03  0.7546771E-02  0.1054078E+00
         21   -1    0    0  502  501  0.00000000000E+00  0.00000000000E+00  0.80127346285E+02  0.80127346285E+02  0.00000000000E+00 0. -1.
         21   -1    0    0  501  502 -0.00000000000E+00 -0.00000000000E+00 -0.17234495392E+04  0.17234495392E+04  0.00000000000E+00 0. -1.
         25    1    1    2    0    0  0.43203615997E+02  0.13594810094E+03 -0.26351761389E+03  0.32467671832E+03  0.12500000000E+03 0.  0.
         25    1    1    2    0    0 -0.13300206533E+03 -0.26410413682E+03 -0.98838337203E+03  0.10392147202E+04  0.12500000000E+03 0.  0.
         25    1    1    2    0    0  0.89798449330E+02  0.12815603588E+03 -0.39142120696E+03  0.43968544699E+03  0.12500000000E+03 0.  0.
</event>
<event>
 5    0  0.5634041E-005  0.3066271E+03  0.7546771E-02  0.1081974E+00
         21   -1    0    0  502  501  0.00000000000E+00  0.00000000000E+00  0.13781364627E+04  0.13781364627E+04  0.00000000000E+00 0. -1.
         21   -1    0    0  501  502 -0.00000000000E+00 -0.00000000000E+00 -0.68222701619E+02  0.68222701619E+02  0.00000000000E+00 0. -1.
         25    1    1    2    0    0 -0.81353631933E+02  0.73166828827E+02  0.53796348299E+03  0.56302886897E+03  0.12500000000E+03 0.  0.
         25    1    1    2    0    0 -0.11412567959E+03 -0.20470932282E+02  0.46287664817E+03  0.49327834052E+03  0.12500000000E+03 0.  0.
         25    1    1    2    0    0  0.19547931153E+03 -0.52695896545E+02  0.30907362995E+03  0.39005195484E+03  0.12500000000E+03 0.  0.
</event>
<event>
 5    0  0.5634041E-005  0.3795325E+03  0.7546771E-02  0.1051107E+00
         21   -1    0    0  502  501  0.00000000000E+00  0.00000000000E+00  0.12064646640E+04  0.12064646640E+04  0.00000000000E+00 0.  1.
         21   -1    0    0  501  502 -0.00000000000E+00 -0.00000000000E+00 -0.11939424548E+03  0.11939424548E+03  0.00000000000E+00 0. -1.
         25    1    1    2    0    0 -0.28213903978E+02 -0.10666072143E+03  0.17649171472E+03  0.24278974286E+03  0.12500000000E+03 0.  0.
         25    1    1    2    0    0  0.10766195642E+03  0.17571405110E+03  0.88552800545E+03  0.91774254181E+03  0.12500000000E+03 0.  0.
         25    1    1    2    0    0 -0.79448052445E+02 -0.69053329674E+02  0.25050698323E+02  0.16532662479E+03  0.12500000000E+03 0.  0.
</event>
<event>
 5    0  0.5634041E-005  0.3670003E+03  0.7546771E-02  0.1055846E+00
         21   -1    0    0  502  501  0.00000000000E+00  0.00000000000E+00  0.79448936619E+03  0.79448936619E+03  0.00000000000E+00 0.  1.
         21   -1    0    0  501  502 -0.00000000000E+00 -0.00000000000E+00 -0.16952925641E+03  0.16952925641E+03  0.00000000000E+00 0.  1.
         25    1    1    2    0    0  0.11443940959E+03 -0.72489665484E+02  0.10681646447E+03  0.21303963751E+03  0.12500000000E+03 0.  0.
         25    1    1    2    0    0  0.11280508257E+03 -0.12973297724E+03  0.23654627040E+03  0.31801693363E+03  0.12500000000E+03 0.  0.
         25    1    1    2    0    0 -0.22724449215E+03  0.20222264272E+03  0.28159737491E+03  0.43296205146E+03  0.12500000000E+03 0.  0.
</event>
<event>
 5    0  0.5634041E-005  0.3307603E+03  0.7546771E-02  0.1070801E+00
         21   -1    0    0  502  501  0.00000000000E+00  0.00000000000E+00  0.20232737045E+04  0.20232737045E+04  0.00000000000E+00 0. -1.
         21   -1    0    0  501  502 -0.00000000000E+00 -0.00000000000E+00 -0.54071962520E+02  0.54071962520E+02  0.00000000000E+00 0. -1.
         25    1    1    2    0    0 -0.11198653173E+03  0.96903246046E+02  0.11202857620E+04  0.11369241008E+04  0.12500000000E+03 0.  0.
         25    1    1    2    0    0  0.51691535096E+02  0.63785031214E+02  0.15772301546E+03  0.21735246631E+03  0.12500000000E+03 0.  0.
         25    1    1    2    0    0  0.60294996637E+02 -0.16068827726E+03  0.69119296448E+03  0.72306909989E+03  0.12500000000E+03 0.  0.
</event>
<event>
 5    0  0.5634041E-005  0.2759273E+03  0.7546771E-02  0.1097934E+00
         21   -1    0    0  502  501  0.00000000000E+00  0.00000000000E+00  0.21638133235E+03  0.21638133235E+03  0.00000000000E+00 0. -1.
         21   -1    0    0  501  502 -0.00000000000E+00 -0.00000000000E+00 -0.35185981473E+03  0.35185981473E+03  0.00000000000E+00 0. -1.
         25    1    1    2    0    0 -0.97348798090E+02 -0.72790771691E+02  0.14258702923E+02  0.17493883372E+03  0.12500000000E+03 0.  0.
         25    1    1    2    0    0 -0.66953608678E+02 -0.78081240115E+01 -0.55493195315E+02  0.15247375919E+03  0.12500000000E+03 0.  0.
         25    1    1    2    0    0  0.16430240677E+03  0.80598895703E+02 -0.94243989987E+02  0.24082855418E+03  0.12500000000E+03 0.  0.
</event>
<event>
 5    0  0.5634041E-005  0.3662109E+03  0.7546771E-02  0.1056151E+00
         21   -1    0    0  502  501  0.00000000000E+00  0.00000000000E+00  0.14463567738E+04  0.14463567738E+04  0.00000000000E+00 0. -1.
         21   -1    0    0  501  502 -0.00000000000E+00 -0.00000000000E+00 -0.92722926282E+02  0.92722926282E+02  0.00000000000E+00 0. -1.
         25    1    1    2    0    0 -0.25748748175E+02 -0.12841190739E+03  0.32547957781E+03  0.37244405159E+03  0.12500000000E+03 0.  0.
         25    1    1    2    0    0 -0.19707677038E+03  0.16478374591E+03  0.44340200281E+03  0.52746874071E+03  0.12500000000E+03 0.  0.
         25    1    1    2    0    0  0.22282551855E+03 -0.36371838521E+02  0.58475226689E+03  0.63916690777E+03  0.12500000000E+03 0.  0.
</event>
<event>
 5    0  0.5634041E-005  0.3824953E+03  0.7546771E-02  0.1050015E+00
         21   -1    0    0  502  501  0.00000000000E+00  0.00000000000E+00  0.13630352512E+03  0.13630352512E+03  0.00000000000E+00 0. -1.
         21   -1    0    0  501  502 -0.00000000000E+00 -0.00000000000E+00 -0.10733593343E+04  0.10733593343E+04  0.00000000000E+00 0. -1.
         25    1    1    2    0    0  0.12028561893E+03 -0.25535086050E+02 -0.12788082621E+03  0.21702344678E+03  0.12500000000E+03 0.  0.
         25    1    1    2    0    0 -0.26586604945E+03  0.16185691141E+03 -0.41584116696E+03  0.53425770201E+03  0.12500000000E+03 0.  0.
         25    1    1    2    0    0  0.14558043052E+03 -0.13632182536E+03 -0.39333381606E+03  0.45838171067E+03  0.12500000000E+03 0.  0.
</event>
<event>
 5    0  0.5634041E-005  0.2409604E+03  0.7546771E-02  0.1119155E+00
         21   -1    0    0  502  501  0.00000000000E+00  0.00000000000E+00  0.35453635309E+02  0.35453635309E+02  0.00000000000E+00 0.  1.
         21   -1    0    0  501  502 -0.00000000000E+00 -0.00000000000E+00 -0.16376859191E+04  0.16376859191E+04  0.00000000000E+00 0.  1.
         25    1    1    2    0    0  0.32775495153E+02  0.28303084279E+02 -0.45896754470E+03  0.47765207500E+03  0.12500000000E+03 0.  0.
         25    1    1    2    0    0 -0.55222530273E+02 -0.64942038530E+02 -0.24794214834E+03  0.29046050531E+03  0.12500000000E+03 0.  0.
         25    1    1    2    0    0  0.22447035120E+02  0.36638954251E+02 -0.89532259078E+03  0.90502697414E+03  0.12500000000E+03 0.  0.
</event>
<event>
 5    0  0.5634041E-005  0.3232298E+03  0.7546771E-02  0.1074172E+00
         21   -1    0    0  502  501  0.00000000000E+00  0.00000000000E+00  0.13217525260E+03  0.13217525260E+03  0.00000000000E+00 0.  1.
         21   -1    0    0  501  502 -0.00000000000E+00 -0.00000000000E+00 -0.79044659774E+03  0.79044659774E+03  0.00000000000E+00 0.  1.
         25    1    1    2    0    0  0.14115361546E+03  0.50350881686E+02 -0.14627013521E+02  0.19570003569E+03  0.12500000000E+03 0.  0.
         25    1    1    2    0    0 -0.79878672151E+02  0.17131107436E+02 -0.47567786114E+03  0.49856644962E+03  0.12500000000E+03 0.  0.
         25    1    1    2    0    0 -0.61274943304E+02 -0.67481989122E+02 -0.16796647048E+03  0.22835536503E+03  0.12500000000E+03 0.  0.
</event>
<event>
 5    0  0.5634041E-005  0.2995904E+03  0.7546771E-02  0.1085446E+00
         21   -1    0    0  502  501  0.00000000000E+00  0.00000000000E+00  0.38614781858E+03  0.38614781858E+03  0.00000000000E+00 0. -1.
         21   -1    0    0  501  502 -0.00000000000E+00 -0.00000000000E+00 -0.23243535990E+03  0.23243535990E+03  0.00000000000E+00 0. -1.
         25    1    1    2    0    0  0.10334173307E+03 -0.15095100907E+03  0.44765741241E+02  0.22604135135E+03  0.12500000000E+03 0.  0.
         25    1    1    2    0    0 -0.71774024893E+02  0.96247486077E+02  0.16723370487E+03  0.24084684193E+03  0.12500000000E+03 0.  0.
         25    1    1    2    0    0 -0.31567708180E+02  0.54703522989E+02 -0.58286987427E+02  0.15169498519E+03  0.12500000000E+03 0.  0.
</event>
<event>
 5    0  0.5634041E-005  0.3500760E+03  0.7546771E-02  0.1062584E+00
         21   -1    0    0  502  501  0.00000000000E+00  0.00000000000E+00  0.36325415952E+03  0.36325415952E+03  0.00000000000E+00 0. -1.
         21   -1    0    0  501  502 -0.00000000000E+00 -0.00000000000E+00 -0.33737585566E+03  0.33737585566E+03  0.00000000000E+00 0. -1.
         25    1    1    2    0    0 -0.19031853634E+03 -0.11687839790E+03 -0.12160063166E+03  0.28336093377E+03  0.12500000000E+03 0.  0.
         25    1    1    2    0    0  0.19544458823E+03  0.96882406478E+02  0.14566087790E+03  0.29056303809E+03  0.12500000000E+03 0.  0.
         25    1    1    2    0    0 -0.51260518942E+01  0.19995991417E+02  0.18180576204E+01  0.12670604332E+03  0.12500000000E+03 0.  0.
</event>
<event>
 5    0  0.7207956E-005  0.6927413E+03  0.7546771E-02  0.9729727E-01
         21   -1    0    0  502  501  0.00000000000E+00  0.00000000000E+00  0.46830638135E+03  0.46830638135E+03  0.00000000000E+00 0. -1.
         21   -1    0    0  501  502 -0.00000000000E+00 -0.00000000000E+00 -0.10247360774E+04  0.10247360774E+04  0.00000000000E+00 0. -1.
         25    1    1    2    0    0 -0.72159521704E+02  0.97364615553E+02 -0.70169272396E+03  0.72296925508E+03  0.12500000000E+03 0.  0.
         25    1    1    2    0    0  0.15608189373E+03  0.27680115912E+03  0.13331071598E+03  0.36657493945E+03  0.12500000000E+03 0.  0.
         25    1    1    2    0    0 -0.83922372028E+02 -0.37416577467E+03  0.11952311931E+02  0.40349826422E+03  0.12500000000E+03 0.  0.
</event>
<event>
 5    0  0.5634041E-005  0.2714644E+03  0.7546771E-02  0.1100444E+00
         21   -1    0    0  502  501  0.00000000000E+00  0.00000000000E+00  0.12486524112E+03  0.12486524112E+03  0.00000000000E+00 0.  1.
         21   -1    0    0  501  502 -0.00000000000E+00 -0.00000000000E+00 -0.59017941400E+03  0.59017941400E+03  0.00000000000E+00 0.  1.
         25    1    1    2    0    0 -0.53971073604E+02  0.98404311495E+02 -0.11916221901E+03  0.20596339419E+03  0.12500000000E+03 0.  0.
         25    1    1    2    0    0  0.32911795907E+02 -0.15705308898E+03 -0.29907331585E+03  0.36168868841E+03  0.12500000000E+03 0.  0.
         25    1    1    2    0    0  0.21059277697E+02  0.58648777488E+02 -0.47078638018E+02  0.14739257253E+03  0.12500000000E+03 0.  0.
</event>
<event>
 5    0  0.5634041E-005  0.5014456E+03  0.7546771E-02  0.1013402E+00
         21   -1    0    0  502  501  0.00000000000E+00  0.00000000000E+00  0.47910224487E+03  0.47910224487E+03  0.00000000000E+00 0. -1.
         21   -1    0    0  501  502 -0.00000000000E+00 -0.00000000000E+00 -0.52483090332E+03  0.52483090332E+03  0.00000000000E+00 0. -1.
         25    1    1    2    0    0  0.15589055265E+02  0.15559922901E+03 -0.25285068817E+03  0.32250985911E+03  0.12500000000E+03 0.  0.
         25    1    1    2    0    0  0.43944376826E+02 -0.36950228431E+03  0.15052755336E+03  0.42041240548E+03  0.12500000000E+03 0.  0.
         25    1    1    2    0    0 -0.59533432090E+02  0.21390305530E+03  0.56594476361E+02  0.26101088360E+03  0.12500000000E+03 0.  0.
</event>
<event>
 5    0  0.5634041E-005  0.2466757E+03  0.7546771E-02  0.1115424E+00
         21   -1    0    0  502  501  0.00000000000E+00  0.00000000000E+00  0.75634933757E+03  0.75634933757E+03  0.00000000000E+00 0.  1.
         21   -1    0    0  501  502 -0.00000000000E+00 -0.00000000000E+00 -0.80450759302E+02  0.80450759302E+02  0.00000000000E+00 0.  1.
         25    1    1    2    0    0 -0.82632916454E+02 -0.92240078187E+01  0.10603999778E+03  0.18380087685E+03  0.12500000000E+03 0.  0.
         25    1    1    2    0    0  0.92619376639E+02  0.76370933928E+02  0.26574912163E+03  0.31726718098E+03  0.12500000000E+03 0.  0.
         25    1    1    2    0    0 -0.99864601848E+01 -0.67146926109E+02  0.30410945886E+03  0.33573203904E+03  0.12500000000E+03 0.  0.
</event>
<event>
 5    0  0.5634041E-005  0.2976644E+03  0.7546771E-02  0.1086414E+00
         21   -1    0    0  502  501  0.00000000000E+00  0.00000000000E+00  0.95462443775E+03  0.95462443775E+03  0.00000000000E+00 0.  1.
         21   -1    0    0  501  502 -0.00000000000E+00 -0.00000000000E+00 -0.92815635489E+02  0.92815635489E+02  0.00000000000E+00 0.  1.
         25    1    1    2    0    0  0.28179348735E+02 -0.11620665563E+03  0.13690661603E+03  0.22060481414E+03  0.12500000000E+03 0.  0.
         25    1    1    2    0    0  0.81209498596E+01 -0.88395567893E+02  0.32090322556E+03  0.35564533797E+03  0.12500000000E+03 0.  0.
         25    1    1    2    0    0 -0.36300298594E+02  0.20460222352E+03  0.40399896067E+03  0.47118992112E+03  0.12500000000E+03 0.  0.
</event>
<event>
 5    0  0.5634041E-005  0.2914204E+03  0.7546771E-02  0.1089610E+00
         21   -1    0    0  502  501  0.00000000000E+00  0.00000000000E+00  0.76656675138E+02  0.76656675138E+02  0.00000000000E+00 0.  1.
         21   -1    0    0  501  502 -0.00000000000E+00 -0.00000000000E+00 -0.11078725231E+04  0.11078725231E+04  0.00000000000E+00 0.  1.
         25    1    1    2    0    0  0.11059543170E+03 -0.48798668166E+02 -0.17470990663E+03  0.24649789249E+03  0.12500000000E+03 0.  0.
         25    1    1    2    0    0 -0.17329344406E+03 -0.20266987710E+02 -0.37721652446E+03  0.43400308164E+03  0.12500000000E+03 0.  0.
         25    1    1    2    0    0  0.62698012365E+02  0.69065655876E+02 -0.47928941692E+03  0.50402822416E+03  0.12500000000E+03 0.  0.
</event>
<event>
 5    0  0.5634041E-005  0.3140026E+03  0.7546771E-02  0.1078443E+00
         21   -1    0    0  502  501  0.00000000000E+00  0.00000000000E+00  0.83024225453E+03  0.83024225453E+03  0.00000000000E+00 0. -1.
         21   -1    0    0  501  502 -0.00000000000E+00 -0.00000000000E+00 -0.11875769830E+03  0.11875769830E+03  0.00000000000E+00 0. -1.
         25    1    1    2    0    0 -0.96289672841E+01 -0.10532201225E+03  0.46338722557E+03  0.49146532339E+03  0.12500000000E+03 0.  0.
         25    1    1    2    0    0 -0.17758661492E+02  0.14455236341E+03  0.25999734804E+03  0.32316308083E+03  0.12500000000E+03 0.  0.
         25    1    1    2    0    0  0.27387628776E+02 -0.39230351153E+02 -0.11900017375E+02  0.13437154861E+03  0.12500000000E+03 0.  0.
</event>
<event>
 5    0  0.5634041E-005  0.3364625E+03  0.7546771E-02  0.1068313E+00
         21   -1    0    0  502  501  0.00000000000E+00  0.00000000000E+00  0.20869671100E+04  0.20869671100E+04  0.00000000000E+00 0.  1.
         21   -1    0    0  501  502 -0.00000000000E+00 -0.00000000000E+00 -0.54244745165E+02  0.54244745165E+02  0.00000000000E+00 0.  1.
         25    1    1    2    0    0 -0.87019183736E+02 -0.57055171290E+02  0.65616093091E+03  0.67601760196E+03  0.12500000000E+03 0.  0.
         25    1    1    2    0    0  0.21989468591E+03  0.21699471291E+02  0.42010951800E+03  0.49085797036E+03  0.12500000000E+03 0.  0.
         25    1    1    2    0    0 -0.13287550218E+03  0.35355699999E+02  0.95645191596E+03  0.97433628289E+03  0.12500000000E+03 0.  0.
</event>
<event>
 5    0  0.5634041E-005  0.3447604E+03  0.7546771E-02  0.1064786E+00
         21   -1    0    0  502  501  0.00000000000E+00  0.00000000000E+00  0.21708091127E+03  0.21708091127E+03  0.00000000000E+00 0.  1.
         21   -1    0    0  501  502 -0.00000000000E+00 -0.00000000000E+00 -0.54753649583E+03  0.54753649583E+03  0.00000000000E+00 0.  1.
         25    1    1    2    0    0  0.13316023236E+03 -0.15171247581E+03 -0.11951286284E+03  0.26581318098E+03  0.12500000000E+03 0.  0.
         25    1    1    2    0    0  0.24285290120E+01 -0.13778307232E+01 -0.22639671673E+03  0.25862766580E+03  0.12500000000E+03 0.  0.
         25    1    1    2    0    0 -0.13558876137E+03  0.15309030654E+03  0.15453995018E+02  0.24017656032E+03  0.12500000000E+03 0.  0.
</event>
<event>
 5    0  0.5634041E-005  0.3765185E+03  0.7546771E-02  0.1052228E+00
         21   -1    0    0  502  501  0.00000000000E+00  0.00000000000E+00  0.64514006461E+03  0.64514006461E+03  0.00000000000E+00 0. -1.
         21   -1    0    0  501  502 -0.00000000000E+00 -0.00000000000E+00 -0.21974479352E+03  0.21974479352E+03  0.00000000000E+00 0. -1.
         25    1    1    2    0    0  0.22103018399E+03  0.14281955616E+03  0.24444051971E+02  0.29235984597E+03  0.12500000000E+03 0.  0.
         25    1    1    2    0    0 -0.22428616264E+03 -0.88891602711E+02  0.25005074624E+03  0.36926464153E+03  0.12500000000E+03 0.  0.
         25    1    1    2    0    0  0.32559786474E+01 -0.53927953444E+02  0.15090047287E+03  0.20326037064E+03  0.12500000000E+03 0.  0.
</event>
<event>
 5    0  0.5634041E-005  0.1901596E+03  0.7546771E-02  0.1158317E+00
         21   -1    0    0  502  501  0.00000000000E+00  0.00000000000E+00  0.46739020157E+03  0.46739020157E+03  0.00000000000E+00 0. -1.
         21   -1    0    0  501  502 -0.00000000000E+00 -0.00000000000E+00 -0.77367214588E+02  0.77367214588E+02  0.00000000000E+00 0. -1.
         25    1    1    2    0    0 -0.19984329427E+02  0.13199855559E+02  0.13897269795E+03  0.18844633290E+03  0.12500000000E+03 0.  0.
         25    1    1    2    0    0  0.40549528879E+01 -0.17027518066E+02  0.11377140736E+03  0.16992737315E+03  0.12500000000E+03 0.  0.
         25    1    1    2    0    0  0.15929376539E+02  0.38276625075E+01  0.13727888167E+03  0.18638371010E+03  0.12500000000E+03 0.  0.
</event>
<event>
 5    0  0.5634041E-005  0.2411771E+03  0.7546771E-02  0.1119011E+00
         21   -1    0    0  502  501  0.00000000000E+00  0.00000000000E+00  0.14849816359E+03  0.14849816359E+03  0.00000000000E+00 0.  1.
         21   -1    0    0  501  502 -0.00000000000E+00 -0.00000000000E+00 -0.39169777524E+03  0.39169777524E+03  0.00000000000E+00 0.  1.
         25    1    1    2    0    0 -0.77777510369E+02  0.26863074876E+02 -0.14996224466E+03  0.21185995548E+03  0.12500000000E+03 0.  0.
         25    1    1    2    0    0 -0.82912055815E+01  0.58813496541E+02 -0.60354541007E+02  0.15098159519E+03  0.12500000000E+03 0.  0.
         25    1    1    2    0    0  0.86068715950E+02 -0.85676571417E+02 -0.32882825973E+02  0.17735438816E+03  0.12500000000E+03 0.  0.
</event>
<event>
 5    0  0.5634041E-005  0.4841881E+03  0.7546771E-02  0.1017990E+00
         21   -1    0    0  502  501  0.00000000000E+00  0.00000000000E+00  0.27157280839E+03  0.27157280839E+03  0.00000000000E+00 0.  1.
         21   -1    0    0  501  502 -0.00000000000E+00 -0.00000000000E+00 -0.86326048742E+03  0.86326048742E+03  0.00000000000E+00 0.  1.
         25    1    1    2    0    0 -0.28788435985E+03 -0.26232369290E+03 -0.43383278846E+03  0.59626085973E+03  0.12500000000E+03 0.  0.
         25    1    1    2    0    0  0.14818681585E+03  0.24203867417E+03 -0.31732965659E+02  0.31172749846E+03  0.12500000000E+03 0.  0.
         25    1    1    2    0    0  0.13969754400E+03  0.20285018733E+02 -0.12612192490E+03  0.22684493762E+03  0.12500000000E+03 0.  0.
</event>
<event>
 5    0  0.5634041E-005  0.2374105E+03  0.7546771E-02  0.1121530E+00
         21   -1    0    0  502  501  0.00000000000E+00  0.00000000000E+00  0.38918630087E+02  0.38918630087E+02  0.00000000000E+00 0. -1.
         21   -1    0    0  501  502 -0.00000000000E+00 -0.00000000000E+00 -0.14482454338E+04  0.14482454338E+04  0.00000000000E+00 0. -1.
         25    1    1    2    0    0 -0.68792191068E+02 -0.81766687825E+02 -0.43054515805E+03  0.46088207810E+03  0.12500000000E+03 0.  0.
         25    1    1    2    0    0 -0.31175649584E+02  0.20049344492E-01 -0.39891128255E+03  0.41919820237E+03  0.12500000000E+03 0.  0.
         25    1    1    2    0    0  0.99967840652E+02  0.81746638481E+02 -0.57987036308E+03  0.60708378338E+03  0.12500000000E+03 0.  0.
</event>
<event>
 5    0  0.5634041E-005  0.2407851E+03  0.7546771E-02  0.1119271E+00
         21   -1    0    0  502  501  0.00000000000E+00  0.00000000000E+00  0.42876005909E+03  0.42876005909E+03  0.00000000000E+00 0. -1.
         21   -1    0    0  501  502 -0.00000000000E+00 -0.00000000000E+00 -0.13522122553E+03  0.13522122553E+03  0.00000000000E+00 0. -1.
         25    1    1    2    0    0  0.56239280908E+02 -0.43878305487E+02 -0.68892859927E+01  0.14408547696E+03  0.12500000000E+03 0.  0.
         25    1    1    2    0    0 -0.13738525434E+01  0.84250941681E+02  0.16313212913E+03  0.22211978795E+03  0.12500000000E+03 0.  0.
         25    1    1    2    0    0 -0.54865428365E+02 -0.40372636194E+02  0.13729599043E+03  0.19777601971E+03  0.12500000000E+03 0.  0.
</event>
<event>
 5    0  0.5634041E-005  0.2740547E+03  0.7546771E-02  0.1098981E+00
         21   -1    0    0  502  501  0.00000000000E+00  0.00000000000E+00  0.64265482820E+02  0.64265482820E+02  0.00000000000E+00 0.  1.
         21   -1    0    0  501  502 -0.00000000000E+00 -0.00000000000E+00 -0.11686826078E+04  0.11686826078E+04  0.00000000000E+00 0.  1.
         25    1    1    2    0    0 -0.64753757709E+02  0.88221851525E+02 -0.28345462474E+03  0.32855390503E+03  0.12500000000E+03 0.  0.
         25    1    1    2    0    0 -0.94081272294E+01 -0.10409709291E+03 -0.68711904353E+03  0.70617441017E+03  0.12500000000E+03 0.  0.
         25    1    1    2    0    0  0.74161884938E+02  0.15875241384E+02 -0.13384345676E+03  0.19821977546E+03  0.12500000000E+03 0.  0.
</event>
<event>
 5    0  0.6461057E-005  0.4263871E+03  0.7546771E-02  0.1035007E+00
         21   -1    0    0  502  501  0.00000000000E+00  0.00000000000E+00  0.51523687021E+03  0.51523687021E+03  0.00000000000E+00 0.  1.
         21   -1    0    0  501  502 -0.00000000000E+00 -0.00000000000E+00 -0.35285905712E+03  0.35285905712E+03  0.00000000000E+00 0.  1.
         25    1    1    2    0    0  0.10205219424E+03  0.11665986024E+02 -0.18229776412E+03  0.24373801587E+03  0.12500000000E+03 0.  0.
         25    1    1    2    0    0  0.88364916138E+02  0.16859215311E+03  0.12193541800E+03  0.25831166961E+03  0.12500000000E+03 0.  0.
         25    1    1    2    0    0 -0.19041711037E+03 -0.18025813913E+03  0.22274015921E+03  0.36604624185E+03  0.12500000000E+03 0.  0.
</event>
<event>
 5    0  0.5634041E-005  0.3199451E+03  0.7546771E-02  0.1075675E+00
         21   -1    0    0  502  501  0.00000000000E+00  0.00000000000E+00  0.20659327606E+03  0.20659327606E+03  0.00000000000E+00 0. -1.
         21   -1    0    0  501  502 -0.00000000000E+00 -0.00000000000E+00 -0.49548981345E+03  0.49548981345E+03  0.00000000000E+00 0. -1.
         25    1    1    2    0    0 -0.97609298554E+01 -0.48735201023E+01 -0.29551985299E+02  0.12890828827E+03  0.12500000000E+03 0.  0.
         25    1    1    2    0    0  0.80297514409E+01  0.19615587581E+03 -0.71417659124E+01  0.23284675077E+03  0.12500000000E+03 0.  0.
         25    1    1    2    0    0  0.17311784146E+01 -0.19128235571E+03 -0.25220278618E+03  0.34032805048E+03  0.12500000000E+03 0.  0.
</event>
<event>
 5    0  0.5634041E-005  0.2470442E+03  0.7546771E-02  0.1115187E+00
         21   -1    0    0  502  501  0.00000000000E+00  0.00000000000E+00  0.45825362718E+03  0.45825362718E+03  0.00000000000E+00 0.  1.
         21   -1    0    0  501  502 -0.00000000000E+00 -0.00000000000E+00 -0.13318137409E+03  0.13318137409E+03  0.00000000000E+00 0.  1.
         25    1    1    2    0    0 -0.34715332410E+02  0.72190704571E+02  0.17582274628E+02  0.14950180103E+03  0.12500000000E+03 0.  0.
         25    1    1    2    0    0  0.52197430596E+02  0.38468686367E+01  0.24882336893E+03  0.28333273564E+03  0.12500000000E+03 0.  0.
         25    1    1    2    0    0 -0.17482098186E+02 -0.76037573208E+02  0.58666609538E+02  0.15860046460E+03  0.12500000000E+03 0.  0.
</event>
<event>
 5    0  0.5634041E-005  0.2386101E+03  0.7546771E-02  0.1120722E+00
         21   -1    0    0  502  501  0.00000000000E+00  0.00000000000E+00  0.17107807796E+03  0.17107807796E+03  0.00000000000E+00 0.  1.
         21   -1    0    0  501  502 -0.00000000000E+00 -0.00000000000E+00 -0.33280005650E+03  0.33280005650E+03  0.00000000000E+00 0.  1.
         25    1    1    2    0    0  0.60306318079E+02 -0.83796067840E+02 -0.15080833604E+03  0.22141993408E+03  0.12500000000E+03 0.  0.
         25    1    1    2    0    0 -0.36868222770E+02  0.83903855212E+02 -0.28275558335E+01  0.15502295908E+03  0.12500000000E+03 0.  0.
         25    1    1    2    0    0 -0.23438095310E+02 -0.10778737207E+00 -0.80860866646E+01  0.12743524131E+03  0.12500000000E+03 0.  0.
</event>
<event>
 5    0  0.5634041E-005  0.3059175E+03  0.7546771E-02  0.1082319E+00
         21   -1    0    0  502  501  0.00000000000E+00  0.00000000000E+00  0.53771230761E+03  0.53771230761E+03  0.00000000000E+00 0. -1.
         21   -1    0    0  501  502 -0.00000000000E+00 -0.00000000000E+00 -0.17404382342E+03  0.17404382342E+03  0.00000000000E+00 0. -1.
         25    1    1    2    0    0 -0.44608993891E+02 -0.30967457397E+02  0.77736965905E+02  0.15689799751E+03  0.12500000000E+03 0.  0.
         25    1    1    2    0    0  0.79344796657E+02 -0.13714132566E+03  0.39352460982E+01  0.20185099980E+03  0.12500000000E+03 0.  0.
         25    1    1    2    0    0 -0.34735802766E+02  0.16810878305E+03  0.28199627219E+03  0.35300713373E+03  0.12500000000E+03 0.  0.
</event>
<event>
 5    0  0.5634041E-005  0.2757046E+03  0.7546771E-02  0.1098058E+00
         21   -1    0    0  502  501  0.00000000000E+00  0.00000000000E+00  0.27173699616E+03  0.27173699616E+03  0.00000000000E+00 0. -1.
         21   -1    0    0  501  502 -0.00000000000E+00 -0.00000000000E+00 -0.27973007713E+03  0.27973007713E+03  0.00000000000E+00 0. -1.
         25    1    1    2    0    0 -0.15651444939E+03  0.30042833216E+02  0.63079424573E+02  0.21213995027E+03  0.12500000000E+03 0.  0.
         25    1    1    2    0    0  0.73744701884E+02  0.13687270603E+02 -0.10482784050E+03  0.17955360920E+03  0.12500000000E+03 0.  0.
         25    1    1    2    0    0  0.82769747505E+02 -0.43730103818E+02  0.33755334950E+02  0.15977351382E+03  0.12500000000E+03 0.  0.
</event>
<event>
 5    0  0.5634041E-005  0.2618609E+03  0.7546771E-02  0.1106030E+00
         21   -1    0    0  502  501  0.00000000000E+00  0.00000000000E+00  0.35674781465E+03  0.35674781465E+03  0.00000000000E+00 0.  1.
         21   -1    0    0  501  502 -0.00000000000E+00 -0.00000000000E+00 -0.19221184699E+03  0.19221184699E+03  0.00000000000E+00 0.  1.
         25    1    1    2    0    0 -0.94534563724E+02 -0.42854842108E+02  0.80192199081E+01  0.16267338171E+03  0.12500000000E+03 0.  0.
         25    1    1    2    0    0  0.26716131801E+02  0.13211799153E+03  0.64488467892E+02  0.19481447039E+03  0.12500000000E+03 0.  0.
         25    1    1    2    0    0  0.67818431923E+02 -0.89263149417E+02  0.92028279863E+02  0.19147180954E+03  0.12500000000E+03 0.  0.
</event>
<event>
 5    0  0.5634041E-005  0.4100718E+03  0.7546771E-02  0.1040347E+00
         21   -1    0    0  502  501  0.00000000000E+00  0.00000000000E+00  0.18190905301E+03  0.18190905301E+03  0.00000000000E+00 0.  1.
         21   -1    0    0  501  502 -0.00000000000E+00 -0.00000000000E+00 -0.92441184537E+03  0.92441184537E+03  0.00000000000E+00 0.  1.
         25    1    1    2    0    0 -0.10271338580E+03  0.19090117218E+02 -0.33874241427E+03  0.37588016098E+03  0.12500000000E+03 0.  0.
         25    1    1    2    0    0 -0.16387455814E+03  0.57088838195E+02 -0.36609092759E+03  0.42398298730E+03  0.12500000000E+03 0.  0.
         25    1    1    2    0    0  0.26658794394E+03 -0.76178955414E+02 -0.37669450503E+02  0.30645775011E+03  0.12500000000E+03 0.  0.
</event>
<event>
 5    0  0.5634041E-005  0.3297788E+03  0.7546771E-02  0.1071235E+00
         21   -1    0    0  502  501  0.00000000000E+00  0.00000000000E+00  0.90723855456E+03  0.90723855456E+03  0.00000000000E+00 0.  1.
         21   -1    0    0  501  502 -0.00000000000E+00 -0.00000000000E+00 -0.11987372668E+03  0.11987372668E+03  0.00000000000E+00 0.  1.
         25    1    1    2    0    0 -0.21058467130E+03  0.10399501062E+03  0.19189077935E+03  0.32803648763E+03  0.12500000000E+03 0.  0.
         25    1    1    2    0    0  0.12969676812E+03 -0.62008125968E+02  0.20901354166E+03  0.28280367739E+03  0.12500000000E+03 0.  0.
         25    1    1    2    0    0  0.80887903180E+02 -0.41986884648E+02  0.38646050688E+03  0.41627211622E+03  0.12500000000E+03 0.  0.
</event>
<event>
 5    0  0.5634041E-005  0.3842512E+03  0.7546771E-02  0.1049374E+00
         21   -1    0    0  502  501  0.00000000000E+00  0.00000000000E+00  0.19675364965E+03  0.19675364965E+03  0.00000000000E+00 0.  1.
         21   -1    0    0  501  502 -0.00000000000E+00 -0.00000000000E+00 -0.75042583379E+03  0.75042583379E+03  0.00000000000E+00 0.  1.
         25    1    1    2    0    0 -0.12205890388E+03 -0.17582131116E+03 -0.33633293464E+03  0.41779941646E+03  0.12500000000E+03 0.  0.
         25    1    1    2    0    0  0.49874553781E+02  0.15488825162E+02 -0.27457887015E+03  0.30617957272E+03  0.12500000000E+03 0.  0.
         25    1    1    2    0    0  0.72184350103E+02  0.16033248599E+03  0.57239620646E+02  0.22320049426E+03  0.12500000000E+03 0.  0.
</event>
<event>
 5    0  0.5634041E-005  0.2584653E+03  0.7546771E-02  0.1108069E+00
         21   -1    0    0  502  501  0.00000000000E+00  0.00000000000E+00  0.22371519773E+03  0.22371519773E+03  0.00000000000E+00 0. -1.
         21   -1    0    0  501  502 -0.00000000000E+00 -0.00000000000E+00 -0.29861325198E+03  0.29861325198E+03  0.00000000000E+00 0. -1.
         25    1    1    2    0    0 -0.50771079672E+02  0.65140870717E+02  0.41832857995E+02  0.15555071063E+03  0.12500000000E+03 0.  0.
         25    1    1    2    0    0  0.75382048441E+02 -0.13743647268E+03 -0.79170636497E+02  0.21555562376E+03  0.12500000000E+03 0.  0.
         25    1    1    2    0    0 -0.24610968769E+02  0.72295601965E+02 -0.37560275746E+02  0.15122211532E+03  0.12500000000E+03 0.  0.
</event>
<event>
 5    0  0.5634041E-005  0.2633945E+03  0.7546771E-02  0.1105121E+00
         21   -1    0    0  502  501  0.00000000000E+00  0.00000000000E+00  0.13387314926E+04  0.13387314926E+04  0.00000000000E+00 0.  1.
         21   -1    0    0  501  502 -0.00000000000E+00 -0.00000000000E+00 -0.51822680346E+02  0.51822680346E+02  0.00000000000E+00 0.  1.
         25    1    1    2    0    0 -0.58129928098E+02 -0.25670461234E+02  0.46110222192E+03  0.48195261197E+03  0.12500000000E+03 0.  0.
         25    1    1    2    0    0 -0.58805976364E+02  0.68813821073E+02  0.61290864091E+03  0.63204073202E+03  0.12500000000E+03 0.  0.
         25    1    1    2    0    0  0.11693590446E+03 -0.43143359839E+02  0.21289794944E+03  0.27656082898E+03  0.12500000000E+03 0.  0.
</event>
<event>
 5    0  0.5634041E-005  0.2491321E+03  0.7546771E-02  0.1113855E+00
         21   -1    0    0  502  501  0.00000000000E+00  0.00000000000E+00  0.15485972667E+04  0.15485972667E+04  0.00000000000E+00 0. -1.
         21   -1    0    0  501  502 -0.00000000000E+00 -0.00000000000E+00 -0.40079359684E+02  0.40079359684E+02  0.00000000000E+00 0. -1.
         25    1    1    2    0    0  0.64095110718E+01  0.14770454171E+02  0.19041700381E+03  0.22834816288E+03  0.12500000000E+03 0.  0.
         25    1    1    2    0    0 -0.43331144032E+02 -0.96423696692E+02  0.90148963901E+03  0.91623342362E+03  0.12500000000E+03 0.  0.
         25    1    1    2    0    0  0.36921632961E+02  0.81653242521E+02  0.41661126421E+03  0.44409503989E+03  0.12500000000E+03 0.  0.
</event>
<event>
 5    0  0.5634041E-005  0.2946214E+03  0.7546771E-02  0.1087961E+00
         21   -1    0    0  502  501  0.00000000000E+00  0.00000000000E+00  0.24322130915E+03  0.24322130915E+03  0.00000000000E+00 0.  1.
         21   -1    0    0  501  502 -0.00000000000E+00 -0.00000000000E+00 -0.35688392642E+03  0.35688392642E+03  0.00000000000E+00 0.  1.
         25    1    1    2    0    0 -0.59335453610E+02  0.95496088645E+02 -0.21929875920E+01  0.16813687340E+03  0.12500000000E+03 0.  0.
         25    1    1    2    0    0 -0.41168480639E+02  0.71973973909E+02 -0.13114544079E+03  0.19924663952E+03  0.12500000000E+03 0.  0.
         25    1    1    2    0    0  0.10050393425E+03 -0.16747006255E+03  0.19675811112E+02  0.23272172265E+03  0.12500000000E+03 0.  0.
</event>
<event>
 5    0  0.5634041E-005  0.3904147E+03  0.7546771E-02  0.1047150E+00
         21   -1    0    0  502  501  0.00000000000E+00  0.00000000000E+00  0.14305039349E+04  0.14305039349E+04  0.00000000000E+00 0.  1.
         21   -1    0    0  501  502 -0.00000000000E+00 -0.00000000000E+00 -0.10655242089E+03  0.10655242089E+03  0.00000000000E+00 0.  1.
         25    1    1    2    0    0 -0.28844683073E+03 -0.75761829007E+01  0.65797618090E+03  0.72925758641E+03  0.12500000000E+03 0.  0.
         25    1    1    2    0    0  0.28021373801E+03 -0.57154115285E+02  0.50635461690E+03  0.59481621525E+03  0.12500000000E+03 0.  0.
         25    1    1    2    0    0  0.82330927128E+01  0.64730298185E+02  0.15962071622E+03  0.21298255414E+03  0.12500000000E+03 0.  0.
</event>
<event>
 5    0  0.5634041E-005  0.2715796E+03  0.7546771E-02  0.1100379E+00
         21   -1    0    0  502  501  0.00000000000E+00  0.00000000000E+00  0.13473245016E+03  0.13473245016E+03  0.00000000000E+00 0. -1.
         21   -1    0    0  501  502 -0.00000000000E+00 -0.00000000000E+00 -0.54742177948E+03  0.54742177948E+03  0.00000000000E+00 0. -1.
         25    1    1    2    0    0 -0.90522644174E+02  0.16608816229E+02 -0.18593047894E+03  0.24220929975E+03  0.12500000000E+03 0.  0.
         25    1    1    2    0    0  0.69085141040E+02  0.68176975378E+02  0.96878747138E+01  0.15855507435E+03  0.12500000000E+03 0.  0.
         25    1    1    2    0    0  0.21437503134E+02 -0.84785791607E+02 -0.23644672509E+03  0.28138985555E+03  0.12500000000E+03 0.  0.
</event>
<event>
 5    0  0.5634041E-005  0.2773617E+03  0.7546771E-02  0.1097139E+00
         21   -1    0    0  502  501  0.00000000000E+00  0.00000000000E+00  0.10855852679E+03  0.10855852679E+03  0.00000000000E+00 0. -1.
         21   -1    0    0  501  502 -0.00000000000E+00 -0.00000000000E+00 -0.70864547592E+03  0.70864547592E+03  0.00000000000E+00 0. -1.
         25    1    1    2    0    0  0.14465079218E+03 -0.11639534989E+03 -0.21141965821E+03  0.30788796831E+03  0.12500000000E+03 0.  0.
         25    1    1    2    0    0 -0.11759353307E+03  0.33737360751E+02 -0.17988214873E+03  0.25089646462E+03  0.12500000000E+03 0.  0.
         25    1    1    2    0    0 -0.27057259114E+02  0.82657989139E+02 -0.20878514220E+03  0.25841956978E+03  0.12500000000E+03 0.  0.
</event>
<event>
 5    0  0.6218303E-005  0.2817215E+03  0.7546771E-02  0.1094752E+00
         21   -1    0    0  502  501  0.00000000000E+00  0.00000000000E+00  0.15781735080E+03  0.15781735080E+03  0.00000000000E+00 0. -1.
         21   -1    0    0  501  502 -0.00000000000E+00 -0.00000000000E+00 -0.50290408864E+03  0.50290408864E+03  0.00000000000E+00 0. -1.
         25    1    1    2    0    0 -0.44357023733E+02  0.23345577915E+02  0.72180543358E+02  0.15279918980E+03  0.12500000000E+03 0.  0.
         25    1    1    2    0    0  0.26891779619E+02  0.56283098343E+02 -0.18446172800E+03  0.23139162488E+03  0.12500000000E+03 0.  0.
         25    1    1    2    0    0  0.17465244114E+02 -0.79628676258E+02 -0.23280555320E+03  0.27653062477E+03  0.12500000000E+03 0.  0.
</event>
<event>
 5    0  0.5634041E-005  0.2517578E+03  0.7546771E-02  0.1112199E+00
         21   -1    0    0  502  501  0.00000000000E+00  0.00000000000E+00  0.30703162440E+02  0.30703162440E+02  0.00000000000E+00 0.  1.
         21   -1    0    0  501  502 -0.00000000000E+00 -0.00000000000E+00 -0.20643478710E+04  0.20643478710E+04  0.00000000000E+00 0.  1.
         25    1    1    2    0    0 -0.42159747102E+01  0.21443440358E+02 -0.42004662535E+03  0.43879581019E+03  0.12500000000E+03 0.  0.
         25    1    1    2    0    0  0.83936558309E+02  0.55154285645E+02 -0.39535070182E+03  0.42663159573E+03  0.12500000000E+03 0.  0.
         25    1    1    2    0    0 -0.79720583599E+02 -0.76597726003E+02 -0.12182473813E+04  0.12296236275E+04  0.12500000000E+03 0.  0.
</event>
<event>
 5    0  0.5634041E-005  0.2486309E+03  0.7546771E-02  0.1114173E+00
         21   -1    0    0  502  501  0.00000000000E+00  0.00000000000E+00  0.11716878955E+03  0.11716878955E+03  0.00000000000E+00 0.  1.
         21   -1    0    0  501  502 -0.00000000000E+00 -0.00000000000E+00 -0.52759221632E+03  0.52759221632E+03  0.00000000000E+00 0.  1.
         25    1    1    2    0    0 -0.94152998458E+01 -0.48645991592E+02 -0.86631847433E+02  0.15995361002E+03  0.12500000000E+03 0.  0.
         25    1    1    2    0    0 -0.99688628795E+02  0.95599409463E+02 -0.19423241311E+03  0.26912506405E+03  0.12500000000E+03 0.  0.
         25    1    1    2    0    0  0.10910392864E+03 -0.46953417871E+02 -0.12955916623E+03  0.21568233180E+03  0.12500000000E+03 0.  0.
</event>
<event>
 5    0  0.5634041E-005  0.2332004E+03  0.7546771E-02  0.1124407E+00
         21   -1    0    0  502  501  0.00000000000E+00  0.00000000000E+00  0.76395550536E+03  0.76395550536E+03  0.00000000000E+00 0.  1.
         21   -1    0    0  501  502 -0.00000000000E+00 -0.00000000000E+00 -0.71185325157E+02  0.71185325157E+02  0.00000000000E+00 0.  1.
         25    1    1    2    0    0  0.47575063574E+02  0.18684985111E+02  0.30456908708E+03  0.33316639108E+03  0.12500000000E+03 0.  0.
         25    1    1    2    0    0 -0.82114861728E+02  0.65190447752E+02  0.21541189976E+03  0.27022200420E+03  0.12500000000E+03 0.  0.
         25    1    1    2    0    0  0.34539798153E+02 -0.83875432863E+02  0.17278919336E+03  0.23175243523E+03  0.12500000000E+03 0.  0.
</event>
<event>
 5    0  0.5634041E-005  0.3561133E+03  0.7546771E-02  0.1060133E+00
         21   -1    0    0  502  501  0.00000000000E+00  0.00000000000E+00  0.93065615243E+02  0.93065615243E+02  0.00000000000E+00 0.  1.
         21   -1    0    0  501  502 -0.00000000000E+00 -0.00000000000E+00 -0.13626589146E+04  0.13626589146E+04  0.00000000000E+00 0.  1.
         25    1    1    2    0    0 -0.46702900077E+01  0.38184532226E+02 -0.44591928414E+02  0.13817854461E+03  0.12500000000E+03 0.  0.
         25    1    1    2    0    0 -0.27951508576E+02 -0.22441074824E+03 -0.66060111983E+03  0.70933793799E+03  0.12500000000E+03 0.  0.
         25    1    1    2    0    0  0.32621798584E+02  0.18622621601E+03 -0.56440025109E+03  0.60820804722E+03  0.12500000000E+03 0.  0.
</event>
<event>
 5    0  0.5634041E-005  0.3274615E+03  0.7546771E-02  0.1072266E+00
         21   -1    0    0  502  501  0.00000000000E+00  0.00000000000E+00  0.92908439744E+02  0.92908439744E+02  0.00000000000E+00 0.  1.
         21   -1    0    0  501  502 -0.00000000000E+00 -0.00000000000E+00 -0.11541584762E+04  0.11541584762E+04  0.00000000000E+00 0.  1.
         25    1    1    2    0    0  0.18395812064E+02  0.61252308077E+02 -0.19777360200E+02  0.14179702085E+03  0.12500000000E+03 0.  0.
         25    1    1    2    0    0 -0.11625596066E+03  0.43795597389E+02 -0.57662777390E+03  0.60295778656E+03  0.12500000000E+03 0.  0.
         25    1    1    2    0    0  0.97860148600E+02 -0.10504790547E+03 -0.46484490231E+03  0.50231210848E+03  0.12500000000E+03 0.  0.
</event>
<event>
 5    0  0.5634041E-005  0.2853189E+03  0.7546771E-02  0.1092819E+00
         21   -1    0    0  502  501  0.00000000000E+00  0.00000000000E+00  0.48856098429E+02  0.48856098429E+02  0.00000000000E+00 0.  1.
         21   -1    0    0  501  502 -0.00000000000E+00 -0.00000000000E+00 -0.16662582404E+04  0.16662582404E+04  0.00000000000E+00 0.  1.
         25    1    1    2    0    0  0.59191165699E+02 -0.46614101778E+02 -0.60685432527E+03  0.62415834584E+03  0.12500000000E+03 0.  0.
         25    1    1    2    0    0 -0.13946970467E+03  0.95650069026E+02 -0.80860931566E+03  0.83550868314E+03  0.12500000000E+03 0.  0.
         25    1    1    2    0    0  0.80278538974E+02 -0.49035967248E+02 -0.20193850100E+03  0.25544730981E+03  0.12500000000E+03 0.  0.
</event>
<event>
 5    0  0.6196386E-005  0.2939624E+03  0.7546771E-02  0.1088298E+00
         21   -1    0    0  502  501  0.00000000000E+00  0.00000000000E+00  0.24850871661E+03  0.24850871661E+03  0.00000000000E+00 0. -1.
         21   -1    0    0  501  502 -0.00000000000E+00 -0.00000000000E+00 -0.34772986443E+03  0.34772986443E+03  0.00000000000E+00 0. -1.
         25    1    1    2    0    0 -0.20139966236E+01 -0.41586391857E+02  0.57982765493E+02  0.14394611931E+03  0.12500000000E+03 0.  0.
         25    1    1    2    0    0  0.80320844202E+02  0.20430159008E+02 -0.23910969467E+03  0.28225392025E+03  0.12500000000E+03 0.  0.
         25    1    1    2    0    0 -0.78306847578E+02  0.21156232849E+02  0.81905781359E+02  0.17003854147E+03  0.12500000000E+03 0.  0.
</event>
<event>
 5    0  0.5634041E-005  0.2651063E+03  0.7546771E-02  0.1104114E+00
         21   -1    0    0  502  501  0.00000000000E+00  0.00000000000E+00  0.46024410687E+03  0.46024410687E+03  0.00000000000E+00 0. -1.
         21   -1    0    0  501  502 -0.00000000000E+00 -0.00000000000E+00 -0.15270450845E+03  0.15270450845E+03  0.00000000000E+00 0. -1.
         25    1    1    2    0    0 -0.42330201969E+02  0.11706479927E+03  0.17732337411E+03  0.25012915110E+03  0.12500000000E+03 0.  0.
         25    1    1    2    0    0  0.31254979829E+02 -0.13315604878E+03  0.14521805633E+03  0.23541599558E+03  0.12500000000E+03 0.  0.
         25    1    1    2    0    0  0.11075222140E+02  0.16091249506E+02 -0.15001832017E+02  0.12740346863E+03  0.12500000000E+03 0.  0.
</event>
<event>
 5    0  0.5634041E-005  0.3937141E+03  0.7546771E-02  0.1045978E+00
         21   -1    0    0  502  501  0.00000000000E+00  0.00000000000E+00  0.30885817422E+03  0.30885817422E+03  0.00000000000E+00 0. -1.
         21   -1    0    0  501  502 -0.00000000000E+00 -0.00000000000E+00 -0.50188329503E+03  0.50188329503E+03  0.00000000000E+00 0. -1.
         25    1    1    2    0    0  0.19631448275E+03 -0.20058784412E+03 -0.21475795902E+03  0.37486109469E+03  0.12500000000E+03 0.  0.
         25    1    1    2    0    0 -0.40857862391E+02 -0.64001415050E+01 -0.47893749260E+02  0.14010402545E+03  0.12500000000E+03 0.  0.
         25    1    1    2    0    0 -0.15545662036E+03  0.20698798563E+03  0.69626587470E+02  0.29577634910E+03  0.12500000000E+03 0.  0.
</event>
<event>
 5    0  0.5697695E-005  0.2860260E+03  0.7546771E-02  0.1092442E+00
         21   -1    0    0  502  501  0.00000000000E+00  0.00000000000E+00  0.16014543350E+04  0.16014543350E+04  0.00000000000E+00 0. -1.
         21   -1    0    0  501  502 -0.00000000000E+00 -0.00000000000E+00 -0.51085364334E+02  0.51085364334E+02  0.00000000000E+00 0. -1.
         25    1    1    2    0    0  0.63566116262E+01  0.40597960630E+01  0.82936445575E+03  0.83876533602E+03  0.12500000000E+03 0.  0.
         25    1    1    2    0    0 -0.75762957947E+02 -0.10812396452E+03  0.23858137378E+03  0.29996147988E+03  0.12500000000E+03 0.  0.
         25    1    1    2    0    0  0.69406346321E+02  0.10406416846E+03  0.48242314112E+03  0.51381288340E+03  0.12500000000E+03 0.  0.
</event>
<event>
 5    0  0.5634041E-005  0.3383681E+03  0.7546771E-02  0.1067493E+00
         21   -1    0    0  502  501  0.00000000000E+00  0.00000000000E+00  0.97880305337E+03  0.97880305337E+03  0.00000000000E+00 0. -1.
         21   -1    0    0  501  502 -0.00000000000E+00 -0.00000000000E+00 -0.11697245552E+03  0.11697245552E+03  0.00000000000E+00 0. -1.
         25    1    1    2    0    0 -0.54696569960E+02 -0.60775305508E+02  0.11815556588E+03  0.19044970536E+03  0.12500000000E+03 0.  0.
         25    1    1    2    0    0  0.12237267395E+03 -0.11077757488E+03  0.61303567912E+03  0.64705833300E+03  0.12500000000E+03 0.  0.
         25    1    1    2    0    0 -0.67676103992E+02  0.17155288038E+03  0.13063935285E+03  0.25826747053E+03  0.12500000000E+03 0.  0.
</event>
<event>
 5    0  0.5634041E-005  0.2371725E+03  0.7546771E-02  0.1121691E+00
         21   -1    0    0  502  501  0.00000000000E+00  0.00000000000E+00  0.87653043046E+02  0.87653043046E+02  0.00000000000E+00 0. -1.
         21   -1    0    0  501  502 -0.00000000000E+00 -0.00000000000E+00 -0.64174358432E+03  0.64174358432E+03  0.00000000000E+00 0. -1.
         25    1    1    2    0    0 -0.43481077349E+02 -0.87074247404E+02 -0.22473300979E+03  0.27495900483E+03  0.12500000000E+03 0.  0.
         25    1    1    2    0    0  0.23539541017E+02 -0.14506372906E+02 -0.23254658812E+03  0.26545707844E+03  0.12500000000E+03 0.  0.
         25    1    1    2    0    0  0.19941536332E+02  0.10158062031E+03 -0.96810943371E+02  0.18898054410E+03  0.12500000000E+03 0.  0.
</event>
<event>
 5    0  0.5634041E-005  0.2846185E+03  0.7546771E-02  0.1093193E+00
         21   -1    0    0  502  501  0.00000000000E+00  0.00000000000E+00  0.70631722500E+02  0.70631722500E+02  0.00000000000E+00 0.  1.
         21   -1    0    0  501  502 -0.00000000000E+00 -0.00000000000E+00 -0.11469025872E+04  0.11469025872E+04  0.00000000000E+00 0.  1.
         25    1    1    2    0    0 -0.11958402575E+03  0.27512231109E+01 -0.14372551207E+03  0.22492205597E+03  0.12500000000E+03 0.  0.
         25    1    1    2    0    0  0.14937608823E+03 -0.48909431491E+02 -0.61492264781E+03  0.64688500602E+03  0.12500000000E+03 0.  0.
         25    1    1    2    0    0 -0.29792062483E+02  0.46158208380E+02 -0.31762270481E+03  0.34572724769E+03  0.12500000000E+03 0.  0.
</event>
<event>
 5    0  0.5634041E-005  0.3874112E+03  0.7546771E-02  0.1048228E+00
         21   -1    0    0  502  501  0.00000000000E+00  0.00000000000E+00  0.11254305046E+04  0.11254305046E+04  0.00000000000E+00 0. -1.
         21   -1    0    0  501  502 -0.00000000000E+00 -0.00000000000E+00 -0.13336000539E+03  0.13336000539E+03  0.00000000000E+00 0. -1.
         25    1    1    2    0    0 -0.26568158797E+02 -0.24882011540E+02 -0.28467407460E+02  0.13326805637E+03  0.12500000000E+03 0.  0.
         25    1    1    2    0    0 -0.85599665295E+02 -0.14723469190E+03  0.65281325321E+03  0.68614539331E+03  0.12500000000E+03 0.  0.
         25    1    1    2    0    0  0.11216782409E+03  0.17211670344E+03  0.36772465349E+03  0.43937706034E+03  0.12500000000E+03 0.  0.
</event>
<event>
 5    0  0.5634041E-005  0.2227998E+03  0.7546771E-02  0.1131813E+00
         21   -1    0    0  502  501  0.00000000000E+00  0.00000000000E+00  0.50230373103E+02  0.50230373103E+02  0.00000000000E+00 0.  1.
         21   -1    0    0  501  502 -0.00000000000E+00 -0.00000000000E+00 -0.98824157767E+03  0.98824157767E+03  0.00000000000E+00 0.  1.
         25    1    1    2    0    0 -0.36882621053E+02 -0.28279945062E+02 -0.14725378826E+03  0.19866746383E+03  0.12500000000E+03 0.  0.
         25    1    1    2    0    0  0.18921159406E+02 -0.12212559351E+02 -0.55460330827E+03  0.56896132243E+03  0.12500000000E+03 0.  0.
         25    1    1    2    0    0  0.17961461647E+02  0.40492504413E+02 -0.23615410805E+03  0.27084316452E+03  0.12500000000E+03 0.  0.
</event>
<event>
 5    0  0.5634041E-005  0.3145128E+03  0.7546771E-02  0.1078203E+00
         21   -1    0    0  502  501  0.00000000000E+00  0.00000000000E+00  0.17873894883E+03  0.17873894883E+03  0.00000000000E+00 0.  1.
         21   -1    0    0  501  502 -0.00000000000E+00 -0.00000000000E+00 -0.55342338404E+03  0.55342338404E+03  0.00000000000E+00 0.  1.
         25    1    1    2    0    0  0.86825193502E+02  0.10533712631E+03  0.29712269043E+02  0.18746291190E+03  0.12500000000E+03 0.  0.
         25    1    1    2    0    0  0.28112981252E+02 -0.86816798658E+02 -0.31713365605E+03  0.35288277380E+03  0.12500000000E+03 0.  0.
         25    1    1    2    0    0 -0.11493817475E+03 -0.18520327654E+02 -0.87263048200E+02  0.19181664717E+03  0.12500000000E+03 0.  0.
</event>
<event>
 5    0  0.5634041E-005  0.2122917E+03  0.7546771E-02  0.1139764E+00
         21   -1    0    0  502  501  0.00000000000E+00  0.00000000000E+00  0.40067365857E+03  0.40067365857E+03  0.00000000000E+00 0.  1.
         21   -1    0    0  501  502 -0.00000000000E+00 -0.00000000000E+00 -0.11247992919E+03  0.11247992919E+03  0.00000000000E+00 0.  1.
         25    1    1    2    0    0 -0.12042933470E+02 -0.74509616817E+01  0.14652699347E+03  0.19312096958E+03  0.12500000000E+03 0.  0.
         25    1    1    2    0    0 -0.22165493912E+02 -0.25369153241E+02  0.13370218654E+03  0.18610797335E+03  0.12500000000E+03 0.  0.
         25    1    1    2    0    0  0.34208427382E+02  0.32820114922E+02  0.79645493653E+01  0.13392464483E+03  0.12500000000E+03 0.  0.
</event>
<event>
 5    0  0.5634041E-005  0.6530595E+03  0.7546771E-02  0.9801055E-01
         21   -1    0    0  502  501  0.00000000000E+00  0.00000000000E+00  0.15508655936E+03  0.15508655936E+03  0.00000000000E+00 0.  1.
         21   -1    0    0  501  502 -0.00000000000E+00 -0.00000000000E+00 -0.27499916218E+04  0.27499916218E+04  0.00000000000E+00 0.  1.
         25    1    1    2    0    0  0.51015661410E+03  0.19164957060E+02 -0.19514409025E+04  0.20209833405E+04  0.12500000000E+03 0.  0.
         25    1    1    2    0    0 -0.26626080394E+03  0.94342891487E+02 -0.35008603085E+03  0.46688395334E+03  0.12500000000E+03 0.  0.
         25    1    1    2    0    0 -0.24389581016E+03 -0.11350784855E+03 -0.29337812910E+03  0.41721088736E+03  0.12500000000E+03 0.  0.
</event>
<event>
 5    0  0.5634041E-005  0.3136320E+03  0.7546771E-02  0.1078618E+00
         21   -1    0    0  502  501  0.00000000000E+00  0.00000000000E+00  0.10236449877E+03  0.10236449877E+03  0.00000000000E+00 0. -1.
         21   -1    0    0  501  502 -0.00000000000E+00 -0.00000000000E+00 -0.96092895519E+03  0.96092895519E+03  0.00000000000E+00 0. -1.
         25    1    1    2    0    0  0.39479679055E+02 -0.15028175716E+03 -0.21170645969E+03  0.29083995026E+03  0.12500000000E+03 0.  0.
         25    1    1    2    0    0  0.18672702025E+02  0.18530518781E+03 -0.18998385916E+03  0.29394820831E+03  0.12500000000E+03 0.  0.
         25    1    1    2    0    0 -0.58152381080E+02 -0.35023430646E+02 -0.45687413758E+03  0.47850529539E+03  0.12500000000E+03 0.  0.
</event>
<event>
 5    0  0.5634041E-005  0.3846286E+03  0.7546771E-02  0.1049236E+00
         21   -1    0    0  502  501  0.00000000000E+00  0.00000000000E+00  0.47913653727E+03  0.47913653727E+03  0.00000000000E+00 0. -1.
         21   -1    0    0  501  502 -0.00000000000E+00 -0.00000000000E+00 -0.30876201203E+03  0.30876201203E+03  0.00000000000E+00 0. -1.
         25    1    1    2    0    0 -0.58939999483E+02 -0.12874494180E+03  0.30971829263E+02  0.19139863580E+03  0.12500000000E+03 0.  0.
         25    1    1    2    0    0 -0.17188757588E+03 -0.71742946886E+02 -0.28241446030E+02  0.22608619694E+03  0.12500000000E+03 0.  0.
         25    1    1    2    0    0  0.23082757537E+03  0.20048788869E+03  0.16764414201E+03  0.37041371655E+03  0.12500000000E+03 0.  0.
</event>
<event>
 5    0  0.5634041E-005  0.3089885E+03  0.7546771E-02  0.1080832E+00
         21   -1    0    0  502  501  0.00000000000E+00  0.00000000000E+00  0.22331061567E+03  0.22331061567E+03  0.00000000000E+00 0. -1.
         21   -1    0    0  501  502 -0.00000000000E+00 -0.00000000000E+00 -0.42753843694E+03  0.42753843694E+03  0.00000000000E+00 0. -1.
         25    1    1    2    0    0 -0.82586437919E+02 -0.47582337471E+02 -0.11410066633E+03  0.19423841181E+03  0.12500000000E+03 0.  0.
         25    1    1    2    0    0  0.57929217187E+02  0.17209683695E+03  0.54568551943E+02  0.22710315355E+03  0.12500000000E+03 0.  0.
         25    1    1    2    0    0  0.24657220733E+02 -0.12451449947E+03 -0.14469570688E+03  0.22950748725E+03  0.12500000000E+03 0.  0.
</event>
<event>
 5    0  0.5634041E-005  0.2121427E+03  0.7546771E-02  0.1139880E+00
         21   -1    0    0  502  501  0.00000000000E+00  0.00000000000E+00  0.18062076510E+03  0.18062076510E+03  0.00000000000E+00 0.  1.
         21   -1    0    0  501  502 -0.00000000000E+00 -0.00000000000E+00 -0.24916576113E+03  0.24916576113E+03  0.00000000000E+00 0.  1.
         25    1    1    2    0    0 -0.20787966597E+01 -0.58491767477E+02 -0.22800171688E+02  0.13989444623E+03  0.12500000000E+03 0.  0.
         25    1    1    2    0    0  0.48882677727E+02  0.35300484727E+02  0.18402948099E+02  0.13999753177E+03  0.12500000000E+03 0.  0.
         25    1    1    2    0    0 -0.46803881068E+02  0.23191282749E+02 -0.64147772441E+02  0.14989454823E+03  0.12500000000E+03 0.  0.
</event>
<event>
 5    0  0.5634041E-005  0.7039490E+03  0.7546771E-02  0.9710503E-01
         21   -1    0    0  502  501  0.00000000000E+00  0.00000000000E+00  0.45269130172E+03  0.45269130172E+03  0.00000000000E+00 0.  1.
         21   -1    0    0  501  502 -0.00000000000E+00 -0.00000000000E+00 -0.10946624510E+04  0.10946624510E+04  0.00000000000E+00 0.  1.
         25    1    1    2    0    0 -0.29373814151E+02  0.15643426748E+03  0.55473509719E+02  0.20984949674E+03  0.12500000000E+03 0.  0.
         25    1    1    2    0    0  0.59781063475E+02  0.54357542177E+02  0.28660133896E+03  0.32294557659E+03  0.12500000000E+03 0.  0.
         25    1    1    2    0    0 -0.30407249323E+02 -0.21079180966E+03 -0.98404599798E+03  0.10145586794E+04  0.12500000000E+03 0.  0.
</event>
<event>
 5    0  0.5634041E-005  0.6011837E+03  0.7546771E-02  0.9902953E-01
         21   -1    0    0  502  501  0.00000000000E+00  0.00000000000E+00  0.47875450174E+03  0.47875450174E+03  0.00000000000E+00 0. -1.
         21   -1    0    0  501  502 -0.00000000000E+00 -0.00000000000E+00 -0.75492101298E+03  0.75492101298E+03  0.00000000000E+00 0. -1.
         25    1    1    2    0    0 -0.22719171299E+02  0.19336532593E+03 -0.15417787777E+03  0.27803260242E+03  0.12500000000E+03 0.  0.
         25    1    1    2    0    0  0.34896244874E+03 -0.20730573674E+03  0.20973713779E+03  0.47367196042E+03  0.12500000000E+03 0.  0.
         25    1    1    2    0    0 -0.32624327744E+03  0.13940410804E+02 -0.33172577127E+03  0.48197095188E+03  0.12500000000E+03 0.  0.
</event>
<event>
 5    0  0.5634041E-005  0.5465841E+03  0.7546771E-02  0.1002288E+00
         21   -1    0    0  502  501  0.00000000000E+00  0.00000000000E+00  0.39897260361E+03  0.39897260361E+03  0.00000000000E+00 0.  1.
         21   -1    0    0  501  502 -0.00000000000E+00 -0.00000000000E+00 -0.74880878769E+03  0.74880878769E+03  0.00000000000E+00 0.  1.
         25    1    1    2    0    0 -0.15033728583E+03  0.34417716994E+03 -0.97536560936E+02  0.40767340426E+03  0.12500000000E+03 0.  0.
         25    1    1    2    0    0  0.15909161062E+03 -0.40008918827E+03 -0.35240418096E+03  0.57025889375E+03  0.12500000000E+03 0.  0.
         25    1    1    2    0    0 -0.87543247862E+01  0.55912018331E+02  0.10010455782E+03  0.16984909329E+03  0.12500000000E+03 0.  0.
</event>
<event>
 5    0  0.5634041E-005  0.5028564E+03  0.7546771E-02  0.1013036E+00
         21   -1    0    0  502  501  0.00000000000E+00  0.00000000000E+00  0.27036683397E+03  0.27036683397E+03  0.00000000000E+00 0.  1.
         21   -1    0    0  501  502 -0.00000000000E+00 -0.00000000000E+00 -0.93526453693E+03  0.93526453693E+03  0.00000000000E+00 0.  1.
         25    1    1    2    0    0  0.90466605145E+02  0.15339551527E+03 -0.36627132235E+02  0.22063757062E+03  0.12500000000E+03 0.  0.
         25    1    1    2    0    0  0.25267475027E+03  0.11203216971E+03 -0.30134952555E+03  0.42758890657E+03  0.12500000000E+03 0.  0.
         25    1    1    2    0    0 -0.34314135542E+03 -0.26542768498E+03 -0.32692104517E+03  0.55740489371E+03  0.12500000000E+03 0.  0.
</event>
<event>
 5    0  0.5634041E-005  0.2918794E+03  0.7546771E-02  0.1089372E+00
         21   -1    0    0  502  501  0.00000000000E+00  0.00000000000E+00  0.51526465346E+03  0.51526465346E+03  0.00000000000E+00 0.  1.
         21   -1    0    0  501  502 -0.00000000000E+00 -0.00000000000E+00 -0.16533942011E+03  0.16533942011E+03  0.00000000000E+00 0.  1.
         25    1    1    2    0    0 -0.11617321382E+03 -0.11965910325E+02  0.16294227988E+03  0.23625110622E+03  0.12500000000E+03 0.  0.
         25    1    1    2    0    0  0.20955289890E+03 -0.18609828483E+01  0.13749572073E+03  0.28008204854E+03  0.12500000000E+03 0.  0.
         25    1    1    2    0    0 -0.93379685081E+02  0.13826893174E+02  0.49487232742E+02  0.16427091881E+03  0.12500000000E+03 0.  0.
</event>
<event>
 5    0  0.5634041E-005  0.2607301E+03  0.7546771E-02  0.1106705E+00
         21   -1    0    0  502  501  0.00000000000E+00  0.00000000000E+00  0.34468159533E+02  0.34468159533E+02  0.00000000000E+00 0. -1.
         21   -1    0    0  501  502 -0.00000000000E+00 -0.00000000000E+00 -0.19722604199E+04  0.19722604199E+04  0.00000000000E+00 0. -1.
         25    1    1    2    0    0  0.11991868455E+03  0.98397106132E+01 -0.80467264346E+03  0.82316485223E+03  0.12500000000E+03 0.  0.
         25    1    1    2    0    0 -0.13468271977E+03 -0.49523987115E+02 -0.85215000728E+03  0.87314185286E+03  0.12500000000E+03 0.  0.
         25    1    1    2    0    0  0.14764035222E+02  0.39684276502E+02 -0.28096960959E+03  0.31042187431E+03  0.12500000000E+03 0.  0.
</event>
<event>
 5    0  0.5634041E-005  0.2891256E+03  0.7546771E-02  0.1090807E+00
         21   -1    0    0  502  501  0.00000000000E+00  0.00000000000E+00  0.43526263875E+03  0.43526263875E+03  0.00000000000E+00 0. -1.
         21   -1    0    0  501  502 -0.00000000000E+00 -0.00000000000E+00 -0.19205330065E+03  0.19205330065E+03  0.00000000000E+00 0. -1.
         25    1    1    2    0    0 -0.91484704310E+02  0.31934643894E+02  0.32241448778E+02  0.16141184474E+03  0.12500000000E+03 0.  0.
         25    1    1    2    0    0  0.74777433680E+02 -0.17199618298E+03  0.94835211993E+02  0.24452621328E+03  0.12500000000E+03 0.  0.
         25    1    1    2    0    0  0.16707270630E+02  0.14006153908E+03  0.11613267733E+03  0.22137788138E+03  0.12500000000E+03 0.  0.
</event>
<event>
 5    0  0.5634041E-005  0.2301337E+03  0.7546771E-02  0.1126546E+00
         21   -1    0    0  502  501  0.00000000000E+00  0.00000000000E+00  0.10307132056E+04  0.10307132056E+04  0.00000000000E+00 0.  1.
         21   -1    0    0  501  502 -0.00000000000E+00 -0.00000000000E+00 -0.51383363779E+02  0.51383363779E+02  0.00000000000E+00 0.  1.
         25    1    1    2    0    0  0.49992278648E+01  0.73796779903E+02  0.29775603647E+03  0.33129233957E+03  0.12500000000E+03 0.  0.
         25    1    1    2    0    0  0.74092337551E+02  0.69100046023E+01  0.28726068088E+03  0.32199553014E+03  0.12500000000E+03 0.  0.
         25    1    1    2    0    0 -0.79091565415E+02 -0.80706784505E+02  0.39431312446E+03  0.42880869966E+03  0.12500000000E+03 0.  0.
</event>
<event>
 5    0  0.5634041E-005  0.3758727E+03  0.7546771E-02  0.1052470E+00
         21   -1    0    0  502  501  0.00000000000E+00  0.00000000000E+00  0.10237199278E+03  0.10237199278E+03  0.00000000000E+00 0.  1.
         21   -1    0    0  501  502 -0.00000000000E+00 -0.00000000000E+00 -0.13800679864E+04  0.13800679864E+04  0.00000000000E+00 0.  1.
         25    1    1    2    0    0  0.63699129536E+02 -0.12108742265E+03 -0.58825054018E+03  0.61675233364E+03  0.12500000000E+03 0.  0.
         25    1    1    2    0    0 -0.97176128163E+02  0.42695088343E+02 -0.69520155451E+03  0.71428024742E+03  0.12500000000E+03 0.  0.
         25    1    1    2    0    0  0.33476998627E+02  0.78392334303E+02  0.57561010473E+01  0.15140739815E+03  0.12500000000E+03 0.  0.
</event>
<event>
 5    0  0.5634041E-005  0.4017312E+03  0.7546771E-02  0.1043182E+00
         21   -1    0    0  502  501  0.00000000000E+00  0.00000000000E+00  0.44305899129E+03  0.44305899129E+03  0.00000000000E+00 0.  1.
         21   -1    0    0  501  502 -0.00000000000E+00 -0.00000000000E+00 -0.36425833290E+03  0.36425833290E+03  0.00000000000E+00 0.  1.
         25    1    1    2    0    0  0.33125646384E+02  0.16541985190E+03  0.16577952938E+03  0.26752362178E+03  0.12500000000E+03 0.  0.
         25    1    1    2    0    0 -0.11206846800E+03 -0.19709842890E+03 -0.21897195184E+03  0.33908825973E+03  0.12500000000E+03 0.  0.
         25    1    1    2    0    0  0.78942821616E+02  0.31678576999E+02  0.13199308085E+03  0.20070544267E+03  0.12500000000E+03 0.  0.
</event>
<event>
 5    0  0.5670668E-005  0.2846368E+03  0.7546771E-02  0.1093183E+00
         21   -1    0    0  502  501  0.00000000000E+00  0.00000000000E+00  0.44358600970E+03  0.44358600970E+03  0.00000000000E+00 0.  1.
         21   -1    0    0  501  502 -0.00000000000E+00 -0.00000000000E+00 -0.18264345966E+03  0.18264345966E+03  0.00000000000E+00 0.  1.
         25    1    1    2    0    0 -0.41285301352E+02 -0.15360638817E+03 -0.20912279354E+02  0.20337581474E+03  0.12500000000E+03 0.  0.
         25    1    1    2    0    0  0.70109958710E+02  0.97690799483E+02  0.17847141713E+03  0.24886933388E+03  0.12500000000E+03 0.  0.
         25    1    1    2    0    0 -0.28824657358E+02  0.55915588688E+02  0.10338341226E+03  0.17398432073E+03  0.12500000000E+03 0.  0.
</event>
<event>
 5    0  0.5634041E-005  0.3725625E+03  0.7546771E-02  0.1053717E+00
         21   -1    0    0  502  501  0.00000000000E+00  0.00000000000E+00  0.16766204741E+04  0.16766204741E+04  0.00000000000E+00 0. -1.
         21   -1    0    0  501  502 -0.00000000000E+00 -0.00000000000E+00 -0.82787257831E+02  0.82787257831E+02  0.00000000000E+00 0. -1.
         25    1    1    2    0    0  0.72651717867E+02  0.63368098773E+01  0.18339499124E+02  0.14587585303E+03  0.12500000000E+03 0.  0.
         25    1    1    2    0    0  0.75112285192E+02  0.98552762617E+01  0.85078709047E+03  0.86325121208E+03  0.12500000000E+03 0.  0.
         25    1    1    2    0    0 -0.14776400306E+03 -0.16192086139E+02  0.72470662667E+03  0.75028066681E+03  0.12500000000E+03 0.  0.
</event>
<event>
 5    0  0.5634041E-005  0.3251872E+03  0.7546771E-02  0.1073286E+00
         21   -1    0    0  502  501  0.00000000000E+00  0.00000000000E+00  0.12886002629E+03  0.12886002629E+03  0.00000000000E+00 0. -1.
         21   -1    0    0  501  502 -0.00000000000E+00 -0.00000000000E+00 -0.82063240796E+03  0.82063240796E+03  0.00000000000E+00 0. -1.
         25    1    1    2    0    0 -0.40026429541E+02 -0.92010834163E+02  0.25908840211E+02  0.16237110786E+03  0.12500000000E+03 0.  0.
         25    1    1    2    0    0  0.95491200992E+02  0.25350882528E+01 -0.30317938304E+03  0.34156658859E+03  0.12500000000E+03 0.  0.
         25    1    1    2    0    0 -0.55464771451E+02  0.89475745910E+02 -0.41450183884E+03  0.44555473780E+03  0.12500000000E+03 0.  0.
</event>
<event>
 5    0  0.5634041E-005  0.2612266E+03  0.7546771E-02  0.1106409E+00
         21   -1    0    0  502  501  0.00000000000E+00  0.00000000000E+00  0.15236668208E+04  0.15236668208E+04  0.00000000000E+00 0. -1.
         21   -1    0    0  501  502 -0.00000000000E+00 -0.00000000000E+00 -0.44786244871E+02  0.44786244871E+02  0.00000000000E+00 0. -1.
         25    1    1    2    0    0 -0.15437427460E+02 -0.72546598395E+02  0.53720848863E+03  0.55652428821E+03  0.12500000000E+03 0.  0.
         25    1    1    2    0    0 -0.78242068147E+01  0.15360534078E+03  0.69603646923E+03  0.72370407310E+03  0.12500000000E+03 0.  0.
         25    1    1    2    0    0  0.23261634274E+02 -0.81058742382E+02  0.24563561811E+03  0.28822470441E+03  0.12500000000E+03 0.  0.
</event>
<event>
 5    0  0.5634041E-005  0.3660168E+03  0.7546771E-02  0.1056227E+00
         21   -1    0    0  502  501  0.00000000000E+00  0.00000000000E+00  0.17524596477E+03  0.17524596477E+03  0.00000000000E+00 0.  1.
         21   -1    0    0  501  502 -0.00000000000E+00 -0.00000000000E+00 -0.76445859164E+03  0.76445859164E+03  0.00000000000E+00 0.  1.
         25    1    1    2    0    0 -0.31210773409E+02  0.15810984701E+03 -0.27891933614E+03  0.34553412591E+03  0.12500000000E+03 0.  0.
         25    1    1    2    0    0 -0.13664521306E+02 -0.20390134434E+02  0.86280605070E+02  0.15385649007E+03  0.12500000000E+03 0.  0.
         25    1    1    2    0    0  0.44875294714E+02 -0.13771971257E+03 -0.39657389580E+03  0.44031394043E+03  0.12500000000E+03 0.  0.
</event>
<event>
 5    0  0.5634041E-005  0.2504742E+03  0.7546771E-02  0.1113005E+00
         21   -1    0    0  502  501  0.00000000000E+00  0.00000000000E+00  0.65547143803E+02  0.65547143803E+02  0.00000000000E+00 0. -1.
         21   -1    0    0  501  502 -0.00000000000E+00 -0.00000000000E+00 -0.95713319155E+03  0.95713319155E+03  0.00000000000E+00 0. -1.
         25    1    1    2    0    0 -0.83254253653E+02  0.25120355817E+02 -0.53089359759E+03  0.55230002262E+03  0.12500000000E+03 0.  0.
         25    1    1    2    0    0  0.97353872642E+01  0.51349327031E+02 -0.13345218347E+03  0.19017364808E+03  0.12500000000E+03 0.  0.
         25    1    1    2    0    0  0.73518866388E+02 -0.76469682848E+02 -0.22724026669E+03  0.28020666465E+03  0.12500000000E+03 0.  0.
</event>
<event>
 5    0  0.5634041E-005  0.2556010E+03  0.7546771E-02  0.1109815E+00
         21   -1    0    0  502  501  0.00000000000E+00  0.00000000000E+00  0.12284355407E+03  0.12284355407E+03  0.00000000000E+00 0.  1.
         21   -1    0    0  501  502 -0.00000000000E+00 -0.00000000000E+00 -0.53183007428E+03  0.53183007428E+03  0.00000000000E+00 0.  1.
         25    1    1    2    0    0  0.56018818506E+02 -0.21714050932E+02 -0.31634390770E+02  0.14225098493E+03  0.12500000000E+03 0.  0.
         25    1    1    2    0    0  0.24313009927E+02  0.99038884563E+02 -0.26662141003E+03  0.31162766147E+03  0.12500000000E+03 0.  0.
         25    1    1    2    0    0 -0.80331828433E+02 -0.77324833631E+02 -0.11073071941E+03  0.20079498195E+03  0.12500000000E+03 0.  0.
</event>
<event>
 5    0  0.5634041E-005  0.2849188E+03  0.7546771E-02  0.1093032E+00
         21   -1    0    0  502  501  0.00000000000E+00  0.00000000000E+00  0.37770286321E+03  0.37770286321E+03  0.00000000000E+00 0.  1.
         21   -1    0    0  501  502 -0.00000000000E+00 -0.00000000000E+00 -0.21492748706E+03  0.21492748706E+03  0.00000000000E+00 0.  1.
         25    1    1    2    0    0 -0.11983050038E+03 -0.73391755362E+02  0.51134237838E+02  0.19489845781E+03  0.12500000000E+03 0.  0.
         25    1    1    2    0    0  0.14464053793E+03 -0.35784895882E+02 -0.29792176394E+01  0.19451303227E+03  0.12500000000E+03 0.  0.
         25    1    1    2    0    0 -0.24810037547E+02  0.10917665124E+03  0.11462035595E+03  0.20321886019E+03  0.12500000000E+03 0.  0.
</event>
<event>
 5    0  0.5634041E-005  0.2188438E+03  0.7546771E-02  0.1134748E+00
         21   -1    0    0  502  501  0.00000000000E+00  0.00000000000E+00  0.53410674012E+03  0.53410674012E+03  0.00000000000E+00 0. -1.
         21   -1    0    0  501  502 -0.00000000000E+00 -0.00000000000E+00 -0.89668616745E+02  0.89668616745E+02  0.00000000000E+00 0. -1.
         25    1    1    2    0    0 -0.17842809409E+02  0.42704087419E+02  0.85116438030E+02  0.15815123443E+03  0.12500000000E+03 0.  0.
         25    1    1    2    0    0 -0.15526124678E+02 -0.22612846227E+02  0.29109977319E+03  0.31798817480E+03  0.12500000000E+03 0.  0.
         25    1    1    2    0    0  0.33368934088E+02 -0.20091241192E+02  0.68221912154E+02  0.14763594763E+03  0.12500000000E+03 0.  0.
</event>
<event>
 5    0  0.5634041E-005  0.2904525E+03  0.7546771E-02  0.1090113E+00
         21   -1    0    0  502  501  0.00000000000E+00  0.00000000000E+00  0.19771553204E+04  0.19771553204E+04  0.00000000000E+00 0.  1.
         21   -1    0    0  501  502 -0.00000000000E+00 -0.00000000000E+00 -0.42668697642E+02  0.42668697642E+02  0.00000000000E+00 0.  1.
         25    1    1    2    0    0 -0.53684667964E+02 -0.53063753870E+02  0.28507930130E+03  0.32030144174E+03  0.12500000000E+03 0.  0.
         25    1    1    2    0    0 -0.10583627336E+03  0.41213126779E+01  0.39065198250E+03  0.42361807493E+03  0.12500000000E+03 0.  0.
         25    1    1    2    0    0  0.15952094132E+03  0.48942441193E+02  0.12587553390E+04  0.12759045014E+04  0.12500000000E+03 0.  0.
</event>
<event>
 5    0  0.5634041E-005  0.2319821E+03  0.7546771E-02  0.1125252E+00
         21   -1    0    0  502  501  0.00000000000E+00  0.00000000000E+00  0.40152285421E+03  0.40152285421E+03  0.00000000000E+00 0. -1.
         21   -1    0    0  501  502 -0.00000000000E+00 -0.00000000000E+00 -0.13402902437E+03  0.13402902437E+03  0.00000000000E+00 0. -1.
         25    1    1    2    0    0  0.21673231860E+02 -0.94987475368E+02  0.10104049163E+03  0.18795353257E+03  0.12500000000E+03 0.  0.
         25    1    1    2    0    0  0.15688790189E+02  0.70979867701E+02  0.15872908246E+03  0.21471888919E+03  0.12500000000E+03 0.  0.
         25    1    1    2    0    0 -0.37362022048E+02  0.24007607667E+02  0.77242557426E+01  0.13287945682E+03  0.12500000000E+03 0.  0.
</event>
<event>
 5    0  0.5634041E-005  0.4094472E+03  0.7546771E-02  0.1040557E+00
         21   -1    0    0  502  501  0.00000000000E+00  0.00000000000E+00  0.28232287185E+03  0.28232287185E+03  0.00000000000E+00 0. -1.
         21   -1    0    0  501  502 -0.00000000000E+00 -0.00000000000E+00 -0.59381297567E+03  0.59381297567E+03  0.00000000000E+00 0. -1.
         25    1    1    2    0    0  0.20203259072E+03  0.12105805401E+03 -0.35165771141E+03  0.44131662799E+03  0.12500000000E+03 0.  0.
         25    1    1    2    0    0 -0.95553989142E+02 -0.18157116870E+02  0.14479638427E+03  0.21459552332E+03  0.12500000000E+03 0.  0.
         25    1    1    2    0    0 -0.10647860158E+03 -0.10290093714E+03 -0.10462877669E+03  0.22022369620E+03  0.12500000000E+03 0.  0.
</event>
<event>
 5    0  0.5634041E-005  0.2822017E+03  0.7546771E-02  0.1094492E+00
         21   -1    0    0  502  501  0.00000000000E+00  0.00000000000E+00  0.12929126411E+03  0.12929126411E+03  0.00000000000E+00 0. -1.
         21   -1    0    0  501  502 -0.00000000000E+00 -0.00000000000E+00 -0.61595664428E+03  0.61595664428E+03  0.00000000000E+00 0. -1.
         25    1    1    2    0    0 -0.14574799253E+01 -0.13726582602E+02 -0.21337060148E+02  0.12755709880E+03  0.12500000000E+03 0.  0.
         25    1    1    2    0    0  0.13941341036E+03 -0.27915109510E+02 -0.34088111377E+03  0.38992343614E+03  0.12500000000E+03 0.  0.
         25    1    1    2    0    0 -0.13795593044E+03  0.41641692111E+02 -0.12444720625E+03  0.22776737345E+03  0.12500000000E+03 0.  0.
</event>
<event>
 5    0  0.5634041E-005  0.3644059E+03  0.7546771E-02  0.1056853E+00
         21   -1    0    0  502  501  0.00000000000E+00  0.00000000000E+00  0.30323315114E+03  0.30323315114E+03  0.00000000000E+00 0. -1.
         21   -1    0    0  501  502 -0.00000000000E+00 -0.00000000000E+00 -0.43791926843E+03  0.43791926843E+03  0.00000000000E+00 0. -1.
         25    1    1    2    0    0  0.58735166361E+02  0.11358461532E+03  0.16757391838E+03  0.24506591507E+03  0.12500000000E+03 0.  0.
         25    1    1    2    0    0 -0.15172152257E+03 -0.12899263772E+03 -0.20371381503E+03  0.31109940442E+03  0.12500000000E+03 0.  0.
         25    1    1    2    0    0  0.92986356211E+02  0.15408022399E+02 -0.98546220644E+02  0.18498710009E+03  0.12500000000E+03 0.  0.
</event>
<event>
 5    0  0.5634041E-005  0.2544031E+03  0.7546771E-02  0.1110553E+00
         21   -1    0    0  502  501  0.00000000000E+00  0.00000000000E+00  0.91249074691E+03  0.91249074691E+03  0.00000000000E+00 0. -1.
         21   -1    0    0  501  502 -0.00000000000E+00 -0.00000000000E+00 -0.70927797611E+02  0.70927797611E+02  0.00000000000E+00 0. -1.
         25    1    1    2    0    0 -0.50691263935E+02  0.23878514487E+02  0.50221584841E+03  0.52056272061E+03  0.12500000000E+03 0.  0.
         25    1    1    2    0    0 -0.66856435648E+02 -0.62573936306E+01  0.16456991356E+03  0.21729517807E+03  0.12500000000E+03 0.  0.
         25    1    1    2    0    0  0.11754769958E+03 -0.17621120856E+02  0.17477718733E+03  0.24556064585E+03  0.12500000000E+03 0.  0.
</event>
<event>
 5    0  0.5634041E-005  0.2860115E+03  0.7546771E-02  0.1092450E+00
         21   -1    0    0  502  501  0.00000000000E+00  0.00000000000E+00  0.20132595320E+04  0.20132595320E+04  0.00000000000E+00 0. -1.
         21   -1    0    0  501  502 -0.00000000000E+00 -0.00000000000E+00 -0.40631895136E+02  0.40631895136E+02  0.00000000000E+00 0. -1.
         25    1    1    2    0    0 -0.11994943193E+03 -0.63590639869E+02  0.96308980832E+03  0.98061134737E+03  0.12500000000E+03 0.  0.
         25    1    1    2    0    0  0.14739582006E+03 -0.19405635134E+01  0.77016339073E+03  0.79404404284E+03  0.12500000000E+03 0.  0.
         25    1    1    2    0    0 -0.27446388128E+02  0.65531203382E+02  0.23937443783E+03  0.27923603694E+03  0.12500000000E+03 0.  0.
</event>
<event>
 5    0  0.5634041E-005  0.2796159E+03  0.7546771E-02  0.1095899E+00
         21   -1    0    0  502  501  0.00000000000E+00  0.00000000000E+00  0.17868581323E+03  0.17868581323E+03  0.00000000000E+00 0. -1.
         21   -1    0    0  501  502 -0.00000000000E+00 -0.00000000000E+00 -0.43755613371E+03  0.43755613371E+03  0.00000000000E+00 0. -1.
         25    1    1    2    0    0 -0.59044170393E+02 -0.33526101197E+02 -0.12882795120E+03  0.19191626958E+03  0.12500000000E+03 0.  0.
         25    1    1    2    0    0 -0.83313651825E+02 -0.26627849944E+02  0.45432121238E+02  0.15918317943E+03  0.12500000000E+03 0.  0.
         25    1    1    2    0    0  0.14235782222E+03  0.60153951141E+02 -0.17547449052E+03  0.26514249793E+03  0.12500000000E+03 0.  0.
</event>
<event>
 5    0  0.5938516E-005  0.3515356E+03  0.7546771E-02  0.1061987E+00
         21   -1    0    0  502  501  0.00000000000E+00  0.00000000000E+00  0.79729586714E+03  0.79729586714E+03  0.00000000000E+00 0.  1.
         21   -1    0    0  501  502 -0.00000000000E+00 -0.00000000000E+00 -0.15499546501E+03  0.15499546501E+03  0.00000000000E+00 0.  1.
         25    1    1    2    0    0 -0.18760550172E+03 -0.30979716137E+02  0.34603535444E+03  0.41415097924E+03  0.12500000000E+03 0.  0.
         25    1    1    2    0    0  0.63374811802E+02 -0.62505980696E+02 -0.29384841537E+02  0.15624286642E+03  0.12500000000E+03 0.  0.
         25    1    1    2    0    0  0.12423068992E+03  0.93485696833E+02  0.32564988923E+03  0.38189748649E+03  0.12500000000E+03 0.  0.
</event>
<event>
 5    0  0.5634041E-005  0.2571761E+03  0.7546771E-02  0.1108852E+00
         21   -1    0    0  502  501  0.00000000000E+00  0.00000000000E+00  0.66679661330E+03  0.66679661330E+03  0.00000000000E+00 0. -1.
         21   -1    0    0  501  502 -0.00000000000E+00 -0.00000000000E+00 -0.99189960155E+02  0.99189960155E+02  0.00000000000E+00 0. -1.
         25    1    1    2    0    0 -0.78681789623E+02 -0.11963039958E+03  0.11764892895E+03  0.22353641091E+03  0.12500000000E+03 0.  0.
         25    1    1    2    0    0  0.47169840346E+02  0.92818842276E+02  0.31124483906E+03  0.35119607225E+03  0.12500000000E+03 0.  0.
         25    1    1    2    0    0  0.31511949277E+02  0.26811557300E+02  0.13871288513E+03  0.19125409029E+03  0.12500000000E+03 0.  0.
</event>
<event>
 5    0  0.5634041E-005  0.3800197E+03  0.7546771E-02  0.1050926E+00
         21   -1    0    0  502  501  0.00000000000E+00  0.00000000000E+00  0.10343728621E+03  0.10343728621E+03  0.00000000000E+00 0. -1.
         21   -1    0    0  501  502 -0.00000000000E+00 -0.00000000000E+00 -0.13961598745E+04  0.13961598745E+04  0.00000000000E+00 0. -1.
         25    1    1    2    0    0 -0.11735784614E+03 -0.62849028468E+02 -0.51432838095E+03  0.54578525803E+03  0.12500000000E+03 0.  0.
         25    1    1    2    0    0  0.17161400937E+03  0.11560742766E+03 -0.77043403874E+03  0.80747139491E+03  0.12500000000E+03 0.  0.
         25    1    1    2    0    0 -0.54256163228E+02 -0.52758399187E+02 -0.79601686062E+01  0.14634050778E+03  0.12500000000E+03 0.  0.
</event>
<event>
 5    0  0.5634041E-005  0.3173563E+03  0.7546771E-02  0.1076872E+00
         21   -1    0    0  502  501  0.00000000000E+00  0.00000000000E+00  0.51630352913E+03  0.51630352913E+03  0.00000000000E+00 0.  1.
         21   -1    0    0  501  502 -0.00000000000E+00 -0.00000000000E+00 -0.19506936313E+03  0.19506936313E+03  0.00000000000E+00 0.  1.
         25    1    1    2    0    0  0.11713840492E+03  0.21618834221E+03  0.16146764609E+03  0.31961790618E+03  0.12500000000E+03 0.  0.
         25    1    1    2    0    0 -0.75756020796E+02 -0.13612403864E+03  0.11842421390E+03  0.23220254741E+03  0.12500000000E+03 0.  0.
         25    1    1    2    0    0 -0.41382384121E+02 -0.80064303568E+02  0.41342306001E+02  0.15955243867E+03  0.12500000000E+03 0.  0.
</event>
<event>
 5    0  0.5634041E-005  0.2271923E+03  0.7546771E-02  0.1128632E+00
         21   -1    0    0  502  501  0.00000000000E+00  0.00000000000E+00  0.43129086475E+02  0.43129086475E+02  0.00000000000E+00 0.  1.
         21   -1    0    0  501  502 -0.00000000000E+00 -0.00000000000E+00 -0.11967872540E+04  0.11967872540E+04  0.00000000000E+00 0.  1.
         25    1    1    2    0    0 -0.61155752679E+02 -0.22573945861E+02 -0.40042185197E+03  0.42451415601E+03  0.12500000000E+03 0.  0.
         25    1    1    2    0    0 -0.43441811326E+02  0.10155660662E+02 -0.47001002129E+03  0.48838995539E+03  0.12500000000E+03 0.  0.
         25    1    1    2    0    0  0.10459756400E+03  0.12418285199E+02 -0.28322629429E+03  0.32701222910E+03  0.12500000000E+03 0.  0.
</event>
<event>
 5    0  0.5634041E-005  0.3905893E+03  0.7546771E-02  0.1047088E+00
         21   -1    0    0  502  501  0.00000000000E+00  0.00000000000E+00  0.15769668256E+03  0.15769668256E+03  0.00000000000E+00 0. -1.
         21   -1    0    0  501  502 -0.00000000000E+00 -0.00000000000E+00 -0.96742666960E+03  0.96742666960E+03  0.00000000000E+00 0. -1.
         25    1    1    2    0    0  0.23430071567E+03 -0.22154127846E+03 -0.36633046907E+03  0.50378604188E+03  0.12500000000E+03 0.  0.
         25    1    1    2    0    0 -0.17937915398E+03  0.13749328699E+03 -0.35262800474E+03  0.43709586428E+03  0.12500000000E+03 0.  0.
         25    1    1    2    0    0 -0.54921561694E+02  0.84047991467E+02 -0.90771513239E+02  0.18424144600E+03  0.12500000000E+03 0.  0.
</event>
<event>
 5    0  0.5634041E-005  0.2459204E+03  0.7546771E-02  0.1115910E+00
         21   -1    0    0  502  501  0.00000000000E+00  0.00000000000E+00  0.34393036019E+03  0.34393036019E+03  0.00000000000E+00 0.  1.
         21   -1    0    0  501  502 -0.00000000000E+00 -0.00000000000E+00 -0.17584040415E+03  0.17584040415E+03  0.00000000000E+00 0.  1.
         25    1    1    2    0    0 -0.86690388601E+02 -0.16228966101E+02  0.46338127381E+02  0.15984625384E+03  0.12500000000E+03 0.  0.
         25    1    1    2    0    0  0.42221053000E+02 -0.31386838362E+02 -0.43775650115E+02  0.14250985398E+03  0.12500000000E+03 0.  0.
         25    1    1    2    0    0  0.44469335601E+02  0.47615804463E+02  0.16552747877E+03  0.21741465652E+03  0.12500000000E+03 0.  0.
</event>
<event>
 5    0  0.5634041E-005  0.3350527E+03  0.7546771E-02  0.1068923E+00
         21   -1    0    0  502  501  0.00000000000E+00  0.00000000000E+00  0.32421909529E+03  0.32421909529E+03  0.00000000000E+00 0.  1.
         21   -1    0    0  501  502 -0.00000000000E+00 -0.00000000000E+00 -0.34624820258E+03  0.34624820258E+03  0.00000000000E+00 0.  1.
         25    1    1    2    0    0 -0.12050724359E+03  0.13571594920E+03  0.15704607641E+03  0.27060909952E+03  0.12500000000E+03 0.  0.
         25    1    1    2    0    0  0.24525851647E+02 -0.28406990567E+01 -0.14134083101E+03  0.19029402902E+03  0.12500000000E+03 0.  0.
         25    1    1    2    0    0  0.95981391940E+02 -0.13287525014E+03 -0.37734352699E+02  0.20956416934E+03  0.12500000000E+03 0.  0.
</event>
<event>
 5    0  0.5634041E-005  0.2927731E+03  0.7546771E-02  0.1088910E+00
         21   -1    0    0  502  501  0.00000000000E+00  0.00000000000E+00  0.28507950580E+03  0.28507950580E+03  0.00000000000E+00 0.  1.
         21   -1    0    0  501  502 -0.00000000000E+00 -0.00000000000E+00 -0.30067439112E+03  0.30067439112E+03  0.00000000000E+00 0.  1.
         25    1    1    2    0    0 -0.10492496217E+03  0.11771873462E+03  0.10474046369E+03  0.22685350538E+03  0.12500000000E+03 0.  0.
         25    1    1    2    0    0  0.47007869207E+02  0.24662558387E+02 -0.76929581905E+02  0.15608056293E+03  0.12500000000E+03 0.  0.
         25    1    1    2    0    0  0.57917092966E+02 -0.14238129301E+03 -0.43405767106E+02  0.20281982860E+03  0.12500000000E+03 0.  0.
</event>
<event>
 5    0  0.5634041E-005  0.3681363E+03  0.7546771E-02  0.1055408E+00
         21   -1    0    0  502  501  0.00000000000E+00  0.00000000000E+00  0.36441827940E+03  0.36441827940E+03  0.00000000000E+00 0.  1.
         21   -1    0    0  501  502 -0.00000000000E+00 -0.00000000000E+00 -0.37189226800E+03  0.37189226800E+03  0.00000000000E+00 0.  1.
         25    1    1    2    0    0 -0.58818092396E+02  0.46750046215E+02  0.29068953510E+03  0.32522383158E+03  0.12500000000E+03 0.  0.
         25    1    1    2    0    0  0.88680635284E+01 -0.62711306551E+02 -0.19786993740E+03  0.24246414714E+03  0.12500000000E+03 0.  0.
         25    1    1    2    0    0  0.49950028867E+02  0.15961260336E+02 -0.10029358630E+03  0.16862256868E+03  0.12500000000E+03 0.  0.
</event>
<event>
 5    0  0.5634041E-005  0.3666768E+03  0.7546771E-02  0.1055971E+00
         21   -1    0    0  502  501  0.00000000000E+00  0.00000000000E+00  0.65251745750E+02  0.65251745750E+02  0.00000000000E+00 0.  1.
         21   -1    0    0  501  502 -0.00000000000E+00 -0.00000000000E+00 -0.20605099437E+04  0.20605099437E+04  0.00000000000E+00 0.  1.
         25    1    1    2    0    0 -0.17962257218E+01 -0.93902204958E+02 -0.12913858035E+04  0.13008163375E+04  0.12500000000E+03 0.  0.
         25    1    1    2    0    0 -0.16600479879E+03  0.29024739705E+02 -0.31187067874E+03  0.37588342474E+03  0.12500000000E+03 0.  0.
         25    1    1    2    0    0  0.16780102451E+03  0.64877465253E+02 -0.39200171578E+03  0.44906192724E+03  0.12500000000E+03 0.  0.
</event>
<event>
 5    0  0.5634041E-005  0.2609924E+03  0.7546771E-02  0.1106548E+00
         21   -1    0    0  502  501  0.00000000000E+00  0.00000000000E+00  0.18687295318E+03  0.18687295318E+03  0.00000000000E+00 0. -1.
         21   -1    0    0  501  502 -0.00000000000E+00 -0.00000000000E+00 -0.36450990747E+03  0.36450990747E+03  0.00000000000E+00 0. -1.
         25    1    1    2    0    0 -0.74856297220E+02  0.69462138357E+02 -0.16483273918E+03  0.23070172476E+03  0.12500000000E+03 0.  0.
         25    1    1    2    0    0  0.30947513877E+02  0.68233967012E+01  0.70091796947E+02  0.14677250205E+03  0.12500000000E+03 0.  0.
         25    1    1    2    0    0  0.43908783342E+02 -0.76285535058E+02 -0.82896012054E+02  0.17390863385E+03  0.12500000000E+03 0.  0.
</event>
<event>
 5    0  0.5634041E-005  0.3178636E+03  0.7546771E-02  0.1076637E+00
         21   -1    0    0  502  501  0.00000000000E+00  0.00000000000E+00  0.10179898494E+03  0.10179898494E+03  0.00000000000E+00 0.  1.
         21   -1    0    0  501  502 -0.00000000000E+00 -0.00000000000E+00 -0.99251720499E+03  0.99251720499E+03  0.00000000000E+00 0.  1.
         25    1    1    2    0    0  0.10932046670E+03 -0.80088592381E+02 -0.77425222482E+02  0.19996202676E+03  0.12500000000E+03 0.  0.
         25    1    1    2    0    0  0.59147672811E+02  0.80023966188E+02 -0.40368074996E+03  0.43414908759E+03  0.12500000000E+03 0.  0.
         25    1    1    2    0    0 -0.16846813951E+03  0.64626193577E-01 -0.40961224760E+03  0.46020507558E+03  0.12500000000E+03 0.  0.
</event>
<event>
 5    0  0.5634041E-005  0.2815941E+03  0.7546771E-02  0.1094821E+00
         21   -1    0    0  502  501  0.00000000000E+00  0.00000000000E+00  0.86180579876E+03  0.86180579876E+03  0.00000000000E+00 0.  1.
         21   -1    0    0  501  502 -0.00000000000E+00 -0.00000000000E+00 -0.92010584407E+02  0.92010584407E+02  0.00000000000E+00 0.  1.
         25    1    1    2    0    0  0.12277779980E+03  0.34965282895E+02  0.20574505028E+03  0.27249400882E+03  0.12500000000E+03 0.  0.
         25    1    1    2    0    0 -0.87029370071E+02 -0.11430494231E+03  0.15732221405E+03  0.24701216594E+03  0.12500000000E+03 0.  0.
         25    1    1    2    0    0 -0.35748429729E+02  0.79339659417E+02  0.40672795003E+03  0.43431020840E+03  0.12500000000E+03 0.  0.
</event>
<event>
 5    0  0.5634041E-005  0.2765439E+03  0.7546771E-02  0.1097592E+00
         21   -1    0    0  502  501  0.00000000000E+00  0.00000000000E+00  0.51187427505E+03  0.51187427505E+03  0.00000000000E+00 0.  1.
         21   -1    0    0  501  502 -0.00000000000E+00 -0.00000000000E+00 -0.14940486248E+03  0.14940486248E+03  0.00000000000E+00 0.  1.
         25    1    1    2    0    0 -0.53067416669E+02  0.70620763655E+02  0.18485895885E+03  0.24000266173E+03  0.12500000000E+03 0.  0.
         25    1    1    2    0    0  0.12936651793E+02 -0.12937742368E+03  0.20691402148E+03  0.27448913823E+03  0.12500000000E+03 0.  0.
         25    1    1    2    0    0  0.40130764876E+02  0.58756660030E+02 -0.29303567763E+02  0.14678733757E+03  0.12500000000E+03 0.  0.
</event>
<event>
 5    0  0.5634041E-005  0.3338940E+03  0.7546771E-02  0.1069427E+00
         21   -1    0    0  502  501  0.00000000000E+00  0.00000000000E+00  0.40184110916E+03  0.40184110916E+03  0.00000000000E+00 0.  1.
         21   -1    0    0  501  502 -0.00000000000E+00 -0.00000000000E+00 -0.27743604011E+03  0.27743604011E+03  0.00000000000E+00 0.  1.
         25    1    1    2    0    0 -0.51390760402E+02  0.77194293506E+02  0.96976079366E+02  0.18338301223E+03  0.12500000000E+03 0.  0.
         25    1    1    2    0    0  0.21812361554E+03 -0.12584236636E+03  0.14325004757E+02  0.28150385182E+03  0.12500000000E+03 0.  0.
         25    1    1    2    0    0 -0.16673285514E+03  0.48648072859E+02  0.13103984923E+02  0.21439028522E+03  0.12500000000E+03 0.  0.
</event>
<event>
 5    0  0.5634041E-005  0.2590876E+03  0.7546771E-02  0.1107693E+00
         21   -1    0    0  502  501  0.00000000000E+00  0.00000000000E+00  0.32340465967E+03  0.32340465967E+03  0.00000000000E+00 0.  1.
         21   -1    0    0  501  502 -0.00000000000E+00 -0.00000000000E+00 -0.20756156209E+03  0.20756156209E+03  0.00000000000E+00 0.  1.
         25    1    1    2    0    0 -0.33162132272E+02 -0.16204375298E+02  0.83130581622E+02  0.15458978749E+03  0.12500000000E+03 0.  0.
         25    1    1    2    0    0  0.85945046323E+02 -0.96874770039E+02  0.74618393967E+02  0.19484398060E+03  0.12500000000E+03 0.  0.
         25    1    1    2    0    0 -0.52782914051E+02  0.11307914534E+03 -0.41905878006E+02  0.18153245368E+03  0.12500000000E+03 0.  0.
</event>
<event>
 5    0  0.5634041E-005  0.3122446E+03  0.7546771E-02  0.1079275E+00
         21   -1    0    0  502  501  0.00000000000E+00  0.00000000000E+00  0.23067945363E+03  0.23067945363E+03  0.00000000000E+00 0.  1.
         21   -1    0    0  501  502 -0.00000000000E+00 -0.00000000000E+00 -0.42265011534E+03  0.42265011534E+03  0.00000000000E+00 0.  1.
         25    1    1    2    0    0  0.40364413517E+02 -0.66798192792E+02 -0.11441847182E+03  0.18656867672E+03  0.12500000000E+03 0.  0.
         25    1    1    2    0    0  0.79612883844E+02 -0.10762858422E+03 -0.11760578806E+03  0.21766544237E+03  0.12500000000E+03 0.  0.
         25    1    1    2    0    0 -0.11997729736E+03  0.17442677702E+03  0.40053598177E+02  0.24909544988E+03  0.12500000000E+03 0.  0.
</event>
<event>
 5    0  0.6371025E-005  0.3594427E+03  0.7546771E-02  0.1058805E+00
         21   -1    0    0  502  501  0.00000000000E+00  0.00000000000E+00  0.40770866610E+03  0.40770866610E+03  0.00000000000E+00 0. -1.
         21   -1    0    0  501  502 -0.00000000000E+00 -0.00000000000E+00 -0.31689059025E+03  0.31689059025E+03  0.00000000000E+00 0. -1.
         25    1    1    2    0    0 -0.34218649354E+02  0.16028907399E+03  0.21259500007E+03  0.29611676288E+03  0.12500000000E+03 0.  0.
         25    1    1    2    0    0  0.22608811657E+02  0.57391362293E+01 -0.17244464419E+03  0.21425744179E+03  0.12500000000E+03 0.  0.
         25    1    1    2    0    0  0.11609837696E+02 -0.16602821022E+03  0.50667719978E+02  0.21422505168E+03  0.12500000000E+03 0.  0.
</event>
<event>
 5    0  0.5634041E-005  0.2079768E+03  0.7546771E-02  0.1143178E+00
         21   -1    0    0  502  501  0.00000000000E+00  0.00000000000E+00  0.30609765362E+02  0.30609765362E+02  0.00000000000E+00 0. -1.
         21   -1    0    0  501  502 -0.00000000000E+00 -0.00000000000E+00 -0.14130894119E+04  0.14130894119E+04  0.00000000000E+00 0. -1.
         25    1    1    2    0    0 -0.62464750908E+02 -0.22127090651E+02 -0.41750665782E+03  0.44082679429E+03  0.12500000000E+03 0.  0.
         25    1    1    2    0    0  0.52816060933E+02  0.10509472287E+02 -0.64104423577E+03  0.65533403507E+03  0.12500000000E+03 0.  0.
         25    1    1    2    0    0  0.96486899752E+01  0.11617618364E+02 -0.32392875297E+03  0.34753834792E+03  0.12500000000E+03 0.  0.
</event>
<event>
 5    0  0.5634041E-005  0.3613954E+03  0.7546771E-02  0.1058033E+00
         21   -1    0    0  502  501  0.00000000000E+00  0.00000000000E+00  0.45815759512E+03  0.45815759512E+03  0.00000000000E+00 0. -1.
         21   -1    0    0  501  502 -0.00000000000E+00 -0.00000000000E+00 -0.28506925380E+03  0.28506925380E+03  0.00000000000E+00 0. -1.
         25    1    1    2    0    0 -0.33156239137E+02  0.87828886383E+02  0.26896682476E+03  0.31109709464E+03  0.12500000000E+03 0.  0.
         25    1    1    2    0    0 -0.22476590778E+01 -0.11744342792E+03  0.97487028493E+02  0.19729858453E+03  0.12500000000E+03 0.  0.
         25    1    1    2    0    0  0.35403898215E+02  0.29614541539E+02 -0.19336551193E+03  0.23483116975E+03  0.12500000000E+03 0.  0.
</event>
<event>
 5    0  0.5634041E-005  0.2310675E+03  0.7546771E-02  0.1125891E+00
         21   -1    0    0  502  501  0.00000000000E+00  0.00000000000E+00  0.40609943601E+03  0.40609943601E+03  0.00000000000E+00 0. -1.
         21   -1    0    0  501  502 -0.00000000000E+00 -0.00000000000E+00 -0.13147569741E+03  0.13147569741E+03  0.00000000000E+00 0. -1.
         25    1    1    2    0    0 -0.10554788863E+03  0.31421480435E+02  0.74434728120E+02  0.18246422931E+03  0.12500000000E+03 0.  0.
         25    1    1    2    0    0  0.77906309343E+02 -0.42421688805E+02  0.15735151163E+03  0.21966677247E+03  0.12500000000E+03 0.  0.
         25    1    1    2    0    0  0.27641579284E+02  0.11000208370E+02  0.42837498846E+02  0.13544413164E+03  0.12500000000E+03 0.  0.
</event>
<event>
 5    0  0.5634041E-005  0.3614472E+03  0.7546771E-02  0.1058012E+00
         21   -1    0    0  502  501  0.00000000000E+00  0.00000000000E+00  0.11163451271E+04  0.11163451271E+04  0.00000000000E+00 0. -1.
         21   -1    0    0  501  502 -0.00000000000E+00 -0.00000000000E+00 -0.11702840307E+03  0.11702840307E+03  0.00000000000E+00 0. -1.
         25    1    1    2    0    0 -0.59276590908E+02 -0.12696080371E+03  0.73821399384E+03  0.76172019837E+03  0.12500000000E+03 0.  0.
         25    1    1    2    0    0  0.13311788318E+03  0.15332638494E+03  0.20271341515E+03  0.31296498179E+03  0.12500000000E+03 0.  0.
         25    1    1    2    0    0 -0.73841292276E+02 -0.26365581235E+02  0.58389315048E+02  0.15868835002E+03  0.12500000000E+03 0.  0.
</event>
<event>
 5    0  0.5634041E-005  0.5331882E+03  0.7546771E-02  0.1005462E+00
         21   -1    0    0  502  501  0.00000000000E+00  0.00000000000E+00  0.49650134453E+03  0.49650134453E+03  0.00000000000E+00 0.  1.
         21   -1    0    0  501  502 -0.00000000000E+00 -0.00000000000E+00 -0.57258594412E+03  0.57258594412E+03  0.00000000000E+00 0.  1.
         25    1    1    2    0    0 -0.29723598106E+03  0.17696323050E+03  0.24677035702E+02  0.36864504537E+03  0.12500000000E+03 0.  0.
         25    1    1    2    0    0  0.21103100814E+03  0.12036238140E+03  0.12187179816E+03  0.29916370842E+03  0.12500000000E+03 0.  0.
         25    1    1    2    0    0  0.86204972923E+02 -0.29732561190E+03 -0.22263343345E+03  0.40127853486E+03  0.12500000000E+03 0.  0.
</event>
<event>
 5    0  0.5634041E-005  0.4479803E+03  0.7546771E-02  0.1028326E+00
         21   -1    0    0  502  501  0.00000000000E+00  0.00000000000E+00  0.42156384614E+03  0.42156384614E+03  0.00000000000E+00 0.  1.
         21   -1    0    0  501  502 -0.00000000000E+00 -0.00000000000E+00 -0.47605218328E+03  0.47605218328E+03  0.00000000000E+00 0.  1.
         25    1    1    2    0    0  0.17357372808E+03 -0.86544387660E+02  0.16107612784E+03  0.28140413834E+03  0.12500000000E+03 0.  0.
         25    1    1    2    0    0 -0.14141925636E+03 -0.16494679986E+03  0.15458199878E+02  0.25113902284E+03  0.12500000000E+03 0.  0.
         25    1    1    2    0    0 -0.32154471719E+02  0.25149118752E+03 -0.23102266486E+03  0.36507286825E+03  0.12500000000E+03 0.  0.
</event>
<event>
 5    0  0.5634041E-005  0.2369602E+03  0.7546771E-02  0.1121835E+00
         21   -1    0    0  502  501  0.00000000000E+00  0.00000000000E+00  0.20254719675E+03  0.20254719675E+03  0.00000000000E+00 0. -1.
         21   -1    0    0  501  502 -0.00000000000E+00 -0.00000000000E+00 -0.27722007021E+03  0.27722007021E+03  0.00000000000E+00 0. -1.
         25    1    1    2    0    0  0.56144300697E+02 -0.33856451944E+02 -0.78548707427E+02  0.16153433467E+03  0.12500000000E+03 0.  0.
         25    1    1    2    0    0 -0.58901383651E+02  0.10306201760E+03 -0.19298023863E+02  0.17346056092E+03  0.12500000000E+03 0.  0.
         25    1    1    2    0    0  0.27570829546E+01 -0.69205565661E+02  0.23173857828E+02  0.14477237137E+03  0.12500000000E+03 0.  0.
</event>
<event>
 5    0  0.5634041E-005  0.2687759E+03  0.7546771E-02  0.1101982E+00
         21   -1    0    0  502  501  0.00000000000E+00  0.00000000000E+00  0.39799918210E+02  0.39799918210E+02  0.00000000000E+00 0. -1.
         21   -1    0    0  501  502 -0.00000000000E+00 -0.00000000000E+00 -0.18150911079E+04  0.18150911079E+04  0.00000000000E+00 0. -1.
         25    1    1    2    0    0  0.73451560617E+02  0.82740447549E+02 -0.24253678719E+03  0.29443200668E+03  0.12500000000E+03 0.  0.
         25    1    1    2    0    0 -0.80825435640E+02 -0.42556227694E+02 -0.66415860434E+03  0.68196439443E+03  0.12500000000E+03 0.  0.
         25    1    1    2    0    0  0.73738750233E+01 -0.40184219854E+02 -0.86859579812E+03  0.87849462495E+03  0.12500000000E+03 0.  0.
</event>
<event>
 5    0  0.5634041E-005  0.2955426E+03  0.7546771E-02  0.1087490E+00
         21   -1    0    0  502  501  0.00000000000E+00  0.00000000000E+00  0.16080397220E+04  0.16080397220E+04  0.00000000000E+00 0. -1.
         21   -1    0    0  501  502 -0.00000000000E+00 -0.00000000000E+00 -0.54317950594E+02  0.54317950594E+02  0.00000000000E+00 0. -1.
         25    1    1    2    0    0  0.94281669530E+02 -0.89181504668E+02  0.17267456174E+03  0.24956738220E+03  0.12500000000E+03 0.  0.
         25    1    1    2    0    0 -0.79337337906E+02  0.26081058336E+02  0.56372241211E+03  0.58342316778E+03  0.12500000000E+03 0.  0.
         25    1    1    2    0    0 -0.14944331625E+02  0.63100446332E+02  0.81732479753E+03  0.82936712259E+03  0.12500000000E+03 0.  0.
</event>
<event>
 5    0  0.5634041E-005  0.2366501E+03  0.7546771E-02  0.1122045E+00
         21   -1    0    0  502  501  0.00000000000E+00  0.00000000000E+00  0.60078115752E+03  0.60078115752E+03  0.00000000000E+00 0.  1.
         21   -1    0    0  501  502 -0.00000000000E+00 -0.00000000000E+00 -0.93217445542E+02  0.93217445542E+02  0.00000000000E+00 0.  1.
         25    1    1    2    0    0 -0.20164671804E+02  0.45827955380E+02  0.11413521315E+03  0.17651816440E+03  0.12500000000E+03 0.  0.
         25    1    1    2    0    0  0.70760138713E+02  0.47598083887E+02  0.10022248158E+03  0.18149964362E+03  0.12500000000E+03 0.  0.
         25    1    1    2    0    0 -0.50595466909E+02 -0.93426039266E+02  0.29320601725E+03  0.33598079504E+03  0.12500000000E+03 0.  0.
</event>
<event>
 5    0  0.5634041E-005  0.3726541E+03  0.7546771E-02  0.1053683E+00
         21   -1    0    0  502  501  0.00000000000E+00  0.00000000000E+00  0.19304481776E+04  0.19304481776E+04  0.00000000000E+00 0. -1.
         21   -1    0    0  501  502 -0.00000000000E+00 -0.00000000000E+00 -0.71937206263E+02  0.71937206263E+02  0.00000000000E+00 0. -1.
         25    1    1    2    0    0 -0.66787959278E+02  0.56650834196E+02  0.54728903887E+03  0.56817272073E+03  0.12500000000E+03 0.  0.
         25    1    1    2    0    0 -0.22094684464E+03 -0.72890323243E+02  0.67001587157E+03  0.72019217959E+03  0.12500000000E+03 0.  0.
         25    1    1    2    0    0  0.28773480391E+03  0.16239489048E+02  0.64120606087E+03  0.71402048352E+03  0.12500000000E+03 0.  0.
</event>
<event>
 5    0  0.5634041E-005  0.4158328E+03  0.7546771E-02  0.1038431E+00
         21   -1    0    0  502  501  0.00000000000E+00  0.00000000000E+00  0.19342643557E+03  0.19342643557E+03  0.00000000000E+00 0. -1.
         21   -1    0    0  501  502 -0.00000000000E+00 -0.00000000000E+00 -0.89396748850E+03  0.89396748850E+03  0.00000000000E+00 0. -1.
         25    1    1    2    0    0 -0.99090462116E+02  0.33485645909E+02  0.46243948233E+02  0.16942169552E+03  0.12500000000E+03 0.  0.
         25    1    1    2    0    0 -0.42084489019E+02 -0.17820905964E+03 -0.13009566186E+03  0.25705924295E+03  0.12500000000E+03 0.  0.
         25    1    1    2    0    0  0.14117495113E+03  0.14472341373E+03 -0.61668933931E+03  0.66091298559E+03  0.12500000000E+03 0.  0.
</event>
<event>
 5    0  0.5634041E-005  0.2800940E+03  0.7546771E-02  0.1095638E+00
         21   -1    0    0  502  501  0.00000000000E+00  0.00000000000E+00  0.13423595073E+04  0.13423595073E+04  0.00000000000E+00 0.  1.
         21   -1    0    0  501  502 -0.00000000000E+00 -0.00000000000E+00 -0.58443844748E+02  0.58443844748E+02  0.00000000000E+00 0.  1.
         25    1    1    2    0    0  0.31083228639E+02  0.59373118729E+02  0.40505310793E+03  0.42916704740E+03  0.12500000000E+03 0.  0.
         25    1    1    2    0    0 -0.16435534962E+03  0.98380944248E+01  0.33398448884E+03  0.39278506570E+03  0.12500000000E+03 0.  0.
         25    1    1    2    0    0  0.13327212099E+03 -0.69211213154E+02  0.54487806576E+03  0.57885123892E+03  0.12500000000E+03 0.  0.
</event>
<event>
 5    0  0.5634041E-005  0.3159785E+03  0.7546771E-02  0.1077515E+00
         21   -1    0    0  502  501  0.00000000000E+00  0.00000000000E+00  0.98600387857E+03  0.98600387857E+03  0.00000000000E+00 0.  1.
         21   -1    0    0  501  502 -0.00000000000E+00 -0.00000000000E+00 -0.10125963830E+03  0.10125963830E+03  0.00000000000E+00 0.  1.
         25    1    1    2    0    0  0.78754557261E+02 -0.11055637105E+03  0.15061716154E+03  0.23819219303E+03  0.12500000000E+03 0.  0.
         25    1    1    2    0    0  0.12097064679E+03  0.46265698023E+02  0.26799696053E+03  0.32283398683E+03  0.12500000000E+03 0.  0.
         25    1    1    2    0    0 -0.19972520405E+03  0.64290673027E+02  0.46613011820E+03  0.52623733701E+03  0.12500000000E+03 0.  0.
</event>
<event>
 5    0  0.6725445E-005  0.3021041E+03  0.7546771E-02  0.1084193E+00
         21   -1    0    0  502  501  0.00000000000E+00  0.00000000000E+00  0.69809142739E+03  0.69809142739E+03  0.00000000000E+00 0. -1.
         21   -1    0    0  501  502 -0.00000000000E+00 -0.00000000000E+00 -0.13073775803E+03  0.13073775803E+03  0.00000000000E+00 0. -1.
         25    1    1    2    0    0 -0.10025505250E+03 -0.67100948583E+02  0.23152369688E+03  0.28945091997E+03  0.12500000000E+03 0.  0.
         25    1    1    2    0    0  0.39107939572E+02 -0.46972936175E+02  0.33135811912E+03  0.35938710435E+03  0.12500000000E+03 0.  0.
         25    1    1    2    0    0  0.61147112925E+02  0.11407388476E+03  0.44718533604E+01  0.17999116110E+03  0.12500000000E+03 0.  0.
</event>
<event>
 5    0  0.5634041E-005  0.5066334E+03  0.7546771E-02  0.1012062E+00
         21   -1    0    0  502  501  0.00000000000E+00  0.00000000000E+00  0.12259545956E+04  0.12259545956E+04  0.00000000000E+00 0. -1.
         21   -1    0    0  501  502 -0.00000000000E+00 -0.00000000000E+00 -0.20936941486E+03  0.20936941486E+03  0.00000000000E+00 0. -1.
         25    1    1    2    0    0 -0.17403833425E+03 -0.26561313252E+03  0.59471772674E+03  0.68567765930E+03  0.12500000000E+03 0.  0.
         25    1    1    2    0    0  0.12982244340E+03  0.13248041437E+03 -0.60721607717E+02  0.23176936951E+03  0.12500000000E+03 0.  0.
         25    1    1    2    0    0  0.44215890850E+02  0.13313271815E+03  0.48258906172E+03  0.51787698166E+03  0.12500000000E+03 0.  0.
</event>
<event>
 5    0  0.5634041E-005  0.3038658E+03  0.7546771E-02  0.1083324E+00
         21   -1    0    0  502  501  0.00000000000E+00  0.00000000000E+00  0.17258722665E+03  0.17258722665E+03  0.00000000000E+00 0.  1.
         21   -1    0    0  501  502 -0.00000000000E+00 -0.00000000000E+00 -0.53500139677E+03  0.53500139677E+03  0.00000000000E+00 0.  1.
         25    1    1    2    0    0 -0.38288665827E+02 -0.16819532453E+01 -0.20946355013E+03  0.24691867027E+03  0.12500000000E+03 0.  0.
         25    1    1    2    0    0  0.16357231103E+03 -0.51909700593E+02 -0.17408000925E+03  0.27455303235E+03  0.12500000000E+03 0.  0.
         25    1    1    2    0    0 -0.12528364521E+03  0.53591653839E+02  0.21129389260E+02  0.18611692080E+03  0.12500000000E+03 0.  0.
</event>
<event>
 5    0  0.5634041E-005  0.3176839E+03  0.7546771E-02  0.1076720E+00
         21   -1    0    0  502  501  0.00000000000E+00  0.00000000000E+00  0.73399620006E+03  0.73399620006E+03  0.00000000000E+00 0. -1.
         21   -1    0    0  501  502 -0.00000000000E+00 -0.00000000000E+00 -0.13749803392E+03  0.13749803392E+03  0.00000000000E+00 0. -1.
         25    1    1    2    0    0  0.26169944072E+02 -0.91937614418E+02  0.92931952836E+01  0.15763487684E+03  0.12500000000E+03 0.  0.
         25    1    1    2    0    0  0.48264579167E+02  0.18782121888E+03  0.30980938291E+03  0.38628115874E+03  0.12500000000E+03 0.  0.
         25    1    1    2    0    0 -0.74434523240E+02 -0.95883604457E+02  0.27739558795E+03  0.32757819840E+03  0.12500000000E+03 0.  0.
</event>
<event>
 5    0  0.5634041E-005  0.3969554E+03  0.7546771E-02  0.1044839E+00
         21   -1    0    0  502  501  0.00000000000E+00  0.00000000000E+00  0.41693793599E+03  0.41693793599E+03  0.00000000000E+00 0. -1.
         21   -1    0    0  501  502 -0.00000000000E+00 -0.00000000000E+00 -0.37793054652E+03  0.37793054652E+03  0.00000000000E+00 0. -1.
         25    1    1    2    0    0 -0.22165317486E+03 -0.15186748521E+03  0.21231107693E+03  0.36454746793E+03  0.12500000000E+03 0.  0.
         25    1    1    2    0    0  0.12710202786E+03  0.13090711295E+03 -0.15726310234E+03  0.27138216792E+03  0.12500000000E+03 0.  0.
         25    1    1    2    0    0  0.94551146998E+02  0.20960372263E+02 -0.16040585121E+02  0.15893884665E+03  0.12500000000E+03 0.  0.
</event>
<event>
 5    0  0.5634041E-005  0.3633846E+03  0.7546771E-02  0.1057252E+00
         21   -1    0    0  502  501  0.00000000000E+00  0.00000000000E+00  0.29023674241E+03  0.29023674241E+03  0.00000000000E+00 0.  1.
         21   -1    0    0  501  502 -0.00000000000E+00 -0.00000000000E+00 -0.45496766215E+03  0.45496766215E+03  0.00000000000E+00 0.  1.
         25    1    1    2    0    0 -0.10131545612E+03  0.37381524046E+02 -0.92960422392E+02  0.18954904410E+03  0.12500000000E+03 0.  0.
         25    1    1    2    0    0  0.18363620843E+02 -0.25060472313E+03 -0.88866893501E+02  0.29438456920E+03  0.12500000000E+03 0.  0.
         25    1    1    2    0    0  0.82951835277E+02  0.21322319908E+03  0.17096396157E+02  0.26127079126E+03  0.12500000000E+03 0.  0.
</event>
<event>
 5    0  0.5634041E-005  0.3223646E+03  0.7546771E-02  0.1074566E+00
         21   -1    0    0  502  501  0.00000000000E+00  0.00000000000E+00  0.42039019084E+03  0.42039019084E+03  0.00000000000E+00 0. -1.
         21   -1    0    0  501  502 -0.00000000000E+00 -0.00000000000E+00 -0.24719636257E+03  0.24719636257E+03  0.00000000000E+00 0. -1.
         25    1    1    2    0    0  0.15174322335E+02  0.69041628245E+02  0.19796874503E+03  0.24456825325E+03  0.12500000000E+03 0.  0.
         25    1    1    2    0    0 -0.15942887668E+03 -0.10001412712E+03  0.11695383953E+02  0.22623477705E+03  0.12500000000E+03 0.  0.
         25    1    1    2    0    0  0.14425455434E+03  0.30972498878E+02 -0.36470300708E+02  0.19678352311E+03  0.12500000000E+03 0.  0.
</event>
<event>
 5    0  0.5634041E-005  0.4423125E+03  0.7546771E-02  0.1030040E+00
         21   -1    0    0  502  501  0.00000000000E+00  0.00000000000E+00  0.10813438635E+03  0.10813438635E+03  0.00000000000E+00 0.  1.
         21   -1    0    0  501  502 -0.00000000000E+00 -0.00000000000E+00 -0.18092337879E+04  0.18092337879E+04  0.00000000000E+00 0.  1.
         25    1    1    2    0    0  0.22376781767E+02  0.24958911719E+02 -0.37894904297E+03  0.40043856558E+03  0.12500000000E+03 0.  0.
         25    1    1    2    0    0  0.29565261189E+03  0.74859633592E+02 -0.93301323203E+03  0.98952166364E+03  0.12500000000E+03 0.  0.
         25    1    1    2    0    0 -0.31802939365E+03 -0.99818545311E+02 -0.38913712652E+03  0.52740794500E+03  0.12500000000E+03 0.  0.
</event>
<event>
 5    0  0.5634041E-005  0.2872888E+03  0.7546771E-02  0.1091773E+00
         21   -1    0    0  502  501  0.00000000000E+00  0.00000000000E+00  0.32614062064E+03  0.32614062064E+03  0.00000000000E+00 0.  1.
         21   -1    0    0  501  502 -0.00000000000E+00 -0.00000000000E+00 -0.25306520220E+03  0.25306520220E+03  0.00000000000E+00 0.  1.
         25    1    1    2    0    0  0.40909436561E+01 -0.10420566834E+02  0.27839261533E+01  0.12553116855E+03  0.12500000000E+03 0.  0.
         25    1    1    2    0    0  0.95016144510E+02 -0.11636511477E+03  0.13767059890E+03  0.23905459932E+03  0.12500000000E+03 0.  0.
         25    1    1    2    0    0 -0.99107088166E+02  0.12678568160E+03 -0.67379106615E+02  0.21462005496E+03  0.12500000000E+03 0.  0.
</event>
<event>
 5    0  0.5634041E-005  0.3230243E+03  0.7546771E-02  0.1074266E+00
         21   -1    0    0  502  501  0.00000000000E+00  0.00000000000E+00  0.10263240091E+04  0.10263240091E+04  0.00000000000E+00 0. -1.
         21   -1    0    0  501  502 -0.00000000000E+00 -0.00000000000E+00 -0.10166840576E+03  0.10166840576E+03  0.00000000000E+00 0. -1.
         25    1    1    2    0    0  0.37368449407E+02 -0.91405609351E+02  0.51095511891E+03  0.53521165904E+03  0.12500000000E+03 0.  0.
         25    1    1    2    0    0 -0.14723991618E+01 -0.81058826450E+02  0.29291364204E+02  0.15184098696E+03  0.12500000000E+03 0.  0.
         25    1    1    2    0    0 -0.35896050246E+02  0.17246443580E+03  0.38440912019E+03  0.44093976881E+03  0.12500000000E+03 0.  0.
</event>
<event>
 5    0  0.5634041E-005  0.2311282E+03  0.7546771E-02  0.1125848E+00
         21   -1    0    0  502  501  0.00000000000E+00  0.00000000000E+00  0.12754597798E+04  0.12754597798E+04  0.00000000000E+00 0.  1.
         21   -1    0    0  501  502 -0.00000000000E+00 -0.00000000000E+00 -0.41883144706E+02  0.41883144706E+02  0.00000000000E+00 0.  1.
         25    1    1    2    0    0  0.49391466904E+02 -0.81746140133E+02  0.63018580824E+03  0.64952374964E+03  0.12500000000E+03 0.  0.
         25    1    1    2    0    0 -0.49354508459E+02  0.41496700234E+02  0.41491086027E+03  0.43810257430E+03  0.12500000000E+03 0.  0.
         25    1    1    2    0    0 -0.36958444948E-01  0.40249439899E+02  0.18847996660E+03  0.22971660059E+03  0.12500000000E+03 0.  0.
</event>
<event>
 5    0  0.5634041E-005  0.4776376E+03  0.7546771E-02  0.1019786E+00
         21   -1    0    0  502  501  0.00000000000E+00  0.00000000000E+00  0.94917441102E+03  0.94917441102E+03  0.00000000000E+00 0.  1.
         21   -1    0    0  501  502 -0.00000000000E+00 -0.00000000000E+00 -0.24035379802E+03  0.24035379802E+03  0.00000000000E+00 0.  1.
         25    1    1    2    0    0  0.15490077415E+03  0.65989173803E+02 -0.19731292395E+02  0.21062560336E+03  0.12500000000E+03 0.  0.
         25    1    1    2    0    0  0.12176896745E+03 -0.20837959436E+03  0.15064757684E+03  0.31075622148E+03  0.12500000000E+03 0.  0.
         25    1    1    2    0    0 -0.27666974159E+03  0.14239042055E+03  0.57790432854E+03  0.66814638421E+03  0.12500000000E+03 0.  0.
</event>
<event>
 5    0  0.5634041E-005  0.3124045E+03  0.7546771E-02  0.1079199E+00
         21   -1    0    0  502  501  0.00000000000E+00  0.00000000000E+00  0.95906341393E+02  0.95906341393E+02  0.00000000000E+00 0. -1.
         21   -1    0    0  501  502 -0.00000000000E+00 -0.00000000000E+00 -0.10176235251E+04  0.10176235251E+04  0.00000000000E+00 0. -1.
         25    1    1    2    0    0  0.76988028053E+01 -0.87109717100E+02 -0.38113622779E+03  0.41053282270E+03  0.12500000000E+03 0.  0.
         25    1    1    2    0    0  0.87964265267E+01  0.56729244067E+02  0.94561865397E+01  0.13787677004E+03  0.12500000000E+03 0.  0.
         25    1    1    2    0    0 -0.16495229332E+02  0.30380473033E+02 -0.55003714249E+03  0.56512027379E+03  0.12500000000E+03 0.  0.
</event>
<event>
 5    0  0.5634041E-005  0.3233652E+03  0.7546771E-02  0.1074111E+00
         21   -1    0    0  502  501  0.00000000000E+00  0.00000000000E+00  0.11427575431E+04  0.11427575431E+04  0.00000000000E+00 0. -1.
         21   -1    0    0  501  502 -0.00000000000E+00 -0.00000000000E+00 -0.91502403409E+02  0.91502403409E+02  0.00000000000E+00 0. -1.
         25    1    1    2    0    0 -0.38960144664E+02 -0.11923211795E+03  0.18211837767E+03  0.25402026358E+03  0.12500000000E+03 0.  0.
         25    1    1    2    0    0 -0.10371856004E+03 -0.76506571241E+02  0.38010301416E+03  0.42037375812E+03  0.12500000000E+03 0.  0.
         25    1    1    2    0    0  0.14267870470E+03  0.19573868919E+03  0.48903374787E+03  0.55986592482E+03  0.12500000000E+03 0.  0.
</event>
<event>
 5    0  0.5634041E-005  0.4111588E+03  0.7546771E-02  0.1039983E+00
         21   -1    0    0  502  501  0.00000000000E+00  0.00000000000E+00  0.75956899503E+03  0.75956899503E+03  0.00000000000E+00 0. -1.
         21   -1    0    0  501  502 -0.00000000000E+00 -0.00000000000E+00 -0.22256245729E+03  0.22256245729E+03  0.00000000000E+00 0. -1.
         25    1    1    2    0    0  0.42470258268E+02  0.11873598805E+03 -0.13676215865E+03  0.22412239008E+03  0.12500000000E+03 0.  0.
         25    1    1    2    0    0 -0.12017507318E+03 -0.59884426722E+02  0.42669283944E+03  0.46445664169E+03  0.12500000000E+03 0.  0.
         25    1    1    2    0    0  0.77704814910E+02 -0.58851561328E+02  0.24707585694E+03  0.29355242056E+03  0.12500000000E+03 0.  0.
</event>
<event>
 5    0  0.5634041E-005  0.3683572E+03  0.7546771E-02  0.1055323E+00
         21   -1    0    0  502  501  0.00000000000E+00  0.00000000000E+00  0.23908866215E+03  0.23908866215E+03  0.00000000000E+00 0.  1.
         21   -1    0    0  501  502 -0.00000000000E+00 -0.00000000000E+00 -0.56751775669E+03  0.56751775669E+03  0.00000000000E+00 0.  1.
         25    1    1    2    0    0 -0.14943754157E+03  0.67019667101E+01 -0.37144338933E+03  0.41948979328E+03  0.12500000000E+03 0.  0.
         25    1    1    2    0    0 -0.14733995431E+02  0.82705880197E+02  0.58811782130E+02  0.16168233966E+03  0.12500000000E+03 0.  0.
         25    1    1    2    0    0  0.16417153701E+03 -0.89407846908E+02 -0.15797487343E+02  0.22543428590E+03  0.12500000000E+03 0.  0.
</event>
<event>
 5    0  0.5634041E-005  0.2598047E+03  0.7546771E-02  0.1107261E+00
         21   -1    0    0  502  501  0.00000000000E+00  0.00000000000E+00  0.36565149294E+02  0.36565149294E+02  0.00000000000E+00 0. -1.
         21   -1    0    0  501  502 -0.00000000000E+00 -0.00000000000E+00 -0.18459790015E+04  0.18459790015E+04  0.00000000000E+00 0.  1.
         25    1    1    2    0    0 -0.81747573563E+02  0.12559158779E+03 -0.64071139949E+03  0.66977011739E+03  0.12500000000E+03 0.  0.
         25    1    1    2    0    0  0.68975542338E+02 -0.63891941761E+02 -0.36697502787E+03  0.39891788220E+03  0.12500000000E+03 0.  0.
         25    1    1    2    0    0  0.12772031225E+02 -0.61699646025E+02 -0.80172742486E+03  0.81385615121E+03  0.12500000000E+03 0.  0.
</event>
<event>
 5    0  0.5634041E-005  0.2955771E+03  0.7546771E-02  0.1087473E+00
         21   -1    0    0  502  501  0.00000000000E+00  0.00000000000E+00  0.99055150561E+02  0.99055150561E+02  0.00000000000E+00 0.  1.
         21   -1    0    0  501  502 -0.00000000000E+00 -0.00000000000E+00 -0.88199184546E+03  0.88199184546E+03  0.00000000000E+00 0.  1.
         25    1    1    2    0    0 -0.17344305993E+03 -0.11929446808E+03 -0.45625873234E+03  0.51779406716E+03  0.12500000000E+03 0.  0.
         25    1    1    2    0    0  0.10311803226E+03  0.72098232028E+02 -0.17052612487E+03  0.24603992136E+03  0.12500000000E+03 0.  0.
         25    1    1    2    0    0  0.70325027669E+02  0.47196236052E+02 -0.15615183769E+03  0.21721300750E+03  0.12500000000E+03 0.  0.
</event>
<event>
 5    0  0.5634041E-005  0.2151587E+03  0.7546771E-02  0.1137545E+00
         21   -1    0    0  502  501  0.00000000000E+00  0.00000000000E+00  0.51356971980E+03  0.51356971980E+03  0.00000000000E+00 0. -1.
         21   -1    0    0  501  502 -0.00000000000E+00 -0.00000000000E+00 -0.90140140876E+02  0.90140140876E+02  0.00000000000E+00 0. -1.
         25    1    1    2    0    0  0.67945509606E+02  0.27198049689E+02  0.19450738953E+03  0.24251690820E+03  0.12500000000E+03 0.  0.
         25    1    1    2    0    0 -0.17178151977E+02 -0.61073944947E+02  0.11974302576E+03  0.18435972411E+03  0.12500000000E+03 0.  0.
         25    1    1    2    0    0 -0.50767357630E+02  0.33875895258E+02  0.10917916363E+03  0.17683322836E+03  0.12500000000E+03 0.  0.
</event>
<event>
 5    0  0.5634041E-005  0.4105294E+03  0.7546771E-02  0.1040194E+00
         21   -1    0    0  502  501  0.00000000000E+00  0.00000000000E+00  0.27634190749E+03  0.27634190749E+03  0.00000000000E+00 0.  1.
         21   -1    0    0  501  502 -0.00000000000E+00 -0.00000000000E+00 -0.60987626794E+03  0.60987626794E+03  0.00000000000E+00 0.  1.
         25    1    1    2    0    0  0.22148061482E+03  0.12559970705E+03  0.66169152186E+02  0.29125985967E+03  0.12500000000E+03 0.  0.
         25    1    1    2    0    0 -0.17018168088E+03 -0.14999011521E+03 -0.12443178859E+03  0.28734493066E+03  0.12500000000E+03 0.  0.
         25    1    1    2    0    0 -0.51298933941E+02  0.24390408158E+02 -0.27527172405E+03  0.30761338510E+03  0.12500000000E+03 0.  0.
</event>
<event>
 5    0  0.5634041E-005  0.2773049E+03  0.7546771E-02  0.1097170E+00
         21   -1    0    0  502  501  0.00000000000E+00  0.00000000000E+00  0.19177649820E+03  0.19177649820E+03  0.00000000000E+00 0. -1.
         21   -1    0    0  501  502 -0.00000000000E+00 -0.00000000000E+00 -0.40097711243E+03  0.40097711243E+03  0.00000000000E+00 0. -1.
         25    1    1    2    0    0 -0.32761605746E+02 -0.10138653251E+03 -0.15836156063E+03  0.22815769913E+03  0.12500000000E+03 0.  0.
         25    1    1    2    0    0 -0.36434934718E+02  0.73734255173E+02  0.79320147384E+02  0.16935445266E+03  0.12500000000E+03 0.  0.
         25    1    1    2    0    0  0.69196540464E+02  0.27652277335E+02 -0.13015920098E+03  0.19524145885E+03  0.12500000000E+03 0.  0.
</event>
<event>
 5    0  0.5634041E-005  0.3047318E+03  0.7546771E-02  0.1082899E+00
         21   -1    0    0  502  501  0.00000000000E+00  0.00000000000E+00  0.83586421341E+02  0.83586421341E+02  0.00000000000E+00 0.  1.
         21   -1    0    0  501  502 -0.00000000000E+00 -0.00000000000E+00 -0.11109636957E+04  0.11109636957E+04  0.00000000000E+00 0. -1.
         25    1    1    2    0    0  0.10672581546E+03 -0.16515353132E+03 -0.24053898267E+03  0.33488817653E+03  0.12500000000E+03 0.  0.
         25    1    1    2    0    0  0.25020066696E+01  0.59458429441E+02 -0.43535220714E+03  0.45683488169E+03  0.12500000000E+03 0.  0.
         25    1    1    2    0    0 -0.10922782213E+03  0.10569510188E+03 -0.35148608453E+03  0.40282705881E+03  0.12500000000E+03 0.  0.
</event>
<event>
 5    0  0.5634041E-005  0.3878058E+03  0.7546771E-02  0.1048086E+00
         21   -1    0    0  502  501  0.00000000000E+00  0.00000000000E+00  0.13772841442E+03  0.13772841442E+03  0.00000000000E+00 0. -1.
         21   -1    0    0  501  502 -0.00000000000E+00 -0.00000000000E+00 -0.10919557635E+04  0.10919557635E+04  0.00000000000E+00 0. -1.
         25    1    1    2    0    0 -0.18723842279E+02  0.17000254898E+03 -0.44656892246E+03  0.49426738861E+03  0.12500000000E+03 0.  0.
         25    1    1    2    0    0  0.84218970196E+02  0.18610155908E+02 -0.47366355958E+03  0.49741465651E+03  0.12500000000E+03 0.  0.
         25    1    1    2    0    0 -0.65495127917E+02 -0.18861270489E+03 -0.33994867034E+02  0.23800213279E+03  0.12500000000E+03 0.  0.
</event>
<event>
 5    0  0.5634041E-005  0.3063985E+03  0.7546771E-02  0.1082085E+00
         21   -1    0    0  502  501  0.00000000000E+00  0.00000000000E+00  0.69392782387E+03  0.69392782387E+03  0.00000000000E+00 0.  1.
         21   -1    0    0  501  502 -0.00000000000E+00 -0.00000000000E+00 -0.13528794213E+03  0.13528794213E+03  0.00000000000E+00 0.  1.
         25    1    1    2    0    0  0.58900740857E+02 -0.54312903873E+01  0.97515440871E+02  0.16921305327E+03  0.12500000000E+03 0.  0.
         25    1    1    2    0    0 -0.38375749698E+02 -0.13559252347E+03  0.32260080497E+02  0.19111186090E+03  0.12500000000E+03 0.  0.
         25    1    1    2    0    0 -0.20524991158E+02  0.14102381385E+03  0.42886436037E+03  0.46889085183E+03  0.12500000000E+03 0.  0.
</event>
<event>
 5    0  0.5634041E-005  0.2624705E+03  0.7546771E-02  0.1105668E+00
         21   -1    0    0  502  501  0.00000000000E+00  0.00000000000E+00  0.95445991651E+03  0.95445991651E+03  0.00000000000E+00 0. -1.
         21   -1    0    0  501  502 -0.00000000000E+00 -0.00000000000E+00 -0.72177754952E+02  0.72177754952E+02  0.00000000000E+00 0. -1.
         25    1    1    2    0    0 -0.12335539749E+03  0.25598685611E+02  0.21051290570E+03  0.27534075300E+03  0.12500000000E+03 0.  0.
         25    1    1    2    0    0  0.95662518262E+02  0.73950093278E+02  0.36403360688E+03  0.40344194209E+03  0.12500000000E+03 0.  0.
         25    1    1    2    0    0  0.27692879230E+02 -0.99548778888E+02  0.30773564897E+03  0.34785497637E+03  0.12500000000E+03 0.  0.
</event>
<event>
 5    0  0.5634041E-005  0.3204178E+03  0.7546771E-02  0.1075457E+00
         21   -1    0    0  502  501  0.00000000000E+00  0.00000000000E+00  0.32158464597E+03  0.32158464597E+03  0.00000000000E+00 0. -1.
         21   -1    0    0  501  502 -0.00000000000E+00 -0.00000000000E+00 -0.31925515203E+03  0.31925515203E+03  0.00000000000E+00 0. -1.
         25    1    1    2    0    0  0.69302113825E+01 -0.14286861200E+03 -0.18018216796E+03  0.26182070540E+03  0.12500000000E+03 0.  0.
         25    1    1    2    0    0  0.30856660308E+02  0.56092337292E+02  0.27221335381E+01  0.14046669997E+03  0.12500000000E+03 0.  0.
         25    1    1    2    0    0 -0.37786871691E+02  0.86776274711E+02  0.17978952836E+03  0.23855239263E+03  0.12500000000E+03 0.  0.
</event>
<event>
 5    0  0.6019404E-005  0.4743595E+03  0.7546771E-02  0.1020697E+00
         21   -1    0    0  502  501  0.00000000000E+00  0.00000000000E+00  0.35011701717E+03  0.35011701717E+03  0.00000000000E+00 0.  1.
         21   -1    0    0  501  502 -0.00000000000E+00 -0.00000000000E+00 -0.64269064959E+03  0.64269064959E+03  0.00000000000E+00 0.  1.
         25    1    1    2    0    0 -0.16496910070E+03  0.29297165216E+02 -0.34827376158E+03  0.40619298502E+03  0.12500000000E+03 0.  0.
         25    1    1    2    0    0 -0.14863717734E+03  0.90187990633E+02  0.77766296790E+02  0.22781457604E+03  0.12500000000E+03 0.  0.
         25    1    1    2    0    0  0.31360627803E+03 -0.11948515585E+03 -0.22066167621E+02  0.35880010569E+03  0.12500000000E+03 0.  0.
</event>
<event>
 5    0  0.5634041E-005  0.3118656E+03  0.7546771E-02  0.1079455E+00
         21   -1    0    0  502  501  0.00000000000E+00  0.00000000000E+00  0.33316623893E+02  0.33316623893E+02  0.00000000000E+00 0.  1.
         21   -1    0    0  501  502 -0.00000000000E+00 -0.00000000000E+00 -0.29192671480E+04  0.29192671480E+04  0.00000000000E+00 0.  1.
         25    1    1    2    0    0  0.66777390493E+01  0.57626578408E+02 -0.10981639715E+04  0.11067766364E+04  0.12500000000E+03 0.  0.
         25    1    1    2    0    0 -0.17006295253E+03  0.59167187313E+02 -0.97234138431E+03  0.99674215899E+03  0.12500000000E+03 0.  0.
         25    1    1    2    0    0  0.16338521348E+03 -0.11679376572E+03 -0.81544516838E+03  0.84906497650E+03  0.12500000000E+03 0.  0.
</event>
<event>
 5    0  0.5634041E-005  0.2120273E+03  0.7546771E-02  0.1139971E+00
         21   -1    0    0  502  501  0.00000000000E+00  0.00000000000E+00  0.73894118813E+03  0.73894118813E+03  0.00000000000E+00 0. -1.
         21   -1    0    0  501  502 -0.00000000000E+00 -0.00000000000E+00 -0.60837821834E+02  0.60837821834E+02  0.00000000000E+00 0. -1.
         25    1    1    2    0    0 -0.27082159484E+02  0.50978374606E+01  0.10780245657E+03  0.16734933807E+03  0.12500000000E+03 0.  0.
         25    1    1    2    0    0  0.55729199038E+02 -0.17419112932E+02  0.22561948153E+03  0.26445854035E+03  0.12500000000E+03 0.  0.
         25    1    1    2    0    0 -0.28647039554E+02  0.12321275471E+02  0.34468142820E+03  0.36797113155E+03  0.12500000000E+03 0.  0.
</event>
<event>
 5    0  0.5634041E-005  0.2215222E+03  0.7546771E-02  0.1132753E+00
         21   -1    0    0  502  501  0.00000000000E+00  0.00000000000E+00  0.10571409253E+03  0.10571409253E+03  0.00000000000E+00 0.  1.
         21   -1    0    0  501  502 -0.00000000000E+00 -0.00000000000E+00 -0.46419615307E+03  0.46419615307E+03  0.00000000000E+00 0.  1.
         25    1    1    2    0    0 -0.51375319650E+02  0.49336563693E+02 -0.23562327812E+03  0.27607399222E+03  0.12500000000E+03 0.  0.
         25    1    1    2    0    0  0.11785686311E+02 -0.20495909763E+02 -0.30320508431E+02  0.13077965419E+03  0.12500000000E+03 0.  0.
         25    1    1    2    0    0  0.39589633340E+02 -0.28840653931E+02 -0.92538273991E+02  0.16305659919E+03  0.12500000000E+03 0.  0.
</event>
<event>
 5    0  0.5634041E-005  0.5369420E+03  0.7546771E-02  0.1004562E+00
         21   -1    0    0  502  501  0.00000000000E+00  0.00000000000E+00  0.14615649382E+04  0.14615649382E+04  0.00000000000E+00 0. -1.
         21   -1    0    0  501  502 -0.00000000000E+00 -0.00000000000E+00 -0.19725888800E+03  0.19725888800E+03  0.00000000000E+00 0. -1.
         25    1    1    2    0    0 -0.17359577046E+03 -0.30802362657E+03  0.18248208689E+03  0.41705965770E+03  0.12500000000E+03 0.  0.
         25    1    1    2    0    0  0.18482132717E+03  0.34767626511E+03  0.10113404845E+04  0.10924615709E+04  0.12500000000E+03 0.  0.
         25    1    1    2    0    0 -0.11225556707E+02 -0.39652638541E+02  0.70483478821E+02  0.14930259761E+03  0.12500000000E+03 0.  0.
</event>
<event>
 5    0  0.5634041E-005  0.3367734E+03  0.7546771E-02  0.1068179E+00
         21   -1    0    0  502  501  0.00000000000E+00  0.00000000000E+00  0.41294599409E+03  0.41294599409E+03  0.00000000000E+00 0.  1.
         21   -1    0    0  501  502 -0.00000000000E+00 -0.00000000000E+00 -0.27465173229E+03  0.27465173229E+03  0.00000000000E+00 0.  1.
         25    1    1    2    0    0 -0.94869947283E+02 -0.99637179819E+02 -0.87616730050E+02  0.20549833548E+03  0.12500000000E+03 0.  0.
         25    1    1    2    0    0  0.11356312424E+03 -0.63339973483E+02  0.58018857120E+01  0.18046383933E+03  0.12500000000E+03 0.  0.
         25    1    1    2    0    0 -0.18693176957E+02  0.16297715330E+03  0.22010910614E+03  0.30163555157E+03  0.12500000000E+03 0.  0.
</event>
<event>
 5    0  0.5634041E-005  0.2495010E+03  0.7546771E-02  0.1113621E+00
         21   -1    0    0  502  501  0.00000000000E+00  0.00000000000E+00  0.18639004713E+03  0.18639004713E+03  0.00000000000E+00 0.  1.
         21   -1    0    0  501  502 -0.00000000000E+00 -0.00000000000E+00 -0.33398110277E+03  0.33398110277E+03  0.00000000000E+00 0.  1.
         25    1    1    2    0    0 -0.12622598203E+03 -0.67994690511E+02 -0.10286677233E+03  0.21624719496E+03  0.12500000000E+03 0.  0.
         25    1    1    2    0    0  0.86868096996E+02 -0.19622165821E+01 -0.20443828450E+02  0.15359969626E+03  0.12500000000E+03 0.  0.
         25    1    1    2    0    0  0.39357885038E+02  0.69956907093E+02 -0.24280454859E+02  0.15052425869E+03  0.12500000000E+03 0.  0.
</event>
<event>
 5    0  0.5634041E-005  0.2898673E+03  0.7546771E-02  0.1090418E+00
         21   -1    0    0  502  501  0.00000000000E+00  0.00000000000E+00  0.11587737130E+04  0.11587737130E+04  0.00000000000E+00 0.  1.
         21   -1    0    0  501  502 -0.00000000000E+00 -0.00000000000E+00 -0.72510340208E+02  0.72510340208E+02  0.00000000000E+00 0.  1.
         25    1    1    2    0    0  0.78729100396E+02  0.69546624404E+02  0.44637694398E+03  0.47530240934E+03  0.12500000000E+03 0.  0.
         25    1    1    2    0    0 -0.11734742136E+03 -0.48504022064E+02  0.10915223449E+03  0.20895518120E+03  0.12500000000E+03 0.  0.
         25    1    1    2    0    0  0.38618320962E+02 -0.21042602340E+02  0.53073419428E+03  0.54702646262E+03  0.12500000000E+03 0.  0.
</event>
<event>
 5    0  0.5634041E-005  0.3569097E+03  0.7546771E-02  0.1059814E+00
         21   -1    0    0  502  501  0.00000000000E+00  0.00000000000E+00  0.67623762850E+03  0.67623762850E+03  0.00000000000E+00 0. -1.
         21   -1    0    0  501  502 -0.00000000000E+00 -0.00000000000E+00 -0.18837242470E+03  0.18837242470E+03  0.00000000000E+00 0. -1.
         25    1    1    2    0    0 -0.19244166164E+03  0.22135354289E+02  0.11075475723E+03  0.25576431201E+03  0.12500000000E+03 0.  0.
         25    1    1    2    0    0  0.21309695307E+03  0.94712086603E+02  0.34293330164E+03  0.43313847685E+03  0.12500000000E+03 0.  0.
         25    1    1    2    0    0 -0.20655291431E+02 -0.11684744089E+03  0.34177144929E+02  0.17570726434E+03  0.12500000000E+03 0.  0.
</event>
<event>
 5    0  0.5634041E-005  0.3387459E+03  0.7546771E-02  0.1067331E+00
         21   -1    0    0  502  501  0.00000000000E+00  0.00000000000E+00  0.22787794358E+03  0.22787794358E+03  0.00000000000E+00 0. -1.
         21   -1    0    0  501  502 -0.00000000000E+00 -0.00000000000E+00 -0.50355370076E+03  0.50355370076E+03  0.00000000000E+00 0. -1.
         25    1    1    2    0    0 -0.58240162359E+02 -0.66740436349E+02 -0.92596692621E+02  0.17901214998E+03  0.12500000000E+03 0.  0.
         25    1    1    2    0    0 -0.19151260795E+03  0.54309159889E+02 -0.40231590909E+02  0.23847462079E+03  0.12500000000E+03 0.  0.
         25    1    1    2    0    0  0.24975277031E+03  0.12431276460E+02 -0.14284747365E+03  0.31394487357E+03  0.12500000000E+03 0.  0.
</event>
<event>
 5    0  0.5634041E-005  0.2806730E+03  0.7546771E-02  0.1095322E+00
         21   -1    0    0  502  501  0.00000000000E+00  0.00000000000E+00  0.27166360634E+03  0.27166360634E+03  0.00000000000E+00 0. -1.
         21   -1    0    0  501  502 -0.00000000000E+00 -0.00000000000E+00 -0.28998116086E+03  0.28998116086E+03  0.00000000000E+00 0. -1.
         25    1    1    2    0    0 -0.99529734707E+02 -0.41620899571E+02  0.10488643480E+03  0.19561347494E+03  0.12500000000E+03 0.  0.
         25    1    1    2    0    0  0.38623838193E+02  0.50311058031E+02 -0.16882618438E+03  0.21943172963E+03  0.12500000000E+03 0.  0.
         25    1    1    2    0    0  0.60905896514E+02 -0.86901584600E+01  0.45622195057E+02  0.14659956264E+03  0.12500000000E+03 0.  0.
</event>
<event>
 5    0  0.5634041E-005  0.2982126E+03  0.7546771E-02  0.1086138E+00
         21   -1    0    0  502  501  0.00000000000E+00  0.00000000000E+00  0.37985651045E+02  0.37985651045E+02  0.00000000000E+00 0. -1.
         21   -1    0    0  501  502 -0.00000000000E+00 -0.00000000000E+00 -0.23411668757E+04  0.23411668757E+04  0.00000000000E+00 0. -1.
         25    1    1    2    0    0 -0.10944790388E+02 -0.73216601120E+02 -0.25445749779E+03  0.29300866420E+03  0.12500000000E+03 0.  0.
         25    1    1    2    0    0 -0.97219295698E+02 -0.70885029045E+02 -0.96067681447E+03  0.97621781415E+03  0.12500000000E+03 0.  0.
         25    1    1    2    0    0  0.10816408609E+03  0.14410163016E+03 -0.10880469124E+04  0.11099260484E+04  0.12500000000E+03 0.  0.
</event>
<event>
 5    0  0.5914290E-005  0.2876200E+03  0.7546771E-02  0.1091598E+00
         21   -1    0    0  502  501  0.00000000000E+00  0.00000000000E+00  0.21899680915E+03  0.21899680915E+03  0.00000000000E+00 0. -1.
         21   -1    0    0  501  502 -0.00000000000E+00 -0.00000000000E+00 -0.37774637501E+03  0.37774637501E+03  0.00000000000E+00 0. -1.
         25    1    1    2    0    0  0.14716015444E+03 -0.48287138252E+02  0.74742020811E+02  0.21260086653E+03  0.12500000000E+03 0.  0.
         25    1    1    2    0    0 -0.71496661658E+02 -0.16853854054E+02 -0.11515796415E+03  0.18515448072E+03  0.12500000000E+03 0.  0.
         25    1    1    2    0    0 -0.75663492780E+02  0.65140992306E+02 -0.11833362252E+03  0.19898783691E+03  0.12500000000E+03 0.  0.
</event>
<event>
 5    0  0.5854918E-005  0.3533041E+03  0.7546771E-02  0.1061267E+00
         21   -1    0    0  502  501  0.00000000000E+00  0.00000000000E+00  0.25809332041E+03  0.25809332041E+03  0.00000000000E+00 0.  1.
         21   -1    0    0  501  502 -0.00000000000E+00 -0.00000000000E+00 -0.48363818183E+03  0.48363818183E+03  0.00000000000E+00 0.  1.
         25    1    1    2    0    0  0.20311234886E+02 -0.95952404803E+02  0.64275783438E+02  0.17139365970E+03  0.12500000000E+03 0.  0.
         25    1    1    2    0    0 -0.17593845563E+03  0.17069022075E+03 -0.13237838314E+03  0.30534984518E+03  0.12500000000E+03 0.  0.
         25    1    1    2    0    0  0.15562722075E+03 -0.74737815945E+02 -0.15744226172E+03  0.26498799736E+03  0.12500000000E+03 0.  0.
</event>
<event>
 5    0  0.5634041E-005  0.2633554E+03  0.7546771E-02  0.1105144E+00
         21   -1    0    0  502  501  0.00000000000E+00  0.00000000000E+00  0.11181551569E+03  0.11181551569E+03  0.00000000000E+00 0.  1.
         21   -1    0    0  501  502 -0.00000000000E+00 -0.00000000000E+00 -0.62027216392E+03  0.62027216392E+03  0.00000000000E+00 0.  1.
         25    1    1    2    0    0  0.85350320573E+02  0.55165369259E+02 -0.14517084282E+03  0.21685817668E+03  0.12500000000E+03 0.  0.
         25    1    1    2    0    0 -0.11048118365E+03  0.39136705345E+02 -0.29795315091E+03  0.34371333082E+03  0.12500000000E+03 0.  0.
         25    1    1    2    0    0  0.25130863073E+02 -0.94302074604E+02 -0.65332654498E+02  0.17151617212E+03  0.12500000000E+03 0.  0.
</event>
<event>
 5    0  0.5634041E-005  0.4186395E+03  0.7546771E-02  0.1037510E+00
         21   -1    0    0  502  501  0.00000000000E+00  0.00000000000E+00  0.42465756994E+03  0.42465756994E+03  0.00000000000E+00 0. -1.
         21   -1    0    0  501  502 -0.00000000000E+00 -0.00000000000E+00 -0.41270675326E+03  0.41270675326E+03  0.00000000000E+00 0. -1.
         25    1    1    2    0    0 -0.17796475413E+03  0.14457507041E+03 -0.21915611700E+03  0.34092199741E+03  0.12500000000E+03 0.  0.
         25    1    1    2    0    0  0.42812791083E+02  0.64796677151E+02  0.14005242893E+03  0.20315321139E+03  0.12500000000E+03 0.  0.
         25    1    1    2    0    0  0.13515196305E+03 -0.20937174756E+03  0.91054504750E+02  0.29328911440E+03  0.12500000000E+03 0.  0.
</event>
<event>
 5    0  0.5634041E-005  0.3377159E+03  0.7546771E-02  0.1067773E+00
         21   -1    0    0  502  501  0.00000000000E+00  0.00000000000E+00  0.12890760071E+03  0.12890760071E+03  0.00000000000E+00 0. -1.
         21   -1    0    0  501  502 -0.00000000000E+00 -0.00000000000E+00 -0.88475810067E+03  0.88475810067E+03  0.00000000000E+00 0. -1.
         25    1    1    2    0    0  0.10108135732E+03  0.22125291998E+03 -0.22944989603E+03  0.35699096653E+03  0.12500000000E+03 0.  0.
         25    1    1    2    0    0 -0.59801867481E+02 -0.17721612644E+03 -0.43718084861E+03  0.49166443151E+03  0.12500000000E+03 0.  0.
         25    1    1    2    0    0 -0.41279489836E+02 -0.44036793539E+02 -0.89219755327E+02  0.16501030334E+03  0.12500000000E+03 0.  0.
</event>
<event>
 5    0  0.5634041E-005  0.3355771E+03  0.7546771E-02  0.1068696E+00
         21   -1    0    0  502  501  0.00000000000E+00  0.00000000000E+00  0.55535505735E+03  0.55535505735E+03  0.00000000000E+00 0.  1.
         21   -1    0    0  501  502 -0.00000000000E+00 -0.00000000000E+00 -0.20277471920E+03  0.20277471920E+03  0.00000000000E+00 0.  1.
         25    1    1    2    0    0  0.11176236900E+03  0.29212933254E+02  0.26836777113E+03  0.31778999855E+03  0.12500000000E+03 0.  0.
         25    1    1    2    0    0 -0.16435554828E+03 -0.18841124067E+02 -0.84264014605E+02  0.22381500924E+03  0.12500000000E+03 0.  0.
         25    1    1    2    0    0  0.52593179274E+02 -0.10371809187E+02  0.16847658162E+03  0.21652476876E+03  0.12500000000E+03 0.  0.
</event>
<event>
 5    0  0.5634041E-005  0.3019017E+03  0.7546771E-02  0.1084294E+00
         21   -1    0    0  502  501  0.00000000000E+00  0.00000000000E+00  0.15547421093E+03  0.15547421093E+03  0.00000000000E+00 0. -1.
         21   -1    0    0  501  502 -0.00000000000E+00 -0.00000000000E+00 -0.58623652026E+03  0.58623652026E+03  0.00000000000E+00 0. -1.
         25    1    1    2    0    0 -0.48359328583E+02 -0.80318745422E+02  0.58244479839E+02  0.16675474494E+03  0.12500000000E+03 0.  0.
         25    1    1    2    0    0  0.31980953582E+02  0.67480263367E+02 -0.13351652582E+03  0.19755513155E+03  0.12500000000E+03 0.  0.
         25    1    1    2    0    0  0.16378375001E+02  0.12838482055E+02 -0.35549026335E+03  0.37740085470E+03  0.12500000000E+03 0.  0.
</event>
<event>
 5    0  0.5634041E-005  0.3106788E+03  0.7546771E-02  0.1080021E+00
         21   -1    0    0  502  501  0.00000000000E+00  0.00000000000E+00  0.52743892707E+03  0.52743892707E+03  0.00000000000E+00 0. -1.
         21   -1    0    0  501  502 -0.00000000000E+00 -0.00000000000E+00 -0.18300000441E+03  0.18300000441E+03  0.00000000000E+00 0. -1.
         25    1    1    2    0    0 -0.12205517118E+03  0.10408334320E+03 -0.39126307209E+02  0.20709098257E+03  0.12500000000E+03 0.  0.
         25    1    1    2    0    0  0.11710370425E+03 -0.68152435358E+02  0.28771901871E+03  0.34170932929E+03  0.12500000000E+03 0.  0.
         25    1    1    2    0    0  0.49514669378E+01 -0.35930907841E+02  0.95846211150E+02  0.16163861963E+03  0.12500000000E+03 0.  0.
</event>
<event>
 5    0  0.5634041E-005  0.4635089E+03  0.7546771E-02  0.1023768E+00
         21   -1    0    0  502  501  0.00000000000E+00  0.00000000000E+00  0.59784923716E+03  0.59784923716E+03  0.00000000000E+00 0.  1.
         21   -1    0    0  501  502 -0.00000000000E+00 -0.00000000000E+00 -0.35935568950E+03  0.35935568950E+03  0.00000000000E+00 0.  1.
         25    1    1    2    0    0 -0.97767274554E+02 -0.32370534577E+02  0.28302461829E+03  0.32608929152E+03  0.12500000000E+03 0.  0.
         25    1    1    2    0    0  0.30630049894E+03  0.11136294350E+03 -0.11223259388E+03  0.36666450055E+03  0.12500000000E+03 0.  0.
         25    1    1    2    0    0 -0.20853322438E+03 -0.78992408925E+02  0.67701523242E+02  0.26445113459E+03  0.12500000000E+03 0.  0.
</event>
<event>
 5    0  0.5634041E-005  0.4821420E+03  0.7546771E-02  0.1018548E+00
         21   -1    0    0  502  501  0.00000000000E+00  0.00000000000E+00  0.29007878258E+03  0.29007878258E+03  0.00000000000E+00 0.  1.
         21   -1    0    0  501  502 -0.00000000000E+00 -0.00000000000E+00 -0.80137154246E+03  0.80137154246E+03  0.00000000000E+00 0.  1.
         25    1    1    2    0    0  0.10592497793E+03 -0.25083525182E+03 -0.30634455039E+02  0.30116755194E+03  0.12500000000E+03 0.  0.
         25    1    1    2    0    0 -0.43099036807E+02  0.33467671374E+03 -0.51039440578E+03  0.62449457896E+03  0.12500000000E+03 0.  0.
         25    1    1    2    0    0 -0.62825941127E+02 -0.83841461928E+02  0.29736100937E+02  0.16578819414E+03  0.12500000000E+03 0.  0.
</event>
<event>
 5    0  0.5634041E-005  0.4510173E+03  0.7546771E-02  0.1027419E+00
         21   -1    0    0  502  501  0.00000000000E+00  0.00000000000E+00  0.57325508715E+03  0.57325508715E+03  0.00000000000E+00 0. -1.
         21   -1    0    0  501  502 -0.00000000000E+00 -0.00000000000E+00 -0.35484477280E+03  0.35484477280E+03  0.00000000000E+00 0. -1.
         25    1    1    2    0    0 -0.11822954746E+02  0.47798071219E+02  0.51329818271E+03  0.53058878828E+03  0.12500000000E+03 0.  0.
         25    1    1    2    0    0  0.27947876903E+01 -0.44421350979E+02 -0.10157577124E+03  0.16710387358E+03  0.12500000000E+03 0.  0.
         25    1    1    2    0    0  0.90281670556E+01 -0.33767202405E+01 -0.19331209713E+03  0.23040719810E+03  0.12500000000E+03 0.  0.
</event>
<event>
 5    0  0.5634041E-005  0.2560192E+03  0.7546771E-02  0.1109559E+00
         21   -1    0    0  502  501  0.00000000000E+00  0.00000000000E+00  0.12614165815E+03  0.12614165815E+03  0.00000000000E+00 0. -1.
         21   -1    0    0  501  502 -0.00000000000E+00 -0.00000000000E+00 -0.51962064791E+03  0.51962064791E+03  0.00000000000E+00 0. -1.
         25    1    1    2    0    0  0.22683838773E+01  0.22142678558E+02 -0.27299932010E+03  0.30107984415E+03  0.12500000000E+03 0.  0.
         25    1    1    2    0    0  0.85002302430E+01  0.50671195530E+01 -0.16638420221E+03  0.20834258413E+03  0.12500000000E+03 0.  0.
         25    1    1    2    0    0 -0.10768614120E+02 -0.27209798111E+02  0.45904532550E+02  0.13633987778E+03  0.12500000000E+03 0.  0.
</event>
<event>
 5    0  0.5634041E-005  0.3606566E+03  0.7546771E-02  0.1058324E+00
         21   -1    0    0  502  501  0.00000000000E+00  0.00000000000E+00  0.32166412550E+03  0.32166412550E+03  0.00000000000E+00 0. -1.
         21   -1    0    0  501  502 -0.00000000000E+00 -0.00000000000E+00 -0.40437568144E+03  0.40437568144E+03  0.00000000000E+00 0. -1.
         25    1    1    2    0    0  0.15827402129E+02 -0.57357971849E+02 -0.30343280039E+03  0.33352197521E+03  0.12500000000E+03 0.  0.
         25    1    1    2    0    0  0.27885148804E+02  0.12227348195E+03  0.11762243199E+03  0.21257568633E+03  0.12500000000E+03 0.  0.
         25    1    1    2    0    0 -0.43712550933E+02 -0.64915510100E+02  0.10309881246E+03  0.17994214540E+03  0.12500000000E+03 0.  0.
</event>
<event>
 5    0  0.5634041E-005  0.4322807E+03  0.7546771E-02  0.1033142E+00
         21   -1    0    0  502  501  0.00000000000E+00  0.00000000000E+00  0.22940726595E+03  0.22940726595E+03  0.00000000000E+00 0.  1.
         21   -1    0    0  501  502 -0.00000000000E+00 -0.00000000000E+00 -0.81456266618E+03  0.81456266618E+03  0.00000000000E+00 0.  1.
         25    1    1    2    0    0  0.11952679599E+03  0.17450878478E+02 -0.17557050883E+03  0.24706515677E+03  0.12500000000E+03 0.  0.
         25    1    1    2    0    0 -0.78741488131E+02 -0.31896225603E+03 -0.17337850932E+03  0.39194674411E+03  0.12500000000E+03 0.  0.
         25    1    1    2    0    0 -0.40785307861E+02  0.30151137755E+03 -0.23620638208E+03  0.40495803124E+03  0.12500000000E+03 0.  0.
</event>
<event>
 5    0  0.5634041E-005  0.2412929E+03  0.7546771E-02  0.1118935E+00
         21   -1    0    0  502  501  0.00000000000E+00  0.00000000000E+00  0.34100846332E+03  0.34100846332E+03  0.00000000000E+00 0.  1.
         21   -1    0    0  501  502 -0.00000000000E+00 -0.00000000000E+00 -0.17073552642E+03  0.17073552642E+03  0.00000000000E+00 0.  1.
         25    1    1    2    0    0  0.31319750044E+02  0.35446294649E+02  0.92308686583E+02  0.16242924665E+03  0.12500000000E+03 0.  0.
         25    1    1    2    0    0  0.72791200127E+02 -0.87655032386E+02  0.48405423405E+02  0.17592625880E+03  0.12500000000E+03 0.  0.
         25    1    1    2    0    0 -0.10411095017E+03  0.52208737737E+02  0.29558826910E+02  0.17338848431E+03  0.12500000000E+03 0.  0.
</event>
<event>
 5    0  0.5634041E-005  0.4752531E+03  0.7546771E-02  0.1020448E+00
         21   -1    0    0  502  501  0.00000000000E+00  0.00000000000E+00  0.55745801613E+03  0.55745801613E+03  0.00000000000E+00 0.  1.
         21   -1    0    0  501  502 -0.00000000000E+00 -0.00000000000E+00 -0.40517043313E+03  0.40517043313E+03  0.00000000000E+00 0.  1.
         25    1    1    2    0    0 -0.24390816673E+03  0.17819180957E+03 -0.10238095955E+03  0.34256441099E+03  0.12500000000E+03 0.  0.
         25    1    1    2    0    0  0.10380657863E+02  0.10526287300E+03  0.15884493439E+02  0.16451549356E+03  0.12500000000E+03 0.  0.
         25    1    1    2    0    0  0.23352750886E+03 -0.28345468258E+03  0.23878404912E+03  0.45554854471E+03  0.12500000000E+03 0.  0.
</event>
<event>
 5    0  0.6450910E-005  0.7499235E+03  0.7546771E-02  0.9635470E-01
         21   -1    0    0  502  501  0.00000000000E+00  0.00000000000E+00  0.16006725432E+04  0.16006725432E+04  0.00000000000E+00 0. -1.
         21   -1    0    0  501  502 -0.00000000000E+00 -0.00000000000E+00 -0.35134309232E+03  0.35134309232E+03  0.00000000000E+00 0. -1.
         25    1    1    2    0    0 -0.46369307049E+03 -0.13316320247E+03  0.40462509140E+03  0.64194249485E+03  0.12500000000E+03 0.  0.
         25    1    1    2    0    0  0.74721946873E+01  0.42351252827E+03  0.31171089839E+03  0.54056209585E+03  0.12500000000E+03 0.  0.
         25    1    1    2    0    0  0.45622087580E+03 -0.29034932579E+03  0.53299346107E+03  0.76951104478E+03  0.12500000000E+03 0.  0.
</event>
<event>
 5    0  0.5634041E-005  0.2948626E+03  0.7546771E-02  0.1087837E+00
         21   -1    0    0  502  501  0.00000000000E+00  0.00000000000E+00  0.12972057438E+03  0.12972057438E+03  0.00000000000E+00 0.  1.
         21   -1    0    0  501  502 -0.00000000000E+00 -0.00000000000E+00 -0.67024043942E+03  0.67024043942E+03  0.00000000000E+00 0.  1.
         25    1    1    2    0    0 -0.96224462942E+02  0.11193116601E+03 -0.21749992136E+03  0.29106519714E+03  0.12500000000E+03 0.  0.
         25    1    1    2    0    0  0.33179988036E+02 -0.19121560089E+03 -0.16828885825E+03  0.28567544074E+03  0.12500000000E+03 0.  0.
         25    1    1    2    0    0  0.63044474906E+02  0.79284434879E+02 -0.15473108542E+03  0.22322037592E+03  0.12500000000E+03 0.  0.
</event>
<event>
 5    0  0.5634041E-005  0.3286717E+03  0.7546771E-02  0.1071726E+00
         21   -1    0    0  502  501  0.00000000000E+00  0.00000000000E+00  0.10529335320E+03  0.10529335320E+03  0.00000000000E+00 0.  1.
         21   -1    0    0  501  502 -0.00000000000E+00 -0.00000000000E+00 -0.10259437863E+04  0.10259437863E+04  0.00000000000E+00 0.  1.
         25    1    1    2    0    0 -0.64775305041E+02  0.47685691809E+01 -0.25195856147E+03  0.28866363833E+03  0.12500000000E+03 0.  0.
         25    1    1    2    0    0  0.68472202932E+02 -0.16017282603E+03 -0.93735479307E+02  0.23399811293E+03  0.12500000000E+03 0.  0.
         25    1    1    2    0    0 -0.36968978904E+01  0.15540425685E+03 -0.57495639235E+03  0.60857538827E+03  0.12500000000E+03 0.  0.
</event>
<event>
 5    0  0.5634041E-005  0.3002460E+03  0.7546771E-02  0.1085118E+00
         21   -1    0    0  502  501  0.00000000000E+00  0.00000000000E+00  0.17185256953E+04  0.17185256953E+04  0.00000000000E+00 0.  1.
         21   -1    0    0  501  502 -0.00000000000E+00 -0.00000000000E+00 -0.52456405219E+02  0.52456405219E+02  0.00000000000E+00 0.  1.
         25    1    1    2    0    0  0.12638807524E+02 -0.28865175221E+02  0.95553260896E+03  0.96418903986E+03  0.12500000000E+03 0.  0.
         25    1    1    2    0    0  0.12057469891E+03  0.80814739851E+02  0.33254271955E+03  0.38376938455E+03  0.12500000000E+03 0.  0.
         25    1    1    2    0    0 -0.13321350644E+03 -0.51949564630E+02  0.37799396157E+03  0.42302367611E+03  0.12500000000E+03 0.  0.
</event>
<event>
 5    0  0.5634041E-005  0.2592919E+03  0.7546771E-02  0.1107569E+00
         21   -1    0    0  502  501  0.00000000000E+00  0.00000000000E+00  0.70764734844E+03  0.70764734844E+03  0.00000000000E+00 0.  1.
         21   -1    0    0  501  502 -0.00000000000E+00 -0.00000000000E+00 -0.95008195965E+02  0.95008195965E+02  0.00000000000E+00 0.  1.
         25    1    1    2    0    0  0.15796853454E+02  0.38273347778E+02  0.10680346892E+03  0.16954754703E+03  0.12500000000E+03 0.  0.
         25    1    1    2    0    0 -0.10822406720E+03 -0.98864284988E+02  0.37310216365E+03  0.41990096462E+03  0.12500000000E+03 0.  0.
         25    1    1    2    0    0  0.92427213743E+02  0.60590937209E+02  0.13273351990E+03  0.21320703276E+03  0.12500000000E+03 0.  0.
</event>
<event>
 5    0  0.5634041E-005  0.2929534E+03  0.7546771E-02  0.1088817E+00
         21   -1    0    0  502  501  0.00000000000E+00  0.00000000000E+00  0.23400412347E+03  0.23400412347E+03  0.00000000000E+00 0.  1.
         21   -1    0    0  501  502 -0.00000000000E+00 -0.00000000000E+00 -0.36675301273E+03  0.36675301273E+03  0.00000000000E+00 0.  1.
         25    1    1    2    0    0  0.10185034549E+03  0.13455723544E+03  0.33627056466E+02  0.21268502865E+03  0.12500000000E+03 0.  0.
         25    1    1    2    0    0 -0.38606950651E+02  0.30205041166E+02 -0.60146000850E+02  0.14712369819E+03  0.12500000000E+03 0.  0.
         25    1    1    2    0    0 -0.63243394840E+02 -0.16476227661E+03 -0.10622994488E+03  0.24094840936E+03  0.12500000000E+03 0.  0.
</event>
<event>
 5    0  0.5634041E-005  0.2803180E+03  0.7546771E-02  0.1095515E+00
         21   -1    0    0  502  501  0.00000000000E+00  0.00000000000E+00  0.29569541348E+03  0.29569541348E+03  0.00000000000E+00 0. -1.
         21   -1    0    0  501  502 -0.00000000000E+00 -0.00000000000E+00 -0.26574033932E+03  0.26574033932E+03  0.00000000000E+00 0. -1.
         25    1    1    2    0    0  0.44110350762E+02 -0.10240119738E+03  0.80172757328E+02  0.18569975575E+03  0.12500000000E+03 0.  0.
         25    1    1    2    0    0  0.45792602713E+02 -0.47480597133E+02 -0.74015664402E+02  0.15954525422E+03  0.12500000000E+03 0.  0.
         25    1    1    2    0    0 -0.89902953475E+02  0.14988179451E+03  0.23797981235E+02  0.21619074282E+03  0.12500000000E+03 0.  0.
</event>
<event>
 5    0  0.5885410E-005  0.2551859E+03  0.7546771E-02  0.1110071E+00
         21   -1    0    0  502  501  0.00000000000E+00  0.00000000000E+00  0.21770039474E+03  0.21770039474E+03  0.00000000000E+00 0.  1.
         21   -1    0    0  501  502 -0.00000000000E+00 -0.00000000000E+00 -0.29912586305E+03  0.29912586305E+03  0.00000000000E+00 0.  1.
         25    1    1    2    0    0  0.85117171535E+02 -0.63942967927E+02  0.20480461411E+02  0.16546324467E+03  0.12500000000E+03 0.  0.
         25    1    1    2    0    0 -0.89996659203E+02  0.11444937734E+03 -0.10012680189E+03  0.21644499324E+03  0.12500000000E+03 0.  0.
         25    1    1    2    0    0  0.48794876685E+01 -0.50506409413E+02 -0.17791278357E+01  0.13491801988E+03  0.12500000000E+03 0.  0.
</event>
<event>
 5    0  0.5634041E-005  0.2985326E+03  0.7546771E-02  0.1085976E+00
         21   -1    0    0  502  501  0.00000000000E+00  0.00000000000E+00  0.13859738594E+03  0.13859738594E+03  0.00000000000E+00 0. -1.
         21   -1    0    0  501  502 -0.00000000000E+00 -0.00000000000E+00 -0.64302603976E+03  0.64302603976E+03  0.00000000000E+00 0. -1.
         25    1    1    2    0    0 -0.11750211551E+03  0.87004243656E+02 -0.16681423536E+03  0.25461436464E+03  0.12500000000E+03 0.  0.
         25    1    1    2    0    0  0.19116734098E+03 -0.23611842165E+02 -0.27107767484E+03  0.35526128011E+03  0.12500000000E+03 0.  0.
         25    1    1    2    0    0 -0.73665225474E+02 -0.63392401491E+02 -0.66536743615E+02  0.17174778095E+03  0.12500000000E+03 0.  0.
</event>
<event>
 5    0  0.5634041E-005  0.5561239E+03  0.7546771E-02  0.1000086E+00
         21   -1    0    0  502  501  0.00000000000E+00  0.00000000000E+00  0.48491470495E+03  0.48491470495E+03  0.00000000000E+00 0. -1.
         21   -1    0    0  501  502 -0.00000000000E+00 -0.00000000000E+00 -0.63779014195E+03  0.63779014195E+03  0.00000000000E+00 0. -1.
         25    1    1    2    0    0  0.10314958133E+03 -0.23350820112E+03 -0.40649336965E+03  0.49601187051E+03  0.12500000000E+03 0.  0.
         25    1    1    2    0    0 -0.16994839435E+03  0.14498723079E+03 -0.67467682673E+02  0.26472748637E+03  0.12500000000E+03 0.  0.
         25    1    1    2    0    0  0.66798813020E+02  0.88520970333E+02  0.32108561532E+03  0.36196549003E+03  0.12500000000E+03 0.  0.
</event>
<event>
 5    0  0.5634041E-005  0.2852857E+03  0.7546771E-02  0.1092837E+00
         21   -1    0    0  502  501  0.00000000000E+00  0.00000000000E+00  0.55019543976E+02  0.55019543976E+02  0.00000000000E+00 0. -1.
         21   -1    0    0  501  502 -0.00000000000E+00 -0.00000000000E+00 -0.14792550400E+04  0.14792550400E+04  0.00000000000E+00 0. -1.
         25    1    1    2    0    0 -0.83516686616E+02 -0.63463319241E+02 -0.90269637746E+03  0.91732675733E+03  0.12500000000E+03 0.  0.
         25    1    1    2    0    0  0.77592494245E+01  0.11932766468E+03 -0.28195070954E+03  0.33078769645E+03  0.12500000000E+03 0.  0.
         25    1    1    2    0    0  0.75757437191E+02 -0.55864345434E+02 -0.23958840904E+03  0.28616013022E+03  0.12500000000E+03 0.  0.
</event>
<event>
 5    0  0.5634041E-005  0.2726906E+03  0.7546771E-02  0.1099749E+00
         21   -1    0    0  502  501  0.00000000000E+00  0.00000000000E+00  0.51928035335E+02  0.51928035335E+02  0.00000000000E+00 0.  1.
         21   -1    0    0  501  502 -0.00000000000E+00 -0.00000000000E+00 -0.14319852044E+04  0.14319852044E+04  0.00000000000E+00 0.  1.
         25    1    1    2    0    0 -0.12535979177E+03 -0.60601203311E+02 -0.90358376748E+03  0.92275468468E+03  0.12500000000E+03 0.  0.
         25    1    1    2    0    0  0.50659120650E+02  0.59332421069E+02 -0.19687603098E+03  0.24591025654E+03  0.12500000000E+03 0.  0.
         25    1    1    2    0    0  0.74700671117E+02  0.12687822420E+01 -0.27959737060E+03  0.31524829852E+03  0.12500000000E+03 0.  0.
</event>
<event>
 5    0  0.5634041E-005  0.3916811E+03  0.7546771E-02  0.1046699E+00
         21   -1    0    0  502  501  0.00000000000E+00  0.00000000000E+00  0.18339812970E+03  0.18339812970E+03  0.00000000000E+00 0. -1.
         21   -1    0    0  501  502 -0.00000000000E+00 -0.00000000000E+00 -0.83650854637E+03  0.83650854637E+03  0.00000000000E+00 0. -1.
         25    1    1    2    0    0  0.51923140081E+02  0.19240160379E+03  0.18065940015E+02  0.23593594005E+03  0.12500000000E+03 0.  0.
         25    1    1    2    0    0  0.37543235119E+02  0.30772463767E+02 -0.22783129703E+03  0.26436440557E+03  0.12500000000E+03 0.  0.
         25    1    1    2    0    0 -0.89466375200E+02 -0.22317406756E+03 -0.44334505966E+03  0.51960633045E+03  0.12500000000E+03 0.  0.
</event>
<event>
 5    0  0.5634041E-005  0.3577497E+03  0.7546771E-02  0.1059478E+00
         21   -1    0    0  502  501  0.00000000000E+00  0.00000000000E+00  0.96964305557E+03  0.96964305557E+03  0.00000000000E+00 0. -1.
         21   -1    0    0  501  502 -0.00000000000E+00 -0.00000000000E+00 -0.13199169668E+03  0.13199169668E+03  0.00000000000E+00 0. -1.
         25    1    1    2    0    0  0.94899368420E+02  0.29489886646E+00  0.56619364397E+03  0.58754252575E+03  0.12500000000E+03 0.  0.
         25    1    1    2    0    0 -0.75348730055E+02 -0.36516938758E+02 -0.56502710855E+02  0.16071239613E+03  0.12500000000E+03 0.  0.
         25    1    1    2    0    0 -0.19550638365E+02  0.36222039892E+02  0.32796042578E+03  0.35337983037E+03  0.12500000000E+03 0.  0.
</event>
<event>
 5    0  0.5634041E-005  0.3589928E+03  0.7546771E-02  0.1058983E+00
         21   -1    0    0  502  501  0.00000000000E+00  0.00000000000E+00  0.38663514116E+03  0.38663514116E+03  0.00000000000E+00 0.  1.
         21   -1    0    0  501  502 -0.00000000000E+00 -0.00000000000E+00 -0.33332681795E+03  0.33332681795E+03  0.00000000000E+00 0.  1.
         25    1    1    2    0    0 -0.21718002958E+02 -0.15217306790E+03 -0.50910755695E+02  0.20456104050E+03  0.12500000000E+03 0.  0.
         25    1    1    2    0    0  0.44863752828E+02 -0.12288644797E+03 -0.31014844974E+02  0.18357765665E+03  0.12500000000E+03 0.  0.
         25    1    1    2    0    0 -0.23145749870E+02  0.27505951587E+03  0.13523392388E+03  0.33182326195E+03  0.12500000000E+03 0.  0.
</event>
<event>
 5    0  0.5634041E-005  0.2556619E+03  0.7546771E-02  0.1109778E+00
         21   -1    0    0  502  501  0.00000000000E+00  0.00000000000E+00  0.34185075167E+03  0.34185075167E+03  0.00000000000E+00 0. -1.
         21   -1    0    0  501  502 -0.00000000000E+00 -0.00000000000E+00 -0.19120341789E+03  0.19120341789E+03  0.00000000000E+00 0. -1.
         25    1    1    2    0    0  0.12701188813E+03 -0.22562749745E+02  0.13016943008E+03  0.22183367177E+03  0.12500000000E+03 0.  0.
         25    1    1    2    0    0 -0.80440043434E+02 -0.51619712061E+02  0.10639375835E+01  0.15735732339E+03  0.12500000000E+03 0.  0.
         25    1    1    2    0    0 -0.46571844693E+02  0.74182461806E+02  0.19413966116E+02  0.15386317441E+03  0.12500000000E+03 0.  0.
</event>
<event>
 5    0  0.5634041E-005  0.3210929E+03  0.7546771E-02  0.1075147E+00
         21   -1    0    0  502  501  0.00000000000E+00  0.00000000000E+00  0.91093678055E+02  0.91093678055E+02  0.00000000000E+00 0.  1.
         21   -1    0    0  501  502 -0.00000000000E+00 -0.00000000000E+00 -0.11318091750E+04  0.11318091750E+04  0.00000000000E+00 0.  1.
         25    1    1    2    0    0 -0.18103687687E+03 -0.10681432852E+03 -0.21197229635E+03  0.32363699724E+03  0.12500000000E+03 0.  0.
         25    1    1    2    0    0  0.33827906622E+02  0.82997018381E+02 -0.39424309561E+03  0.42318488957E+03  0.12500000000E+03 0.  0.
         25    1    1    2    0    0  0.14720897025E+03  0.23817310137E+02 -0.43450010500E+03  0.47608096626E+03  0.12500000000E+03 0.  0.
</event>
<event>
 5    0  0.6702408E-005  0.4354633E+03  0.7546771E-02  0.1032148E+00
         21   -1    0    0  502  501  0.00000000000E+00  0.00000000000E+00  0.15108802330E+03  0.15108802330E+03  0.00000000000E+00 0.  1.
         21   -1    0    0  501  502 -0.00000000000E+00 -0.00000000000E+00 -0.12550848062E+04  0.12550848062E+04  0.00000000000E+00 0.  1.
         25    1    1    2    0    0 -0.63045270135E+02 -0.20992879091E+03 -0.53424770334E+03  0.59083873592E+03  0.12500000000E+03 0.  0.
         25    1    1    2    0    0 -0.10674034619E+02  0.27195382610E+03 -0.58456561753E+03  0.65682172600E+03  0.12500000000E+03 0.  0.
         25    1    1    2    0    0  0.73719304754E+02 -0.62025035198E+02  0.14816537958E+02  0.15851236760E+03  0.12500000000E+03 0.  0.
</event>
<event>
 5    0  0.5834196E-005  0.3524054E+03  0.7546771E-02  0.1061632E+00
         21   -1    0    0  502  501  0.00000000000E+00  0.00000000000E+00  0.33480305067E+03  0.33480305067E+03  0.00000000000E+00 0. -1.
         21   -1    0    0  501  502 -0.00000000000E+00 -0.00000000000E+00 -0.37093317065E+03  0.37093317065E+03  0.00000000000E+00 0. -1.
         25    1    1    2    0    0 -0.16741322511E+03 -0.36812855773E+02 -0.20030751077E+02  0.21309294986E+03  0.12500000000E+03 0.  0.
         25    1    1    2    0    0  0.16075448220E+03 -0.15761950850E+03 -0.38281075825E+02  0.26033892097E+03  0.12500000000E+03 0.  0.
         25    1    1    2    0    0  0.66587429174E+01  0.19443236427E+03  0.22181706929E+02  0.23230435049E+03  0.12500000000E+03 0.  0.
</event>
<event>
 5    0  0.5634041E-005  0.3064447E+03  0.7546771E-02  0.1082063E+00
         21   -1    0    0  502  501  0.00000000000E+00  0.00000000000E+00  0.32611678959E+03  0.32611678959E+03  0.00000000000E+00 0. -1.
         21   -1    0    0  501  502 -0.00000000000E+00 -0.00000000000E+00 -0.28795923575E+03  0.28795923575E+03  0.00000000000E+00 0. -1.
         25    1    1    2    0    0 -0.80728791287E+02 -0.52529124594E+02  0.11232815384E+02  0.15820120990E+03  0.12500000000E+03 0.  0.
         25    1    1    2    0    0  0.16770694735E+03 -0.42502617845E+02 -0.10032502964E+03  0.23584360133E+03  0.12500000000E+03 0.  0.
         25    1    1    2    0    0 -0.86978156067E+02  0.95031742439E+02  0.12724976810E+03  0.22003121411E+03  0.12500000000E+03 0.  0.
</event>
<event>
 5    0  0.5634041E-005  0.2277937E+03  0.7546771E-02  0.1128202E+00
         21   -1    0    0  502  501  0.00000000000E+00  0.00000000000E+00  0.86730677789E+02  0.86730677789E+02  0.00000000000E+00 0. -1.
         21   -1    0    0  501  502 -0.00000000000E+00 -0.00000000000E+00 -0.59828831339E+03  0.59828831339E+03  0.00000000000E+00 0. -1.
         25    1    1    2    0    0  0.45341454033E+02  0.48784106347E+02 -0.25551315006E+03  0.29214329761E+03  0.12500000000E+03 0.  0.
         25    1    1    2    0    0 -0.15680874930E+02 -0.18955004592E+02 -0.29550229672E+02  0.13077996066E+03  0.12500000000E+03 0.  0.
         25    1    1    2    0    0 -0.29660579104E+02 -0.29829101754E+02 -0.22649425587E+03  0.26209573290E+03  0.12500000000E+03 0.  0.
</event>
<event>
 5    0  0.5634041E-005  0.3547046E+03  0.7546771E-02  0.1060700E+00
         21   -1    0    0  502  501  0.00000000000E+00  0.00000000000E+00  0.67938435484E+02  0.67938435484E+02  0.00000000000E+00 0.  1.
         21   -1    0    0  501  502 -0.00000000000E+00 -0.00000000000E+00 -0.18519028971E+04  0.18519028971E+04  0.00000000000E+00 0.  1.
         25    1    1    2    0    0  0.62657802375E+02  0.21924577940E+02 -0.12227379829E+04  0.12309020522E+04  0.12500000000E+03 0.  0.
         25    1    1    2    0    0 -0.15015055757E+03 -0.10620445030E+03 -0.35523087869E+03  0.41909253438E+03  0.12500000000E+03 0.  0.
         25    1    1    2    0    0  0.87492755192E+02  0.84279872360E+02 -0.20599560008E+03  0.26984674604E+03  0.12500000000E+03 0.  0.
</event>
<event>
 5    0  0.5634041E-005  0.3002065E+03  0.7546771E-02  0.1085137E+00
         21   -1    0    0  502  501  0.00000000000E+00  0.00000000000E+00  0.13624569252E+03  0.13624569252E+03  0.00000000000E+00 0. -1.
         21   -1    0    0  501  502 -0.00000000000E+00 -0.00000000000E+00 -0.66148088059E+03  0.66148088059E+03  0.00000000000E+00 0. -1.
         25    1    1    2    0    0 -0.28717034292E+02  0.57242770304E+02 -0.20512198238E+03  0.24859893496E+03  0.12500000000E+03 0.  0.
         25    1    1    2    0    0  0.18286714214E+03  0.18985255179E+02 -0.22471891088E+03  0.31610824174E+03  0.12500000000E+03 0.  0.
         25    1    1    2    0    0 -0.15415010785E+03 -0.76228025483E+02 -0.95394294806E+02  0.23301939640E+03  0.12500000000E+03 0.  0.
</event>
<event>
 5    0  0.5634041E-005  0.2729807E+03  0.7546771E-02  0.1099586E+00
         21   -1    0    0  502  501  0.00000000000E+00  0.00000000000E+00  0.10144232312E+03  0.10144232312E+03  0.00000000000E+00 0.  1.
         21   -1    0    0  501  502 -0.00000000000E+00 -0.00000000000E+00 -0.73458943504E+03  0.73458943504E+03  0.00000000000E+00 0.  1.
         25    1    1    2    0    0  0.19121246477E+02 -0.62134393049E+02 -0.93964623026E+02  0.16935363960E+03  0.12500000000E+03 0.  0.
         25    1    1    2    0    0 -0.15238594498E+03  0.12634407931E+02 -0.22054647372E+03  0.29605210954E+03  0.12500000000E+03 0.  0.
         25    1    1    2    0    0  0.13326469850E+03  0.49499985118E+02 -0.31863601518E+03  0.37062600902E+03  0.12500000000E+03 0.  0.
</event>
<event>
 5    0  0.5634041E-005  0.3777830E+03  0.7546771E-02  0.1051756E+00
         21   -1    0    0  502  501  0.00000000000E+00  0.00000000000E+00  0.19113025330E+03  0.19113025330E+03  0.00000000000E+00 0. -1.
         21   -1    0    0  501  502 -0.00000000000E+00 -0.00000000000E+00 -0.74671599979E+03  0.74671599979E+03  0.00000000000E+00 0. -1.
         25    1    1    2    0    0  0.45871352392E+02  0.50604020603E+02  0.40442830080E+02  0.14807285496E+03  0.12500000000E+03 0.  0.
         25    1    1    2    0    0 -0.34524833743E+02 -0.22772490432E+03 -0.47169853256E+03  0.53960643233E+03  0.12500000000E+03 0.  0.
         25    1    1    2    0    0 -0.11346518649E+02  0.17712088372E+03 -0.12433004401E+03  0.25016696580E+03  0.12500000000E+03 0.  0.
</event>
<event>
 5    0  0.5634041E-005  0.3836129E+03  0.7546771E-02  0.1049606E+00
         21   -1    0    0  502  501  0.00000000000E+00  0.00000000000E+00  0.32128999544E+03  0.32128999544E+03  0.00000000000E+00 0. -1.
         21   -1    0    0  501  502 -0.00000000000E+00 -0.00000000000E+00 -0.45802513081E+03  0.45802513081E+03  0.00000000000E+00 0. -1.
         25    1    1    2    0    0 -0.38095606553E+02  0.28559114663E+01  0.12686825462E+03  0.18215374138E+03  0.12500000000E+03 0.  0.
         25    1    1    2    0    0 -0.41224240719E+02  0.19114339794E+02  0.12389273604E+03  0.18176690032E+03  0.12500000000E+03 0.  0.
         25    1    1    2    0    0  0.79319847272E+02 -0.21970251260E+02 -0.38749612603E+03  0.41539448455E+03  0.12500000000E+03 0.  0.
</event>
<event>
 5    0  0.5634041E-005  0.2526130E+03  0.7546771E-02  0.1111665E+00
         21   -1    0    0  502  501  0.00000000000E+00  0.00000000000E+00  0.33546999867E+03  0.33546999867E+03  0.00000000000E+00 0. -1.
         21   -1    0    0  501  502 -0.00000000000E+00 -0.00000000000E+00 -0.19022069737E+03  0.19022069737E+03  0.00000000000E+00 0. -1.
         25    1    1    2    0    0  0.50053051838E+02  0.68391318722E+02  0.16402202039E+03  0.22295942153E+03  0.12500000000E+03 0.  0.
         25    1    1    2    0    0  0.18063281115E+02 -0.31545767780E+02  0.51200951638E+02  0.13988550689E+03  0.12500000000E+03 0.  0.
         25    1    1    2    0    0 -0.68116332954E+02 -0.36845550942E+02 -0.69973670724E+02  0.16284576763E+03  0.12500000000E+03 0.  0.
</event>
<event>
 5    0  0.5634041E-005  0.3044430E+03  0.7546771E-02  0.1083040E+00
         21   -1    0    0  502  501  0.00000000000E+00  0.00000000000E+00  0.12307144754E+03  0.12307144754E+03  0.00000000000E+00 0. -1.
         21   -1    0    0  501  502 -0.00000000000E+00 -0.00000000000E+00 -0.75310374851E+03  0.75310374851E+03  0.00000000000E+00 0. -1.
         25    1    1    2    0    0 -0.12301710816E+03 -0.16458282812E+02 -0.26296367422E+03  0.31651062846E+03  0.12500000000E+03 0.  0.
         25    1    1    2    0    0 -0.62263244741E+02 -0.15671491417E+02 -0.28793860520E+03  0.32039966862E+03  0.12500000000E+03 0.  0.
         25    1    1    2    0    0  0.18528035290E+03  0.32129774229E+02 -0.79130021550E+02  0.23926489896E+03  0.12500000000E+03 0.  0.
</event>
<event>
 5    0  0.5634041E-005  0.4025062E+03  0.7546771E-02  0.1042915E+00
         21   -1    0    0  502  501  0.00000000000E+00  0.00000000000E+00  0.20021580333E+04  0.20021580333E+04  0.00000000000E+00 0.  1.
         21   -1    0    0  501  502 -0.00000000000E+00 -0.00000000000E+00 -0.80918296477E+02  0.80918296477E+02  0.00000000000E+00 0.  1.
         25    1    1    2    0    0 -0.29158363464E+02  0.53848579567E+02  0.69786261482E+03  0.71160881729E+03  0.12500000000E+03 0.  0.
         25    1    1    2    0    0 -0.16012632040E+03 -0.19845660444E+03  0.93465254252E+03  0.97684483802E+03  0.12500000000E+03 0.  0.
         25    1    1    2    0    0  0.18928468386E+03  0.14460802487E+03  0.28872457947E+03  0.39462267445E+03  0.12500000000E+03 0.  0.
</event>
<event>
 5    0  0.5634041E-005  0.2713329E+03  0.7546771E-02  0.1100519E+00
         21   -1    0    0  502  501  0.00000000000E+00  0.00000000000E+00  0.19037101432E+03  0.19037101432E+03  0.00000000000E+00 0. -1.
         21   -1    0    0  501  502 -0.00000000000E+00 -0.00000000000E+00 -0.38672665826E+03  0.38672665826E+03  0.00000000000E+00 0. -1.
         25    1    1    2    0    0 -0.42863353639E+02 -0.18476208555E+02 -0.11089653605E+02  0.13389031998E+03  0.12500000000E+03 0.  0.
         25    1    1    2    0    0 -0.72967783569E+02  0.10414420109E+03 -0.14581559692E+01  0.17831836215E+03  0.12500000000E+03 0.  0.
         25    1    1    2    0    0  0.11583113721E+03 -0.85667992535E+02 -0.18380783436E+03  0.26488899046E+03  0.12500000000E+03 0.  0.
</event>
<event>
 5    0  0.5634041E-005  0.2352978E+03  0.7546771E-02  0.1122966E+00
         21   -1    0    0  502  501  0.00000000000E+00  0.00000000000E+00  0.12250401830E+04  0.12250401830E+04  0.00000000000E+00 0. -1.
         21   -1    0    0  501  502 -0.00000000000E+00 -0.00000000000E+00 -0.45194480118E+02  0.45194480118E+02  0.00000000000E+00 0. -1.
         25    1    1    2    0    0  0.45840155584E+02 -0.94448661190E+02  0.47652311552E+03  0.50370740425E+03  0.12500000000E+03 0.  0.
         25    1    1    2    0    0 -0.65940358834E+02 -0.83761126237E+01  0.31602355864E+03  0.34628626857E+03  0.12500000000E+03 0.  0.
         25    1    1    2    0    0  0.20100203250E+02  0.10282477381E+03  0.38729902869E+03  0.42024099027E+03  0.12500000000E+03 0.  0.
</event>
<event>
 5    0  0.5634041E-005  0.2200702E+03  0.7546771E-02  0.1133831E+00
         21   -1    0    0  502  501  0.00000000000E+00  0.00000000000E+00  0.24589403148E+03  0.24589403148E+03  0.00000000000E+00 0. -1.
         21   -1    0    0  501  502 -0.00000000000E+00 -0.00000000000E+00 -0.19695837072E+03  0.19695837072E+03  0.00000000000E+00 0. -1.
         25    1    1    2    0    0  0.41532709086E+01 -0.67131768380E+01  0.47786394584E+02  0.13405542104E+03  0.12500000000E+03 0.  0.
         25    1    1    2    0    0  0.36569162974E+02  0.85097942869E+02 -0.43622344531E+01  0.15563737549E+03  0.12500000000E+03 0.  0.
         25    1    1    2    0    0 -0.40722433882E+02 -0.78384766031E+02  0.55115006275E+01  0.15315960566E+03  0.12500000000E+03 0.  0.
</event>
<event>
 5    0  0.5634041E-005  0.3093988E+03  0.7546771E-02  0.1080634E+00
         21   -1    0    0  502  501  0.00000000000E+00  0.00000000000E+00  0.74470387190E+03  0.74470387190E+03  0.00000000000E+00 0. -1.
         21   -1    0    0  501  502 -0.00000000000E+00 -0.00000000000E+00 -0.12854452812E+03  0.12854452812E+03  0.00000000000E+00 0. -1.
         25    1    1    2    0    0  0.87393139553E+02  0.10728211790E+03  0.25877322652E+03  0.31896018000E+03  0.12500000000E+03 0.  0.
         25    1    1    2    0    0 -0.15232490941E+02 -0.69758688632E+02 -0.22936829264E+02  0.14577174471E+03  0.12500000000E+03 0.  0.
         25    1    1    2    0    0 -0.72160648612E+02 -0.37523429265E+02  0.38032294652E+03  0.40851647531E+03  0.12500000000E+03 0.  0.
</event>
<event>
 5    0  0.5634041E-005  0.3935078E+03  0.7546771E-02  0.1046051E+00
         21   -1    0    0  502  501  0.00000000000E+00  0.00000000000E+00  0.24951145027E+03  0.24951145027E+03  0.00000000000E+00 0. -1.
         21   -1    0    0  501  502 -0.00000000000E+00 -0.00000000000E+00 -0.62060645518E+03  0.62060645518E+03  0.00000000000E+00 0. -1.
         25    1    1    2    0    0 -0.25697960351E+03  0.13011123025E+02 -0.29217769656E+03  0.40890171473E+03  0.12500000000E+03 0.  0.
         25    1    1    2    0    0  0.24323953201E+03 -0.10487620852E+03 -0.16256868983E+02  0.29334923698E+03  0.12500000000E+03 0.  0.
         25    1    1    2    0    0  0.13740071503E+02  0.91865085498E+02 -0.62660439361E+02  0.16786695374E+03  0.12500000000E+03 0.  0.
</event>
<event>
 5    0  0.5634041E-005  0.2087879E+03  0.7546771E-02  0.1142529E+00
         21   -1    0    0  502  501  0.00000000000E+00  0.00000000000E+00  0.66536496218E+03  0.66536496218E+03  0.00000000000E+00 0.  1.
         21   -1    0    0  501  502 -0.00000000000E+00 -0.00000000000E+00 -0.65516486297E+02  0.65516486297E+02  0.00000000000E+00 0.  1.
         25    1    1    2    0    0 -0.32460801622E+02  0.63477447035E+02  0.13721460906E+03  0.19883646261E+03  0.12500000000E+03 0.  0.
         25    1    1    2    0    0  0.17517664482E+02 -0.13138373153E+02  0.23580535186E+03  0.26778470715E+03  0.12500000000E+03 0.  0.
         25    1    1    2    0    0  0.14943137139E+02 -0.50339073882E+02  0.22682851497E+03  0.26426027872E+03  0.12500000000E+03 0.  0.
</event>
<event>
 5    0  0.5634041E-005  0.5612412E+03  0.7546771E-02  0.9989250E-01
         21   -1    0    0  502  501  0.00000000000E+00  0.00000000000E+00  0.44289717529E+03  0.44289717529E+03  0.00000000000E+00 0.  1.
         21   -1    0    0  501  502 -0.00000000000E+00 -0.00000000000E+00 -0.71120728246E+03  0.71120728246E+03  0.00000000000E+00 0.  1.
         25    1    1    2    0    0 -0.47525065461E+03 -0.83594678854E+02 -0.21782435935E+03  0.54398870077E+03  0.12500000000E+03 0.  0.
         25    1    1    2    0    0  0.23719808053E+03 -0.95094279254E+02 -0.90181728318E+01  0.28462638457E+03  0.12500000000E+03 0.  0.
         25    1    1    2    0    0  0.23805257408E+03  0.17868895811E+03 -0.41467574986E+02  0.32548937241E+03  0.12500000000E+03 0.  0.
</event>
<event>
 5    0  0.5815289E-005  0.3422545E+03  0.7546771E-02  0.1065840E+00
         21   -1    0    0  502  501  0.00000000000E+00  0.00000000000E+00  0.59071906324E+03  0.59071906324E+03  0.00000000000E+00 0.  1.
         21   -1    0    0  501  502 -0.00000000000E+00 -0.00000000000E+00 -0.19829760502E+03  0.19829760502E+03  0.00000000000E+00 0.  1.
         25    1    1    2    0    0 -0.11565562931E+03  0.21828877315E+03  0.77513879123E+02  0.28750585130E+03  0.12500000000E+03 0.  0.
         25    1    1    2    0    0  0.11978009286E+03 -0.74418431829E+02  0.96849440239E+02  0.21187304623E+03  0.12500000000E+03 0.  0.
         25    1    1    2    0    0 -0.41244635523E+01 -0.14387034132E+03  0.21805813886E+03  0.28963777073E+03  0.12500000000E+03 0.  0.
</event>
<event>
 5    0  0.5634041E-005  0.3897625E+03  0.7546771E-02  0.1047383E+00
         21   -1    0    0  502  501  0.00000000000E+00  0.00000000000E+00  0.35903381710E+03  0.35903381710E+03  0.00000000000E+00 0. -1.
         21   -1    0    0  501  502 -0.00000000000E+00 -0.00000000000E+00 -0.42312107290E+03  0.42312107290E+03  0.00000000000E+00 0. -1.
         25    1    1    2    0    0  0.15547309460E+03 -0.17273765079E+02 -0.77513796414E+02  0.21471761628E+03  0.12500000000E+03 0.  0.
         25    1    1    2    0    0 -0.16969727428E+03  0.23487290135E+03  0.17427802071E+02  0.31605564853E+03  0.12500000000E+03 0.  0.
         25    1    1    2    0    0  0.14224179675E+02 -0.21759913627E+03 -0.40012614567E+01  0.25138162519E+03  0.12500000000E+03 0.  0.
</event>
<event>
 5    0  0.5634041E-005  0.2639927E+03  0.7546771E-02  0.1104768E+00
         21   -1    0    0  502  501  0.00000000000E+00  0.00000000000E+00  0.12674580057E+03  0.12674580057E+03  0.00000000000E+00 0.  1.
         21   -1    0    0  501  502 -0.00000000000E+00 -0.00000000000E+00 -0.54985764356E+03  0.54985764356E+03  0.00000000000E+00 0.  1.
         25    1    1    2    0    0  0.94750191956E+02 -0.34601494115E+02 -0.22316806868E+03  0.27496154121E+03  0.12500000000E+03 0.  0.
         25    1    1    2    0    0  0.26456973022E+02 -0.61704032324E+02 -0.43122787102E+02  0.14829677607E+03  0.12500000000E+03 0.  0.
         25    1    1    2    0    0 -0.12120716498E+03  0.96305526439E+02 -0.15682098721E+03  0.25334512684E+03  0.12500000000E+03 0.  0.
</event>
<event>
 5    0  0.5634041E-005  0.2990466E+03  0.7546771E-02  0.1085718E+00
         21   -1    0    0  502  501  0.00000000000E+00  0.00000000000E+00  0.38163653955E+03  0.38163653955E+03  0.00000000000E+00 0. -1.
         21   -1    0    0  501  502 -0.00000000000E+00 -0.00000000000E+00 -0.23433000444E+03  0.23433000444E+03  0.00000000000E+00 0. -1.
         25    1    1    2    0    0  0.46798606458E+02  0.13797270541E+03  0.12627368006E+03  0.22977514940E+03  0.12500000000E+03 0.  0.
         25    1    1    2    0    0 -0.13466076946E+03 -0.14279769000E+03  0.96135919748E+01  0.23289938654E+03  0.12500000000E+03 0.  0.
         25    1    1    2    0    0  0.87862162999E+02  0.48249845939E+01  0.11419263074E+02  0.15329200805E+03  0.12500000000E+03 0.  0.
</event>
<event>
 5    0  0.5634041E-005  0.3588248E+03  0.7546771E-02  0.1059050E+00
         21   -1    0    0  502  501  0.00000000000E+00  0.00000000000E+00  0.42340575790E+03  0.42340575790E+03  0.00000000000E+00 0. -1.
         21   -1    0    0  501  502 -0.00000000000E+00 -0.00000000000E+00 -0.30409428355E+03  0.30409428355E+03  0.00000000000E+00 0. -1.
         25    1    1    2    0    0  0.62588811461E+02  0.44411054929E+02  0.34385364082E+03  0.37383154953E+03  0.12500000000E+03 0.  0.
         25    1    1    2    0    0 -0.13223606978E+02 -0.89555660398E+01 -0.15013742084E+03  0.19601354820E+03  0.12500000000E+03 0.  0.
         25    1    1    2    0    0 -0.49365204483E+02 -0.35455488889E+02 -0.74404745637E+02  0.15765494372E+03  0.12500000000E+03 0.  0.
</event>
<event>
 5    0  0.5634041E-005  0.2195831E+03  0.7546771E-02  0.1134194E+00
         21   -1    0    0  502  501  0.00000000000E+00  0.00000000000E+00  0.43180103128E+02  0.43180103128E+02  0.00000000000E+00 0. -1.
         21   -1    0    0  501  502 -0.00000000000E+00 -0.00000000000E+00 -0.11166429792E+04  0.11166429792E+04  0.00000000000E+00 0. -1.
         25    1    1    2    0    0  0.23586822502E+02 -0.91570527867E+02 -0.27988259747E+03  0.32078149594E+03  0.12500000000E+03 0.  0.
         25    1    1    2    0    0  0.56299856345E+01  0.28741653445E+02 -0.41383153955E+03  0.43328895960E+03  0.12500000000E+03 0.  0.
         25    1    1    2    0    0 -0.29216808137E+02  0.62828874422E+02 -0.37974873904E+03  0.40575262678E+03  0.12500000000E+03 0.  0.
</event>
<event>
 5    0  0.6115003E-005  0.4684944E+03  0.7546771E-02  0.1022346E+00
         21   -1    0    0  502  501  0.00000000000E+00  0.00000000000E+00  0.87834071217E+03  0.87834071217E+03  0.00000000000E+00 0. -1.
         21   -1    0    0  501  502 -0.00000000000E+00 -0.00000000000E+00 -0.24988823924E+03  0.24988823924E+03  0.00000000000E+00 0. -1.
         25    1    1    2    0    0 -0.89276451118E+02  0.31950741016E+03  0.25863150768E+03  0.43882858457E+03  0.12500000000E+03 0.  0.
         25    1    1    2    0    0  0.18206537549E+03 -0.17462895634E+03  0.38412829042E+03  0.47625898085E+03  0.12500000000E+03 0.  0.
         25    1    1    2    0    0 -0.92788924371E+02 -0.14487845382E+03 -0.14307325157E+02  0.21314138599E+03  0.12500000000E+03 0.  0.
</event>
<event>
 5    0  0.5634041E-005  0.2460475E+03  0.7546771E-02  0.1115829E+00
         21   -1    0    0  502  501  0.00000000000E+00  0.00000000000E+00  0.18920326592E+03  0.18920326592E+03  0.00000000000E+00 0.  1.
         21   -1    0    0  501  502 -0.00000000000E+00 -0.00000000000E+00 -0.31996989185E+03  0.31996989185E+03  0.00000000000E+00 0.  1.
         25    1    1    2    0    0 -0.60339786085E+01 -0.43170713135E+01  0.69453219081E+02  0.14319146498E+03  0.12500000000E+03 0.  0.
         25    1    1    2    0    0  0.21776759378E+02 -0.47212722282E+02 -0.18466920103E+03  0.22897812603E+03  0.12500000000E+03 0.  0.
         25    1    1    2    0    0 -0.15742780769E+02  0.51529793595E+02 -0.15550643982E+02  0.13700356675E+03  0.12500000000E+03 0.  0.
</event>
<event>
 5    0  0.5634041E-005  0.3109820E+03  0.7546771E-02  0.1079876E+00
         21   -1    0    0  502  501  0.00000000000E+00  0.00000000000E+00  0.85959735384E+03  0.85959735384E+03  0.00000000000E+00 0. -1.
         21   -1    0    0  501  502 -0.00000000000E+00 -0.00000000000E+00 -0.11250596720E+03  0.11250596720E+03  0.00000000000E+00 0. -1.
         25    1    1    2    0    0  0.10135756369E+03 -0.10987965021E+03  0.42543003798E+03  0.46793440829E+03  0.12500000000E+03 0.  0.
         25    1    1    2    0    0  0.29625237100E+02  0.11325070964E+03  0.51317322437E+02  0.17877876129E+03  0.12500000000E+03 0.  0.
         25    1    1    2    0    0 -0.13098280079E+03 -0.33710594335E+01  0.27034402623E+03  0.32539015146E+03  0.12500000000E+03 0.  0.
</event>
<event>
 5    0  0.6480945E-005  0.7082772E+03  0.7546771E-02  0.9703181E-01
         21   -1    0    0  502  501  0.00000000000E+00  0.00000000000E+00  0.43008114926E+03  0.43008114926E+03  0.00000000000E+00 0.  1.
         21   -1    0    0  501  502 -0.00000000000E+00 -0.00000000000E+00 -0.11664232014E+04  0.11664232014E+04  0.00000000000E+00 0. -1.
         25    1    1    2    0    0  0.14828676164E+03  0.41488717607E+03 -0.63622523364E+03  0.78391828685E+03  0.12500000000E+03 0.  0.
         25    1    1    2    0    0  0.19380696491E+03 -0.14894709072E+03 -0.21325922322E+03  0.34763611977E+03  0.12500000000E+03 0.  0.
         25    1    1    2    0    0 -0.34209372655E+03 -0.26594008534E+03  0.11314240470E+03  0.46494994406E+03  0.12500000000E+03 0.  0.
</event>
<event>
 5    0  0.5634041E-005  0.3736824E+03  0.7546771E-02  0.1053294E+00
         21   -1    0    0  502  501  0.00000000000E+00  0.00000000000E+00  0.21082906177E+03  0.21082906177E+03  0.00000000000E+00 0. -1.
         21   -1    0    0  501  502 -0.00000000000E+00 -0.00000000000E+00 -0.66233070324E+03  0.66233070324E+03  0.00000000000E+00 0. -1.
         25    1    1    2    0    0 -0.80369325691E+02 -0.61360409866E+02 -0.43905073182E+03  0.46756269476E+03  0.12500000000E+03 0.  0.
         25    1    1    2    0    0 -0.81496539364E+02 -0.22830548184E+02 -0.84493983812E+02  0.17299466223E+03  0.12500000000E+03 0.  0.
         25    1    1    2    0    0  0.16186586506E+03  0.84190958050E+02  0.72043074166E+02  0.23260240803E+03  0.12500000000E+03 0.  0.
</event>
<event>
 5    0  0.5634041E-005  0.3233630E+03  0.7546771E-02  0.1074112E+00
         21   -1    0    0  502  501  0.00000000000E+00  0.00000000000E+00  0.14685147286E+03  0.14685147286E+03  0.00000000000E+00 0. -1.
         21   -1    0    0  501  502 -0.00000000000E+00 -0.00000000000E+00 -0.71203647088E+03  0.71203647088E+03  0.00000000000E+00 0. -1.
         25    1    1    2    0    0  0.11126076520E+03  0.18058840024E+03 -0.23840215594E+03  0.34271229352E+03  0.12500000000E+03 0.  0.
         25    1    1    2    0    0  0.16212848444E+02  0.21643279222E+02 -0.12920217289E+03  0.18179518549E+03  0.12500000000E+03 0.  0.
         25    1    1    2    0    0 -0.12747361364E+03 -0.20223167946E+03 -0.19758066920E+03  0.33438046473E+03  0.12500000000E+03 0.  0.
</event>
<event>
 5    0  0.5634041E-005  0.2917769E+03  0.7546771E-02  0.1089425E+00
         21   -1    0    0  502  501  0.00000000000E+00  0.00000000000E+00  0.16257543755E+03  0.16257543755E+03  0.00000000000E+00 0.  1.
         21   -1    0    0  501  502 -0.00000000000E+00 -0.00000000000E+00 -0.52365679046E+03  0.52365679046E+03  0.00000000000E+00 0.  1.
         25    1    1    2    0    0 -0.22712130074E+01 -0.20160600568E+02 -0.65197863204E+02  0.14243373754E+03  0.12500000000E+03 0.  0.
         25    1    1    2    0    0  0.47103247508E+02  0.19018616301E+03 -0.10225882917E+03  0.25391211210E+03  0.12500000000E+03 0.  0.
         25    1    1    2    0    0 -0.44832034500E+02 -0.17002556244E+03 -0.19362466054E+03  0.28988637838E+03  0.12500000000E+03 0.  0.
</event>
<event>
 5    0  0.5725572E-005  0.2570816E+03  0.7546771E-02  0.1108909E+00
         21   -1    0    0  502  501  0.00000000000E+00  0.00000000000E+00  0.72422136207E+03  0.72422136207E+03  0.00000000000E+00 0. -1.
         21   -1    0    0  501  502 -0.00000000000E+00 -0.00000000000E+00 -0.91257972252E+02  0.91257972252E+02  0.00000000000E+00 0. -1.
         25    1    1    2    0    0 -0.43825864985E+02  0.87584908587E+01  0.67428773871E+02  0.14889277064E+03  0.12500000000E+03 0.  0.
         25    1    1    2    0    0  0.13772463937E+03 -0.38342088007E+02  0.35602499060E+03  0.40350586852E+03  0.12500000000E+03 0.  0.
         25    1    1    2    0    0 -0.93898774382E+02  0.29583597148E+02  0.20950962535E+03  0.26308069516E+03  0.12500000000E+03 0.  0.
</event>
<event>
 5    0  0.5634041E-005  0.2946916E+03  0.7546771E-02  0.1087925E+00
         21   -1    0    0  502  501  0.00000000000E+00  0.00000000000E+00  0.50899590855E+03  0.50899590855E+03  0.00000000000E+00 0. -1.
         21   -1    0    0  501  502 -0.00000000000E+00 -0.00000000000E+00 -0.17061660153E+03  0.17061660153E+03  0.00000000000E+00 0. -1.
         25    1    1    2    0    0  0.84351290155E+02  0.13237129906E+03  0.58203779506E+02  0.20892577848E+03  0.12500000000E+03 0.  0.
         25    1    1    2    0    0 -0.14197709176E+02 -0.14277044853E+03  0.45746131346E+02  0.19571071624E+03  0.12500000000E+03 0.  0.
         25    1    1    2    0    0 -0.70153580978E+02  0.10399149473E+02  0.23442939617E+03  0.27497601536E+03  0.12500000000E+03 0.  0.
</event>
<event>
 5    0  0.5634041E-005  0.3108523E+03  0.7546771E-02  0.1079938E+00
         21   -1    0    0  502  501  0.00000000000E+00  0.00000000000E+00  0.40404628706E+03  0.40404628706E+03  0.00000000000E+00 0. -1.
         21   -1    0    0  501  502 -0.00000000000E+00 -0.00000000000E+00 -0.23915371560E+03  0.23915371560E+03  0.00000000000E+00 0. -1.
         25    1    1    2    0    0  0.13656121355E+03 -0.12888700031E+02  0.13731426395E+02  0.18608770971E+03  0.12500000000E+03 0.  0.
         25    1    1    2    0    0  0.40352870006E+02  0.33816131968E+02 -0.64973789654E+02  0.15039440894E+03  0.12500000000E+03 0.  0.
         25    1    1    2    0    0 -0.17691408356E+03 -0.20927431937E+02  0.21613493471E+03  0.30671788401E+03  0.12500000000E+03 0.  0.
</event>
<event>
 5    0  0.5634041E-005  0.3706660E+03  0.7546771E-02  0.1054439E+00
         21   -1    0    0  502  501  0.00000000000E+00  0.00000000000E+00  0.11284323281E+03  0.11284323281E+03  0.00000000000E+00 0. -1.
         21   -1    0    0  501  502 -0.00000000000E+00 -0.00000000000E+00 -0.12175591687E+04  0.12175591687E+04  0.00000000000E+00 0. -1.
         25    1    1    2    0    0 -0.10951424093E+03 -0.42199297202E+01 -0.64814218287E+02  0.17842942488E+03  0.12500000000E+03 0.  0.
         25    1    1    2    0    0 -0.12582441886E+03 -0.83171336734E+02 -0.59151897915E+03  0.62311231599E+03  0.12500000000E+03 0.  0.
         25    1    1    2    0    0  0.23533865979E+03  0.87391266454E+02 -0.44838273848E+03  0.52886066067E+03  0.12500000000E+03 0.  0.
</event>
<event>
 5    0  0.5634041E-005  0.4054769E+03  0.7546771E-02  0.1041900E+00
         21   -1    0    0  502  501  0.00000000000E+00  0.00000000000E+00  0.36173147104E+03  0.36173147104E+03  0.00000000000E+00 0.  1.
         21   -1    0    0  501  502 -0.00000000000E+00 -0.00000000000E+00 -0.45451260735E+03  0.45451260735E+03  0.00000000000E+00 0.  1.
         25    1    1    2    0    0 -0.12968044132E+03  0.16201229638E+02 -0.23392610405E+03  0.29567874266E+03  0.12500000000E+03 0.  0.
         25    1    1    2    0    0  0.20194234135E+03  0.14733359545E+03  0.10930926906E+03  0.30010233902E+03  0.12500000000E+03 0.  0.
         25    1    1    2    0    0 -0.72261900031E+02 -0.16353482508E+03  0.31835698673E+02  0.22046299672E+03  0.12500000000E+03 0.  0.
</event>
<event>
 5    0  0.5634041E-005  0.2319179E+03  0.7546771E-02  0.1125297E+00
         21   -1    0    0  502  501  0.00000000000E+00  0.00000000000E+00  0.50449478553E+02  0.50449478553E+02  0.00000000000E+00 0. -1.
         21   -1    0    0  501  502 -0.00000000000E+00 -0.00000000000E+00 -0.10661344789E+04  0.10661344789E+04  0.00000000000E+00 0. -1.
         25    1    1    2    0    0  0.36752833531E+02 -0.43081212725E+02 -0.35574184717E+03  0.38129256941E+03  0.12500000000E+03 0.  0.
         25    1    1    2    0    0  0.47997336765E+02  0.83701600732E+02 -0.24114164474E+03  0.28824294463E+03  0.12500000000E+03 0.  0.
         25    1    1    2    0    0 -0.84750170296E+02 -0.40620388007E+02 -0.41880150846E+03  0.44704844343E+03  0.12500000000E+03 0.  0.
</event>
<event>
 5    0  0.5634041E-005  0.3443935E+03  0.7546771E-02  0.1064940E+00
         21   -1    0    0  502  501  0.00000000000E+00  0.00000000000E+00  0.14183260030E+03  0.14183260030E+03  0.00000000000E+00 0. -1.
         21   -1    0    0  501  502 -0.00000000000E+00 -0.00000000000E+00 -0.83624566845E+03  0.83624566845E+03  0.00000000000E+00 0.  1.
         25    1    1    2    0    0 -0.24471941235E+03 -0.98314767586E+02 -0.23925443855E+03  0.37738716283E+03  0.12500000000E+03 0.  0.
         25    1    1    2    0    0  0.21646749258E+03  0.74081415341E+02 -0.28431779760E+03  0.38575619435E+03  0.12500000000E+03 0.  0.
         25    1    1    2    0    0  0.28251919769E+02  0.24233352245E+02 -0.17084083200E+03  0.21493491157E+03  0.12500000000E+03 0.  0.
</event>
<event>
 5    0  0.5634041E-005  0.2388319E+03  0.7546771E-02  0.1120573E+00
         21   -1    0    0  502  501  0.00000000000E+00  0.00000000000E+00  0.10399802960E+03  0.10399802960E+03  0.00000000000E+00 0.  1.
         21   -1    0    0  501  502 -0.00000000000E+00 -0.00000000000E+00 -0.54847833266E+03  0.54847833266E+03  0.00000000000E+00 0.  1.
         25    1    1    2    0    0 -0.19311060098E+02 -0.28781664847E+02 -0.17494430843E+03  0.21778845774E+03  0.12500000000E+03 0.  0.
         25    1    1    2    0    0 -0.76050079733E+02 -0.62559509526E+02 -0.13032598666E+03  0.20568706731E+03  0.12500000000E+03 0.  0.
         25    1    1    2    0    0  0.95361139831E+02  0.91341174373E+02 -0.13921000796E+03  0.22900083721E+03  0.12500000000E+03 0.  0.
</event>
<event>
 5    0  0.5634041E-005  0.4103320E+03  0.7546771E-02  0.1040260E+00
         21   -1    0    0  502  501  0.00000000000E+00  0.00000000000E+00  0.28920306099E+03  0.28920306099E+03  0.00000000000E+00 0. -1.
         21   -1    0    0  501  502 -0.00000000000E+00 -0.00000000000E+00 -0.58219408775E+03  0.58219408775E+03  0.00000000000E+00 0. -1.
         25    1    1    2    0    0  0.63819666577E+02 -0.14467608971E+03 -0.27632239698E+03  0.34202805126E+03  0.12500000000E+03 0.  0.
         25    1    1    2    0    0  0.11530750297E+03 -0.92695671245E+00 -0.15721759742E+03  0.23160106310E+03  0.12500000000E+03 0.  0.
         25    1    1    2    0    0 -0.17912716955E+03  0.14560304642E+03  0.14054896764E+03  0.29776803438E+03  0.12500000000E+03 0.  0.
</event>
<event>
 5    0  0.5634041E-005  0.3648089E+03  0.7546771E-02  0.1056696E+00
         21   -1    0    0  502  501  0.00000000000E+00  0.00000000000E+00  0.18711826387E+03  0.18711826387E+03  0.00000000000E+00 0.  1.
         21   -1    0    0  501  502 -0.00000000000E+00 -0.00000000000E+00 -0.71123742790E+03  0.71123742790E+03  0.00000000000E+00 0.  1.
         25    1    1    2    0    0 -0.40285536135E+02 -0.13323152286E+03 -0.90474062406E+02  0.20780788983E+03  0.12500000000E+03 0.  0.
         25    1    1    2    0    0  0.19895146964E+03  0.91316054007E+02 -0.52996362674E+02  0.25759255317E+03  0.12500000000E+03 0.  0.
         25    1    1    2    0    0 -0.15866593350E+03  0.41915468853E+02 -0.38064873895E+03  0.43295524878E+03  0.12500000000E+03 0.  0.
</event>
<event>
 5    0  0.5634041E-005  0.2961432E+03  0.7546771E-02  0.1087185E+00
         21   -1    0    0  502  501  0.00000000000E+00  0.00000000000E+00  0.14564526747E+03  0.14564526747E+03  0.00000000000E+00 0.  1.
         21   -1    0    0  501  502 -0.00000000000E+00 -0.00000000000E+00 -0.60215360896E+03  0.60215360896E+03  0.00000000000E+00 0.  1.
         25    1    1    2    0    0  0.60222844766E+02 -0.12369410562E+03 -0.18130622075E+03  0.25966125718E+03  0.12500000000E+03 0.  0.
         25    1    1    2    0    0 -0.29363736949E+02  0.12569156758E+03 -0.30680429551E+03  0.35554813310E+03  0.12500000000E+03 0.  0.
         25    1    1    2    0    0 -0.30859107817E+02 -0.19974619601E+01  0.31602174767E+02  0.13258948616E+03  0.12500000000E+03 0.  0.
</event>
<event>
 5    0  0.5634041E-005  0.5019426E+03  0.7546771E-02  0.1013273E+00
         21   -1    0    0  502  501  0.00000000000E+00  0.00000000000E+00  0.87643532807E+03  0.87643532807E+03  0.00000000000E+00 0.  1.
         21   -1    0    0  501  502 -0.00000000000E+00 -0.00000000000E+00 -0.28746719802E+03  0.28746719802E+03  0.00000000000E+00 0.  1.
         25    1    1    2    0    0  0.35816997142E+03  0.19543533772E+02 -0.25520199260E+02  0.38071506236E+03  0.12500000000E+03 0.  0.
         25    1    1    2    0    0 -0.17939175960E+03  0.75149681025E+02  0.40461509082E+03  0.46601207033E+03  0.12500000000E+03 0.  0.
         25    1    1    2    0    0 -0.17877821182E+03 -0.94693214797E+02  0.20987323849E+03  0.31717539341E+03  0.12500000000E+03 0.  0.
</event>
<event>
 5    0  0.5634041E-005  0.3918562E+03  0.7546771E-02  0.1046637E+00
         21   -1    0    0  502  501  0.00000000000E+00  0.00000000000E+00  0.84125359892E+02  0.84125359892E+02  0.00000000000E+00 0. -1.
         21   -1    0    0  501  502 -0.00000000000E+00 -0.00000000000E+00 -0.18252673994E+04  0.18252673994E+04  0.00000000000E+00 0. -1.
         25    1    1    2    0    0 -0.54973464768E+02 -0.74857774905E+02 -0.18746745940E+03  0.24371051809E+03  0.12500000000E+03 0.  0.
         25    1    1    2    0    0  0.10729952822E+03  0.29698367166E+03 -0.84012341205E+03  0.90617042407E+03  0.12500000000E+03 0.  0.
         25    1    1    2    0    0 -0.52326063456E+02 -0.22212589676E+03 -0.71355116808E+03  0.75951181716E+03  0.12500000000E+03 0.  0.
</event>
<event>
 5    0  0.5634041E-005  0.3136507E+03  0.7546771E-02  0.1078609E+00
         21   -1    0    0  502  501  0.00000000000E+00  0.00000000000E+00  0.20473710719E+03  0.20473710719E+03  0.00000000000E+00 0. -1.
         21   -1    0    0  501  502 -0.00000000000E+00 -0.00000000000E+00 -0.48050290478E+03  0.48050290478E+03  0.00000000000E+00 0. -1.
         25    1    1    2    0    0 -0.51168355467E+02  0.10114086205E+03 -0.25136184423E+03  0.30274651329E+03  0.12500000000E+03 0.  0.
         25    1    1    2    0    0 -0.49995539696E+02 -0.31520289845E+01  0.90171082910E+02  0.16206576896E+03  0.12500000000E+03 0.  0.
         25    1    1    2    0    0  0.10116389516E+03 -0.97988833064E+02 -0.11457503628E+03  0.22042772972E+03  0.12500000000E+03 0.  0.
</event>
<event>
 5    0  0.5634041E-005  0.3047325E+03  0.7546771E-02  0.1082899E+00
         21   -1    0    0  502  501  0.00000000000E+00  0.00000000000E+00  0.38020281977E+03  0.38020281977E+03  0.00000000000E+00 0.  1.
         21   -1    0    0  501  502 -0.00000000000E+00 -0.00000000000E+00 -0.24424298752E+03  0.24424298752E+03  0.00000000000E+00 0.  1.
         25    1    1    2    0    0 -0.13175642313E+03  0.15030428039E+03 -0.65557413428E+01  0.23583704011E+03  0.12500000000E+03 0.  0.
         25    1    1    2    0    0  0.14916340433E+03 -0.11636262488E+03  0.61867242402E+02  0.23503731053E+03  0.12500000000E+03 0.  0.
         25    1    1    2    0    0 -0.17406981194E+02 -0.33941655511E+02  0.80648331190E+02  0.15357145665E+03  0.12500000000E+03 0.  0.
</event>
<event>
 5    0  0.5634041E-005  0.2411612E+03  0.7546771E-02  0.1119022E+00
         21   -1    0    0  502  501  0.00000000000E+00  0.00000000000E+00  0.45640545241E+02  0.45640545241E+02  0.00000000000E+00 0. -1.
         21   -1    0    0  501  502 -0.00000000000E+00 -0.00000000000E+00 -0.12742778868E+04  0.12742778868E+04  0.00000000000E+00 0. -1.
         25    1    1    2    0    0  0.58677502724E+02 -0.46474267349E+02 -0.59882361798E+03  0.61629346281E+03  0.12500000000E+03 0.  0.
         25    1    1    2    0    0 -0.61309263176E+02  0.87755878335E+02 -0.23093505696E+03  0.28357700976E+03  0.12500000000E+03 0.  0.
         25    1    1    2    0    0  0.26317604525E+01 -0.41281610985E+02 -0.39887866662E+03  0.42004795947E+03  0.12500000000E+03 0.  0.
</event>
<event>
 5    0  0.5634041E-005  0.3073993E+03  0.7546771E-02  0.1081599E+00
         21   -1    0    0  502  501  0.00000000000E+00  0.00000000000E+00  0.91682192920E+03  0.91682192920E+03  0.00000000000E+00 0. -1.
         21   -1    0    0  501  502 -0.00000000000E+00 -0.00000000000E+00 -0.10306723254E+03  0.10306723254E+03  0.00000000000E+00 0. -1.
         25    1    1    2    0    0  0.30307355568E+02  0.10622101877E+03  0.36328868118E+03  0.39975630890E+03  0.12500000000E+03 0.  0.
         25    1    1    2    0    0 -0.81938817579E+02 -0.13888709898E+03  0.71110358766E+02  0.21606776533E+03  0.12500000000E+03 0.  0.
         25    1    1    2    0    0  0.51631462011E+02  0.32666080211E+02  0.37935565671E+03  0.40406508751E+03  0.12500000000E+03 0.  0.
</event>
<event>
 5    0  0.5634041E-005  0.2672391E+03  0.7546771E-02  0.1102870E+00
         21   -1    0    0  502  501  0.00000000000E+00  0.00000000000E+00  0.89004101703E+02  0.89004101703E+02  0.00000000000E+00 0. -1.
         21   -1    0    0  501  502 -0.00000000000E+00 -0.00000000000E+00 -0.80239828146E+03  0.80239828146E+03  0.00000000000E+00 0. -1.
         25    1    1    2    0    0 -0.94984142622E+02 -0.10790448301E+02 -0.10280338122E+03  0.18796796619E+03  0.12500000000E+03 0.  0.
         25    1    1    2    0    0  0.98349038235E+02 -0.36666889304E+02 -0.51168708011E+03  0.53708999436E+03  0.12500000000E+03 0.  0.
         25    1    1    2    0    0 -0.33648956136E+01  0.47457337605E+02 -0.98903718427E+02  0.16634442261E+03  0.12500000000E+03 0.  0.
</event>
<event>
 5    0  0.5634041E-005  0.2355615E+03  0.7546771E-02  0.1122785E+00
         21   -1    0    0  502  501  0.00000000000E+00  0.00000000000E+00  0.22569960728E+03  0.22569960728E+03  0.00000000000E+00 0. -1.
         21   -1    0    0  501  502 -0.00000000000E+00 -0.00000000000E+00 -0.24585436516E+03  0.24585436516E+03  0.00000000000E+00 0. -1.
         25    1    1    2    0    0  0.51407970670E+02 -0.52118122889E+02 -0.18629586461E+02  0.14605183899E+03  0.12500000000E+03 0.  0.
         25    1    1    2    0    0  0.34320964121E+02 -0.46503111724E+02  0.32494536565E+02  0.14149686528E+03  0.12500000000E+03 0.  0.
         25    1    1    2    0    0 -0.85728934791E+02  0.98621234613E+02 -0.34019707984E+02  0.18400526815E+03  0.12500000000E+03 0.  0.
</event>
<event>
 5    0  0.5634041E-005  0.2616474E+03  0.7546771E-02  0.1106157E+00
         21   -1    0    0  502  501  0.00000000000E+00  0.00000000000E+00  0.12526843816E+04  0.12526843816E+04  0.00000000000E+00 0.  1.
         21   -1    0    0  501  502 -0.00000000000E+00 -0.00000000000E+00 -0.54650132425E+02  0.54650132425E+02  0.00000000000E+00 0.  1.
         25    1    1    2    0    0  0.36310024175E+02  0.15345705808E+02  0.14597526570E+03  0.19618278910E+03  0.12500000000E+03 0.  0.
         25    1    1    2    0    0  0.37548784118E+02 -0.15209096612E+02  0.15854901802E+03  0.20592236140E+03  0.12500000000E+03 0.  0.
         25    1    1    2    0    0 -0.73858808293E+02 -0.13660919553E+00  0.89350996549E+03  0.90522936356E+03  0.12500000000E+03 0.  0.
</event>
<event>
 5    0  0.5634041E-005  0.3708158E+03  0.7546771E-02  0.1054381E+00
         21   -1    0    0  502  501  0.00000000000E+00  0.00000000000E+00  0.47198588302E+03  0.47198588302E+03  0.00000000000E+00 0. -1.
         21   -1    0    0  501  502 -0.00000000000E+00 -0.00000000000E+00 -0.29133145322E+03  0.29133145322E+03  0.00000000000E+00 0. -1.
         25    1    1    2    0    0 -0.13955352264E+03  0.51423210969E+02  0.20225019161E+03  0.28044548903E+03  0.12500000000E+03 0.  0.
         25    1    1    2    0    0 -0.39890472363E+02 -0.17654130053E+03 -0.60028989513E+02  0.22800561432E+03  0.12500000000E+03 0.  0.
         25    1    1    2    0    0  0.17944399500E+03  0.12511808956E+03  0.38433227699E+02  0.25486623289E+03  0.12500000000E+03 0.  0.
</event>
<event>
 5    0  0.5634041E-005  0.3383242E+03  0.7546771E-02  0.1067512E+00
         21   -1    0    0  502  501  0.00000000000E+00  0.00000000000E+00  0.22703127779E+04  0.22703127779E+04  0.00000000000E+00 0. -1.
         21   -1    0    0  501  502 -0.00000000000E+00 -0.00000000000E+00 -0.50417413453E+02  0.50417413453E+02  0.00000000000E+00 0. -1.
         25    1    1    2    0    0  0.26082948723E+02  0.19679427626E+03  0.76271293886E+03  0.79797514654E+03  0.12500000000E+03 0.  0.
         25    1    1    2    0    0 -0.15364376143E+03 -0.37270995816E+02  0.61445460584E+03  0.64666451518E+03  0.12500000000E+03 0.  0.
         25    1    1    2    0    0  0.12756081271E+03 -0.15952328044E+03  0.84272781971E+03  0.87609052960E+03  0.12500000000E+03 0.  0.
</event>
<event>
 5    0  0.5634041E-005  0.4512498E+03  0.7546771E-02  0.1027350E+00
         21   -1    0    0  502  501  0.00000000000E+00  0.00000000000E+00  0.11462157052E+04  0.11462157052E+04  0.00000000000E+00 0.  1.
         21   -1    0    0  501  502 -0.00000000000E+00 -0.00000000000E+00 -0.17765103881E+03  0.17765103881E+03  0.00000000000E+00 0.  1.
         25    1    1    2    0    0 -0.17724736843E+03  0.25137337832E+03  0.81403885626E+03  0.87914132223E+03  0.12500000000E+03 0.  0.
         25    1    1    2    0    0  0.12459183204E+03 -0.11424701371E+03  0.23488191453E+02  0.21154715760E+03  0.12500000000E+03 0.  0.
         25    1    1    2    0    0  0.52655536386E+02 -0.13712636461E+03  0.13103761869E+03  0.23317826420E+03  0.12500000000E+03 0.  0.
</event>
<event>
 5    0  0.5634041E-005  0.2533005E+03  0.7546771E-02  0.1111237E+00
         21   -1    0    0  502  501  0.00000000000E+00  0.00000000000E+00  0.64849530729E+03  0.64849530729E+03  0.00000000000E+00 0.  1.
         21   -1    0    0  501  502 -0.00000000000E+00 -0.00000000000E+00 -0.98938487419E+02  0.98938487419E+02  0.00000000000E+00 0.  1.
         25    1    1    2    0    0  0.38930648702E+02  0.20836137767E+02  0.15194051769E+03  0.20164488826E+03  0.12500000000E+03 0.  0.
         25    1    1    2    0    0 -0.10539479247E+03 -0.11570875605E+03  0.17929379086E+03  0.26882678800E+03  0.12500000000E+03 0.  0.
         25    1    1    2    0    0  0.66464143770E+02  0.94872618280E+02  0.21832251132E+03  0.27696211845E+03  0.12500000000E+03 0.  0.
</event>
<event>
 5    0  0.5634041E-005  0.4623380E+03  0.7546771E-02  0.1024105E+00
         21   -1    0    0  502  501  0.00000000000E+00  0.00000000000E+00  0.26389474875E+03  0.26389474875E+03  0.00000000000E+00 0. -1.
         21   -1    0    0  501  502 -0.00000000000E+00 -0.00000000000E+00 -0.81000640060E+03  0.81000640060E+03  0.00000000000E+00 0. -1.
         25    1    1    2    0    0  0.28455936573E+03 -0.10660890924E+03 -0.19394834764E+03  0.38155006710E+03  0.12500000000E+03 0.  0.
         25    1    1    2    0    0  0.60594892419E+02 -0.38010592800E+02 -0.24384692315E+03  0.28320110890E+03  0.12500000000E+03 0.  0.
         25    1    1    2    0    0 -0.34515425815E+03  0.14461950204E+03 -0.10831638106E+03  0.40914997335E+03  0.12500000000E+03 0.  0.
</event>
<event>
 5    0  0.5634041E-005  0.2617962E+03  0.7546771E-02  0.1106069E+00
         21   -1    0    0  502  501  0.00000000000E+00  0.00000000000E+00  0.69574367412E+03  0.69574367412E+03  0.00000000000E+00 0.  1.
         21   -1    0    0  501  502 -0.00000000000E+00 -0.00000000000E+00 -0.98509360884E+02  0.98509360884E+02  0.00000000000E+00 0.  1.
         25    1    1    2    0    0 -0.64378748342E+02 -0.61836541881E+02  0.31284094586E+03  0.34851519129E+03  0.12500000000E+03 0.  0.
         25    1    1    2    0    0  0.11244634692E+03 -0.36617554093E+02  0.10695736539E+03  0.20260775951E+03  0.12500000000E+03 0.  0.
         25    1    1    2    0    0 -0.48067598575E+02  0.98454095974E+02  0.17743600198E+03  0.24313008421E+03  0.12500000000E+03 0.  0.
</event>
<event>
 5    0  0.5634041E-005  0.4045959E+03  0.7546771E-02  0.1042200E+00
         21   -1    0    0  502  501  0.00000000000E+00  0.00000000000E+00  0.40029571443E+03  0.40029571443E+03  0.00000000000E+00 0. -1.
         21   -1    0    0  501  502 -0.00000000000E+00 -0.00000000000E+00 -0.40894225243E+03  0.40894225243E+03  0.00000000000E+00 0. -1.
         25    1    1    2    0    0  0.20561545522E+02  0.13069035979E+03 -0.24128831478E+03  0.30223798263E+03  0.12500000000E+03 0.  0.
         25    1    1    2    0    0  0.61057431568E+02  0.80307615445E+02  0.18354540249E+03  0.24390825698E+03  0.12500000000E+03 0.  0.
         25    1    1    2    0    0 -0.81618977090E+02 -0.21099797524E+03  0.49096374292E+02  0.26309172724E+03  0.12500000000E+03 0.  0.
</event>
<event>
 5    0  0.5634041E-005  0.2439019E+03  0.7546771E-02  0.1117220E+00
         21   -1    0    0  502  501  0.00000000000E+00  0.00000000000E+00  0.51878948516E+03  0.51878948516E+03  0.00000000000E+00 0. -1.
         21   -1    0    0  501  502 -0.00000000000E+00 -0.00000000000E+00 -0.11466722393E+03  0.11466722393E+03  0.00000000000E+00 0. -1.
         25    1    1    2    0    0 -0.82420829370E+02  0.17361743807E+02  0.10625516033E+03  0.18441741339E+03  0.12500000000E+03 0.  0.
         25    1    1    2    0    0 -0.18957102053E+02  0.31672064747E+02  0.23633884689E+03  0.26989542781E+03  0.12500000000E+03 0.  0.
         25    1    1    2    0    0  0.10137793142E+03 -0.49033808555E+02  0.61528254004E+02  0.17914386789E+03  0.12500000000E+03 0.  0.
</event>
<event>
 5    0  0.5634041E-005  0.3205311E+03  0.7546771E-02  0.1075405E+00
         21   -1    0    0  502  501  0.00000000000E+00  0.00000000000E+00  0.93709944841E+03  0.93709944841E+03  0.00000000000E+00 0. -1.
         21   -1    0    0  501  502 -0.00000000000E+00 -0.00000000000E+00 -0.10963639985E+03  0.10963639985E+03  0.00000000000E+00 0. -1.
         25    1    1    2    0    0  0.10984199849E+03 -0.19875679960E+03  0.22347861556E+03  0.34225315430E+03  0.12500000000E+03 0.  0.
         25    1    1    2    0    0 -0.83988677986E+02  0.10384579153E+03  0.20386474766E+03  0.27390487727E+03  0.12500000000E+03 0.  0.
         25    1    1    2    0    0 -0.25853320500E+02  0.94911008070E+02  0.40011968534E+03  0.43057781670E+03  0.12500000000E+03 0.  0.
</event>
<event>
 5    0  0.5634041E-005  0.4391719E+03  0.7546771E-02  0.1031001E+00
         21   -1    0    0  502  501  0.00000000000E+00  0.00000000000E+00  0.14295885621E+04  0.14295885621E+04  0.00000000000E+00 0. -1.
         21   -1    0    0  501  502 -0.00000000000E+00 -0.00000000000E+00 -0.13491429029E+03  0.13491429029E+03  0.00000000000E+00 0. -1.
         25    1    1    2    0    0  0.11950236847E+03 -0.16839796586E+03  0.28752698989E+03  0.37541371964E+03  0.12500000000E+03 0.  0.
         25    1    1    2    0    0 -0.22391216173E+03  0.23108668806E+03  0.28949430597E+03  0.45052154972E+03  0.12500000000E+03 0.  0.
         25    1    1    2    0    0  0.10440979326E+03 -0.62688722197E+02  0.71765297594E+03  0.73856758303E+03  0.12500000000E+03 0.  0.
</event>
<event>
 5    0  0.6108664E-005  0.2644501E+03  0.7546771E-02  0.1104499E+00
         21   -1    0    0  502  501  0.00000000000E+00  0.00000000000E+00  0.41653743079E+03  0.41653743079E+03  0.00000000000E+00 0.  1.
         21   -1    0    0  501  502 -0.00000000000E+00 -0.00000000000E+00 -0.16789327809E+03  0.16789327809E+03  0.00000000000E+00 0.  1.
         25    1    1    2    0    0 -0.86453276954E+02  0.47633045402E+02  0.12420226376E+03  0.20197593528E+03  0.12500000000E+03 0.  0.
         25    1    1    2    0    0  0.86654928344E+01  0.94310398710E+02  0.46203191413E+02  0.16349090791E+03  0.12500000000E+03 0.  0.
         25    1    1    2    0    0  0.77787784119E+02 -0.14194344411E+03  0.78238697528E+02  0.21896386568E+03  0.12500000000E+03 0.  0.
</event>
<event>
 5    0  0.5634041E-005  0.3536514E+03  0.7546771E-02  0.1061126E+00
         21   -1    0    0  502  501  0.00000000000E+00  0.00000000000E+00  0.23387172123E+03  0.23387172123E+03  0.00000000000E+00 0. -1.
         21   -1    0    0  501  502 -0.00000000000E+00 -0.00000000000E+00 -0.53477745441E+03  0.53477745441E+03  0.00000000000E+00 0. -1.
         25    1    1    2    0    0  0.22644572155E+03 -0.11400927424E+03 -0.24283121891E+03  0.37264967503E+03  0.12500000000E+03 0.  0.
         25    1    1    2    0    0 -0.15078730480E+03  0.86187307003E+01  0.24950199172E+02  0.19763250301E+03  0.12500000000E+03 0.  0.
         25    1    1    2    0    0 -0.75658416757E+02  0.10539054354E+03 -0.83024713445E+02  0.19836699760E+03  0.12500000000E+03 0.  0.
</event>
<event>
 5    0  0.5634041E-005  0.2795585E+03  0.7546771E-02  0.1095930E+00
         21   -1    0    0  502  501  0.00000000000E+00  0.00000000000E+00  0.89246357563E+03  0.89246357563E+03  0.00000000000E+00 0. -1.
         21   -1    0    0  501  502 -0.00000000000E+00 -0.00000000000E+00 -0.87569914620E+02  0.87569914620E+02  0.00000000000E+00 0. -1.
         25    1    1    2    0    0  0.73949468883E+01 -0.85769899212E+02  0.10365832125E+03  0.18379664963E+03  0.12500000000E+03 0.  0.
         25    1    1    2    0    0  0.11294509248E+02  0.10200428344E+03  0.12050443885E+03  0.20168976068E+03  0.12500000000E+03 0.  0.
         25    1    1    2    0    0 -0.18689456136E+02 -0.16234384225E+02  0.58073090091E+03  0.59454707995E+03  0.12500000000E+03 0.  0.
</event>
<event>
 5    0  0.5732339E-005  0.2974935E+03  0.7546771E-02  0.1086500E+00
         21   -1    0    0  502  501  0.00000000000E+00  0.00000000000E+00  0.91144718746E+03  0.91144718746E+03  0.00000000000E+00 0.  1.
         21   -1    0    0  501  502 -0.00000000000E+00 -0.00000000000E+00 -0.97100919912E+02  0.97100919912E+02  0.00000000000E+00 0. -1.
         25    1    1    2    0    0 -0.46752960674E+02  0.17051865535E+03  0.18660785055E+03  0.28584950768E+03  0.12500000000E+03 0.  0.
         25    1    1    2    0    0  0.58667216921E+02 -0.97127465272E+02  0.15897758598E+03  0.23189320752E+03  0.12500000000E+03 0.  0.
         25    1    1    2    0    0 -0.11914256248E+02 -0.73391190079E+02  0.46876083102E+03  0.49080539217E+03  0.12500000000E+03 0.  0.
</event>
<event>
 5    0  0.5634041E-005  0.2978109E+03  0.7546771E-02  0.1086340E+00
         21   -1    0    0  502  501  0.00000000000E+00  0.00000000000E+00  0.60887841227E+02  0.60887841227E+02  0.00000000000E+00 0.  1.
         21   -1    0    0  501  502 -0.00000000000E+00 -0.00000000000E+00 -0.14566348561E+04  0.14566348561E+04  0.00000000000E+00 0.  1.
         25    1    1    2    0    0  0.26226940094E+02 -0.11450128581E+03 -0.45964399584E+03  0.49060778606E+03  0.12500000000E+03 0.  0.
         25    1    1    2    0    0  0.44439681806E+02  0.11126086546E+03 -0.83123509853E+03  0.84907635377E+03  0.12500000000E+03 0.  0.
         25    1    1    2    0    0 -0.70666621901E+02  0.32404203452E+01 -0.10486792047E+03  0.17783855746E+03  0.12500000000E+03 0.  0.
</event>
<event>
 5    0  0.5634041E-005  0.2599800E+03  0.7546771E-02  0.1107155E+00
         21   -1    0    0  502  501  0.00000000000E+00  0.00000000000E+00  0.10612651295E+03  0.10612651295E+03  0.00000000000E+00 0.  1.
         21   -1    0    0  501  502 -0.00000000000E+00 -0.00000000000E+00 -0.63687770486E+03  0.63687770486E+03  0.00000000000E+00 0.  1.
         25    1    1    2    0    0  0.97827793952E+02 -0.88267136132E+02 -0.23094731487E+03  0.29380780595E+03  0.12500000000E+03 0.  0.
         25    1    1    2    0    0 -0.14209457242E+03  0.48835626338E+02 -0.16100883793E+03  0.25322841824E+03  0.12500000000E+03 0.  0.
         25    1    1    2    0    0  0.44266778471E+02  0.39431509795E+02 -0.13879503912E+03  0.19596799362E+03  0.12500000000E+03 0.  0.
</event>
<event>
 5    0  0.5634041E-005  0.4918075E+03  0.7546771E-02  0.1015940E+00
         21   -1    0    0  502  501  0.00000000000E+00  0.00000000000E+00  0.22886702306E+03  0.22886702306E+03  0.00000000000E+00 0.  1.
         21   -1    0    0  501  502 -0.00000000000E+00 -0.00000000000E+00 -0.10568349135E+04  0.10568349135E+04  0.00000000000E+00 0.  1.
         25    1    1    2    0    0 -0.18266948657E+03  0.25121542928E+03 -0.38649222081E+03  0.51134975308E+03  0.12500000000E+03 0.  0.
         25    1    1    2    0    0 -0.38347757550E+01  0.12637819395E+03 -0.21851520558E+03  0.28170915583E+03  0.12500000000E+03 0.  0.
         25    1    1    2    0    0  0.18650426233E+03 -0.37759362323E+03 -0.22296046408E+03  0.49264302767E+03  0.12500000000E+03 0.  0.
</event>
<event>
 5    0  0.5634041E-005  0.3719618E+03  0.7546771E-02  0.1053945E+00
         21   -1    0    0  502  501  0.00000000000E+00  0.00000000000E+00  0.86754062346E+02  0.86754062346E+02  0.00000000000E+00 0.  1.
         21   -1    0    0  501  502 -0.00000000000E+00 -0.00000000000E+00 -0.15948025035E+04  0.15948025035E+04  0.00000000000E+00 0.  1.
         25    1    1    2    0    0 -0.16279174563E+03 -0.21986435156E+03 -0.95524554092E+03  0.10014791705E+04  0.12500000000E+03 0.  0.
         25    1    1    2    0    0  0.10657131119E+03  0.71915102816E+02 -0.16846566632E+03  0.24603842608E+03  0.12500000000E+03 0.  0.
         25    1    1    2    0    0  0.56220434440E+02  0.14794924875E+03 -0.38433723394E+03  0.43403896928E+03  0.12500000000E+03 0.  0.
</event>
<event>
 5    0  0.5634041E-005  0.5170470E+03  0.7546771E-02  0.1009423E+00
         21   -1    0    0  502  501  0.00000000000E+00  0.00000000000E+00  0.21747826865E+03  0.21747826865E+03  0.00000000000E+00 0. -1.
         21   -1    0    0  501  502 -0.00000000000E+00 -0.00000000000E+00 -0.12292614089E+04  0.12292614089E+04  0.00000000000E+00 0. -1.
         25    1    1    2    0    0  0.82706199061E+02 -0.28887202927E+03 -0.50249645280E+03  0.59867775116E+03  0.12500000000E+03 0.  0.
         25    1    1    2    0    0  0.14188809761E+02 -0.14016355363E+03 -0.27758983646E+03  0.33545232358E+03  0.12500000000E+03 0.  0.
         25    1    1    2    0    0 -0.96895008822E+02  0.42903558291E+03 -0.23169685101E+03  0.51260960282E+03  0.12500000000E+03 0.  0.
</event>
<event>
 5    0  0.5634041E-005  0.4437439E+03  0.7546771E-02  0.1029604E+00
         21   -1    0    0  502  501  0.00000000000E+00  0.00000000000E+00  0.14974615271E+04  0.14974615271E+04  0.00000000000E+00 0.  1.
         21   -1    0    0  501  502 -0.00000000000E+00 -0.00000000000E+00 -0.13149498351E+03  0.13149498351E+03  0.00000000000E+00 0.  1.
         25    1    1    2    0    0  0.27143733925E+03 -0.19574837281E+02  0.10686856481E+04  0.11098537822E+04  0.12500000000E+03 0.  0.
         25    1    1    2    0    0 -0.13109856434E+03 -0.89922809912E+02  0.18608708883E+03  0.27482057773E+03  0.12500000000E+03 0.  0.
         25    1    1    2    0    0 -0.14033877492E+03  0.10949764719E+03  0.11119380657E+03  0.24428215061E+03  0.12500000000E+03 0.  0.
</event>
<event>
 5    0  0.5634041E-005  0.2918852E+03  0.7546771E-02  0.1089369E+00
         21   -1    0    0  502  501  0.00000000000E+00  0.00000000000E+00  0.14847938623E+03  0.14847938623E+03  0.00000000000E+00 0.  1.
         21   -1    0    0  501  502 -0.00000000000E+00 -0.00000000000E+00 -0.57379669885E+03  0.57379669885E+03  0.00000000000E+00 0.  1.
         25    1    1    2    0    0 -0.14636664592E+03  0.13080419831E+02 -0.31239315496E+02  0.19543589039E+03  0.12500000000E+03 0.  0.
         25    1    1    2    0    0  0.17856376223E+03 -0.26684011302E+02 -0.23757563268E+03  0.32351852325E+03  0.12500000000E+03 0.  0.
         25    1    1    2    0    0 -0.32197116307E+02  0.13603591471E+02 -0.15650236444E+03  0.20332167144E+03  0.12500000000E+03 0.  0.
</event>
<event>
 5    0  0.5634041E-005  0.2653646E+03  0.7546771E-02  0.1103962E+00
         21   -1    0    0  502  501  0.00000000000E+00  0.00000000000E+00  0.15331820729E+03  0.15331820729E+03  0.00000000000E+00 0. -1.
         21   -1    0    0  501  502 -0.00000000000E+00 -0.00000000000E+00 -0.45929541408E+03  0.45929541408E+03  0.00000000000E+00 0. -1.
         25    1    1    2    0    0  0.61834917544E+01  0.12575836787E+03 -0.23696367501E+02  0.17899698459E+03  0.12500000000E+03 0.  0.
         25    1    1    2    0    0 -0.66150102804E+02 -0.69178338970E+02 -0.22208762197E+03  0.27223039969E+03  0.12500000000E+03 0.  0.
         25    1    1    2    0    0  0.59966611049E+02 -0.56580028899E+02 -0.60193217314E+02  0.16138623709E+03  0.12500000000E+03 0.  0.
</event>
<event>
 5    0  0.5634041E-005  0.4440875E+03  0.7546771E-02  0.1029500E+00
         21   -1    0    0  502  501  0.00000000000E+00  0.00000000000E+00  0.21134399400E+04  0.21134399400E+04  0.00000000000E+00 0. -1.
         21   -1    0    0  501  502 -0.00000000000E+00 -0.00000000000E+00 -0.93314100660E+02  0.93314100660E+02  0.00000000000E+00 0. -1.
         25    1    1    2    0    0 -0.23463449015E+03 -0.41154846133E+02  0.39243664254E+03  0.47579258478E+03  0.12500000000E+03 0.  0.
         25    1    1    2    0    0  0.54854633117E+02  0.11037096271E+03  0.13697081256E+03  0.22265844623E+03  0.12500000000E+03 0.  0.
         25    1    1    2    0    0  0.17977985704E+03 -0.69216116579E+02  0.14907183843E+04  0.15083030097E+04  0.12500000000E+03 0.  0.
</event>
<event>
 5    0  0.5634041E-005  0.3713308E+03  0.7546771E-02  0.1054185E+00
         21   -1    0    0  502  501  0.00000000000E+00  0.00000000000E+00  0.59861233203E+03  0.59861233203E+03  0.00000000000E+00 0. -1.
         21   -1    0    0  501  502 -0.00000000000E+00 -0.00000000000E+00 -0.23034370553E+03  0.23034370553E+03  0.00000000000E+00 0.  1.
         25    1    1    2    0    0  0.50526054967E+02  0.14740212274E+02  0.10301414583E+02  0.13601939285E+03  0.12500000000E+03 0.  0.
         25    1    1    2    0    0 -0.97980652477E+02  0.22413027223E+03  0.31142268805E+03  0.41526338368E+03  0.12500000000E+03 0.  0.
         25    1    1    2    0    0  0.47454597509E+02 -0.23887048450E+03  0.46544523860E+02  0.27767326103E+03  0.12500000000E+03 0.  0.
</event>
<event>
 5    0  0.5634041E-005  0.3956786E+03  0.7546771E-02  0.1045286E+00
         21   -1    0    0  502  501  0.00000000000E+00  0.00000000000E+00  0.47519237787E+03  0.47519237787E+03  0.00000000000E+00 0.  1.
         21   -1    0    0  501  502 -0.00000000000E+00 -0.00000000000E+00 -0.32946986519E+03  0.32946986519E+03  0.00000000000E+00 0.  1.
         25    1    1    2    0    0 -0.20910541882E+02  0.11898616337E+03 -0.77215394240E+02  0.19021612693E+03  0.12500000000E+03 0.  0.
         25    1    1    2    0    0  0.17833589453E+03 -0.24972458014E+03  0.15071351230E+03  0.36401321403E+03  0.12500000000E+03 0.  0.
         25    1    1    2    0    0 -0.15742535265E+03  0.13073841676E+03  0.72224394623E+02  0.25043290210E+03  0.12500000000E+03 0.  0.
</event>
<event>
 5    0  0.5634041E-005  0.2076122E+03  0.7546771E-02  0.1143471E+00
         21   -1    0    0  502  501  0.00000000000E+00  0.00000000000E+00  0.17530675040E+03  0.17530675040E+03  0.00000000000E+00 0. -1.
         21   -1    0    0  501  502 -0.00000000000E+00 -0.00000000000E+00 -0.24587095450E+03  0.24587095450E+03  0.00000000000E+00 0. -1.
         25    1    1    2    0    0  0.76403688902E+00  0.22236320694E+02 -0.79442412159E+01  0.12721300515E+03  0.12500000000E+03 0.  0.
         25    1    1    2    0    0  0.33147963939E+02  0.49130222312E+02 -0.42521583800E+02  0.14472612531E+03  0.12500000000E+03 0.  0.
         25    1    1    2    0    0 -0.33912000828E+02 -0.71366543006E+02 -0.20098379089E+02  0.14923857445E+03  0.12500000000E+03 0.  0.
</event>
<event>
 5    0  0.5634041E-005  0.3556072E+03  0.7546771E-02  0.1060337E+00
         21   -1    0    0  502  501  0.00000000000E+00  0.00000000000E+00  0.39366265784E+03  0.39366265784E+03  0.00000000000E+00 0. -1.
         21   -1    0    0  501  502 -0.00000000000E+00 -0.00000000000E+00 -0.32123051826E+03  0.32123051826E+03  0.00000000000E+00 0. -1.
         25    1    1    2    0    0  0.25103780398E+03  0.34766500522E+02 -0.19719929313E+02  0.28327118491E+03  0.12500000000E+03 0.  0.
         25    1    1    2    0    0 -0.22345750106E+03 -0.10371428370E+03  0.58175017179E+02  0.28231053832E+03  0.12500000000E+03 0.  0.
         25    1    1    2    0    0 -0.27580302919E+02  0.68947783178E+02  0.33977051714E+02  0.14931145287E+03  0.12500000000E+03 0.  0.
</event>
<event>
 5    0  0.5634041E-005  0.2952397E+03  0.7546771E-02  0.1087645E+00
         21   -1    0    0  502  501  0.00000000000E+00  0.00000000000E+00  0.32634873938E+02  0.32634873938E+02  0.00000000000E+00 0.  1.
         21   -1    0    0  501  502 -0.00000000000E+00 -0.00000000000E+00 -0.26709612789E+04  0.26709612789E+04  0.00000000000E+00 0.  1.
         25    1    1    2    0    0  0.71861483697E+02  0.91270538971E+02 -0.11376162610E+04  0.11503434885E+04  0.12500000000E+03 0.  0.
         25    1    1    2    0    0 -0.30166218745E+02  0.74558067228E+02 -0.30931080055E+03  0.34317208144E+03  0.12500000000E+03 0.  0.
         25    1    1    2    0    0 -0.41695264952E+02 -0.16582860620E+03 -0.11913993434E+04  0.12100805830E+04  0.12500000000E+03 0.  0.
</event>
<event>
 5    0  0.6569991E-005  0.4853336E+03  0.7546771E-02  0.1017680E+00
         21   -1    0    0  502  501  0.00000000000E+00  0.00000000000E+00  0.31828824614E+03  0.31828824614E+03  0.00000000000E+00 0. -1.
         21   -1    0    0  501  502 -0.00000000000E+00 -0.00000000000E+00 -0.74004836002E+03  0.74004836002E+03  0.00000000000E+00 0. -1.
         25    1    1    2    0    0 -0.11510205491E+03 -0.14962991493E+02  0.15571110955E+03  0.23096173665E+03  0.12500000000E+03 0.  0.
         25    1    1    2    0    0  0.28308617831E+03 -0.10473240370E+03 -0.21186861131E+03  0.38938408955E+03  0.12500000000E+03 0.  0.
         25    1    1    2    0    0 -0.16798412340E+03  0.11969539519E+03 -0.36560261212E+03  0.43799077996E+03  0.12500000000E+03 0.  0.
</event>
<event>
 5    0  0.5634041E-005  0.3704869E+03  0.7546771E-02  0.1054507E+00
         21   -1    0    0  502  501  0.00000000000E+00  0.00000000000E+00  0.23370586897E+04  0.23370586897E+04  0.00000000000E+00 0.  1.
         21   -1    0    0  501  502 -0.00000000000E+00 -0.00000000000E+00 -0.58732188035E+02  0.58732188035E+02  0.00000000000E+00 0.  1.
         25    1    1    2    0    0  0.26766736652E+03  0.11353067368E+03  0.11340410128E+04  0.11773737944E+04  0.12500000000E+03 0.  0.
         25    1    1    2    0    0 -0.42921535380E+02 -0.33204357114E+02  0.25384521297E+03  0.28810966606E+03  0.12500000000E+03 0.  0.
         25    1    1    2    0    0 -0.22474583114E+03 -0.80326316562E+02  0.89044027591E+03  0.93030741732E+03  0.12500000000E+03 0.  0.
</event>
<event>
 5    0  0.5634041E-005  0.3270762E+03  0.7546771E-02  0.1072438E+00
         21   -1    0    0  502  501  0.00000000000E+00  0.00000000000E+00  0.13213051520E+03  0.13213051520E+03  0.00000000000E+00 0. -1.
         21   -1    0    0  501  502 -0.00000000000E+00 -0.00000000000E+00 -0.80964546843E+03  0.80964546843E+03  0.00000000000E+00 0. -1.
         25    1    1    2    0    0  0.69357588303E+02 -0.94502547604E+01  0.30997853229E+02  0.14657983925E+03  0.12500000000E+03 0.  0.
         25    1    1    2    0    0  0.64396952960E+02 -0.17683901590E+01 -0.14248280421E+03  0.20019101941E+03  0.12500000000E+03 0.  0.
         25    1    1    2    0    0 -0.13375454126E+03  0.11218644919E+02 -0.56603000224E+03  0.59500512497E+03  0.12500000000E+03 0.  0.
</event>
<event>
 5    0  0.5634041E-005  0.3883678E+03  0.7546771E-02  0.1047884E+00
         21   -1    0    0  502  501  0.00000000000E+00  0.00000000000E+00  0.34518833280E+03  0.34518833280E+03  0.00000000000E+00 0.  1.
         21   -1    0    0  501  502 -0.00000000000E+00 -0.00000000000E+00 -0.43694845905E+03  0.43694845905E+03  0.00000000000E+00 0.  1.
         25    1    1    2    0    0  0.23431286988E+03 -0.20193639102E+02 -0.21420752653E+02  0.26719684260E+03  0.12500000000E+03 0.  0.
         25    1    1    2    0    0 -0.27335442140E+03  0.90063343291E+01  0.83995483055E+02  0.31222427025E+03  0.12500000000E+03 0.  0.
         25    1    1    2    0    0  0.39041551514E+02  0.11187304773E+02 -0.15433485665E+03  0.20271567900E+03  0.12500000000E+03 0.  0.
</event>
<event>
 5    0  0.5634041E-005  0.3909409E+03  0.7546771E-02  0.1046962E+00
         21   -1    0    0  502  501  0.00000000000E+00  0.00000000000E+00  0.21978273519E+04  0.21978273519E+04  0.00000000000E+00 0. -1.
         21   -1    0    0  501  502 -0.00000000000E+00 -0.00000000000E+00 -0.69539041026E+02  0.69539041026E+02  0.00000000000E+00 0. -1.
         25    1    1    2    0    0 -0.11348027490E+03  0.17851997434E+03  0.22865538626E+03  0.33564183246E+03  0.12500000000E+03 0.  0.
         25    1    1    2    0    0  0.57802992253E+02 -0.34108593955E+02  0.10235619400E+04  0.10333482603E+04  0.12500000000E+03 0.  0.
         25    1    1    2    0    0  0.55677282648E+02 -0.14441138038E+03  0.87607098465E+03  0.89837630018E+03  0.12500000000E+03 0.  0.
</event>
<event>
 5    0  0.5634041E-005  0.4021277E+03  0.7546771E-02  0.1043045E+00
         21   -1    0    0  502  501  0.00000000000E+00  0.00000000000E+00  0.33112735817E+03  0.33112735817E+03  0.00000000000E+00 0. -1.
         21   -1    0    0  501  502 -0.00000000000E+00 -0.00000000000E+00 -0.48835198394E+03  0.48835198394E+03  0.00000000000E+00 0. -1.
         25    1    1    2    0    0 -0.87653669366E+01 -0.16622263642E+03  0.18488351037E+03  0.27841283900E+03  0.12500000000E+03 0.  0.
         25    1    1    2    0    0  0.70372631738E+02  0.17870002322E+03 -0.77782063817E+02  0.24199391531E+03  0.12500000000E+03 0.  0.
         25    1    1    2    0    0 -0.61607264801E+02 -0.12477386803E+02 -0.26432607232E+03  0.29907258779E+03  0.12500000000E+03 0.  0.
</event>
<event>
 5    0  0.5634041E-005  0.5575811E+03  0.7546771E-02  0.9997543E-01
         21   -1    0    0  502  501  0.00000000000E+00  0.00000000000E+00  0.26376759448E+04  0.26376759448E+04  0.00000000000E+00 0.  1.
         21   -1    0    0  501  502 -0.00000000000E+00 -0.00000000000E+00 -0.11786763616E+03  0.11786763616E+03  0.00000000000E+00 0.  1.
         25    1    1    2    0    0 -0.60688644136E+02  0.63313668312E+02  0.34779991901E+01  0.15273777725E+03  0.12500000000E+03 0.  0.
         25    1    1    2    0    0  0.18053140828E+03  0.18579952389E+03  0.63422368440E+03  0.69640342784E+03  0.12500000000E+03 0.  0.
         25    1    1    2    0    0 -0.11984276414E+03 -0.24911319220E+03  0.18821066251E+04  0.19064023759E+04  0.12500000000E+03 0.  0.
</event>
<event>
 5    0  0.5967729E-005  0.2528559E+03  0.7546771E-02  0.1111513E+00
         21   -1    0    0  502  501  0.00000000000E+00  0.00000000000E+00  0.58397027299E+03  0.58397027299E+03  0.00000000000E+00 0.  1.
         21   -1    0    0  501  502 -0.00000000000E+00 -0.00000000000E+00 -0.10948524083E+03  0.10948524083E+03  0.00000000000E+00 0.  1.
         25    1    1    2    0    0 -0.19719189570E+02 -0.13178244462E+01  0.25899735649E+03  0.28826240436E+03  0.12500000000E+03 0.  0.
         25    1    1    2    0    0 -0.89626961153E+02 -0.31809790646E+02  0.16651791531E+03  0.22890624951E+03  0.12500000000E+03 0.  0.
         25    1    1    2    0    0  0.10934615072E+03  0.33127615093E+02  0.48969760354E+02  0.17628685994E+03  0.12500000000E+03 0.  0.
</event>
<event>
 5    0  0.5634041E-005  0.4588655E+03  0.7546771E-02  0.1025111E+00
         21   -1    0    0  502  501  0.00000000000E+00  0.00000000000E+00  0.69607972815E+03  0.69607972815E+03  0.00000000000E+00 0. -1.
         21   -1    0    0  501  502 -0.00000000000E+00 -0.00000000000E+00 -0.30249051772E+03  0.30249051772E+03  0.00000000000E+00 0. -1.
         25    1    1    2    0    0  0.73064478352E+02 -0.32065721420E+03  0.58681218333E+02  0.35669027517E+03  0.12500000000E+03 0.  0.
         25    1    1    2    0    0 -0.93488394192E+02  0.37432801596E+03  0.28436715463E+03  0.49532940758E+03  0.12500000000E+03 0.  0.
         25    1    1    2    0    0  0.20423915840E+02 -0.53670801759E+02  0.50540837462E+02  0.14655056312E+03  0.12500000000E+03 0.  0.
</event>
<event>
 5    0  0.5634041E-005  0.2690410E+03  0.7546771E-02  0.1101830E+00
         21   -1    0    0  502  501  0.00000000000E+00  0.00000000000E+00  0.40013841757E+03  0.40013841757E+03  0.00000000000E+00 0.  1.
         21   -1    0    0  501  502 -0.00000000000E+00 -0.00000000000E+00 -0.18089511421E+03  0.18089511421E+03  0.00000000000E+00 0.  1.
         25    1    1    2    0    0  0.34369308050E+02  0.70377883877E+02  0.16731516311E+03  0.22305528391E+03  0.12500000000E+03 0.  0.
         25    1    1    2    0    0  0.42759314662E+01  0.45974622803E+02  0.11075210562E+03  0.17327140108E+03  0.12500000000E+03 0.  0.
         25    1    1    2    0    0 -0.38645239517E+02 -0.11635250668E+03 -0.58823965380E+02  0.18470684679E+03  0.12500000000E+03 0.  0.
</event>
<event>
 5    0  0.5634041E-005  0.2383016E+03  0.7546771E-02  0.1120929E+00
         21   -1    0    0  502  501  0.00000000000E+00  0.00000000000E+00  0.59384117446E+02  0.59384117446E+02  0.00000000000E+00 0.  1.
         21   -1    0    0  501  502 -0.00000000000E+00 -0.00000000000E+00 -0.95627644050E+03  0.95627644050E+03  0.00000000000E+00 0.  1.
         25    1    1    2    0    0 -0.70067423017E+02 -0.15218423435E+02 -0.21606033388E+03  0.25970774354E+03  0.12500000000E+03 0.  0.
         25    1    1    2    0    0  0.12752454971E+03  0.41083626493E+02 -0.31740523323E+03  0.36649891845E+03  0.12500000000E+03 0.  0.
         25    1    1    2    0    0 -0.57457126688E+02 -0.25865203058E+02 -0.36342675594E+03  0.38945389595E+03  0.12500000000E+03 0.  0.
</event>
<event>
 5    0  0.5634041E-005  0.4000797E+03  0.7546771E-02  0.1043752E+00
         21   -1    0    0  502  501  0.00000000000E+00  0.00000000000E+00  0.34491674298E+03  0.34491674298E+03  0.00000000000E+00 0.  1.
         21   -1    0    0  501  502 -0.00000000000E+00 -0.00000000000E+00 -0.46406489926E+03  0.46406489926E+03  0.00000000000E+00 0.  1.
         25    1    1    2    0    0  0.20375782266E+03  0.19379919991E+03 -0.21344957813E+03  0.37451448915E+03  0.12500000000E+03 0.  0.
         25    1    1    2    0    0 -0.18038421524E+03 -0.41389410173E+02  0.72375519405E+02  0.23476533856E+03  0.12500000000E+03 0.  0.
         25    1    1    2    0    0 -0.23373607418E+02 -0.15240978973E+03  0.21925902444E+02  0.19970181453E+03  0.12500000000E+03 0.  0.
</event>
<event>
 5    0  0.5634041E-005  0.4026066E+03  0.7546771E-02  0.1042881E+00
         21   -1    0    0  502  501  0.00000000000E+00  0.00000000000E+00  0.29616244097E+03  0.29616244097E+03  0.00000000000E+00 0. -1.
         21   -1    0    0  501  502 -0.00000000000E+00 -0.00000000000E+00 -0.54730797265E+03  0.54730797265E+03  0.00000000000E+00 0. -1.
         25    1    1    2    0    0 -0.12112087438E+03 -0.12490173375E+03 -0.26679372886E+02  0.21588769822E+03  0.12500000000E+03 0.  0.
         25    1    1    2    0    0  0.16904053324E+03  0.29387625679E+03 -0.19322067438E+03  0.40975259022E+03  0.12500000000E+03 0.  0.
         25    1    1    2    0    0 -0.47919658853E+02 -0.16897452303E+03 -0.31245484424E+02  0.21783012518E+03  0.12500000000E+03 0.  0.
</event>
<event>
 5    0  0.5634041E-005  0.2210735E+03  0.7546771E-02  0.1133085E+00
         21   -1    0    0  502  501  0.00000000000E+00  0.00000000000E+00  0.24590528233E+03  0.24590528233E+03  0.00000000000E+00 0.  1.
         21   -1    0    0  501  502 -0.00000000000E+00 -0.00000000000E+00 -0.19874925712E+03  0.19874925712E+03  0.00000000000E+00 0.  1.
         25    1    1    2    0    0 -0.87942600553E+02  0.68620479217E+01  0.25455539418E+02  0.15509343371E+03  0.12500000000E+03 0.  0.
         25    1    1    2    0    0  0.71056004440E+02 -0.53743531068E+02  0.21472645443E+02  0.15499483024E+03  0.12500000000E+03 0.  0.
         25    1    1    2    0    0  0.16886596113E+02  0.46881483146E+02  0.22784034944E+00  0.13456627550E+03  0.12500000000E+03 0.  0.
</event>
<event>
 5    0  0.5634041E-005  0.2697659E+03  0.7546771E-02  0.1101414E+00
         21   -1    0    0  502  501  0.00000000000E+00  0.00000000000E+00  0.25498270691E+03  0.25498270691E+03  0.00000000000E+00 0. -1.
         21   -1    0    0  501  502 -0.00000000000E+00 -0.00000000000E+00 -0.28540628218E+03  0.28540628218E+03  0.00000000000E+00 0. -1.
         25    1    1    2    0    0  0.10744627312E+03 -0.71573493779E+02 -0.28880908885E+02  0.18200706997E+03  0.12500000000E+03 0.  0.
         25    1    1    2    0    0  0.57761908246E+02  0.58233398993E+02  0.14246000555E+02  0.15018493711E+03  0.12500000000E+03 0.  0.
         25    1    1    2    0    0 -0.16520818137E+03  0.13340094786E+02 -0.15788666941E+02  0.20819698202E+03  0.12500000000E+03 0.  0.
</event>
<event>
 5    0  0.5634041E-005  0.4755680E+03  0.7546771E-02  0.1020360E+00
         21   -1    0    0  502  501  0.00000000000E+00  0.00000000000E+00  0.20028215247E+03  0.20028215247E+03  0.00000000000E+00 0.  1.
         21   -1    0    0  501  502 -0.00000000000E+00 -0.00000000000E+00 -0.11292314062E+04  0.11292314062E+04  0.00000000000E+00 0.  1.
         25    1    1    2    0    0  0.17947684193E+03 -0.68269086049E+02 -0.15092939265E+03  0.27436706520E+03  0.12500000000E+03 0.  0.
         25    1    1    2    0    0 -0.11343750105E+03  0.13219504459E+03  0.43781238576E+02  0.21882731390E+03  0.12500000000E+03 0.  0.
         25    1    1    2    0    0 -0.66039340877E+02 -0.63925958538E+02 -0.82180109961E+03  0.83631917953E+03  0.12500000000E+03 0.  0.
</event>
<event>
 5    0  0.5634041E-005  0.6955202E+03  0.7546771E-02  0.9724924E-01
         21   -1    0    0  502  501  0.00000000000E+00  0.00000000000E+00  0.68918851881E+03  0.68918851881E+03  0.00000000000E+00 0. -1.
         21   -1    0    0  501  502 -0.00000000000E+00 -0.00000000000E+00 -0.70191008894E+03  0.70191008894E+03  0.00000000000E+00 0. -1.
         25    1    1    2    0    0  0.60232516535E+03  0.13140265607E+03 -0.46799162853E+02  0.63077525672E+03  0.12500000000E+03 0.  0.
         25    1    1    2    0    0 -0.59958703493E+03 -0.59582711141E+02  0.27851394353E+02  0.61599952280E+03  0.12500000000E+03 0.  0.
         25    1    1    2    0    0 -0.27381304196E+01 -0.71819944933E+02  0.62261983768E+01  0.14432382823E+03  0.12500000000E+03 0.  0.
</event>
<event>
 5    0  0.5634041E-005  0.5950439E+03  0.7546771E-02  0.9915742E-01
         21   -1    0    0  502  501  0.00000000000E+00  0.00000000000E+00  0.10517680001E+04  0.10517680001E+04  0.00000000000E+00 0. -1.
         21   -1    0    0  501  502 -0.00000000000E+00 -0.00000000000E+00 -0.33664952939E+03  0.33664952939E+03  0.00000000000E+00 0. -1.
         25    1    1    2    0    0  0.11147050142E+03 -0.40193080293E+02  0.28142115327E+02  0.17452259179E+03  0.12500000000E+03 0.  0.
         25    1    1    2    0    0  0.14019808829E+02 -0.18256020155E+03  0.85508783113E+03  0.88336005183E+03  0.12500000000E+03 0.  0.
         25    1    1    2    0    0 -0.12549031025E+03  0.22275328184E+03 -0.16811147571E+03  0.33053488591E+03  0.12500000000E+03 0.  0.
</event>
<event>
 5    0  0.5634041E-005  0.2255056E+03  0.7546771E-02  0.1129844E+00
         21   -1    0    0  502  501  0.00000000000E+00  0.00000000000E+00  0.48177717550E+03  0.48177717550E+03  0.00000000000E+00 0.  1.
         21   -1    0    0  501  502 -0.00000000000E+00 -0.00000000000E+00 -0.10555251790E+03  0.10555251790E+03  0.00000000000E+00 0.  1.
         25    1    1    2    0    0 -0.17867503841E+02  0.63874932347E+02  0.60146088742E+02  0.15375892386E+03  0.12500000000E+03 0.  0.
         25    1    1    2    0    0  0.30796058472E+01  0.33197105150E+02  0.91613461627E+02  0.15852305231E+03  0.12500000000E+03 0.  0.
         25    1    1    2    0    0  0.14787897994E+02 -0.97072037497E+02  0.22446510723E+03  0.27504771723E+03  0.12500000000E+03 0.  0.
</event>
<event>
 5    0  0.5634041E-005  0.5395588E+03  0.7546771E-02  0.1003940E+00
         21   -1    0    0  502  501  0.00000000000E+00  0.00000000000E+00  0.98480259634E+03  0.98480259634E+03  0.00000000000E+00 0. -1.
         21   -1    0    0  501  502 -0.00000000000E+00 -0.00000000000E+00 -0.29561632392E+03  0.29561632392E+03  0.00000000000E+00 0. -1.
         25    1    1    2    0    0 -0.37260242658E+03 -0.49947163177E+02 -0.50420373744E+02  0.39936762700E+03  0.12500000000E+03 0.  0.
         25    1    1    2    0    0  0.24450391069E+03 -0.11719767463E+02  0.32755698526E+03  0.42759571313E+03  0.12500000000E+03 0.  0.
         25    1    1    2    0    0  0.12809851589E+03  0.61666930640E+02  0.41204966090E+03  0.45345558014E+03  0.12500000000E+03 0.  0.
</event>
<event>
 5    0  0.5634041E-005  0.3598198E+03  0.7546771E-02  0.1058655E+00
         21   -1    0    0  502  501  0.00000000000E+00  0.00000000000E+00  0.11469034282E+04  0.11469034282E+04  0.00000000000E+00 0.  1.
         21   -1    0    0  501  502 -0.00000000000E+00 -0.00000000000E+00 -0.11288685613E+03  0.11288685613E+03  0.00000000000E+00 0.  1.
         25    1    1    2    0    0  0.16673830086E+03  0.18484954316E+03  0.65676821769E+03  0.71340066326E+03  0.12500000000E+03 0.  0.
         25    1    1    2    0    0 -0.94377397331E+02 -0.14571733755E+03  0.11109933620E+03  0.24105745807E+03  0.12500000000E+03 0.  0.
         25    1    1    2    0    0 -0.72360903528E+02 -0.39132205615E+02  0.26614901818E+03  0.30533216299E+03  0.12500000000E+03 0.  0.
</event>
<event>
 5    0  0.5634041E-005  0.4010273E+03  0.7546771E-02  0.1043425E+00
         21   -1    0    0  502  501  0.00000000000E+00  0.00000000000E+00  0.20933409273E+03  0.20933409273E+03  0.00000000000E+00 0. -1.
         21   -1    0    0  501  502 -0.00000000000E+00 -0.00000000000E+00 -0.76825963076E+03  0.76825963076E+03  0.00000000000E+00 0. -1.
         25    1    1    2    0    0  0.94245222215E+02  0.21300336857E+03 -0.18179832808E+03  0.32082429619E+03  0.12500000000E+03 0.  0.
         25    1    1    2    0    0 -0.17707981100E+03 -0.11254503592E+03 -0.40617884450E+03  0.47395136701E+03  0.12500000000E+03 0.  0.
         25    1    1    2    0    0  0.82834588786E+02 -0.10045833264E+03  0.29051634551E+02  0.18281806029E+03  0.12500000000E+03 0.  0.
</event>
<event>
 5    0  0.5634041E-005  0.2600008E+03  0.7546771E-02  0.1107143E+00
         21   -1    0    0  502  501  0.00000000000E+00  0.00000000000E+00  0.12303916882E+04  0.12303916882E+04  0.00000000000E+00 0.  1.
         21   -1    0    0  501  502 -0.00000000000E+00 -0.00000000000E+00 -0.54942182055E+02  0.54942182055E+02  0.00000000000E+00 0.  1.
         25    1    1    2    0    0 -0.29763467723E+01  0.40127510351E+02  0.75060053929E+03  0.76200081713E+03  0.12500000000E+03 0.  0.
         25    1    1    2    0    0  0.39792566927E+02 -0.96491671998E+02  0.20850391094E+03  0.26456184915E+03  0.12500000000E+03 0.  0.
         25    1    1    2    0    0 -0.36816220155E+02  0.56364161647E+02  0.21634505588E+03  0.25877120394E+03  0.12500000000E+03 0.  0.
</event>
<event>
 5    0  0.5634041E-005  0.2931082E+03  0.7546771E-02  0.1088737E+00
         21   -1    0    0  502  501  0.00000000000E+00  0.00000000000E+00  0.12345456368E+04  0.12345456368E+04  0.00000000000E+00 0. -1.
         21   -1    0    0  501  502 -0.00000000000E+00 -0.00000000000E+00 -0.69590308474E+02  0.69590308474E+02  0.00000000000E+00 0. -1.
         25    1    1    2    0    0 -0.10986809168E+02 -0.93660698927E+02  0.84320890590E+03  0.85762421577E+03  0.12500000000E+03 0.  0.
         25    1    1    2    0    0  0.22762257612E+02 -0.11609671614E+02  0.21797369912E+03  0.25256769064E+03  0.12500000000E+03 0.  0.
         25    1    1    2    0    0 -0.11775448444E+02  0.10527037054E+03  0.10377272327E+03  0.19394403882E+03  0.12500000000E+03 0.  0.
</event>
<event>
 5    0  0.5634041E-005  0.2769389E+03  0.7546771E-02  0.1097373E+00
         21   -1    0    0  502  501  0.00000000000E+00  0.00000000000E+00  0.55636091057E+03  0.55636091057E+03  0.00000000000E+00 0.  1.
         21   -1    0    0  501  502 -0.00000000000E+00 -0.00000000000E+00 -0.13785142266E+03  0.13785142266E+03  0.00000000000E+00 0.  1.
         25    1    1    2    0    0 -0.28101846694E+02  0.15280518789E+03  0.12839923148E+03  0.23717188256E+03  0.12500000000E+03 0.  0.
         25    1    1    2    0    0  0.87965798757E+02 -0.24706668730E+02  0.18418625491E+03  0.24061998613E+03  0.12500000000E+03 0.  0.
         25    1    1    2    0    0 -0.59863952063E+02 -0.12809851916E+03  0.10592400152E+03  0.21642046453E+03  0.12500000000E+03 0.  0.
</event>
<event>
 5    0  0.5634041E-005  0.3532284E+03  0.7546771E-02  0.1061298E+00
         21   -1    0    0  502  501  0.00000000000E+00  0.00000000000E+00  0.15415903683E+03  0.15415903683E+03  0.00000000000E+00 0. -1.
         21   -1    0    0  501  502 -0.00000000000E+00 -0.00000000000E+00 -0.80936099038E+03  0.80936099038E+03  0.00000000000E+00 0. -1.
         25    1    1    2    0    0 -0.67898674654E+02  0.13763710489E+03 -0.81835081418E+02  0.21418726202E+03  0.12500000000E+03 0.  0.
         25    1    1    2    0    0 -0.15918888144E+03 -0.73714904944E+02 -0.26152794395E+03  0.33881684234E+03  0.12500000000E+03 0.  0.
         25    1    1    2    0    0  0.22708755609E+03 -0.63922199944E+02 -0.31183892818E+03  0.41051592285E+03  0.12500000000E+03 0.  0.
</event>
<event>
 5    0  0.5634041E-005  0.2853270E+03  0.7546771E-02  0.1092815E+00
         21   -1    0    0  502  501  0.00000000000E+00  0.00000000000E+00  0.10063085130E+03  0.10063085130E+03  0.00000000000E+00 0. -1.
         21   -1    0    0  501  502 -0.00000000000E+00 -0.00000000000E+00 -0.80901133790E+03  0.80901133790E+03  0.00000000000E+00 0. -1.
         25    1    1    2    0    0 -0.72521053460E+02 -0.89178595843E+02 -0.35424018368E+02  0.17347041889E+03  0.12500000000E+03 0.  0.
         25    1    1    2    0    0  0.86019504881E+02  0.66694688598E+02 -0.31214906047E+03  0.35342548389E+03  0.12500000000E+03 0.  0.
         25    1    1    2    0    0 -0.13498451421E+02  0.22483907245E+02 -0.36080740776E+03  0.38274628643E+03  0.12500000000E+03 0.  0.
</event>
<event>
 5    0  0.5634041E-005  0.2461031E+03  0.7546771E-02  0.1115793E+00
         21   -1    0    0  502  501  0.00000000000E+00  0.00000000000E+00  0.31560820679E+02  0.31560820679E+02  0.00000000000E+00 0. -1.
         21   -1    0    0  501  502 -0.00000000000E+00 -0.00000000000E+00 -0.19190485400E+04  0.19190485400E+04  0.00000000000E+00 0. -1.
         25    1    1    2    0    0  0.26554469152E+02  0.12311036123E+03 -0.55620989327E+03  0.58382852469E+03  0.12500000000E+03 0.  0.
         25    1    1    2    0    0  0.35896528026E+02 -0.10677848162E+03 -0.68454478720E+03  0.70492323734E+03  0.12500000000E+03 0.  0.
         25    1    1    2    0    0 -0.62450997178E+02 -0.16331879612E+02 -0.64673303886E+03  0.66185759866E+03  0.12500000000E+03 0.  0.
</event>
<event>
 5    0  0.5634041E-005  0.4490420E+03  0.7546771E-02  0.1028008E+00
         21   -1    0    0  502  501  0.00000000000E+00  0.00000000000E+00  0.95348152685E+03  0.95348152685E+03  0.00000000000E+00 0.  1.
         21   -1    0    0  501  502 -0.00000000000E+00 -0.00000000000E+00 -0.21147631457E+03  0.21147631457E+03  0.00000000000E+00 0.  1.
         25    1    1    2    0    0 -0.89159587884E+02  0.10644377216E+02  0.11743680855E+01  0.15391268310E+03  0.12500000000E+03 0.  0.
         25    1    1    2    0    0 -0.18220691544E+03 -0.22190460368E+03  0.42343593732E+03  0.52665359221E+03  0.12500000000E+03 0.  0.
         25    1    1    2    0    0  0.27136650332E+03  0.21126022646E+03  0.31739490687E+03  0.48439156611E+03  0.12500000000E+03 0.  0.
</event>
<event>
 5    0  0.5634041E-005  0.3965313E+03  0.7546771E-02  0.1044987E+00
         21   -1    0    0  502  501  0.00000000000E+00  0.00000000000E+00  0.50438601816E+03  0.50438601816E+03  0.00000000000E+00 0. -1.
         21   -1    0    0  501  502 -0.00000000000E+00 -0.00000000000E+00 -0.31173954477E+03  0.31173954477E+03  0.00000000000E+00 0. -1.
         25    1    1    2    0    0  0.70696178516E+01 -0.20464844220E+02  0.11754690262E+03  0.17294815310E+03  0.12500000000E+03 0.  0.
         25    1    1    2    0    0  0.30790521277E+01 -0.99532410847E+02 -0.23712282145E+03  0.28595176835E+03  0.12500000000E+03 0.  0.
         25    1    1    2    0    0 -0.10148669979E+02  0.11999725507E+03  0.31222239221E+03  0.35722564147E+03  0.12500000000E+03 0.  0.
</event>
<event>
 5    0  0.5634041E-005  0.3881292E+03  0.7546771E-02  0.1047969E+00
         21   -1    0    0  502  501  0.00000000000E+00  0.00000000000E+00  0.75414420584E+03  0.75414420584E+03  0.00000000000E+00 0. -1.
         21   -1    0    0  501  502 -0.00000000000E+00 -0.00000000000E+00 -0.19975522103E+03  0.19975522103E+03  0.00000000000E+00 0. -1.
         25    1    1    2    0    0 -0.19626746272E+03 -0.14372967137E+03  0.34180939609E+03  0.43776454700E+03  0.12500000000E+03 0.  0.
         25    1    1    2    0    0  0.21175691756E+03  0.22660061573E+02  0.23390087019E+03  0.34013098595E+03  0.12500000000E+03 0.  0.
         25    1    1    2    0    0 -0.15489454836E+02  0.12106960980E+03 -0.21321281476E+02  0.17600389391E+03  0.12500000000E+03 0.  0.
</event>
<event>
 5    0  0.5634041E-005  0.2572974E+03  0.7546771E-02  0.1108778E+00
         21   -1    0    0  502  501  0.00000000000E+00  0.00000000000E+00  0.51852003671E+02  0.51852003671E+02  0.00000000000E+00 0.  1.
         21   -1    0    0  501  502 -0.00000000000E+00 -0.00000000000E+00 -0.12767478340E+04  0.12767478340E+04  0.00000000000E+00 0.  1.
         25    1    1    2    0    0 -0.11241265817E+02 -0.57902384845E+02 -0.74970852496E+03  0.76234304918E+03  0.12500000000E+03 0.  0.
         25    1    1    2    0    0  0.26392130835E+02 -0.32483476058E+02 -0.32375976784E+03  0.34956702942E+03  0.12500000000E+03 0.  0.
         25    1    1    2    0    0 -0.15150865017E+02  0.90385860903E+02 -0.15142753750E+03  0.21668975905E+03  0.12500000000E+03 0.  0.
</event>
<event>
 5    0  0.5634041E-005  0.3129275E+03  0.7546771E-02  0.1078951E+00
         21   -1    0    0  502  501  0.00000000000E+00  0.00000000000E+00  0.97091071098E+03  0.97091071098E+03  0.00000000000E+00 0.  1.
         21   -1    0    0  501  502 -0.00000000000E+00 -0.00000000000E+00 -0.10085751819E+03  0.10085751819E+03  0.00000000000E+00 0.  1.
         25    1    1    2    0    0  0.13587347435E+03 -0.30682624692E+02  0.38833553893E+02  0.19114410636E+03  0.12500000000E+03 0.  0.
         25    1    1    2    0    0 -0.54753537027E+02  0.22160484440E+02  0.33394436945E+03  0.36143170693E+03  0.12500000000E+03 0.  0.
         25    1    1    2    0    0 -0.81119937321E+02  0.85221402526E+01  0.49727526945E+03  0.51919241588E+03  0.12500000000E+03 0.  0.
</event>
<event>
 5    0  0.5634041E-005  0.2786383E+03  0.7546771E-02  0.1096435E+00
         21   -1    0    0  502  501  0.00000000000E+00  0.00000000000E+00  0.11020995621E+03  0.11020995621E+03  0.00000000000E+00 0.  1.
         21   -1    0    0  501  502 -0.00000000000E+00 -0.00000000000E+00 -0.70446747941E+03  0.70446747941E+03  0.00000000000E+00 0.  1.
         25    1    1    2    0    0  0.16573762277E+03 -0.74886581334E+02 -0.13254853446E+03  0.25743168735E+03  0.12500000000E+03 0.  0.
         25    1    1    2    0    0 -0.10072608576E+03  0.47665331588E+02 -0.22580119721E+03  0.28112080828E+03  0.12500000000E+03 0.  0.
         25    1    1    2    0    0 -0.65011537007E+02  0.27221249745E+02 -0.23590779153E+03  0.27612494000E+03  0.12500000000E+03 0.  0.
</event>
<event>
 5    0  0.5634041E-005  0.3595472E+03  0.7546771E-02  0.1058763E+00
         21   -1    0    0  502  501  0.00000000000E+00  0.00000000000E+00  0.92147587186E+03  0.92147587186E+03  0.00000000000E+00 0. -1.
         21   -1    0    0  501  502 -0.00000000000E+00 -0.00000000000E+00 -0.14029037696E+03  0.14029037696E+03  0.00000000000E+00 0. -1.
         25    1    1    2    0    0  0.12854007289E-01  0.77531381854E+02  0.15021065522E+03  0.21023642948E+03  0.12500000000E+03 0.  0.
         25    1    1    2    0    0  0.19022065040E+01  0.20985918653E+03  0.37169334041E+03  0.44477571412E+03  0.12500000000E+03 0.  0.
         25    1    1    2    0    0 -0.19150605113E+01 -0.28739056838E+03  0.25928149926E+03  0.40675410522E+03  0.12500000000E+03 0.  0.
</event>
<event>
 5    0  0.5634041E-005  0.2483163E+03  0.7546771E-02  0.1114374E+00
         21   -1    0    0  502  501  0.00000000000E+00  0.00000000000E+00  0.60253039164E+02  0.60253039164E+02  0.00000000000E+00 0. -1.
         21   -1    0    0  501  502 -0.00000000000E+00 -0.00000000000E+00 -0.10233674346E+04  0.10233674346E+04  0.00000000000E+00 0. -1.
         25    1    1    2    0    0 -0.18665677844E+02 -0.63420060075E+02 -0.25078505212E+03  0.28790389702E+03  0.12500000000E+03 0.  0.
         25    1    1    2    0    0 -0.85631325865E+02  0.92474625793E+02 -0.26650004722E+03  0.32020548958E+03  0.12500000000E+03 0.  0.
         25    1    1    2    0    0  0.10429700371E+03 -0.29054565718E+02 -0.44582929612E+03  0.47551108720E+03  0.12500000000E+03 0.  0.
</event>
<event>
 5    0  0.5634041E-005  0.4031391E+03  0.7546771E-02  0.1042698E+00
         21   -1    0    0  502  501  0.00000000000E+00  0.00000000000E+00  0.65133043822E+03  0.65133043822E+03  0.00000000000E+00 0.  1.
         21   -1    0    0  501  502 -0.00000000000E+00 -0.00000000000E+00 -0.24952184166E+03  0.24952184166E+03  0.00000000000E+00 0.  1.
         25    1    1    2    0    0 -0.28966837821E+03  0.60289191172E+02  0.27729319882E+03  0.42433368240E+03  0.12500000000E+03 0.  0.
         25    1    1    2    0    0  0.19514425662E+03 -0.10482859050E+03 -0.24754690064E+02  0.25555451270E+03  0.12500000000E+03 0.  0.
         25    1    1    2    0    0  0.94524121584E+02  0.44539399332E+02  0.14927008780E+03  0.22096408479E+03  0.12500000000E+03 0.  0.
</event>
<event>
 5    0  0.5634041E-005  0.2989362E+03  0.7546771E-02  0.1085774E+00
         21   -1    0    0  502  501  0.00000000000E+00  0.00000000000E+00  0.24882378820E+03  0.24882378820E+03  0.00000000000E+00 0.  1.
         21   -1    0    0  501  502 -0.00000000000E+00 -0.00000000000E+00 -0.35914117271E+03  0.35914117271E+03  0.00000000000E+00 0.  1.
         25    1    1    2    0    0 -0.12096837071E+03  0.54027932601E+02 -0.16348388770E+03  0.24475364298E+03  0.12500000000E+03 0.  0.
         25    1    1    2    0    0  0.16252736978E+03  0.22801318425E+02  0.21064203315E+02  0.20737344746E+03  0.12500000000E+03 0.  0.
         25    1    1    2    0    0 -0.41558999063E+02 -0.76829251026E+02  0.32102299884E+02  0.15583787048E+03  0.12500000000E+03 0.  0.
</event>
<event>
 5    0  0.5634041E-005  0.3786464E+03  0.7546771E-02  0.1051435E+00
         21   -1    0    0  502  501  0.00000000000E+00  0.00000000000E+00  0.32581999612E+03  0.32581999612E+03  0.00000000000E+00 0. -1.
         21   -1    0    0  501  502 -0.00000000000E+00 -0.00000000000E+00 -0.44003784063E+03  0.44003784063E+03  0.00000000000E+00 0. -1.
         25    1    1    2    0    0 -0.43656097878E+02  0.14000341240E+02 -0.30378628194E+03  0.33168203077E+03  0.12500000000E+03 0.  0.
         25    1    1    2    0    0 -0.44838616020E+02  0.10704928218E+03  0.16517743530E+03  0.23744185695E+03  0.12500000000E+03 0.  0.
         25    1    1    2    0    0  0.88494713897E+02 -0.12104962342E+03  0.24391002133E+02  0.19673394904E+03  0.12500000000E+03 0.  0.
</event>
<event>
 5    0  0.5634041E-005  0.3763785E+03  0.7546771E-02  0.1052280E+00
         21   -1    0    0  502  501  0.00000000000E+00  0.00000000000E+00  0.25701269762E+03  0.25701269762E+03  0.00000000000E+00 0.  1.
         21   -1    0    0  501  502 -0.00000000000E+00 -0.00000000000E+00 -0.55118211525E+03  0.55118211525E+03  0.00000000000E+00 0.  1.
         25    1    1    2    0    0 -0.59982548746E+02  0.11506086350E+02  0.13530194369E+02  0.13977969215E+03  0.12500000000E+03 0.  0.
         25    1    1    2    0    0 -0.91656621069E+02  0.70417774370E+02  0.10782364017E+03  0.20152056102E+03  0.12500000000E+03 0.  0.
         25    1    1    2    0    0  0.15163916982E+03 -0.81923860720E+02 -0.41552325218E+03  0.46689455970E+03  0.12500000000E+03 0.  0.
</event>
<event>
 5    0  0.5634041E-005  0.3333939E+03  0.7546771E-02  0.1069645E+00
         21   -1    0    0  502  501  0.00000000000E+00  0.00000000000E+00  0.24853336079E+03  0.24853336079E+03  0.00000000000E+00 0.  1.
         21   -1    0    0  501  502 -0.00000000000E+00 -0.00000000000E+00 -0.44722975973E+03  0.44722975973E+03  0.00000000000E+00 0.  1.
         25    1    1    2    0    0  0.16894675047E+03 -0.19158457583E+02  0.27354430834E+02  0.21279876850E+03  0.12500000000E+03 0.  0.
         25    1    1    2    0    0 -0.19084452089E+03 -0.85496532050E+02 -0.20249162037E+03  0.31679511433E+03  0.12500000000E+03 0.  0.
         25    1    1    2    0    0  0.21897770423E+02  0.10465498963E+03 -0.23559209403E+02  0.16616923768E+03  0.12500000000E+03 0.  0.
</event>
<event>
 5    0  0.5634041E-005  0.3191559E+03  0.7546771E-02  0.1076038E+00
         21   -1    0    0  502  501  0.00000000000E+00  0.00000000000E+00  0.10463387688E+04  0.10463387688E+04  0.00000000000E+00 0. -1.
         21   -1    0    0  501  502 -0.00000000000E+00 -0.00000000000E+00 -0.97349418155E+02  0.97349418155E+02  0.00000000000E+00 0. -1.
         25    1    1    2    0    0  0.18526904052E+03  0.73812301666E+02  0.22533715863E+03  0.32584460762E+03  0.12500000000E+03 0.  0.
         25    1    1    2    0    0 -0.58616299369E+02 -0.11401483744E+03  0.22946193669E+03  0.29105503620E+03  0.12500000000E+03 0.  0.
         25    1    1    2    0    0 -0.12665274116E+03  0.40202535774E+02  0.49419025536E+03  0.52678854318E+03  0.12500000000E+03 0.  0.
</event>
<event>
 5    0  0.5634041E-005  0.3113923E+03  0.7546771E-02  0.1079680E+00
         21   -1    0    0  502  501  0.00000000000E+00  0.00000000000E+00  0.70088155463E+02  0.70088155463E+02  0.00000000000E+00 0. -1.
         21   -1    0    0  501  502 -0.00000000000E+00 -0.00000000000E+00 -0.13834740092E+04  0.13834740092E+04  0.00000000000E+00 0. -1.
         25    1    1    2    0    0 -0.15795257418E+02 -0.59456768640E+02 -0.73028296040E+02  0.15729821842E+03  0.12500000000E+03 0.  0.
         25    1    1    2    0    0 -0.42455464160E+02  0.12290455162E+03 -0.35720968593E+03  0.40016465982E+03  0.12500000000E+03 0.  0.
         25    1    1    2    0    0  0.58250721578E+02 -0.63447782984E+02 -0.88314787175E+03  0.89609928641E+03  0.12500000000E+03 0.  0.
</event>
<event>
 5    0  0.5634041E-005  0.4764231E+03  0.7546771E-02  0.1020123E+00
         21   -1    0    0  502  501  0.00000000000E+00  0.00000000000E+00  0.11174155546E+04  0.11174155546E+04  0.00000000000E+00 0.  1.
         21   -1    0    0  501  502 -0.00000000000E+00 -0.00000000000E+00 -0.20312852970E+03  0.20312852970E+03  0.00000000000E+00 0.  1.
         25    1    1    2    0    0 -0.91267362242E+02  0.14516459554E+03  0.20361104767E+03  0.29408323642E+03  0.12500000000E+03 0.  0.
         25    1    1    2    0    0  0.15719896617E+03 -0.28838904490E+03  0.74370541686E+03  0.82255851053E+03  0.12500000000E+03 0.  0.
         25    1    1    2    0    0 -0.65931603926E+02  0.14322444936E+03 -0.33029439646E+02  0.20390233734E+03  0.12500000000E+03 0.  0.
</event>
<event>
 5    0  0.5634041E-005  0.4275159E+03  0.7546771E-02  0.1034648E+00
         21   -1    0    0  502  501  0.00000000000E+00  0.00000000000E+00  0.14653774708E+03  0.14653774708E+03  0.00000000000E+00 0. -1.
         21   -1    0    0  501  502 -0.00000000000E+00 -0.00000000000E+00 -0.12472545055E+04  0.12472545055E+04  0.00000000000E+00 0. -1.
         25    1    1    2    0    0 -0.14674845690E+03 -0.21967759364E+03 -0.79305412746E+03  0.84519418114E+03  0.12500000000E+03 0.  0.
         25    1    1    2    0    0  0.25098163976E+02  0.41251818164E+02  0.21327348681E+02  0.13568893153E+03  0.12500000000E+03 0.  0.
         25    1    1    2    0    0  0.12165029293E+03  0.17842577548E+03 -0.32898997965E+03  0.41290913993E+03  0.12500000000E+03 0.  0.
</event>
<event>
 5    0  0.5634041E-005  0.2904628E+03  0.7546771E-02  0.1090108E+00
         21   -1    0    0  502  501  0.00000000000E+00  0.00000000000E+00  0.49256013671E+03  0.49256013671E+03  0.00000000000E+00 0. -1.
         21   -1    0    0  501  502 -0.00000000000E+00 -0.00000000000E+00 -0.17128594542E+03  0.17128594542E+03  0.00000000000E+00 0. -1.
         25    1    1    2    0    0 -0.39856194912E+02 -0.47632615504E+02  0.13062619974E+03  0.19116899955E+03  0.12500000000E+03 0.  0.
         25    1    1    2    0    0 -0.27580077020E+02 -0.46387922183E+02  0.25622983434E+03  0.29015724699E+03  0.12500000000E+03 0.  0.
         25    1    1    2    0    0  0.67436271933E+02  0.94020537687E+02 -0.65581842789E+02  0.18251983559E+03  0.12500000000E+03 0.  0.
</event>
<event>
 5    0  0.5634041E-005  0.2327498E+03  0.7546771E-02  0.1124719E+00
         21   -1    0    0  502  501  0.00000000000E+00  0.00000000000E+00  0.49541228172E+02  0.49541228172E+02  0.00000000000E+00 0. -1.
         21   -1    0    0  501  502 -0.00000000000E+00 -0.00000000000E+00 -0.10934822281E+04  0.10934822281E+04  0.00000000000E+00 0. -1.
         25    1    1    2    0    0  0.49294337495E+02 -0.40374510038E+02 -0.38678907212E+03  0.41144965559E+03  0.12500000000E+03 0.  0.
         25    1    1    2    0    0 -0.15465206634E+02 -0.31712693731E+01 -0.53057175391E+03  0.54532615526E+03  0.12500000000E+03 0.  0.
         25    1    1    2    0    0 -0.33829130860E+02  0.43545779411E+02 -0.12658017387E+03  0.18624764540E+03  0.12500000000E+03 0.  0.
</event>
<event>
 5    0  0.5634041E-005  0.3740958E+03  0.7546771E-02  0.1053138E+00
         21   -1    0    0  502  501  0.00000000000E+00  0.00000000000E+00  0.63026032496E+03  0.63026032496E+03  0.00000000000E+00 0.  1.
         21   -1    0    0  501  502 -0.00000000000E+00 -0.00000000000E+00 -0.22204734860E+03  0.22204734860E+03  0.00000000000E+00 0.  1.
         25    1    1    2    0    0  0.88214285697E+02 -0.95990310300E+02 -0.39308648264E+02  0.18484066030E+03  0.12500000000E+03 0.  0.
         25    1    1    2    0    0  0.12579373067E+03  0.15094312640E+03  0.15301896999E+03  0.27865336040E+03  0.12500000000E+03 0.  0.
         25    1    1    2    0    0 -0.21400801637E+03 -0.54952816103E+02  0.29450265463E+03  0.38881365286E+03  0.12500000000E+03 0.  0.
</event>
<event>
 5    0  0.6025957E-005  0.6863456E+03  0.7546771E-02  0.9740872E-01
         21   -1    0    0  502  501  0.00000000000E+00  0.00000000000E+00  0.45002479038E+03  0.45002479038E+03  0.00000000000E+00 0.  1.
         21   -1    0    0  501  502 -0.00000000000E+00 -0.00000000000E+00 -0.10467651862E+04  0.10467651862E+04  0.00000000000E+00 0.  1.
         25    1    1    2    0    0 -0.28897883703E+03 -0.54158267275E+02 -0.10635978806E+03  0.33671841453E+03  0.12500000000E+03 0.  0.
         25    1    1    2    0    0  0.34115757856E+03 -0.32986358288E+03  0.38892402554E+02  0.49227644235E+03  0.12500000000E+03 0.  0.
         25    1    1    2    0    0 -0.52178741522E+02  0.38402185015E+03 -0.52927301032E+03  0.66779511972E+03  0.12500000000E+03 0.  0.
</event>
<event>
 5    0  0.5634041E-005  0.4506403E+03  0.7546771E-02  0.1027531E+00
         21   -1    0    0  502  501  0.00000000000E+00  0.00000000000E+00  0.13122619659E+04  0.13122619659E+04  0.00000000000E+00 0. -1.
         21   -1    0    0  501  502 -0.00000000000E+00 -0.00000000000E+00 -0.15475317434E+03  0.15475317434E+03  0.00000000000E+00 0. -1.
         25    1    1    2    0    0  0.82381806063E+02  0.20653654813E+03  0.74362023151E+02  0.26570438117E+03  0.12500000000E+03 0.  0.
         25    1    1    2    0    0 -0.91761134209E+02 -0.12460726932E+03  0.13267050052E+03  0.23910988902E+03  0.12500000000E+03 0.  0.
         25    1    1    2    0    0  0.93793281457E+01 -0.81929278812E+02  0.95047626785E+03  0.96220087002E+03  0.12500000000E+03 0.  0.
</event>
<event>
 5    0  0.5634041E-005  0.3801725E+03  0.7546771E-02  0.1050870E+00
         21   -1    0    0  502  501  0.00000000000E+00  0.00000000000E+00  0.23184785650E+03  0.23184785650E+03  0.00000000000E+00 0. -1.
         21   -1    0    0  501  502 -0.00000000000E+00 -0.00000000000E+00 -0.62338786714E+03  0.62338786714E+03  0.00000000000E+00 0. -1.
         25    1    1    2    0    0 -0.53934501242E+02 -0.14737318577E+03 -0.86647695399E+02  0.21854200838E+03  0.12500000000E+03 0.  0.
         25    1    1    2    0    0 -0.20688837743E+03  0.47399836593E+02 -0.18486572289E+03  0.30797707824E+03  0.12500000000E+03 0.  0.
         25    1    1    2    0    0  0.26082287867E+03  0.99973349179E+02 -0.12002659234E+03  0.32871663702E+03  0.12500000000E+03 0.  0.
</event>
<event>
 5    0  0.5634041E-005  0.2460835E+03  0.7546771E-02  0.1115805E+00
         21   -1    0    0  502  501  0.00000000000E+00  0.00000000000E+00  0.63172926993E+02  0.63172926993E+02  0.00000000000E+00 0.  1.
         21   -1    0    0  501  502 -0.00000000000E+00 -0.00000000000E+00 -0.95859271263E+03  0.95859271263E+03  0.00000000000E+00 0.  1.
         25    1    1    2    0    0  0.55894193939E+01  0.63065214903E+02 -0.34887884615E+03  0.37596530722E+03  0.12500000000E+03 0.  0.
         25    1    1    2    0    0  0.11065673145E+03 -0.25774085248E+02 -0.25356947474E+03  0.30468294045E+03  0.12500000000E+03 0.  0.
         25    1    1    2    0    0 -0.11624615084E+03 -0.37291129655E+02 -0.29297146476E+03  0.34111739196E+03  0.12500000000E+03 0.  0.
</event>
<event>
 5    0  0.5634041E-005  0.4858467E+03  0.7546771E-02  0.1017541E+00
         21   -1    0    0  502  501  0.00000000000E+00  0.00000000000E+00  0.25673593187E+03  0.25673593187E+03  0.00000000000E+00 0.  1.
         21   -1    0    0  501  502 -0.00000000000E+00 -0.00000000000E+00 -0.91941551788E+03  0.91941551788E+03  0.00000000000E+00 0.  1.
         25    1    1    2    0    0  0.47802763321E+02 -0.13772730859E+03 -0.66641750818E+03  0.69353529897E+03  0.12500000000E+03 0.  0.
         25    1    1    2    0    0 -0.10633012072E+03  0.45754383625E+02  0.17498034285E+03  0.24421850580E+03  0.12500000000E+03 0.  0.
         25    1    1    2    0    0  0.58527357395E+02  0.91972924968E+02 -0.17124242068E+03  0.23839764498E+03  0.12500000000E+03 0.  0.
</event>
<event>
 5    0  0.5777095E-005  0.3364015E+03  0.7546771E-02  0.1068339E+00
         21   -1    0    0  502  501  0.00000000000E+00  0.00000000000E+00  0.31044037192E+03  0.31044037192E+03  0.00000000000E+00 0.  1.
         21   -1    0    0  501  502 -0.00000000000E+00 -0.00000000000E+00 -0.36453373583E+03  0.36453373583E+03  0.00000000000E+00 0.  1.
         25    1    1    2    0    0  0.17879988068E+03  0.57096936571E+02  0.15954787015E+02  0.22607302521E+03  0.12500000000E+03 0.  0.
         25    1    1    2    0    0  0.46166146203E+02  0.55603460570E+02 -0.84995839973E+02  0.16754805488E+03  0.12500000000E+03 0.  0.
         25    1    1    2    0    0 -0.22496602688E+03 -0.11270039714E+03  0.14947689051E+02  0.28135302766E+03  0.12500000000E+03 0.  0.
</event>
<event>
 5    0  0.5634041E-005  0.2559019E+03  0.7546771E-02  0.1109631E+00
         21   -1    0    0  502  501  0.00000000000E+00  0.00000000000E+00  0.76624641264E+03  0.76624641264E+03  0.00000000000E+00 0.  1.
         21   -1    0    0  501  502 -0.00000000000E+00 -0.00000000000E+00 -0.85463102477E+02  0.85463102477E+02  0.00000000000E+00 0.  1.
         25    1    1    2    0    0 -0.36123901685E+02  0.97605580290E+02  0.47421209486E+03  0.50133212194E+03  0.12500000000E+03 0.  0.
         25    1    1    2    0    0  0.30212884960E+02 -0.82348361747E+02  0.14291970430E+03  0.20915332409E+03  0.12500000000E+03 0.  0.
         25    1    1    2    0    0  0.59110167257E+01 -0.15257218543E+02  0.63651510996E+02  0.14122406908E+03  0.12500000000E+03 0.  0.
</event>
<event>
 5    0  0.5634041E-005  0.5761080E+03  0.7546771E-02  0.9956253E-01
         21   -1    0    0  502  501  0.00000000000E+00  0.00000000000E+00  0.26694569136E+03  0.26694569136E+03  0.00000000000E+00 0.  1.
         21   -1    0    0  501  502 -0.00000000000E+00 -0.00000000000E+00 -0.12433254758E+04  0.12433254758E+04  0.00000000000E+00 0.  1.
         25    1    1    2    0    0  0.14207606888E+03 -0.36822132584E+03 -0.30464084638E+03  0.51400739239E+03  0.12500000000E+03 0.  0.
         25    1    1    2    0    0 -0.18255096763E+03 -0.36637056266E+02 -0.47923617380E+03  0.52911193518E+03  0.12500000000E+03 0.  0.
         25    1    1    2    0    0  0.40474898756E+02  0.40485838211E+03 -0.19250276430E+03  0.46715183961E+03  0.12500000000E+03 0.  0.
</event>
<event>
 5    0  0.5634041E-005  0.2655316E+03  0.7546771E-02  0.1103865E+00
         21   -1    0    0  502  501  0.00000000000E+00  0.00000000000E+00  0.70034345701E+03  0.70034345701E+03  0.00000000000E+00 0. -1.
         21   -1    0    0  501  502 -0.00000000000E+00 -0.00000000000E+00 -0.10067493875E+03  0.10067493875E+03  0.00000000000E+00 0. -1.
         25    1    1    2    0    0  0.11534703083E+03 -0.52118863090E+02  0.25195456731E+03  0.30842732921E+03  0.12500000000E+03 0.  0.
         25    1    1    2    0    0 -0.13744837036E+02  0.58808901473E+02  0.38814157946E+02  0.14414904195E+03  0.12500000000E+03 0.  0.
         25    1    1    2    0    0 -0.10160219380E+03 -0.66900383833E+01  0.30889979300E+03  0.34844202461E+03  0.12500000000E+03 0.  0.
</event>
<event>
 5    0  0.5634041E-005  0.3208716E+03  0.7546771E-02  0.1075249E+00
         21   -1    0    0  502  501  0.00000000000E+00  0.00000000000E+00  0.10789956821E+03  0.10789956821E+03  0.00000000000E+00 0.  1.
         21   -1    0    0  501  502 -0.00000000000E+00 -0.00000000000E+00 -0.95420753233E+03  0.95420753233E+03  0.00000000000E+00 0.  1.
         25    1    1    2    0    0  0.17451744409E+03  0.10981744981E+03 -0.18057750913E+03  0.30124648940E+03  0.12500000000E+03 0.  0.
         25    1    1    2    0    0 -0.33191918592E+02  0.14627484930E+02 -0.34292800101E+03  0.36679732912E+03  0.12500000000E+03 0.  0.
         25    1    1    2    0    0 -0.14132552549E+03 -0.12444493474E+03 -0.32280245398E+03  0.39406328202E+03  0.12500000000E+03 0.  0.
</event>
<event>
 5    0  0.5824714E-005  0.3321522E+03  0.7546771E-02  0.1070189E+00
         21   -1    0    0  502  501  0.00000000000E+00  0.00000000000E+00  0.15238397510E+03  0.15238397510E+03  0.00000000000E+00 0.  1.
         21   -1    0    0  501  502 -0.00000000000E+00 -0.00000000000E+00 -0.72399404938E+03  0.72399404938E+03  0.00000000000E+00 0.  1.
         25    1    1    2    0    0  0.81799727273E+02  0.58433340689E+02 -0.29002181860E+03  0.33142616968E+03  0.12500000000E+03 0.  0.
         25    1    1    2    0    0  0.87500834836E+02 -0.16970897051E+03 -0.14746402930E+03  0.27171339810E+03  0.12500000000E+03 0.  0.
         25    1    1    2    0    0 -0.16930056211E+03  0.11127562982E+03 -0.13412422637E+03  0.27323845670E+03  0.12500000000E+03 0.  0.
</event>
<event>
 5    0  0.5634041E-005  0.3606466E+03  0.7546771E-02  0.1058328E+00
         21   -1    0    0  502  501  0.00000000000E+00  0.00000000000E+00  0.62950060245E+03  0.62950060245E+03  0.00000000000E+00 0.  1.
         21   -1    0    0  501  502 -0.00000000000E+00 -0.00000000000E+00 -0.20661773909E+03  0.20661773909E+03  0.00000000000E+00 0.  1.
         25    1    1    2    0    0 -0.14408146303E+03  0.82090963780E+02  0.27965274673E+03  0.34832320204E+03  0.12500000000E+03 0.  0.
         25    1    1    2    0    0  0.24517539220E+03 -0.12080401476E+03  0.82877123184E+02  0.31176625935E+03  0.12500000000E+03 0.  0.
         25    1    1    2    0    0 -0.10109392916E+03  0.38713050979E+02  0.60352993453E+02  0.17602888016E+03  0.12500000000E+03 0.  0.
</event>
<event>
 5    0  0.5634041E-005  0.2385912E+03  0.7546771E-02  0.1120735E+00
         21   -1    0    0  502  501  0.00000000000E+00  0.00000000000E+00  0.71360251608E+02  0.71360251608E+02  0.00000000000E+00 0.  1.
         21   -1    0    0  501  502 -0.00000000000E+00 -0.00000000000E+00 -0.79772388633E+03  0.79772388633E+03  0.00000000000E+00 0.  1.
         25    1    1    2    0    0  0.11557445930E+02 -0.25626805462E+01 -0.65185271402E+02  0.14147176925E+03  0.12500000000E+03 0.  0.
         25    1    1    2    0    0  0.43161956660E+02  0.44404579750E+02 -0.19281664460E+03  0.23798735185E+03  0.12500000000E+03 0.  0.
         25    1    1    2    0    0 -0.54719402590E+02 -0.41841899204E+02 -0.46836171873E+03  0.48962501684E+03  0.12500000000E+03 0.  0.
</event>
<event>
 5    0  0.5634041E-005  0.3431010E+03  0.7546771E-02  0.1065483E+00
         21   -1    0    0  502  501  0.00000000000E+00  0.00000000000E+00  0.39727975258E+03  0.39727975258E+03  0.00000000000E+00 0. -1.
         21   -1    0    0  501  502 -0.00000000000E+00 -0.00000000000E+00 -0.29631088970E+03  0.29631088970E+03  0.00000000000E+00 0. -1.
         25    1    1    2    0    0 -0.88764017214E+02 -0.44973000980E+02  0.14797983902E+03  0.21777202374E+03  0.12500000000E+03 0.  0.
         25    1    1    2    0    0  0.61471284812E+02 -0.58679154580E+02 -0.20024386575E+03  0.25088756009E+03  0.12500000000E+03 0.  0.
         25    1    1    2    0    0  0.27292732402E+02  0.10365215556E+03  0.15323288962E+03  0.22493105845E+03  0.12500000000E+03 0.  0.
</event>
<event>
 5    0  0.5634041E-005  0.2363342E+03  0.7546771E-02  0.1122259E+00
         21   -1    0    0  502  501  0.00000000000E+00  0.00000000000E+00  0.46166455041E+02  0.46166455041E+02  0.00000000000E+00 0. -1.
         21   -1    0    0  501  502 -0.00000000000E+00 -0.00000000000E+00 -0.12098360295E+04  0.12098360295E+04  0.00000000000E+00 0. -1.
         25    1    1    2    0    0  0.65301174234E+02  0.31815994321E+02 -0.62160792295E+03  0.63819895857E+03  0.12500000000E+03 0.  0.
         25    1    1    2    0    0 -0.61669401722E+01  0.42000261695E+02 -0.31840332065E+03  0.34468496883E+03  0.12500000000E+03 0.  0.
         25    1    1    2    0    0 -0.59134234062E+02 -0.73816256017E+02 -0.22365833085E+03  0.27311855713E+03  0.12500000000E+03 0.  0.
</event>
<event>
 5    0  0.5634041E-005  0.2676758E+03  0.7546771E-02  0.1102617E+00
         21   -1    0    0  502  501  0.00000000000E+00  0.00000000000E+00  0.35076096441E+03  0.35076096441E+03  0.00000000000E+00 0.  1.
         21   -1    0    0  501  502 -0.00000000000E+00 -0.00000000000E+00 -0.20427109273E+03  0.20427109273E+03  0.00000000000E+00 0.  1.
         25    1    1    2    0    0  0.26595281918E+02 -0.13087602517E+03 -0.45054463708E+02  0.18838988212E+03  0.12500000000E+03 0.  0.
         25    1    1    2    0    0 -0.17056982415E+02  0.12721213114E+03  0.15253284428E+03  0.23529797182E+03  0.12500000000E+03 0.  0.
         25    1    1    2    0    0 -0.95382995036E+01  0.36638940327E+01  0.39011491104E+02  0.13134420320E+03  0.12500000000E+03 0.  0.
</event>
<event>
 5    0  0.5634041E-005  0.2689143E+03  0.7546771E-02  0.1101903E+00
         21   -1    0    0  502  501  0.00000000000E+00  0.00000000000E+00  0.11479989356E+03  0.11479989356E+03  0.00000000000E+00 0. -1.
         21   -1    0    0  501  502 -0.00000000000E+00 -0.00000000000E+00 -0.62992146661E+03  0.62992146661E+03  0.00000000000E+00 0. -1.
         25    1    1    2    0    0  0.27087864103E+02 -0.35396328683E+02  0.21866307435E+02  0.13449828202E+03  0.12500000000E+03 0.  0.
         25    1    1    2    0    0  0.55695658033E+02  0.13295008561E+02 -0.23264114047E+03  0.27023261057E+03  0.12500000000E+03 0.  0.
         25    1    1    2    0    0 -0.82783522136E+02  0.22101320123E+02 -0.30434674001E+03  0.33999046758E+03  0.12500000000E+03 0.  0.
</event>
<event>
 5    0  0.5634041E-005  0.2325894E+03  0.7546771E-02  0.1124830E+00
         21   -1    0    0  502  501  0.00000000000E+00  0.00000000000E+00  0.98801559858E+02  0.98801559858E+02  0.00000000000E+00 0.  1.
         21   -1    0    0  501  502 -0.00000000000E+00 -0.00000000000E+00 -0.54754033010E+03  0.54754033010E+03  0.00000000000E+00 0.  1.
         25    1    1    2    0    0 -0.94869681074E+02 -0.24838337335E+02 -0.22738407510E+03  0.27739091008E+03  0.12500000000E+03 0.  0.
         25    1    1    2    0    0  0.18339076138E+01 -0.30887768262E+02 -0.82570646950E+02  0.15297166137E+03  0.12500000000E+03 0.  0.
         25    1    1    2    0    0  0.93035773460E+02  0.55726105596E+02 -0.13878404820E+03  0.21597931851E+03  0.12500000000E+03 0.  0.
</event>
<event>
 5    0  0.5634041E-005  0.2756605E+03  0.7546771E-02  0.1098083E+00
         21   -1    0    0  502  501  0.00000000000E+00  0.00000000000E+00  0.10763327104E+04  0.10763327104E+04  0.00000000000E+00 0. -1.
         21   -1    0    0  501  502 -0.00000000000E+00 -0.00000000000E+00 -0.70599627273E+02  0.70599627273E+02  0.00000000000E+00 0. -1.
         25    1    1    2    0    0  0.34621846557E+02 -0.41910467462E+02  0.49549612739E+03  0.51390327086E+03  0.12500000000E+03 0.  0.
         25    1    1    2    0    0 -0.15668274213E+02 -0.96575678699E+02  0.11643691090E+03  0.19686266978E+03  0.12500000000E+03 0.  0.
         25    1    1    2    0    0 -0.18953572344E+02  0.13848614616E+03  0.39380004479E+03  0.43616639698E+03  0.12500000000E+03 0.  0.
</event>
<event>
 5    0  0.5634041E-005  0.3925589E+03  0.7546771E-02  0.1046387E+00
         21   -1    0    0  502  501  0.00000000000E+00  0.00000000000E+00  0.88223802844E+03  0.88223802844E+03  0.00000000000E+00 0.  1.
         21   -1    0    0  501  502 -0.00000000000E+00 -0.00000000000E+00 -0.17467226927E+03  0.17467226927E+03  0.00000000000E+00 0.  1.
         25    1    1    2    0    0  0.31305692556E+02 -0.84580624950E+02  0.90477883247E+01  0.15440463392E+03  0.12500000000E+03 0.  0.
         25    1    1    2    0    0  0.12333679437E+03 -0.12232072003E+03  0.94814654555E+02  0.23407080577E+03  0.12500000000E+03 0.  0.
         25    1    1    2    0    0 -0.15464248693E+03  0.20690134498E+03  0.60370331629E+03  0.66843485802E+03  0.12500000000E+03 0.  0.
</event>
<event>
 5    0  0.5634041E-005  0.3111750E+03  0.7546771E-02  0.1079784E+00
         21   -1    0    0  502  501  0.00000000000E+00  0.00000000000E+00  0.20924590882E+03  0.20924590882E+03  0.00000000000E+00 0.  1.
         21   -1    0    0  501  502 -0.00000000000E+00 -0.00000000000E+00 -0.46275644186E+03  0.46275644186E+03  0.00000000000E+00 0.  1.
         25    1    1    2    0    0 -0.10680042904E+02 -0.14007836057E+02 -0.30508681577E+03  0.33017154321E+03  0.12500000000E+03 0.  0.
         25    1    1    2    0    0 -0.67739434756E+02 -0.15991286978E+02 -0.59258538550E+02  0.15485776271E+03  0.12500000000E+03 0.  0.
         25    1    1    2    0    0  0.78419477660E+02  0.29999123035E+02  0.11083482128E+03  0.18697304476E+03  0.12500000000E+03 0.  0.
</event>
<event>
 5    0  0.5634041E-005  0.7686991E+03  0.7546771E-02  0.9606463E-01
         21   -1    0    0  502  501  0.00000000000E+00  0.00000000000E+00  0.44238854800E+03  0.44238854800E+03  0.00000000000E+00 0. -1.
         21   -1    0    0  501  502 -0.00000000000E+00 -0.00000000000E+00 -0.13356997245E+04  0.13356997245E+04  0.00000000000E+00 0. -1.
         25    1    1    2    0    0  0.12926810461E+03  0.19377050412E+03  0.17723885275E+01  0.26435845456E+03  0.12500000000E+03 0.  0.
         25    1    1    2    0    0 -0.38556298146E+03 -0.33601008338E+03 -0.10384631356E+04  0.11642990479E+04  0.12500000000E+03 0.  0.
         25    1    1    2    0    0  0.25629487686E+03  0.14223957926E+03  0.14337957060E+03  0.34943077008E+03  0.12500000000E+03 0.  0.
</event>
<event>
 5    0  0.5634041E-005  0.2918136E+03  0.7546771E-02  0.1089406E+00
         21   -1    0    0  502  501  0.00000000000E+00  0.00000000000E+00  0.95002567529E+02  0.95002567529E+02  0.00000000000E+00 0. -1.
         21   -1    0    0  501  502 -0.00000000000E+00 -0.00000000000E+00 -0.89634625551E+03  0.89634625551E+03  0.00000000000E+00 0. -1.
         25    1    1    2    0    0  0.11584042912E+03  0.16051534251E+03 -0.38831992491E+03  0.45343306483E+03  0.12500000000E+03 0.  0.
         25    1    1    2    0    0 -0.10780282638E+03 -0.39940833046E+02 -0.18432952363E+03  0.25063737311E+03  0.12500000000E+03 0.  0.
         25    1    1    2    0    0 -0.80376027417E+01 -0.12057450946E+03 -0.22869423944E+03  0.28727838510E+03  0.12500000000E+03 0.  0.
</event>
<event>
 5    0  0.5634041E-005  0.2843023E+03  0.7546771E-02  0.1093362E+00
         21   -1    0    0  502  501  0.00000000000E+00  0.00000000000E+00  0.79399410426E+03  0.79399410426E+03  0.00000000000E+00 0. -1.
         21   -1    0    0  501  502 -0.00000000000E+00 -0.00000000000E+00 -0.10179902296E+03  0.10179902296E+03  0.00000000000E+00 0. -1.
         25    1    1    2    0    0  0.11662904315E+03 -0.31441635675E+02  0.14074938489E+03  0.22366559750E+03  0.12500000000E+03 0.  0.
         25    1    1    2    0    0  0.18281591469E+02  0.61846831039E+02  0.42292983393E+03  0.44570605955E+03  0.12500000000E+03 0.  0.
         25    1    1    2    0    0 -0.13491063462E+03 -0.30405195364E+02  0.12851586249E+03  0.22642147016E+03  0.12500000000E+03 0.  0.
</event>
<event>
 5    0  0.5634041E-005  0.6612391E+03  0.7546771E-02  0.9785915E-01
         21   -1    0    0  502  501  0.00000000000E+00  0.00000000000E+00  0.85928152585E+03  0.85928152585E+03  0.00000000000E+00 0. -1.
         21   -1    0    0  501  502 -0.00000000000E+00 -0.00000000000E+00 -0.50884033155E+03  0.50884033155E+03  0.00000000000E+00 0. -1.
         25    1    1    2    0    0  0.45093540455E+02  0.11235301944E+03 -0.14502148321E+03  0.22652341813E+03  0.12500000000E+03 0.  0.
         25    1    1    2    0    0 -0.35796226071E+03 -0.38199749217E+03  0.46104921450E+03  0.70869629765E+03  0.12500000000E+03 0.  0.
         25    1    1    2    0    0  0.31286872025E+03  0.26964447273E+03  0.34413463003E+02  0.43290214162E+03  0.12500000000E+03 0.  0.
</event>
<event>
 5    0  0.5634041E-005  0.2695137E+03  0.7546771E-02  0.1101558E+00
         21   -1    0    0  502  501  0.00000000000E+00  0.00000000000E+00  0.36267592616E+03  0.36267592616E+03  0.00000000000E+00 0. -1.
         21   -1    0    0  501  502 -0.00000000000E+00 -0.00000000000E+00 -0.20028254114E+03  0.20028254114E+03  0.00000000000E+00 0. -1.
         25    1    1    2    0    0  0.28405460171E+02 -0.70086303644E+02  0.23656298359E+03  0.27803957512E+03  0.12500000000E+03 0.  0.
         25    1    1    2    0    0  0.22205820141E+02  0.13812286362E+02 -0.21013922516E+02  0.12942357839E+03  0.12500000000E+03 0.  0.
         25    1    1    2    0    0 -0.50611280312E+02  0.56274017282E+02 -0.53155676048E+02  0.15549531379E+03  0.12500000000E+03 0.  0.
</event>
<event>
 5    0  0.5634041E-005  0.5023936E+03  0.7546771E-02  0.1013156E+00
         21   -1    0    0  502  501  0.00000000000E+00  0.00000000000E+00  0.80362503991E+03  0.80362503991E+03  0.00000000000E+00 0.  1.
         21   -1    0    0  501  502 -0.00000000000E+00 -0.00000000000E+00 -0.31407594844E+03  0.31407594844E+03  0.00000000000E+00 0.  1.
         25    1    1    2    0    0  0.12619158783E+03  0.17685395853E+03 -0.64833607309E+02  0.25890159544E+03  0.12500000000E+03 0.  0.
         25    1    1    2    0    0 -0.11338078747E+03 -0.16555362797E+03  0.65568421688E+03  0.69700071662E+03  0.12500000000E+03 0.  0.
         25    1    1    2    0    0 -0.12810800361E+02 -0.11300330555E+02 -0.10130151810E+03  0.16179867628E+03  0.12500000000E+03 0.  0.
</event>
<event>
 5    0  0.5634041E-005  0.5881431E+03  0.7546771E-02  0.9930315E-01
         21   -1    0    0  502  501  0.00000000000E+00  0.00000000000E+00  0.13789580866E+04  0.13789580866E+04  0.00000000000E+00 0.  1.
         21   -1    0    0  501  502 -0.00000000000E+00 -0.00000000000E+00 -0.25085051604E+03  0.25085051604E+03  0.00000000000E+00 0.  1.
         25    1    1    2    0    0 -0.42835388169E+02 -0.13034568281E+03  0.42628558569E+03  0.46494006933E+03  0.12500000000E+03 0.  0.
         25    1    1    2    0    0 -0.11245568000E+03  0.30147145808E+03 -0.67671178365E+02  0.35176086818E+03  0.12500000000E+03 0.  0.
         25    1    1    2    0    0  0.15529106817E+03 -0.17112577527E+03  0.76949316322E+03  0.81310766511E+03  0.12500000000E+03 0.  0.
</event>
<event>
 5    0  0.5634041E-005  0.3155487E+03  0.7546771E-02  0.1077716E+00
         21   -1    0    0  502  501  0.00000000000E+00  0.00000000000E+00  0.30663399681E+03  0.30663399681E+03  0.00000000000E+00 0. -1.
         21   -1    0    0  501  502 -0.00000000000E+00 -0.00000000000E+00 -0.32472255476E+03  0.32472255476E+03  0.00000000000E+00 0. -1.
         25    1    1    2    0    0 -0.29218015050E+02  0.17611246820E+03  0.55504544637E+02  0.22488896890E+03  0.12500000000E+03 0.  0.
         25    1    1    2    0    0  0.61450111388E+01  0.48540598217E+02 -0.62597159401E+02  0.14811264363E+03  0.12500000000E+03 0.  0.
         25    1    1    2    0    0  0.23073003911E+02 -0.22465306642E+03 -0.10995943182E+02  0.25835493904E+03  0.12500000000E+03 0.  0.
</event>
<event>
 5    0  0.5634041E-005  0.2943164E+03  0.7546771E-02  0.1088117E+00
         21   -1    0    0  502  501  0.00000000000E+00  0.00000000000E+00  0.81856963409E+02  0.81856963409E+02  0.00000000000E+00 0.  1.
         21   -1    0    0  501  502 -0.00000000000E+00 -0.00000000000E+00 -0.10582131764E+04  0.10582131764E+04  0.00000000000E+00 0.  1.
         25    1    1    2    0    0 -0.19147728453E+02  0.72363204859E+02 -0.52225136365E+03  0.54219420483E+03  0.12500000000E+03 0.  0.
         25    1    1    2    0    0 -0.32373640966E+02  0.95770881527E+02 -0.12187895867E+03  0.20174140612E+03  0.12500000000E+03 0.  0.
         25    1    1    2    0    0  0.51521369419E+02 -0.16813408639E+03 -0.33222589064E+03  0.39613452882E+03  0.12500000000E+03 0.  0.
</event>
<event>
 5    0  0.5634041E-005  0.2040181E+03  0.7546771E-02  0.1146393E+00
         21   -1    0    0  502  501  0.00000000000E+00  0.00000000000E+00  0.13530373865E+03  0.13530373865E+03  0.00000000000E+00 0. -1.
         21   -1    0    0  501  502 -0.00000000000E+00 -0.00000000000E+00 -0.30762915086E+03  0.30762915086E+03  0.00000000000E+00 0. -1.
         25    1    1    2    0    0 -0.26620099923E+02 -0.77258315498E+01 -0.99869091015E+02  0.16237965862E+03  0.12500000000E+03 0.  0.
         25    1    1    2    0    0  0.14138810161E+02  0.47697057368E+02 -0.10651808577E+02  0.13495694225E+03  0.12500000000E+03 0.  0.
         25    1    1    2    0    0  0.12481289763E+02 -0.39971225819E+02 -0.61804512623E+02  0.14559628865E+03  0.12500000000E+03 0.  0.
</event>
<event>
 5    0  0.5634041E-005  0.2592517E+03  0.7546771E-02  0.1107594E+00
         21   -1    0    0  502  501  0.00000000000E+00  0.00000000000E+00  0.55772688369E+03  0.55772688369E+03  0.00000000000E+00 0. -1.
         21   -1    0    0  501  502 -0.00000000000E+00 -0.00000000000E+00 -0.12050955936E+03  0.12050955936E+03  0.00000000000E+00 0. -1.
         25    1    1    2    0    0 -0.53864351703E+02 -0.20123432071E+02  0.28163009368E+02  0.14044385355E+03  0.12500000000E+03 0.  0.
         25    1    1    2    0    0 -0.59238547210E+02 -0.43114810454E+02  0.87492783299E+02  0.16925743554E+03  0.12500000000E+03 0.  0.
         25    1    1    2    0    0  0.11310289891E+03  0.63238242524E+02  0.32156153166E+03  0.36853515396E+03  0.12500000000E+03 0.  0.
</event>
<event>
 5    0  0.5634041E-005  0.3515652E+03  0.7546771E-02  0.1061974E+00
         21   -1    0    0  502  501  0.00000000000E+00  0.00000000000E+00  0.20798211286E+04  0.20798211286E+04  0.00000000000E+00 0.  1.
         21   -1    0    0  501  502 -0.00000000000E+00 -0.00000000000E+00 -0.59427284557E+02  0.59427284557E+02  0.00000000000E+00 0.  1.
         25    1    1    2    0    0  0.34573343500E+00 -0.27066178344E+03  0.60748031084E+03  0.67669435390E+03  0.12500000000E+03 0.  0.
         25    1    1    2    0    0  0.29680082833E+02  0.17513570676E+03  0.77806310608E+03  0.80781224312E+03  0.12500000000E+03 0.  0.
         25    1    1    2    0    0 -0.30025816268E+02  0.95526076680E+02  0.63485042714E+03  0.65474181615E+03  0.12500000000E+03 0.  0.
</event>
<event>
 5    0  0.5634041E-005  0.3043415E+03  0.7546771E-02  0.1083090E+00
         21   -1    0    0  502  501  0.00000000000E+00  0.00000000000E+00  0.13105905082E+04  0.13105905082E+04  0.00000000000E+00 0.  1.
         21   -1    0    0  501  502 -0.00000000000E+00 -0.00000000000E+00 -0.70673273050E+02  0.70673273050E+02  0.00000000000E+00 0.  1.
         25    1    1    2    0    0  0.20338407035E+03 -0.82126297295E+02  0.71851203126E+03  0.76157359976E+03  0.12500000000E+03 0.  0.
         25    1    1    2    0    0 -0.92072753331E+02  0.34740738960E+02  0.28165865089E+03  0.32348246702E+03  0.12500000000E+03 0.  0.
         25    1    1    2    0    0 -0.11131131702E+03  0.47385558335E+02  0.23974655299E+03  0.29620771446E+03  0.12500000000E+03 0.  0.
</event>
<event>
 5    0  0.5634041E-005  0.3535077E+03  0.7546771E-02  0.1061184E+00
         21   -1    0    0  502  501  0.00000000000E+00  0.00000000000E+00  0.18503886186E+04  0.18503886186E+04  0.00000000000E+00 0.  1.
         21   -1    0    0  501  502 -0.00000000000E+00 -0.00000000000E+00 -0.67535909226E+02  0.67535909226E+02  0.00000000000E+00 0.  1.
         25    1    1    2    0    0 -0.22712749433E+03 -0.10772025722E+03  0.84694166603E+03  0.89225878429E+03  0.12500000000E+03 0.  0.
         25    1    1    2    0    0  0.66398767021E+02 -0.43971173895E+02  0.21325394997E+03  0.25970080395E+03  0.12500000000E+03 0.  0.
         25    1    1    2    0    0  0.16072872731E+03  0.15169143112E+03  0.72265709340E+03  0.76596493960E+03  0.12500000000E+03 0.  0.
</event>
<event>
 5    0  0.5634041E-005  0.2706995E+03  0.7546771E-02  0.1100880E+00
         21   -1    0    0  502  501  0.00000000000E+00  0.00000000000E+00  0.98110086482E+02  0.98110086482E+02  0.00000000000E+00 0.  1.
         21   -1    0    0  501  502 -0.00000000000E+00 -0.00000000000E+00 -0.74689793709E+03  0.74689793709E+03  0.00000000000E+00 0.  1.
         25    1    1    2    0    0 -0.73166807742E+02  0.71939501575E+01 -0.17615296838E+03  0.22816661225E+03  0.12500000000E+03 0.  0.
         25    1    1    2    0    0  0.51383999978E+02  0.13266648797E+03 -0.14436963706E+03  0.23813505535E+03  0.12500000000E+03 0.  0.
         25    1    1    2    0    0  0.21782807764E+02 -0.13986043813E+03 -0.32826524517E+03  0.37870635597E+03  0.12500000000E+03 0.  0.
</event>
<event>
 5    0  0.5634041E-005  0.3996469E+03  0.7546771E-02  0.1043902E+00
         21   -1    0    0  502  501  0.00000000000E+00  0.00000000000E+00  0.94051024203E+03  0.94051024203E+03  0.00000000000E+00 0. -1.
         21   -1    0    0  501  502 -0.00000000000E+00 -0.00000000000E+00 -0.16982022883E+03  0.16982022883E+03  0.00000000000E+00 0. -1.
         25    1    1    2    0    0 -0.20302653588E+03 -0.23306464440E+02  0.39792553831E+03  0.46447034308E+03  0.12500000000E+03 0.  0.
         25    1    1    2    0    0  0.29092834750E+03 -0.81969971689E+02  0.30811921012E+03  0.44935601396E+03  0.12500000000E+03 0.  0.
         25    1    1    2    0    0 -0.87901811620E+02  0.10527643613E+03  0.64645264766E+02  0.19650411382E+03  0.12500000000E+03 0.  0.
</event>
<event>
 5    0  0.5634041E-005  0.2708261E+03  0.7546771E-02  0.1100808E+00
         21   -1    0    0  502  501  0.00000000000E+00  0.00000000000E+00  0.17360123459E+04  0.17360123459E+04  0.00000000000E+00 0. -1.
         21   -1    0    0  501  502 -0.00000000000E+00 -0.00000000000E+00 -0.42250154149E+02  0.42250154149E+02  0.00000000000E+00 0. -1.
         25    1    1    2    0    0 -0.57606836332E+02 -0.60965800183E+02  0.28230580129E+03  0.31993271453E+03  0.12500000000E+03 0.  0.
         25    1    1    2    0    0 -0.11716928798E+02  0.12789785098E+03  0.10305643822E+04  0.10460320705E+04  0.12500000000E+03 0.  0.
         25    1    1    2    0    0  0.69323765130E+02 -0.66932050797E+02  0.38089200830E+03  0.41229771504E+03  0.12500000000E+03 0.  0.
</event>
<event>
 5    0  0.5634041E-005  0.3044664E+03  0.7546771E-02  0.1083029E+00
         21   -1    0    0  502  501  0.00000000000E+00  0.00000000000E+00  0.13994032788E+03  0.13994032788E+03  0.00000000000E+00 0. -1.
         21   -1    0    0  501  502 -0.00000000000E+00 -0.00000000000E+00 -0.66242372352E+03  0.66242372352E+03  0.00000000000E+00 0. -1.
         25    1    1    2    0    0 -0.22610341043E+02  0.32079945830E+00 -0.28173302907E+03  0.30904664713E+03  0.12500000000E+03 0.  0.
         25    1    1    2    0    0  0.46152389918E+02 -0.10070461500E+03  0.37633059340E+02  0.17120954919E+03  0.12500000000E+03 0.  0.
         25    1    1    2    0    0 -0.23542048874E+02  0.10038381554E+03 -0.27838342591E+03  0.32210785509E+03  0.12500000000E+03 0.  0.
</event>
<event>
 5    0  0.5634041E-005  0.2792109E+03  0.7546771E-02  0.1096121E+00
         21   -1    0    0  502  501  0.00000000000E+00  0.00000000000E+00  0.14437225318E+04  0.14437225318E+04  0.00000000000E+00 0. -1.
         21   -1    0    0  501  502 -0.00000000000E+00 -0.00000000000E+00 -0.53998423884E+02  0.53998423884E+02  0.00000000000E+00 0. -1.
         25    1    1    2    0    0 -0.12292483785E+03 -0.99872591245E+02  0.34242700671E+03  0.39744975175E+03  0.12500000000E+03 0.  0.
         25    1    1    2    0    0  0.40071294254E+02  0.80750513295E+02  0.76163851406E+03  0.77707437233E+03  0.12500000000E+03 0.  0.
         25    1    1    2    0    0  0.82853543596E+02  0.19122077950E+02  0.28565858713E+03  0.32319683159E+03  0.12500000000E+03 0.  0.
</event>
<event>
 5    0  0.5634041E-005  0.3727658E+03  0.7546771E-02  0.1053640E+00
         21   -1    0    0  502  501  0.00000000000E+00  0.00000000000E+00  0.19719313669E+04  0.19719313669E+04  0.00000000000E+00 0. -1.
         21   -1    0    0  501  502 -0.00000000000E+00 -0.00000000000E+00 -0.70466096722E+02  0.70466096722E+02  0.00000000000E+00 0. -1.
         25    1    1    2    0    0 -0.46973019768E+02 -0.12660588192E+03  0.37994109543E+03  0.42215607294E+03  0.12500000000E+03 0.  0.
         25    1    1    2    0    0  0.96363761037E+02 -0.50623909688E+02  0.12846697249E+04  0.12953185156E+04  0.12500000000E+03 0.  0.
         25    1    1    2    0    0 -0.49390741269E+02  0.17722979161E+03  0.23685444980E+03  0.32492287507E+03  0.12500000000E+03 0.  0.
</event>
<event>
 5    0  0.5664229E-005  0.2921091E+03  0.7546771E-02  0.1089253E+00
         21   -1    0    0  502  501  0.00000000000E+00  0.00000000000E+00  0.20948938782E+03  0.20948938782E+03  0.00000000000E+00 0.  1.
         21   -1    0    0  501  502 -0.00000000000E+00 -0.00000000000E+00 -0.40731284180E+03  0.40731284180E+03  0.00000000000E+00 0.  1.
         25    1    1    2    0    0 -0.17011211848E+02 -0.62275059688E+02 -0.16232269366E+03  0.21480507738E+03  0.12500000000E+03 0.  0.
         25    1    1    2    0    0 -0.42695583176E+02 -0.11099234595E+03 -0.50163815150E+02  0.17967643705E+03  0.12500000000E+03 0.  0.
         25    1    1    2    0    0  0.59706795023E+02  0.17326740563E+03  0.14663054830E+02  0.22232071519E+03  0.12500000000E+03 0.  0.
</event>
<event>
 5    0  0.5634041E-005  0.4104702E+03  0.7546771E-02  0.1040213E+00
         21   -1    0    0  502  501  0.00000000000E+00  0.00000000000E+00  0.78522042274E+03  0.78522042274E+03  0.00000000000E+00 0.  1.
         21   -1    0    0  501  502 -0.00000000000E+00 -0.00000000000E+00 -0.21457128066E+03  0.21457128066E+03  0.00000000000E+00 0.  1.
         25    1    1    2    0    0  0.99410888336E+02 -0.69559864059E+01  0.10398868776E+03  0.19070804296E+03  0.12500000000E+03 0.  0.
         25    1    1    2    0    0  0.23158273066E+03 -0.87853117380E+02  0.11190322244E+03  0.29915892526E+03  0.12500000000E+03 0.  0.
         25    1    1    2    0    0 -0.33099361899E+03  0.94809103786E+02  0.35475723188E+03  0.50992473518E+03  0.12500000000E+03 0.  0.
</event>
<event>
 5    0  0.5634041E-005  0.4980402E+03  0.7546771E-02  0.1014292E+00
         21   -1    0    0  502  501  0.00000000000E+00  0.00000000000E+00  0.36585283478E+03  0.36585283478E+03  0.00000000000E+00 0. -1.
         21   -1    0    0  501  502 -0.00000000000E+00 -0.00000000000E+00 -0.67798859157E+03  0.67798859157E+03  0.00000000000E+00 0. -1.
         25    1    1    2    0    0  0.19212705442E+03 -0.21179494923E+03 -0.13251438261E+03  0.33905009535E+03  0.12500000000E+03 0.  0.
         25    1    1    2    0    0 -0.34772346832E+03  0.28652348906E+03 -0.13931631051E+03  0.48789481918E+03  0.12500000000E+03 0.  0.
         25    1    1    2    0    0  0.15559641390E+03 -0.74728539837E+02 -0.40305063668E+02  0.21689651182E+03  0.12500000000E+03 0.  0.
</event>
<event>
 5    0  0.5634041E-005  0.4380846E+03  0.7546771E-02  0.1031336E+00
         21   -1    0    0  502  501  0.00000000000E+00  0.00000000000E+00  0.58266110667E+03  0.58266110667E+03  0.00000000000E+00 0. -1.
         21   -1    0    0  501  502 -0.00000000000E+00 -0.00000000000E+00 -0.32938206632E+03  0.32938206632E+03  0.00000000000E+00 0. -1.
         25    1    1    2    0    0 -0.17501811590E+03  0.11015667048E+03  0.40785852619E+00  0.24164229616E+03  0.12500000000E+03 0.  0.
         25    1    1    2    0    0  0.16738615134E+02  0.54530762851E+02 -0.14188100700E+03  0.19750697578E+03  0.12500000000E+03 0.  0.
         25    1    1    2    0    0  0.15827950077E+03 -0.16468743334E+03  0.39475218883E+03  0.47289390105E+03  0.12500000000E+03 0.  0.
</event>
<event>
 5    0  0.5634041E-005  0.2589582E+03  0.7546771E-02  0.1107771E+00
         21   -1    0    0  502  501  0.00000000000E+00  0.00000000000E+00  0.94298451707E+02  0.94298451707E+02  0.00000000000E+00 0. -1.
         21   -1    0    0  501  502 -0.00000000000E+00 -0.00000000000E+00 -0.71113925960E+03  0.71113925960E+03  0.00000000000E+00 0. -1.
         25    1    1    2    0    0  0.13168113698E+02 -0.59060255645E+02 -0.64438035074E+02  0.15309726771E+03  0.12500000000E+03 0.  0.
         25    1    1    2    0    0 -0.67901841734E+02 -0.65923334872E+02 -0.30987318045E+03  0.34727933159E+03  0.12500000000E+03 0.  0.
         25    1    1    2    0    0  0.54733728035E+02  0.12498359052E+03 -0.24252959238E+03  0.30506111201E+03  0.12500000000E+03 0.  0.
</event>
<event>
 5    0  0.5634041E-005  0.2775964E+03  0.7546771E-02  0.1097009E+00
         21   -1    0    0  502  501  0.00000000000E+00  0.00000000000E+00  0.60019921916E+03  0.60019921916E+03  0.00000000000E+00 0. -1.
         21   -1    0    0  501  502 -0.00000000000E+00 -0.00000000000E+00 -0.12839029159E+03  0.12839029159E+03  0.00000000000E+00 0. -1.
         25    1    1    2    0    0  0.41247293274E+02 -0.63582507969E+02  0.25332469830E+03  0.29247645596E+03  0.12500000000E+03 0.  0.
         25    1    1    2    0    0 -0.57368400274E+01  0.99704531134E+02  0.25073833033E+03  0.29743674144E+03  0.12500000000E+03 0.  0.
         25    1    1    2    0    0 -0.35510453246E+02 -0.36122023165E+02 -0.32254101065E+02  0.13867631334E+03  0.12500000000E+03 0.  0.
</event>
<event>
 5    0  0.5634041E-005  0.4047299E+03  0.7546771E-02  0.1042154E+00
         21   -1    0    0  502  501  0.00000000000E+00  0.00000000000E+00  0.14185573924E+04  0.14185573924E+04  0.00000000000E+00 0.  1.
         21   -1    0    0  501  502 -0.00000000000E+00 -0.00000000000E+00 -0.11547387069E+03  0.11547387069E+03  0.00000000000E+00 0.  1.
         25    1    1    2    0    0  0.20405342825E+03 -0.14511636281E+03  0.19924097166E+03  0.34353824405E+03  0.12500000000E+03 0.  0.
         25    1    1    2    0    0 -0.19725807236E+03 -0.24598256225E+02  0.56532279135E+03  0.61215249713E+03  0.12500000000E+03 0.  0.
         25    1    1    2    0    0 -0.67953558896E+01  0.16971461904E+03  0.53851975868E+03  0.57834052190E+03  0.12500000000E+03 0.  0.
</event>
<event>
 5    0  0.5634041E-005  0.3711059E+03  0.7546771E-02  0.1054271E+00
         21   -1    0    0  502  501  0.00000000000E+00  0.00000000000E+00  0.64555482136E+02  0.64555482136E+02  0.00000000000E+00 0. -1.
         21   -1    0    0  501  502 -0.00000000000E+00 -0.00000000000E+00 -0.21333526866E+04  0.21333526866E+04  0.00000000000E+00 0. -1.
         25    1    1    2    0    0 -0.21975394687E+02 -0.31353940477E+02 -0.47636728593E+03  0.49398054482E+03  0.12500000000E+03 0.  0.
         25    1    1    2    0    0 -0.20653607586E+03 -0.11277259445E+03 -0.44649737409E+03  0.51996126178E+03  0.12500000000E+03 0.  0.
         25    1    1    2    0    0  0.22851147055E+03  0.14412653493E+03 -0.11459325445E+04  0.11839663622E+04  0.12500000000E+03 0.  0.
</event>
<event>
 5    0  0.5634041E-005  0.2579380E+03  0.7546771E-02  0.1108389E+00
         21   -1    0    0  502  501  0.00000000000E+00  0.00000000000E+00  0.23324315683E+03  0.23324315683E+03  0.00000000000E+00 0. -1.
         21   -1    0    0  501  502 -0.00000000000E+00 -0.00000000000E+00 -0.28524734262E+03  0.28524734262E+03  0.00000000000E+00 0. -1.
         25    1    1    2    0    0  0.13939248200E+03 -0.21538980656E+02  0.64612245868E+02  0.19923336579E+03  0.12500000000E+03 0.  0.
         25    1    1    2    0    0 -0.77552838202E+02  0.47757998075E+02 -0.50417109050E+02  0.16267192130E+03  0.12500000000E+03 0.  0.
         25    1    1    2    0    0 -0.61839643800E+02 -0.26219017419E+02 -0.66199322612E+02  0.15658521237E+03  0.12500000000E+03 0.  0.
</event>
<event>
 5    0  0.5634041E-005  0.3634433E+03  0.7546771E-02  0.1057229E+00
         21   -1    0    0  502  501  0.00000000000E+00  0.00000000000E+00  0.13743246925E+03  0.13743246925E+03  0.00000000000E+00 0. -1.
         21   -1    0    0  501  502 -0.00000000000E+00 -0.00000000000E+00 -0.96113430680E+03  0.96113430680E+03  0.00000000000E+00 0. -1.
         25    1    1    2    0    0  0.76015164104E+02 -0.12476945125E+03 -0.29055984981E+03  0.34841892523E+03  0.12500000000E+03 0.  0.
         25    1    1    2    0    0 -0.21284773949E+03 -0.36770605755E+02 -0.39753179702E+03  0.46937486862E+03  0.12500000000E+03 0.  0.
         25    1    1    2    0    0  0.13683257539E+03  0.16154005700E+03 -0.13561019072E+03  0.28077298220E+03  0.12500000000E+03 0.  0.
</event>
<event>
 5    0  0.5634041E-005  0.3353453E+03  0.7546771E-02  0.1068796E+00
         21   -1    0    0  502  501  0.00000000000E+00  0.00000000000E+00  0.13564261818E+03  0.13564261818E+03  0.00000000000E+00 0. -1.
         21   -1    0    0  501  502 -0.00000000000E+00 -0.00000000000E+00 -0.82906460314E+03  0.82906460314E+03  0.00000000000E+00 0. -1.
         25    1    1    2    0    0 -0.11000136635E+03 -0.10664043168E+03 -0.45136911308E+03  0.49277942176E+03  0.12500000000E+03 0.  0.
         25    1    1    2    0    0  0.57196786515E+02  0.12958354573E+03 -0.27192004936E+03  0.33110252333E+03  0.12500000000E+03 0.  0.
         25    1    1    2    0    0  0.52804579834E+02 -0.22943114053E+02  0.29867177480E+02  0.14082527623E+03  0.12500000000E+03 0.  0.
</event>
<event>
 5    0  0.5634041E-005  0.2484893E+03  0.7546771E-02  0.1114263E+00
         21   -1    0    0  502  501  0.00000000000E+00  0.00000000000E+00  0.97233996600E+02  0.97233996600E+02  0.00000000000E+00 0.  1.
         21   -1    0    0  501  502 -0.00000000000E+00 -0.00000000000E+00 -0.63503461127E+03  0.63503461127E+03  0.00000000000E+00 0.  1.
         25    1    1    2    0    0 -0.83903279835E+02  0.62117635835E+02 -0.32841699011E+03  0.36658025103E+03  0.12500000000E+03 0.  0.
         25    1    1    2    0    0  0.10319818154E+02 -0.51895288644E+02 -0.38053179989E+02  0.14097043710E+03  0.12500000000E+03 0.  0.
         25    1    1    2    0    0  0.73583461680E+02 -0.10222347191E+02 -0.17133044457E+03  0.22471791974E+03  0.12500000000E+03 0.  0.
</event>
<event>
 5    0  0.5634041E-005  0.2464628E+03  0.7546771E-02  0.1115561E+00
         21   -1    0    0  502  501  0.00000000000E+00  0.00000000000E+00  0.33505184763E+03  0.33505184763E+03  0.00000000000E+00 0.  1.
         21   -1    0    0  501  502 -0.00000000000E+00 -0.00000000000E+00 -0.18129703466E+03  0.18129703466E+03  0.00000000000E+00 0.  1.
         25    1    1    2    0    0  0.12684021471E+02  0.19889500351E+02 -0.14203502453E+02  0.12799693788E+03  0.12500000000E+03 0.  0.
         25    1    1    2    0    0  0.88524383070E+02  0.34408156513E+02  0.11361006210E+02  0.15739936498E+03  0.12500000000E+03 0.  0.
         25    1    1    2    0    0 -0.10120840454E+03 -0.54297656864E+02  0.15659730921E+03  0.23095257943E+03  0.12500000000E+03 0.  0.
</event>
<event>
 5    0  0.5634041E-005  0.2980700E+03  0.7546771E-02  0.1086209E+00
         21   -1    0    0  502  501  0.00000000000E+00  0.00000000000E+00  0.45629386752E+03  0.45629386752E+03  0.00000000000E+00 0. -1.
         21   -1    0    0  501  502 -0.00000000000E+00 -0.00000000000E+00 -0.19471159864E+03  0.19471159864E+03  0.00000000000E+00 0. -1.
         25    1    1    2    0    0 -0.59527499797E+02  0.34070296939E+02  0.12079740417E+03  0.18687247315E+03  0.12500000000E+03 0.  0.
         25    1    1    2    0    0 -0.95784710662E+01 -0.11867021174E+03  0.22045499323E+03  0.27999958982E+03  0.12500000000E+03 0.  0.
         25    1    1    2    0    0  0.69105970864E+02  0.84599914798E+02 -0.79670128522E+02  0.18413340319E+03  0.12500000000E+03 0.  0.
</event>
<event>
 5    0  0.5634041E-005  0.2635466E+03  0.7546771E-02  0.1105031E+00
         21   -1    0    0  502  501  0.00000000000E+00  0.00000000000E+00  0.61516079669E+02  0.61516079669E+02  0.00000000000E+00 0.  1.
         21   -1    0    0  501  502 -0.00000000000E+00 -0.00000000000E+00 -0.11290836691E+04  0.11290836691E+04  0.00000000000E+00 0.  1.
         25    1    1    2    0    0 -0.11744318985E+03 -0.71330185342E+02 -0.24559352886E+03  0.30793193988E+03  0.12500000000E+03 0.  0.
         25    1    1    2    0    0  0.10091892618E+03  0.82590523988E+02 -0.34812964461E+03  0.39220539742E+03  0.12500000000E+03 0.  0.
         25    1    1    2    0    0  0.16524263671E+02 -0.11260338646E+02 -0.47384441592E+03  0.49046241142E+03  0.12500000000E+03 0.  0.
</event>
<event>
 5    0  0.5634041E-005  0.3791016E+03  0.7546771E-02  0.1051266E+00
         21   -1    0    0  502  501  0.00000000000E+00  0.00000000000E+00  0.34260998843E+03  0.34260998843E+03  0.00000000000E+00 0.  1.
         21   -1    0    0  501  502 -0.00000000000E+00 -0.00000000000E+00 -0.41947995876E+03  0.41947995876E+03  0.00000000000E+00 0.  1.
         25    1    1    2    0    0  0.45415102009E+01  0.89865649573E+02  0.61315205837E+02  0.16577398697E+03  0.12500000000E+03 0.  0.
         25    1    1    2    0    0  0.96372886555E+02  0.38403583812E+02  0.16400060987E+03  0.23083277183E+03  0.12500000000E+03 0.  0.
         25    1    1    2    0    0 -0.10091439676E+03 -0.12826923339E+03 -0.30218578604E+03  0.36548318838E+03  0.12500000000E+03 0.  0.
</event>
<event>
 5    0  0.5634041E-005  0.2757166E+03  0.7546771E-02  0.1098052E+00
         21   -1    0    0  502  501  0.00000000000E+00  0.00000000000E+00  0.11747713095E+03  0.11747713095E+03  0.00000000000E+00 0.  1.
         21   -1    0    0  501  502 -0.00000000000E+00 -0.00000000000E+00 -0.64710156689E+03  0.64710156689E+03  0.00000000000E+00 0.  1.
         25    1    1    2    0    0  0.14404026525E+02  0.53370350698E+02 -0.37978902134E+02  0.14185650257E+03  0.12500000000E+03 0.  0.
         25    1    1    2    0    0  0.13186276082E+03 -0.49852213599E+02 -0.21716060700E+03  0.28750088717E+03  0.12500000000E+03 0.  0.
         25    1    1    2    0    0 -0.14626678734E+03 -0.35181370991E+01 -0.27448492681E+03  0.33522130811E+03  0.12500000000E+03 0.  0.
</event>
<event>
 5    0  0.6734342E-005  0.2682769E+03  0.7546771E-02  0.1102270E+00
         21   -1    0    0  502  501  0.00000000000E+00  0.00000000000E+00  0.40842291425E+03  0.40842291425E+03  0.00000000000E+00 0. -1.
         21   -1    0    0  501  502 -0.00000000000E+00 -0.00000000000E+00 -0.17622050412E+03  0.17622050412E+03  0.00000000000E+00 0. -1.
         25    1    1    2    0    0 -0.11260442016E+03 -0.58169641754E+02 -0.21297944511E+02  0.17928208249E+03  0.12500000000E+03 0.  0.
         25    1    1    2    0    0 -0.10544446953E+02  0.44286163052E+02  0.15270107193E+03  0.20252176912E+03  0.12500000000E+03 0.  0.
         25    1    1    2    0    0  0.12314886711E+03  0.13883478702E+02  0.10079928271E+03  0.20283956677E+03  0.12500000000E+03 0.  0.
</event>
<event>
 5    0  0.5634041E-005  0.2825660E+03  0.7546771E-02  0.1094296E+00
         21   -1    0    0  502  501  0.00000000000E+00  0.00000000000E+00  0.26958816368E+03  0.26958816368E+03  0.00000000000E+00 0.  1.
         21   -1    0    0  501  502 -0.00000000000E+00 -0.00000000000E+00 -0.29616850099E+03  0.29616850099E+03  0.00000000000E+00 0.  1.
         25    1    1    2    0    0 -0.99513886069E+02 -0.11045728302E+03 -0.18733544695E+02  0.19514038688E+03  0.12500000000E+03 0.  0.
         25    1    1    2    0    0  0.12337954835E+03 -0.24907100010E+02 -0.40555132265E+02  0.18196866580E+03  0.12500000000E+03 0.  0.
         25    1    1    2    0    0 -0.23865662280E+02  0.13536438303E+03  0.32708339650E+02  0.18864761200E+03  0.12500000000E+03 0.  0.
</event>
<event>
 5    0  0.5634041E-005  0.3406973E+03  0.7546771E-02  0.1066499E+00
         21   -1    0    0  502  501  0.00000000000E+00  0.00000000000E+00  0.24657263876E+03  0.24657263876E+03  0.00000000000E+00 0. -1.
         21   -1    0    0  501  502 -0.00000000000E+00 -0.00000000000E+00 -0.47075238336E+03  0.47075238336E+03  0.00000000000E+00 0. -1.
         25    1    1    2    0    0 -0.82846036101E+02 -0.54312704836E+02 -0.22417356595E+03  0.27512201525E+03  0.12500000000E+03 0.  0.
         25    1    1    2    0    0  0.21670933689E+03  0.65725794124E+02  0.25777975061E+01  0.25867829779E+03  0.12500000000E+03 0.  0.
         25    1    1    2    0    0 -0.13386330079E+03 -0.11413089289E+02 -0.25839761561E+01  0.18352470907E+03  0.12500000000E+03 0.  0.
</event>
<event>
 5    0  0.5634041E-005  0.2511412E+03  0.7546771E-02  0.1112586E+00
         21   -1    0    0  502  501  0.00000000000E+00  0.00000000000E+00  0.64877878477E+03  0.64877878477E+03  0.00000000000E+00 0. -1.
         21   -1    0    0  501  502 -0.00000000000E+00 -0.00000000000E+00 -0.97216309342E+02  0.97216309342E+02  0.00000000000E+00 0. -1.
         25    1    1    2    0    0 -0.44571560031E+02  0.99141811500E+02  0.25564973764E+03  0.30462683911E+03  0.12500000000E+03 0.  0.
         25    1    1    2    0    0  0.40896326411E+01 -0.69512380087E+02  0.34332804576E+02  0.14714767260E+03  0.12500000000E+03 0.  0.
         25    1    1    2    0    0  0.40481927390E+02 -0.29629431413E+02  0.26157993322E+03  0.29422058241E+03  0.12500000000E+03 0.  0.
</event>
<event>
 5    0  0.5634041E-005  0.3754984E+03  0.7546771E-02  0.1052610E+00
         21   -1    0    0  502  501  0.00000000000E+00  0.00000000000E+00  0.15796987360E+04  0.15796987360E+04  0.00000000000E+00 0. -1.
         21   -1    0    0  501  502 -0.00000000000E+00 -0.00000000000E+00 -0.89256923295E+02  0.89256923295E+02  0.00000000000E+00 0. -1.
         25    1    1    2    0    0  0.10344243719E+03  0.20674069114E+01  0.46848148070E+03  0.49578675834E+03  0.12500000000E+03 0.  0.
         25    1    1    2    0    0 -0.18016499259E+03 -0.52725468281E+02  0.11524163909E+03  0.25326870107E+03  0.12500000000E+03 0.  0.
         25    1    1    2    0    0  0.76722555396E+02  0.50658061369E+02  0.90671869289E+03  0.91990019988E+03  0.12500000000E+03 0.  0.
</event>
<event>
 5    0  0.5634041E-005  0.3109677E+03  0.7546771E-02  0.1079883E+00
         21   -1    0    0  502  501  0.00000000000E+00  0.00000000000E+00  0.97431468152E+02  0.97431468152E+02  0.00000000000E+00 0. -1.
         21   -1    0    0  501  502 -0.00000000000E+00 -0.00000000000E+00 -0.99250177417E+03  0.99250177417E+03  0.00000000000E+00 0. -1.
         25    1    1    2    0    0 -0.42388611443E+02  0.64461557857E+02 -0.17169004980E+03  0.22595256144E+03  0.12500000000E+03 0.  0.
         25    1    1    2    0    0  0.41927729735E+02  0.16180222738E+03 -0.26038015301E+03  0.33370753570E+03  0.12500000000E+03 0.  0.
         25    1    1    2    0    0  0.46088170759E+00 -0.22626378524E+03 -0.46300010320E+03  0.53027314517E+03  0.12500000000E+03 0.  0.
</event>
<event>
 5    0  0.5634041E-005  0.4019193E+03  0.7546771E-02  0.1043117E+00
         21   -1    0    0  502  501  0.00000000000E+00  0.00000000000E+00  0.17490937748E+03  0.17490937748E+03  0.00000000000E+00 0. -1.
         21   -1    0    0  501  502 -0.00000000000E+00 -0.00000000000E+00 -0.92355918120E+03  0.92355918120E+03  0.00000000000E+00 0. -1.
         25    1    1    2    0    0  0.55029535370E+01 -0.30219666523E+03 -0.25059167833E+03  0.41203676562E+03  0.12500000000E+03 0.  0.
         25    1    1    2    0    0 -0.21520220524E+02  0.27568715026E+03 -0.20469864076E+03  0.36605062251E+03  0.12500000000E+03 0.  0.
         25    1    1    2    0    0  0.16017266987E+02  0.26509514972E+02 -0.29335948463E+03  0.32038117055E+03  0.12500000000E+03 0.  0.
</event>
<event>
 5    0  0.5634041E-005  0.2705320E+03  0.7546771E-02  0.1100976E+00
         21   -1    0    0  502  501  0.00000000000E+00  0.00000000000E+00  0.10066954984E+04  0.10066954984E+04  0.00000000000E+00 0. -1.
         21   -1    0    0  501  502 -0.00000000000E+00 -0.00000000000E+00 -0.72700778016E+02  0.72700778016E+02  0.00000000000E+00 0. -1.
         25    1    1    2    0    0  0.27474951528E+02 -0.12160220064E+03  0.22207914345E+03  0.28370074747E+03  0.12500000000E+03 0.  0.
         25    1    1    2    0    0  0.79118057048E+02  0.12953597330E+02  0.21621554612E+03  0.26230063862E+03  0.12500000000E+03 0.  0.
         25    1    1    2    0    0 -0.10659300858E+03  0.10864860331E+03  0.49570003082E+03  0.53339489034E+03  0.12500000000E+03 0.  0.
</event>
<event>
 5    0  0.5634041E-005  0.3011906E+03  0.7546771E-02  0.1084647E+00
         21   -1    0    0  502  501  0.00000000000E+00  0.00000000000E+00  0.26908026232E+03  0.26908026232E+03  0.00000000000E+00 0.  1.
         21   -1    0    0  501  502 -0.00000000000E+00 -0.00000000000E+00 -0.33713280889E+03  0.33713280889E+03  0.00000000000E+00 0.  1.
         25    1    1    2    0    0  0.61021502657E+01 -0.67904647659E+02  0.15865447525E+03  0.21317720311E+03  0.12500000000E+03 0.  0.
         25    1    1    2    0    0 -0.11790261055E+02  0.74279999393E+02 -0.22448811301E+03  0.26772456266E+03  0.12500000000E+03 0.  0.
         25    1    1    2    0    0  0.56881107896E+01 -0.63753517340E+01 -0.22189088025E+01  0.12531130544E+03  0.12500000000E+03 0.  0.
</event>
<event>
 5    0  0.5634041E-005  0.2694497E+03  0.7546771E-02  0.1101595E+00
         21   -1    0    0  502  501  0.00000000000E+00  0.00000000000E+00  0.57248349217E+02  0.57248349217E+02  0.00000000000E+00 0.  1.
         21   -1    0    0  501  502 -0.00000000000E+00 -0.00000000000E+00 -0.12682136920E+04  0.12682136920E+04  0.00000000000E+00 0.  1.
         25    1    1    2    0    0  0.48414812927E+02  0.53806070845E+02 -0.25036191086E+03  0.28904182012E+03  0.12500000000E+03 0.  0.
         25    1    1    2    0    0  0.75989838197E+01  0.10486208401E+03 -0.57229749361E+03  0.59514974789E+03  0.12500000000E+03 0.  0.
         25    1    1    2    0    0 -0.56013796747E+02 -0.15866815486E+03 -0.38830593830E+03  0.44127047319E+03  0.12500000000E+03 0.  0.
</event>
<event>
 5    0  0.5634041E-005  0.3044821E+03  0.7546771E-02  0.1083021E+00
         21   -1    0    0  502  501  0.00000000000E+00  0.00000000000E+00  0.68062034596E+02  0.68062034596E+02  0.00000000000E+00 0. -1.
         21   -1    0    0  501  502 -0.00000000000E+00 -0.00000000000E+00 -0.13621297364E+04  0.13621297364E+04  0.00000000000E+00 0. -1.
         25    1    1    2    0    0  0.10643210493E+03  0.59209583167E+02 -0.57230312674E+03  0.59832218460E+03  0.12500000000E+03 0.  0.
         25    1    1    2    0    0  0.51702877853E+02 -0.13485839662E+03 -0.41765648337E+03  0.45926235729E+03  0.12500000000E+03 0.  0.
         25    1    1    2    0    0 -0.15813498278E+03  0.75648813450E+02 -0.30410809166E+03  0.37260722909E+03  0.12500000000E+03 0.  0.
</event>
<event>
 5    0  0.5634041E-005  0.3350693E+03  0.7546771E-02  0.1068916E+00
         21   -1    0    0  502  501  0.00000000000E+00  0.00000000000E+00  0.11286679813E+03  0.11286679813E+03  0.00000000000E+00 0. -1.
         21   -1    0    0  501  502 -0.00000000000E+00 -0.00000000000E+00 -0.99472493502E+03  0.99472493502E+03  0.00000000000E+00 0. -1.
         25    1    1    2    0    0 -0.84396852722E+02  0.12370044527E+03 -0.51410434191E+02  0.20172422178E+03  0.12500000000E+03 0.  0.
         25    1    1    2    0    0  0.80507521566E+02 -0.59876878464E+02 -0.68580122886E+03  0.70428334292E+03  0.12500000000E+03 0.  0.
         25    1    1    2    0    0  0.38893311556E+01 -0.63823566801E+02 -0.14464647384E+03  0.20158416845E+03  0.12500000000E+03 0.  0.
</event>
<event>
 5    0  0.5634041E-005  0.3701008E+03  0.7546771E-02  0.1054654E+00
         21   -1    0    0  502  501  0.00000000000E+00  0.00000000000E+00  0.23332877272E+03  0.23332877272E+03  0.00000000000E+00 0. -1.
         21   -1    0    0  501  502 -0.00000000000E+00 -0.00000000000E+00 -0.58704560356E+03  0.58704560356E+03  0.00000000000E+00 0. -1.
         25    1    1    2    0    0  0.94079556962E+02 -0.14987024268E+03 -0.44500895821E+03  0.49494446715E+03  0.12500000000E+03 0.  0.
         25    1    1    2    0    0 -0.78405057095E+02  0.71210051064E+02  0.48686187035E+02  0.17091977404E+03  0.12500000000E+03 0.  0.
         25    1    1    2    0    0 -0.15674499867E+02  0.78660191614E+02  0.42605940338E+02  0.15451013508E+03  0.12500000000E+03 0.  0.
</event>
<event>
 5    0  0.5634041E-005  0.2134470E+03  0.7546771E-02  0.1138865E+00
         21   -1    0    0  502  501  0.00000000000E+00  0.00000000000E+00  0.21754186714E+03  0.21754186714E+03  0.00000000000E+00 0.  1.
         21   -1    0    0  501  502 -0.00000000000E+00 -0.00000000000E+00 -0.20942919541E+03  0.20942919541E+03  0.00000000000E+00 0.  1.
         25    1    1    2    0    0 -0.32612281342E+02 -0.42496936840E+02  0.48232822722E+02  0.14429468363E+03  0.12500000000E+03 0.  0.
         25    1    1    2    0    0  0.32964913831E+02  0.39439904437E+02 -0.72693830825E+02  0.15346525550E+03  0.12500000000E+03 0.  0.
         25    1    1    2    0    0 -0.35263248912E+00  0.30570324032E+01  0.32573679834E+02  0.12921112342E+03  0.12500000000E+03 0.  0.
</event>
<event>
 5    0  0.5634041E-005  0.2329902E+03  0.7546771E-02  0.1124553E+00
         21   -1    0    0  502  501  0.00000000000E+00  0.00000000000E+00  0.20763029174E+03  0.20763029174E+03  0.00000000000E+00 0.  1.
         21   -1    0    0  501  502 -0.00000000000E+00 -0.00000000000E+00 -0.26144748201E+03  0.26144748201E+03  0.00000000000E+00 0.  1.
         25    1    1    2    0    0  0.13365824840E+02  0.99370370406E+02  0.32132140237E+01  0.16027613838E+03  0.12500000000E+03 0.  0.
         25    1    1    2    0    0 -0.34525381691E+02 -0.64751228596E+02 -0.93410574246E+02  0.17243914569E+03  0.12500000000E+03 0.  0.
         25    1    1    2    0    0  0.21159556851E+02 -0.34619141810E+02  0.36380169954E+02  0.13636248968E+03  0.12500000000E+03 0.  0.
</event>
<event>
 5    0  0.5634041E-005  0.4272736E+03  0.7546771E-02  0.1034725E+00
         21   -1    0    0  502  501  0.00000000000E+00  0.00000000000E+00  0.42291493978E+03  0.42291493978E+03  0.00000000000E+00 0. -1.
         21   -1    0    0  501  502 -0.00000000000E+00 -0.00000000000E+00 -0.43167720168E+03  0.43167720168E+03  0.00000000000E+00 0. -1.
         25    1    1    2    0    0  0.35315926776E+03 -0.92972377964E+02 -0.36896793347E+02  0.38775211776E+03  0.12500000000E+03 0.  0.
         25    1    1    2    0    0 -0.11434414561E+03  0.38244173992E+02 -0.50326276953E+02  0.18081740688E+03  0.12500000000E+03 0.  0.
         25    1    1    2    0    0 -0.23881512215E+03  0.54728203972E+02  0.78460808399E+02  0.28602261682E+03  0.12500000000E+03 0.  0.
</event>
<event>
 5    0  0.5634041E-005  0.2445715E+03  0.7546771E-02  0.1116784E+00
         21   -1    0    0  502  501  0.00000000000E+00  0.00000000000E+00  0.21814030979E+03  0.21814030979E+03  0.00000000000E+00 0.  1.
         21   -1    0    0  501  502 -0.00000000000E+00 -0.00000000000E+00 -0.27420529788E+03  0.27420529788E+03  0.00000000000E+00 0.  1.
         25    1    1    2    0    0 -0.64562918477E+02  0.40672854039E+01  0.55738195853E+02  0.15138249479E+03  0.12500000000E+03 0.  0.
         25    1    1    2    0    0  0.13397731308E+02  0.19901157378E+02 -0.15177533627E+03  0.19808156898E+03  0.12500000000E+03 0.  0.
         25    1    1    2    0    0  0.51165187169E+02 -0.23968442782E+02  0.39972152326E+02  0.14288154391E+03  0.12500000000E+03 0.  0.
</event>
<event>
 5    0  0.5634041E-005  0.5329788E+03  0.7546771E-02  0.1005512E+00
         21   -1    0    0  502  501  0.00000000000E+00  0.00000000000E+00  0.10539112601E+04  0.10539112601E+04  0.00000000000E+00 0.  1.
         21   -1    0    0  501  502 -0.00000000000E+00 -0.00000000000E+00 -0.26953544784E+03  0.26953544784E+03  0.00000000000E+00 0.  1.
         25    1    1    2    0    0  0.11753573689E+03  0.19930467023E+02  0.63539869980E+03  0.65845909567E+03  0.12500000000E+03 0.  0.
         25    1    1    2    0    0 -0.39012528570E+02  0.16372111986E+02 -0.22525166508E+03  0.26106193912E+03  0.12500000000E+03 0.  0.
         25    1    1    2    0    0 -0.78523208315E+02 -0.36302579010E+02  0.37422877751E+03  0.40392567311E+03  0.12500000000E+03 0.  0.
</event>
<event>
 5    0  0.5634041E-005  0.2764888E+03  0.7546771E-02  0.1097622E+00
         21   -1    0    0  502  501  0.00000000000E+00  0.00000000000E+00  0.17847590672E+03  0.17847590672E+03  0.00000000000E+00 0. -1.
         21   -1    0    0  501  502 -0.00000000000E+00 -0.00000000000E+00 -0.42832690226E+03  0.42832690226E+03  0.00000000000E+00 0. -1.
         25    1    1    2    0    0  0.28263781112E+02 -0.21230286841E+01 -0.61346568662E+02  0.14209767788E+03  0.12500000000E+03 0.  0.
         25    1    1    2    0    0  0.45547943124E+01 -0.17038373213E+02 -0.27869250470E+03  0.30595026473E+03  0.12500000000E+03 0.  0.
         25    1    1    2    0    0 -0.32818575425E+02  0.19161401897E+02  0.90188077822E+02  0.15875486637E+03  0.12500000000E+03 0.  0.
</event>
<event>
 5    0  0.5634041E-005  0.2777588E+03  0.7546771E-02  0.1096919E+00
         21   -1    0    0  502  501  0.00000000000E+00  0.00000000000E+00  0.76806756170E+03  0.76806756170E+03  0.00000000000E+00 0. -1.
         21   -1    0    0  501  502 -0.00000000000E+00 -0.00000000000E+00 -0.10044686213E+03  0.10044686213E+03  0.00000000000E+00 0. -1.
         25    1    1    2    0    0 -0.66480907277E+01 -0.37839522074E+02  0.25526290011E+03  0.28681034624E+03  0.12500000000E+03 0.  0.
         25    1    1    2    0    0 -0.12547935331E+03 -0.34501038160E+02  0.31514736605E+03  0.36315045376E+03  0.12500000000E+03 0.  0.
         25    1    1    2    0    0  0.13212744403E+03  0.72340560234E+02  0.97210433411E+02  0.21855362382E+03  0.12500000000E+03 0.  0.
</event>
<event>
 5    0  0.5634041E-005  0.3093608E+03  0.7546771E-02  0.1080653E+00
         21   -1    0    0  502  501  0.00000000000E+00  0.00000000000E+00  0.20304385079E+03  0.20304385079E+03  0.00000000000E+00 0.  1.
         21   -1    0    0  501  502 -0.00000000000E+00 -0.00000000000E+00 -0.47134683516E+03  0.47134683516E+03  0.00000000000E+00 0.  1.
         25    1    1    2    0    0 -0.52670491794E+02  0.13155971661E+03  0.21601982662E+00  0.18896345256E+03  0.12500000000E+03 0.  0.
         25    1    1    2    0    0  0.35367566689E+02 -0.42310998264E+02 -0.29822920022E+03  0.32803466465E+03  0.12500000000E+03 0.  0.
         25    1    1    2    0    0  0.17302925105E+02 -0.89248718347E+02  0.29710196026E+02  0.15739256873E+03  0.12500000000E+03 0.  0.
</event>
<event>
 5    0  0.5634041E-005  0.4369877E+03  0.7546771E-02  0.1031675E+00
         21   -1    0    0  502  501  0.00000000000E+00  0.00000000000E+00  0.12767742893E+04  0.12767742893E+04  0.00000000000E+00 0.  1.
         21   -1    0    0  501  502 -0.00000000000E+00 -0.00000000000E+00 -0.14956305432E+03  0.14956305432E+03  0.00000000000E+00 0.  1.
         25    1    1    2    0    0  0.26922441166E+03 -0.33044124985E+02  0.78086738871E+03  0.83603383710E+03  0.12500000000E+03 0.  0.
         25    1    1    2    0    0 -0.28341867657E+03  0.84676266808E+02  0.15770732157E+03  0.35776083585E+03  0.12500000000E+03 0.  0.
         25    1    1    2    0    0  0.14194264913E+02 -0.51632141823E+02  0.18863652467E+03  0.23254267063E+03  0.12500000000E+03 0.  0.
</event>
<event>
 5    0  0.5634041E-005  0.3131881E+03  0.7546771E-02  0.1078828E+00
         21   -1    0    0  502  501  0.00000000000E+00  0.00000000000E+00  0.42174099429E+03  0.42174099429E+03  0.00000000000E+00 0. -1.
         21   -1    0    0  501  502 -0.00000000000E+00 -0.00000000000E+00 -0.23257582911E+03  0.23257582911E+03  0.00000000000E+00 0. -1.
         25    1    1    2    0    0 -0.35369943801E+02 -0.29789527988E+02  0.22528325750E+03  0.26175560168E+03  0.12500000000E+03 0.  0.
         25    1    1    2    0    0 -0.10745584458E+03 -0.42226040789E+02  0.41628466678E+02  0.17517912630E+03  0.12500000000E+03 0.  0.
         25    1    1    2    0    0  0.14282578838E+03  0.72015568777E+02 -0.77746559001E+02  0.21738209542E+03  0.12500000000E+03 0.  0.
</event>
<event>
 5    0  0.6205857E-005  0.2709464E+03  0.7546771E-02  0.1100739E+00
         21   -1    0    0  502  501  0.00000000000E+00  0.00000000000E+00  0.16653794710E+03  0.16653794710E+03  0.00000000000E+00 0.  1.
         21   -1    0    0  501  502 -0.00000000000E+00 -0.00000000000E+00 -0.44081220400E+03  0.44081220400E+03  0.00000000000E+00 0.  1.
         25    1    1    2    0    0 -0.97197879942E+02  0.13387385653E+03 -0.17702867577E+03  0.27264223695E+03  0.12500000000E+03 0.  0.
         25    1    1    2    0    0  0.77527591899E+02 -0.25198427348E+02 -0.18901162946E+02  0.15042520469E+03  0.12500000000E+03 0.  0.
         25    1    1    2    0    0  0.19670288043E+02 -0.10867542918E+03 -0.78344418191E+02  0.18428270945E+03  0.12500000000E+03 0.  0.
</event>
<event>
 5    0  0.5634041E-005  0.3422319E+03  0.7546771E-02  0.1065849E+00
         21   -1    0    0  502  501  0.00000000000E+00  0.00000000000E+00  0.85613062948E+02  0.85613062948E+02  0.00000000000E+00 0. -1.
         21   -1    0    0  501  502 -0.00000000000E+00 -0.00000000000E+00 -0.13680467646E+04  0.13680467646E+04  0.00000000000E+00 0. -1.
         25    1    1    2    0    0  0.16845525522E+03  0.92348280587E+02 -0.81299067758E+03  0.84467995109E+03  0.12500000000E+03 0.  0.
         25    1    1    2    0    0 -0.13074496948E+03 -0.12041314397E+03 -0.15371838469E+03  0.26617271475E+03  0.12500000000E+03 0.  0.
         25    1    1    2    0    0 -0.37710285740E+02  0.28064863379E+02 -0.31572463941E+03  0.34280716173E+03  0.12500000000E+03 0.  0.
</event>
<event>
 5    0  0.5634041E-005  0.2721251E+03  0.7546771E-02  0.1100069E+00
         21   -1    0    0  502  501  0.00000000000E+00  0.00000000000E+00  0.21419204588E+03  0.21419204588E+03  0.00000000000E+00 0.  1.
         21   -1    0    0  501  502 -0.00000000000E+00 -0.00000000000E+00 -0.34572739550E+03  0.34572739550E+03  0.00000000000E+00 0.  1.
         25    1    1    2    0    0 -0.99555318883E+02 -0.99213829219E+01  0.10011921234E+03  0.18883472148E+03  0.12500000000E+03 0.  0.
         25    1    1    2    0    0  0.95963807203E+02 -0.17619720855E+02 -0.15555266181E+03  0.22212865068E+03  0.12500000000E+03 0.  0.
         25    1    1    2    0    0  0.35915116800E+01  0.27541103777E+02 -0.76101900149E+02  0.14895606923E+03  0.12500000000E+03 0.  0.
</event>
<event>
 5    0  0.5634041E-005  0.5327722E+03  0.7546771E-02  0.1005562E+00
         21   -1    0    0  502  501  0.00000000000E+00  0.00000000000E+00  0.17314015178E+03  0.17314015178E+03  0.00000000000E+00 0.  1.
         21   -1    0    0  501  502 -0.00000000000E+00 -0.00000000000E+00 -0.16394016437E+04  0.16394016437E+04  0.00000000000E+00 0.  1.
         25    1    1    2    0    0  0.73000917083E+02  0.25619898591E+02 -0.20082202779E+03  0.24887747979E+03  0.12500000000E+03 0.  0.
         25    1    1    2    0    0  0.10806398748E+03  0.28324519450E+03 -0.11037182704E+04  0.11514011838E+04  0.12500000000E+03 0.  0.
         25    1    1    2    0    0 -0.18106490457E+03 -0.30886509309E+03 -0.16172119366E+03  0.41226313184E+03  0.12500000000E+03 0.  0.
</event>
<event>
 5    0  0.5634041E-005  0.3960931E+03  0.7546771E-02  0.1045141E+00
         21   -1    0    0  502  501  0.00000000000E+00  0.00000000000E+00  0.10086359197E+04  0.10086359197E+04  0.00000000000E+00 0. -1.
         21   -1    0    0  501  502 -0.00000000000E+00 -0.00000000000E+00 -0.15554647864E+03  0.15554647864E+03  0.00000000000E+00 0. -1.
         25    1    1    2    0    0 -0.21851521476E+03  0.69051061745E+02  0.64909693447E+03  0.69962045321E+03  0.12500000000E+03 0.  0.
         25    1    1    2    0    0  0.13241289519E+03  0.80160347986E+02  0.60822437957E+02  0.20804620919E+03  0.12500000000E+03 0.  0.
         25    1    1    2    0    0  0.86102319572E+02 -0.14921140973E+03  0.14317006865E+03  0.25651573594E+03  0.12500000000E+03 0.  0.
</event>
<event>
 5    0  0.5634041E-005  0.2823762E+03  0.7546771E-02  0.1094398E+00
         21   -1    0    0  502  501  0.00000000000E+00  0.00000000000E+00  0.53798966718E+03  0.53798966718E+03  0.00000000000E+00 0.  1.
         21   -1    0    0  501  502 -0.00000000000E+00 -0.00000000000E+00 -0.14821166347E+03  0.14821166347E+03  0.00000000000E+00 0.  1.
         25    1    1    2    0    0  0.58719194186E+02  0.30666086883E+02  0.16701749570E+03  0.21887941091E+03  0.12500000000E+03 0.  0.
         25    1    1    2    0    0 -0.72422365380E+02  0.11128628158E+02 -0.58618937598E+02  0.15630107235E+03  0.12500000000E+03 0.  0.
         25    1    1    2    0    0  0.13703171194E+02 -0.41794715041E+02  0.28137944561E+03  0.31102084740E+03  0.12500000000E+03 0.  0.
</event>
<event>
 5    0  0.5634041E-005  0.4632847E+03  0.7546771E-02  0.1023833E+00
         21   -1    0    0  502  501  0.00000000000E+00  0.00000000000E+00  0.64677987995E+03  0.64677987995E+03  0.00000000000E+00 0.  1.
         21   -1    0    0  501  502 -0.00000000000E+00 -0.00000000000E+00 -0.33184809360E+03  0.33184809360E+03  0.00000000000E+00 0.  1.
         25    1    1    2    0    0  0.28238262775E+02 -0.63778633348E+02  0.13685771648E+03  0.19804077387E+03  0.12500000000E+03 0.  0.
         25    1    1    2    0    0  0.34289543728E+03  0.44556833022E+02  0.95880688144E+02  0.37997460262E+03  0.12500000000E+03 0.  0.
         25    1    1    2    0    0 -0.37113370006E+03  0.19221800326E+02  0.82193381725E+02  0.40061259706E+03  0.12500000000E+03 0.  0.
</event>
<event>
 5    0  0.5634041E-005  0.4436886E+03  0.7546771E-02  0.1029621E+00
         21   -1    0    0  502  501  0.00000000000E+00  0.00000000000E+00  0.46740554199E+03  0.46740554199E+03  0.00000000000E+00 0. -1.
         21   -1    0    0  501  502 -0.00000000000E+00 -0.00000000000E+00 -0.42117503065E+03  0.42117503065E+03  0.00000000000E+00 0. -1.
         25    1    1    2    0    0  0.64980739507E+02  0.29602490391E+03  0.67248313894E+02  0.33466487112E+03  0.12500000000E+03 0.  0.
         25    1    1    2    0    0  0.11795818286E+03 -0.63567291803E+02 -0.11860224231E+03  0.21828061154E+03  0.12500000000E+03 0.  0.
         25    1    1    2    0    0 -0.18293892236E+03 -0.23245761211E+03  0.97584439754E+02  0.33563508998E+03  0.12500000000E+03 0.  0.
</event>
<event>
 5    0  0.5634041E-005  0.2315110E+03  0.7546771E-02  0.1125581E+00
         21   -1    0    0  502  501  0.00000000000E+00  0.00000000000E+00  0.25909862851E+04  0.25909862851E+04  0.00000000000E+00 0.  1.
         21   -1    0    0  501  502 -0.00000000000E+00 -0.00000000000E+00 -0.20686080078E+02  0.20686080078E+02  0.00000000000E+00 0.  1.
         25    1    1    2    0    0  0.13204843511E+02 -0.10152716759E+03  0.13905634014E+04  0.13999191788E+04  0.12500000000E+03 0.  0.
         25    1    1    2    0    0  0.14502575935E+02  0.52579867191E+02  0.68106192029E+03  0.69458282905E+03  0.12500000000E+03 0.  0.
         25    1    1    2    0    0 -0.27707419446E+02  0.48947300394E+02  0.49867488332E+03  0.51717035739E+03  0.12500000000E+03 0.  0.
</event>
<event>
 5    0  0.5634041E-005  0.2167805E+03  0.7546771E-02  0.1136306E+00
         21   -1    0    0  502  501  0.00000000000E+00  0.00000000000E+00  0.51059720036E+03  0.51059720036E+03  0.00000000000E+00 0. -1.
         21   -1    0    0  501  502 -0.00000000000E+00 -0.00000000000E+00 -0.92036891113E+02  0.92036891113E+02  0.00000000000E+00 0. -1.
         25    1    1    2    0    0  0.27082955220E+02 -0.16689872782E+02  0.60115600871E+02  0.14230574052E+03  0.12500000000E+03 0.  0.
         25    1    1    2    0    0  0.30917496592E+02 -0.20693302721E+02  0.97359033383E+02  0.16275099310E+03  0.12500000000E+03 0.  0.
         25    1    1    2    0    0 -0.58000451813E+02  0.37383175503E+02  0.26108567500E+03  0.29757735786E+03  0.12500000000E+03 0.  0.
</event>
<event>
 5    0  0.5634041E-005  0.3899718E+03  0.7546771E-02  0.1047308E+00
         21   -1    0    0  502  501  0.00000000000E+00  0.00000000000E+00  0.11642083024E+04  0.11642083024E+04  0.00000000000E+00 0. -1.
         21   -1    0    0  501  502 -0.00000000000E+00 -0.00000000000E+00 -0.13062782072E+03  0.13062782072E+03  0.00000000000E+00 0. -1.
         25    1    1    2    0    0  0.97415874834E+02  0.22101487392E+03  0.12370004304E+03  0.29877102907E+03  0.12500000000E+03 0.  0.
         25    1    1    2    0    0 -0.14347628500E+02 -0.11531511570E+02  0.46577747086E+03  0.48261007301E+03  0.12500000000E+03 0.  0.
         25    1    1    2    0    0 -0.83068246334E+02 -0.20948336235E+03  0.44410296779E+03  0.51345502106E+03  0.12500000000E+03 0.  0.
</event>
<event>
 5    0  0.5634041E-005  0.3338258E+03  0.7546771E-02  0.1069457E+00
         21   -1    0    0  502  501  0.00000000000E+00  0.00000000000E+00  0.12697272421E+03  0.12697272421E+03  0.00000000000E+00 0. -1.
         21   -1    0    0  501  502 -0.00000000000E+00 -0.00000000000E+00 -0.87766619656E+03  0.87766619656E+03  0.00000000000E+00 0. -1.
         25    1    1    2    0    0 -0.10132578475E+03  0.16648006871E+03 -0.71881946356E+02  0.24243461416E+03  0.12500000000E+03 0.  0.
         25    1    1    2    0    0  0.30216578244E+02 -0.46811204519E+01 -0.21959145718E+03  0.25451986672E+03  0.12500000000E+03 0.  0.
         25    1    1    2    0    0  0.71109206502E+02 -0.16179894826E+03 -0.45922006881E+03  0.50768443989E+03  0.12500000000E+03 0.  0.
</event>
<event>
 5    0  0.5634041E-005  0.2694957E+03  0.7546771E-02  0.1101569E+00
         21   -1    0    0  502  501  0.00000000000E+00  0.00000000000E+00  0.84137878133E+03  0.84137878133E+03  0.00000000000E+00 0. -1.
         21   -1    0    0  501  502 -0.00000000000E+00 -0.00000000000E+00 -0.86320120223E+02  0.86320120223E+02  0.00000000000E+00 0. -1.
         25    1    1    2    0    0  0.25897394304E+02  0.85594663830E+02  0.46959782212E+03  0.49410953852E+03  0.12500000000E+03 0.  0.
         25    1    1    2    0    0 -0.49044597382E+02 -0.12754113205E+03  0.11964678615E+03  0.22048234925E+03  0.12500000000E+03 0.  0.
         25    1    1    2    0    0  0.23147203078E+02  0.41946468220E+02  0.16581405284E+03  0.21310701379E+03  0.12500000000E+03 0.  0.
</event>
<event>
 5    0  0.5634041E-005  0.3675430E+03  0.7546771E-02  0.1055636E+00
         21   -1    0    0  502  501  0.00000000000E+00  0.00000000000E+00  0.68177212853E+03  0.68177212853E+03  0.00000000000E+00 0. -1.
         21   -1    0    0  501  502 -0.00000000000E+00 -0.00000000000E+00 -0.19814221779E+03  0.19814221779E+03  0.00000000000E+00 0. -1.
         25    1    1    2    0    0 -0.26514253837E+03  0.56163953084E+02  0.69647927177E+02  0.30648130292E+03  0.12500000000E+03 0.  0.
         25    1    1    2    0    0  0.55349143131E+02  0.49547433893E+01  0.92589250393E+02  0.16518428017E+03  0.12500000000E+03 0.  0.
         25    1    1    2    0    0  0.20979339523E+03 -0.61118696473E+02  0.32139273317E+03  0.40824876323E+03  0.12500000000E+03 0.  0.
</event>
<event>
 5    0  0.5634041E-005  0.2900308E+03  0.7546771E-02  0.1090333E+00
         21   -1    0    0  502  501  0.00000000000E+00  0.00000000000E+00  0.59120607358E+03  0.59120607358E+03  0.00000000000E+00 0.  1.
         21   -1    0    0  501  502 -0.00000000000E+00 -0.00000000000E+00 -0.14228179809E+03  0.14228179809E+03  0.00000000000E+00 0.  1.
         25    1    1    2    0    0  0.20446882133E+02 -0.80417551836E+02  0.41639785720E+02  0.15570462224E+03  0.12500000000E+03 0.  0.
         25    1    1    2    0    0  0.14016723514E+02  0.17183950261E+03  0.34884607998E+03  0.40871000809E+03  0.12500000000E+03 0.  0.
         25    1    1    2    0    0 -0.34463605647E+02 -0.91421950773E+02  0.58438409792E+02  0.16907324134E+03  0.12500000000E+03 0.  0.
</event>
<event>
 5    0  0.5634041E-005  0.2586078E+03  0.7546771E-02  0.1107983E+00
         21   -1    0    0  502  501  0.00000000000E+00  0.00000000000E+00  0.77867486967E+03  0.77867486967E+03  0.00000000000E+00 0. -1.
         21   -1    0    0  501  502 -0.00000000000E+00 -0.00000000000E+00 -0.85886912662E+02  0.85886912662E+02  0.00000000000E+00 0. -1.
         25    1    1    2    0    0 -0.84741814033E+02  0.29540093376E+02  0.53390048212E+02  0.16287814283E+03  0.12500000000E+03 0.  0.
         25    1    1    2    0    0 -0.10680311415E+01 -0.52655968324E+02  0.30163394830E+03  0.33072924040E+03  0.12500000000E+03 0.  0.
         25    1    1    2    0    0  0.85809845175E+02  0.23115874947E+02  0.33776396049E+03  0.37095439910E+03  0.12500000000E+03 0.  0.
</event>
<event>
 5    0  0.5634041E-005  0.2911987E+03  0.7546771E-02  0.1089725E+00
         21   -1    0    0  502  501  0.00000000000E+00  0.00000000000E+00  0.14172664075E+04  0.14172664075E+04  0.00000000000E+00 0.  1.
         21   -1    0    0  501  502 -0.00000000000E+00 -0.00000000000E+00 -0.59831137289E+02  0.59831137289E+02  0.00000000000E+00 0.  1.
         25    1    1    2    0    0 -0.46349496245E+02  0.12993401059E+03  0.22900701340E+03  0.29512765898E+03  0.12500000000E+03 0.  0.
         25    1    1    2    0    0  0.26115336376E+02 -0.43478139625E+02  0.87821555116E+03  0.88851556752E+03  0.12500000000E+03 0.  0.
         25    1    1    2    0    0  0.20234159869E+02 -0.86455870967E+02  0.25021270561E+03  0.29345431825E+03  0.12500000000E+03 0.  0.
</event>
<event>
 5    0  0.5634041E-005  0.2788862E+03  0.7546771E-02  0.1096299E+00
         21   -1    0    0  502  501  0.00000000000E+00  0.00000000000E+00  0.77602550619E+03  0.77602550619E+03  0.00000000000E+00 0.  1.
         21   -1    0    0  501  502 -0.00000000000E+00 -0.00000000000E+00 -0.10022549293E+03  0.10022549293E+03  0.00000000000E+00 0.  1.
         25    1    1    2    0    0  0.68078960524E+02 -0.90075318037E+02  0.62365411110E+02  0.17961835176E+03  0.12500000000E+03 0.  0.
         25    1    1    2    0    0  0.37022155454E+01  0.27683666068E+02  0.10859149778E+03  0.16792023451E+03  0.12500000000E+03 0.  0.
         25    1    1    2    0    0 -0.71781176070E+02  0.62391651969E+02  0.50484310436E+03  0.52871241285E+03  0.12500000000E+03 0.  0.
</event>
<event>
 5    0  0.5634041E-005  0.5481515E+03  0.7546771E-02  0.1001923E+00
         21   -1    0    0  502  501  0.00000000000E+00  0.00000000000E+00  0.15816933958E+03  0.15816933958E+03  0.00000000000E+00 0. -1.
         21   -1    0    0  501  502 -0.00000000000E+00 -0.00000000000E+00 -0.18996735219E+04  0.18996735219E+04  0.00000000000E+00 0. -1.
         25    1    1    2    0    0  0.18361798279E+03  0.44087084960E+03 -0.53503970594E+03  0.72799392618E+03  0.12500000000E+03 0.  0.
         25    1    1    2    0    0 -0.73350736229E+02 -0.89115620591E+02 -0.37261846760E+03  0.40962354270E+03  0.12500000000E+03 0.  0.
         25    1    1    2    0    0 -0.11026724656E+03 -0.35175522901E+03 -0.83384600875E+03  0.92022539255E+03  0.12500000000E+03 0.  0.
</event>
<event>
 5    0  0.5674747E-005  0.2888970E+03  0.7546771E-02  0.1090926E+00
         21   -1    0    0  502  501  0.00000000000E+00  0.00000000000E+00  0.73546485018E+02  0.73546485018E+02  0.00000000000E+00 0. -1.
         21   -1    0    0  501  502 -0.00000000000E+00 -0.00000000000E+00 -0.11348123526E+04  0.11348123526E+04  0.00000000000E+00 0. -1.
         25    1    1    2    0    0  0.17108776682E+02  0.27411382440E+02 -0.10177689853E+03  0.16440082482E+03  0.12500000000E+03 0.  0.
         25    1    1    2    0    0  0.32617514550E+02 -0.15500573056E+03 -0.67389226380E+03  0.70345324078E+03  0.12500000000E+03 0.  0.
         25    1    1    2    0    0 -0.49726291232E+02  0.12759434812E+03 -0.28559670523E+03  0.34050477199E+03  0.12500000000E+03 0.  0.
</event>
<event>
 5    0  0.5634041E-005  0.2276971E+03  0.7546771E-02  0.1128271E+00
         21   -1    0    0  502  501  0.00000000000E+00  0.00000000000E+00  0.43701678922E+03  0.43701678922E+03  0.00000000000E+00 0.  1.
         21   -1    0    0  501  502 -0.00000000000E+00 -0.00000000000E+00 -0.11863614762E+03  0.11863614762E+03  0.00000000000E+00 0.  1.
         25    1    1    2    0    0  0.86387297000E+02  0.22621512148E+02  0.17345395771E+03  0.23170190621E+03  0.12500000000E+03 0.  0.
         25    1    1    2    0    0 -0.15061937698E+02  0.12434167398E+01  0.11811575311E+02  0.12646312254E+03  0.12500000000E+03 0.  0.
         25    1    1    2    0    0 -0.71325359302E+02 -0.23864928887E+02  0.13311510857E+03  0.19748790808E+03  0.12500000000E+03 0.  0.
</event>
<event>
 5    0  0.5634041E-005  0.2489748E+03  0.7546771E-02  0.1113954E+00
         21   -1    0    0  502  501  0.00000000000E+00  0.00000000000E+00  0.38445919051E+03  0.38445919051E+03  0.00000000000E+00 0. -1.
         21   -1    0    0  501  502 -0.00000000000E+00 -0.00000000000E+00 -0.16123539037E+03  0.16123539037E+03  0.00000000000E+00 0. -1.
         25    1    1    2    0    0 -0.11217051162E+02  0.61225837294E+02  0.61441359417E+02  0.15255971302E+03  0.12500000000E+03 0.  0.
         25    1    1    2    0    0 -0.31846246190E+02  0.70527554445E+02  0.14375115691E+03  0.20561545284E+03  0.12500000000E+03 0.  0.
         25    1    1    2    0    0  0.43063297351E+02 -0.13175339174E+03  0.18031283808E+02  0.18751941502E+03  0.12500000000E+03 0.  0.
</event>
<event>
 5    0  0.5634041E-005  0.2480219E+03  0.7546771E-02  0.1114561E+00
         21   -1    0    0  502  501  0.00000000000E+00  0.00000000000E+00  0.16617554551E+04  0.16617554551E+04  0.00000000000E+00 0.  1.
         21   -1    0    0  501  502 -0.00000000000E+00 -0.00000000000E+00 -0.37018006595E+02  0.37018006595E+02  0.00000000000E+00 0.  1.
         25    1    1    2    0    0  0.96317961339E+02 -0.16757914497E+02  0.35518571112E+03  0.38902424958E+03  0.12500000000E+03 0.  0.
         25    1    1    2    0    0 -0.13905060823E+03  0.28310138606E+02  0.71908341385E+03  0.74353378651E+03  0.12500000000E+03 0.  0.
         25    1    1    2    0    0  0.42732646890E+02 -0.11552224109E+02  0.55046832356E+03  0.56621542565E+03  0.12500000000E+03 0.  0.
</event>
<event>
 5    0  0.5634041E-005  0.3508869E+03  0.7546771E-02  0.1062252E+00
         21   -1    0    0  502  501  0.00000000000E+00  0.00000000000E+00  0.52810666467E+03  0.52810666467E+03  0.00000000000E+00 0.  1.
         21   -1    0    0  501  502 -0.00000000000E+00 -0.00000000000E+00 -0.23313773860E+03  0.23313773860E+03  0.00000000000E+00 0.  1.
         25    1    1    2    0    0 -0.16483877868E+02  0.86603394199E+02  0.34455021717E+03  0.37697707924E+03  0.12500000000E+03 0.  0.
         25    1    1    2    0    0  0.14108457945E+03 -0.23462862414E+02  0.16063432978E+01  0.18995511262E+03  0.12500000000E+03 0.  0.
         25    1    1    2    0    0 -0.12460070159E+03 -0.63140531785E+02 -0.51187634394E+02  0.19431221142E+03  0.12500000000E+03 0.  0.
</event>
<event>
 5    0  0.5634041E-005  0.2729277E+03  0.7546771E-02  0.1099616E+00
         21   -1    0    0  502  501  0.00000000000E+00  0.00000000000E+00  0.25034599164E+04  0.25034599164E+04  0.00000000000E+00 0.  1.
         21   -1    0    0  501  502 -0.00000000000E+00 -0.00000000000E+00 -0.29754630157E+02  0.29754630157E+02  0.00000000000E+00 0.  1.
         25    1    1    2    0    0 -0.11977331860E+02 -0.20814599895E+02  0.47831421390E+03  0.49496079770E+03  0.12500000000E+03 0.  0.
         25    1    1    2    0    0 -0.16101330908E+01 -0.55290286483E+01  0.18520712672E+03  0.22351698476E+03  0.12500000000E+03 0.  0.
         25    1    1    2    0    0  0.13587464950E+02  0.26343628543E+02  0.18101839456E+04  0.18147367641E+04  0.12500000000E+03 0.  0.
</event>
<event>
 5    0  0.5634041E-005  0.2455686E+03  0.7546771E-02  0.1116138E+00
         21   -1    0    0  502  501  0.00000000000E+00  0.00000000000E+00  0.27408011661E+03  0.27408011661E+03  0.00000000000E+00 0.  1.
         21   -1    0    0  501  502 -0.00000000000E+00 -0.00000000000E+00 -0.22002298097E+03  0.22002298097E+03  0.00000000000E+00 0.  1.
         25    1    1    2    0    0 -0.20123609400E+02  0.10195689975E+02 -0.90457276891E+02  0.15593726524E+03  0.12500000000E+03 0.  0.
         25    1    1    2    0    0  0.58782886430E+02  0.63221150782E+02  0.46165357995E+02  0.15877210688E+03  0.12500000000E+03 0.  0.
         25    1    1    2    0    0 -0.38659277030E+02 -0.73416840757E+02  0.98349054535E+02  0.17939372546E+03  0.12500000000E+03 0.  0.
</event>
<event>
 5    0  0.5634041E-005  0.2506443E+03  0.7546771E-02  0.1112898E+00
         21   -1    0    0  502  501  0.00000000000E+00  0.00000000000E+00  0.30020289245E+03  0.30020289245E+03  0.00000000000E+00 0.  1.
         21   -1    0    0  501  502 -0.00000000000E+00 -0.00000000000E+00 -0.20926704072E+03  0.20926704072E+03  0.00000000000E+00 0.  1.
         25    1    1    2    0    0  0.50635209476E+02 -0.46631666115E+02  0.60232897405E+02  0.15489169976E+03  0.12500000000E+03 0.  0.
         25    1    1    2    0    0 -0.60604141533E+02  0.45173312296E+02  0.12927838975E+03  0.19506766050E+03  0.12500000000E+03 0.  0.
         25    1    1    2    0    0  0.99689320575E+01  0.14583538184E+01 -0.98575435428E+02  0.15951057292E+03  0.12500000000E+03 0.  0.
</event>
<event>
 5    0  0.5634041E-005  0.2486950E+03  0.7546771E-02  0.1114132E+00
         21   -1    0    0  502  501  0.00000000000E+00  0.00000000000E+00  0.20678599046E+03  0.20678599046E+03  0.00000000000E+00 0.  1.
         21   -1    0    0  501  502 -0.00000000000E+00 -0.00000000000E+00 -0.29909767909E+03  0.29909767909E+03  0.00000000000E+00 0.  1.
         25    1    1    2    0    0  0.11526850728E+03  0.41059840035E+02 -0.11846925641E+03  0.21126453547E+03  0.12500000000E+03 0.  0.
         25    1    1    2    0    0 -0.48934509794E+02  0.22206215648E+02 -0.64634677626E+01  0.13621482547E+03  0.12500000000E+03 0.  0.
         25    1    1    2    0    0 -0.66333997487E+02 -0.63266055683E+02  0.32621035538E+02  0.15840430860E+03  0.12500000000E+03 0.  0.
</event>
<event>
 5    0  0.5634041E-005  0.3139119E+03  0.7546771E-02  0.1078486E+00
         21   -1    0    0  502  501  0.00000000000E+00  0.00000000000E+00  0.67492697979E+03  0.67492697979E+03  0.00000000000E+00 0.  1.
         21   -1    0    0  501  502 -0.00000000000E+00 -0.00000000000E+00 -0.14600197952E+03  0.14600197952E+03  0.00000000000E+00 0.  1.
         25    1    1    2    0    0  0.38102482362E+02 -0.12876621641E+03  0.29705218777E+03  0.34913828193E+03  0.12500000000E+03 0.  0.
         25    1    1    2    0    0 -0.13036618388E+03 -0.28751965735E+02  0.62898850068E+02  0.19339928328E+03  0.12500000000E+03 0.  0.
         25    1    1    2    0    0  0.92263701520E+02  0.15751818214E+03  0.16897396243E+03  0.27839139409E+03  0.12500000000E+03 0.  0.
</event>
<event>
 5    0  0.5634041E-005  0.2669816E+03  0.7546771E-02  0.1103020E+00
         21   -1    0    0  502  501  0.00000000000E+00  0.00000000000E+00  0.11838973161E+03  0.11838973161E+03  0.00000000000E+00 0.  1.
         21   -1    0    0  501  502 -0.00000000000E+00 -0.00000000000E+00 -0.60207215187E+03  0.60207215187E+03  0.00000000000E+00 0.  1.
         25    1    1    2    0    0 -0.63670425321E+01  0.74212599244E+02 -0.16599350402E+02  0.14645336306E+03  0.12500000000E+03 0.  0.
         25    1    1    2    0    0  0.81189942933E+02  0.11202465084E+02 -0.30634044192E+03  0.34086180251E+03  0.12500000000E+03 0.  0.
         25    1    1    2    0    0 -0.74822900401E+02 -0.85415064328E+02 -0.16074262794E+03  0.23314671792E+03  0.12500000000E+03 0.  0.
</event>
<event>
 5    0  0.5634041E-005  0.2689095E+03  0.7546771E-02  0.1101905E+00
         21   -1    0    0  502  501  0.00000000000E+00  0.00000000000E+00  0.51334498721E+03  0.51334498721E+03  0.00000000000E+00 0. -1.
         21   -1    0    0  501  502 -0.00000000000E+00 -0.00000000000E+00 -0.14086495475E+03  0.14086495475E+03  0.00000000000E+00 0. -1.
         25    1    1    2    0    0 -0.15500268975E+03  0.41239869181E+01  0.15540461425E+03  0.25262310905E+03  0.12500000000E+03 0.  0.
         25    1    1    2    0    0  0.51449403570E+02  0.24848958705E+02  0.11305445548E+02  0.13790331749E+03  0.12500000000E+03 0.  0.
         25    1    1    2    0    0  0.10355328617E+03 -0.28972945623E+02  0.20576997266E+03  0.26368351542E+03  0.12500000000E+03 0.  0.
</event>
<event>
 5    0  0.5634041E-005  0.3182631E+03  0.7546771E-02  0.1076451E+00
         21   -1    0    0  502  501  0.00000000000E+00  0.00000000000E+00  0.37248012058E+02  0.37248012058E+02  0.00000000000E+00 0.  1.
         21   -1    0    0  501  502 -0.00000000000E+00 -0.00000000000E+00 -0.27193778804E+04  0.27193778804E+04  0.00000000000E+00 0.  1.
         25    1    1    2    0    0 -0.41917173417E+02 -0.11748084937E+03 -0.12282214313E+04  0.12408511932E+04  0.12500000000E+03 0.  0.
         25    1    1    2    0    0 -0.73532225813E+01  0.22248741056E+03 -0.78500849521E+03  0.82548049964E+03  0.12500000000E+03 0.  0.
         25    1    1    2    0    0  0.49270395998E+02 -0.10500656119E+03 -0.66889994182E+03  0.69029419958E+03  0.12500000000E+03 0.  0.
</event>
<event>
 5    0  0.5634041E-005  0.2836703E+03  0.7546771E-02  0.1093701E+00
         21   -1    0    0  502  501  0.00000000000E+00  0.00000000000E+00  0.22036249865E+03  0.22036249865E+03  0.00000000000E+00 0. -1.
         21   -1    0    0  501  502 -0.00000000000E+00 -0.00000000000E+00 -0.36516563919E+03  0.36516563919E+03  0.00000000000E+00 0. -1.
         25    1    1    2    0    0 -0.56200181371E+02 -0.11640623586E+03 -0.30471839643E+02  0.18237983755E+03  0.12500000000E+03 0.  0.
         25    1    1    2    0    0 -0.82003158851E+02  0.12503760740E+03 -0.25582256030E+02  0.19656645988E+03  0.12500000000E+03 0.  0.
         25    1    1    2    0    0  0.13820334022E+03 -0.86313715337E+01 -0.88749044871E+02  0.20658184041E+03  0.12500000000E+03 0.  0.
</event>
<event>
 5    0  0.5634041E-005  0.2582295E+03  0.7546771E-02  0.1108212E+00
         21   -1    0    0  502  501  0.00000000000E+00  0.00000000000E+00  0.12316735349E+03  0.12316735349E+03  0.00000000000E+00 0. -1.
         21   -1    0    0  501  502 -0.00000000000E+00 -0.00000000000E+00 -0.54139747144E+03  0.54139747144E+03  0.00000000000E+00 0. -1.
         25    1    1    2    0    0 -0.70115631061E+02  0.10587678212E+03 -0.31185723133E+02  0.18089677730E+03  0.12500000000E+03 0.  0.
         25    1    1    2    0    0  0.82332348780E+01 -0.28339459912E+02 -0.14445259935E+03  0.19329372624E+03  0.12500000000E+03 0.  0.
         25    1    1    2    0    0  0.61882396183E+02 -0.77537322205E+02 -0.24259179548E+03  0.29037432139E+03  0.12500000000E+03 0.  0.
</event>
<event>
 5    0  0.5634041E-005  0.6860097E+03  0.7546771E-02  0.9741461E-01
         21   -1    0    0  502  501  0.00000000000E+00  0.00000000000E+00  0.14283513157E+04  0.14283513157E+04  0.00000000000E+00 0.  1.
         21   -1    0    0  501  502 -0.00000000000E+00 -0.00000000000E+00 -0.32947724931E+03  0.32947724931E+03  0.00000000000E+00 0.  1.
         25    1    1    2    0    0  0.14793570470E+03 -0.25557141443E+03  0.10310996006E+04  0.10798116072E+04  0.12500000000E+03 0.  0.
         25    1    1    2    0    0 -0.23002655453E+03  0.37975260022E+03  0.12027005110E+03  0.47666984209E+03  0.12500000000E+03 0.  0.
         25    1    1    2    0    0  0.82090849825E+02 -0.12418118579E+03 -0.52495585341E+02  0.20134711572E+03  0.12500000000E+03 0.  0.
</event>
<event>
 5    0  0.5634041E-005  0.3381175E+03  0.7546771E-02  0.1067601E+00
         21   -1    0    0  502  501  0.00000000000E+00  0.00000000000E+00  0.16309795956E+03  0.16309795956E+03  0.00000000000E+00 0. -1.
         21   -1    0    0  501  502 -0.00000000000E+00 -0.00000000000E+00 -0.70094956236E+03  0.70094956236E+03  0.00000000000E+00 0. -1.
         25    1    1    2    0    0  0.11349926008E+03  0.43134275657E+02 -0.11688041362E+02  0.17465468241E+03  0.12500000000E+03 0.  0.
         25    1    1    2    0    0  0.85643799016E+02 -0.37558801993E+02 -0.38413672167E+03  0.41464628884E+03  0.12500000000E+03 0.  0.
         25    1    1    2    0    0 -0.19914305910E+03 -0.55754736639E+01 -0.14202683978E+03  0.27474655068E+03  0.12500000000E+03 0.  0.
</event>
<event>
 5    0  0.5634041E-005  0.6687385E+03  0.7546771E-02  0.9772239E-01
         21   -1    0    0  502  501  0.00000000000E+00  0.00000000000E+00  0.86078771703E+03  0.86078771703E+03  0.00000000000E+00 0. -1.
         21   -1    0    0  501  502 -0.00000000000E+00 -0.00000000000E+00 -0.51953720579E+03  0.51953720579E+03  0.00000000000E+00 0. -1.
         25    1    1    2    0    0  0.40512785011E+02  0.14998497977E+03 -0.37694927780E+03  0.42644171693E+03  0.12500000000E+03 0.  0.
         25    1    1    2    0    0  0.10063854079E+03 -0.20093311806E+03  0.71360367402E+03  0.75852319503E+03  0.12500000000E+03 0.  0.
         25    1    1    2    0    0 -0.14115132580E+03  0.50948138283E+02  0.45961150162E+01  0.19536001086E+03  0.12500000000E+03 0.  0.
</event>
<event>
 5    0  0.5634041E-005  0.3403309E+03  0.7546771E-02  0.1066655E+00
         21   -1    0    0  502  501  0.00000000000E+00  0.00000000000E+00  0.38561421168E+03  0.38561421168E+03  0.00000000000E+00 0.  1.
         21   -1    0    0  501  502 -0.00000000000E+00 -0.00000000000E+00 -0.30036519843E+03  0.30036519843E+03  0.00000000000E+00 0.  1.
         25    1    1    2    0    0  0.45333247842E+02 -0.87652744235E+02  0.20957046002E+03  0.26321642168E+03  0.12500000000E+03 0.  0.
         25    1    1    2    0    0  0.35324383655E+02  0.11765412846E+03  0.58866136598E+02  0.18487976650E+03  0.12500000000E+03 0.  0.
         25    1    1    2    0    0 -0.80657631496E+02 -0.30001384224E+02 -0.18318758337E+03  0.23788322193E+03  0.12500000000E+03 0.  0.
</event>
<event>
 5    0  0.5634041E-005  0.3459001E+03  0.7546771E-02  0.1064311E+00
         21   -1    0    0  502  501  0.00000000000E+00  0.00000000000E+00  0.40225406080E+03  0.40225406080E+03  0.00000000000E+00 0.  1.
         21   -1    0    0  501  502 -0.00000000000E+00 -0.00000000000E+00 -0.29744099220E+03  0.29744099220E+03  0.00000000000E+00 0.  1.
         25    1    1    2    0    0  0.73191544400E+02 -0.14524037324E+02 -0.73903929324E+02  0.16326279613E+03  0.12500000000E+03 0.  0.
         25    1    1    2    0    0 -0.12132308344E+03  0.15108245450E+03 -0.52358172900E+02  0.23645628962E+03  0.12500000000E+03 0.  0.
         25    1    1    2    0    0  0.48131539036E+02 -0.13655841718E+03  0.23107517083E+03  0.29997596725E+03  0.12500000000E+03 0.  0.
</event>
<event>
 5    0  0.5634041E-005  0.3112648E+03  0.7546771E-02  0.1079741E+00
         21   -1    0    0  502  501  0.00000000000E+00  0.00000000000E+00  0.56163255359E+03  0.56163255359E+03  0.00000000000E+00 0. -1.
         21   -1    0    0  501  502 -0.00000000000E+00 -0.00000000000E+00 -0.17250743426E+03  0.17250743426E+03  0.00000000000E+00 0. -1.
         25    1    1    2    0    0  0.28046038969E+02  0.12421427296E+03  0.17134934675E+03  0.24738909544E+03  0.12500000000E+03 0.  0.
         25    1    1    2    0    0 -0.54784670504E+01 -0.15600397658E+03 -0.34106202508E+02  0.20286815265E+03  0.12500000000E+03 0.  0.
         25    1    1    2    0    0 -0.22567571919E+02  0.31789703613E+02  0.25188197509E+03  0.28388273976E+03  0.12500000000E+03 0.  0.
</event>
<event>
 5    0  0.5634041E-005  0.3643011E+03  0.7546771E-02  0.1056894E+00
         21   -1    0    0  502  501  0.00000000000E+00  0.00000000000E+00  0.46044495427E+03  0.46044495427E+03  0.00000000000E+00 0. -1.
         21   -1    0    0  501  502 -0.00000000000E+00 -0.00000000000E+00 -0.28823268936E+03  0.28823268936E+03  0.00000000000E+00 0. -1.
         25    1    1    2    0    0 -0.72236828948E+01 -0.17277319175E+02  0.15137696180E+03  0.19720718018E+03  0.12500000000E+03 0.  0.
         25    1    1    2    0    0 -0.21696507295E+03 -0.56224508353E+02 -0.75687735561E+02  0.26756059414E+03  0.12500000000E+03 0.  0.
         25    1    1    2    0    0  0.22418875585E+03  0.73501827528E+02  0.96523038675E+02  0.28390986931E+03  0.12500000000E+03 0.  0.
</event>
<event>
 5    0  0.5634041E-005  0.5032597E+03  0.7546771E-02  0.1012932E+00
         21   -1    0    0  502  501  0.00000000000E+00  0.00000000000E+00  0.20083832715E+04  0.20083832715E+04  0.00000000000E+00 0. -1.
         21   -1    0    0  501  502 -0.00000000000E+00 -0.00000000000E+00 -0.12610657071E+03  0.12610657071E+03  0.00000000000E+00 0. -1.
         25    1    1    2    0    0  0.26775791532E+03  0.20090349712E+03  0.41351598710E+03  0.54651348379E+03  0.12500000000E+03 0.  0.
         25    1    1    2    0    0  0.10018582910E+03 -0.12132152926E+03  0.60476526743E+03  0.63727713163E+03  0.12500000000E+03 0.  0.
         25    1    1    2    0    0 -0.36794374442E+03 -0.79581967862E+02  0.86399544627E+03  0.95069922680E+03  0.12500000000E+03 0.  0.
</event>
<event>
 5    0  0.5634041E-005  0.2598065E+03  0.7546771E-02  0.1107260E+00
         21   -1    0    0  502  501  0.00000000000E+00  0.00000000000E+00  0.95695213888E+03  0.95695213888E+03  0.00000000000E+00 0.  1.
         21   -1    0    0  501  502 -0.00000000000E+00 -0.00000000000E+00 -0.70535837616E+02  0.70535837616E+02  0.00000000000E+00 0.  1.
         25    1    1    2    0    0 -0.14961906292E+02  0.26972779498E+02  0.17287097580E+03  0.21554759045E+03  0.12500000000E+03 0.  0.
         25    1    1    2    0    0  0.65708944944E+02 -0.12231059918E+03  0.54416198600E+03  0.57533886982E+03  0.12500000000E+03 0.  0.
         25    1    1    2    0    0 -0.50747038652E+02  0.95337819684E+02  0.16938333946E+03  0.23660151623E+03  0.12500000000E+03 0.  0.
</event>
<event>
 5    0  0.5634041E-005  0.4238193E+03  0.7546771E-02  0.1035830E+00
         21   -1    0    0  502  501  0.00000000000E+00  0.00000000000E+00  0.28150951955E+03  0.28150951955E+03  0.00000000000E+00 0.  1.
         21   -1    0    0  501  502 -0.00000000000E+00 -0.00000000000E+00 -0.63807014845E+03  0.63807014845E+03  0.00000000000E+00 0.  1.
         25    1    1    2    0    0 -0.85215010733E+02  0.34281930244E+01  0.97605890700E+02  0.18007015428E+03  0.12500000000E+03 0.  0.
         25    1    1    2    0    0 -0.12770255419E+03  0.11814028774E+03 -0.40749953270E+03  0.46037586718E+03  0.12500000000E+03 0.  0.
         25    1    1    2    0    0  0.21291756492E+03 -0.12156848077E+03 -0.46666986898E+02  0.27913364654E+03  0.12500000000E+03 0.  0.
</event>
<event>
 5    0  0.5634041E-005  0.3333483E+03  0.7546771E-02  0.1069665E+00
         21   -1    0    0  502  501  0.00000000000E+00  0.00000000000E+00  0.15394353073E+03  0.15394353073E+03  0.00000000000E+00 0.  1.
         21   -1    0    0  501  502 -0.00000000000E+00 -0.00000000000E+00 -0.72183008406E+03  0.72183008406E+03  0.00000000000E+00 0.  1.
         25    1    1    2    0    0  0.20345146395E+03  0.77106012216E+02 -0.19751203572E+03  0.31933343006E+03  0.12500000000E+03 0.  0.
         25    1    1    2    0    0 -0.14874271333E+03 -0.15252101722E+03 -0.15887077511E+03  0.29368687177E+03  0.12500000000E+03 0.  0.
         25    1    1    2    0    0 -0.54708750619E+02  0.75415005007E+02 -0.21150374251E+03  0.26275331296E+03  0.12500000000E+03 0.  0.
</event>
<event>
 5    0  0.5634041E-005  0.8153649E+03  0.7546771E-02  0.9538039E-01
         21   -1    0    0  502  501  0.00000000000E+00  0.00000000000E+00  0.92693730954E+03  0.92693730954E+03  0.00000000000E+00 0.  1.
         21   -1    0    0  501  502 -0.00000000000E+00 -0.00000000000E+00 -0.71722216525E+03  0.71722216525E+03  0.00000000000E+00 0.  1.
         25    1    1    2    0    0  0.63425983118E+03 -0.13098336009E+03 -0.23817506580E+03  0.70128064000E+03  0.12500000000E+03 0.  0.
         25    1    1    2    0    0 -0.53212969059E+03  0.27581415061E+03  0.34610668553E+03  0.70331379273E+03  0.12500000000E+03 0.  0.
         25    1    1    2    0    0 -0.10213014060E+03 -0.14483079053E+03  0.10178352457E+03  0.23956504206E+03  0.12500000000E+03 0.  0.
</event>
<event>
 5    0  0.5634041E-005  0.3897266E+03  0.7546771E-02  0.1047396E+00
         21   -1    0    0  502  501  0.00000000000E+00  0.00000000000E+00  0.34284264131E+03  0.34284264131E+03  0.00000000000E+00 0.  1.
         21   -1    0    0  501  502 -0.00000000000E+00 -0.00000000000E+00 -0.44302205629E+03  0.44302205629E+03  0.00000000000E+00 0.  1.
         25    1    1    2    0    0  0.16762359810E+03  0.62820298673E+02 -0.17387353858E+03  0.27910762796E+03  0.12500000000E+03 0.  0.
         25    1    1    2    0    0  0.77371322199E+02 -0.15257750563E+03  0.24481153716E+02  0.21328512281E+03  0.12500000000E+03 0.  0.
         25    1    1    2    0    0 -0.24499492030E+03  0.89757206956E+02  0.49212969885E+02  0.29347194684E+03  0.12500000000E+03 0.  0.
</event>
<event>
 5    0  0.5634041E-005  0.2542613E+03  0.7546771E-02  0.1110641E+00
         21   -1    0    0  502  501  0.00000000000E+00  0.00000000000E+00  0.21793163703E+04  0.21793163703E+04  0.00000000000E+00 0. -1.
         21   -1    0    0  501  502 -0.00000000000E+00 -0.00000000000E+00 -0.29664725545E+02  0.29664725545E+02  0.00000000000E+00 0. -1.
         25    1    1    2    0    0 -0.72976129498E+02  0.84461154762E+01  0.34597032047E+03  0.37512306646E+03  0.12500000000E+03 0.  0.
         25    1    1    2    0    0  0.32730867616E+02  0.20045714870E+02  0.14437854384E+04  0.14496946343E+04  0.12500000000E+03 0.  0.
         25    1    1    2    0    0  0.40245261881E+02 -0.28491830346E+02  0.35989588588E+03  0.38416339515E+03  0.12500000000E+03 0.  0.
</event>
<event>
 5    0  0.5634041E-005  0.4979837E+03  0.7546771E-02  0.1014307E+00
         21   -1    0    0  502  501  0.00000000000E+00  0.00000000000E+00  0.28246807793E+03  0.28246807793E+03  0.00000000000E+00 0.  1.
         21   -1    0    0  501  502 -0.00000000000E+00 -0.00000000000E+00 -0.87793190785E+03  0.87793190785E+03  0.00000000000E+00 0. -1.
         25    1    1    2    0    0  0.13783952539E+03 -0.35194415584E+03 -0.34084366412E+03  0.52408379765E+03  0.12500000000E+03 0.  0.
         25    1    1    2    0    0 -0.28250996971E+01  0.16186929289E+02  0.61065954427E+02  0.14008586174E+03  0.12500000000E+03 0.  0.
         25    1    1    2    0    0 -0.13501442569E+03  0.33575722655E+03 -0.31568612023E+03  0.49623032640E+03  0.12500000000E+03 0.  0.
</event>
<event>
 5    0  0.5634041E-005  0.3425981E+03  0.7546771E-02  0.1065695E+00
         21   -1    0    0  502  501  0.00000000000E+00  0.00000000000E+00  0.52952106979E+02  0.52952106979E+02  0.00000000000E+00 0.  1.
         21   -1    0    0  501  502 -0.00000000000E+00 -0.00000000000E+00 -0.22165965626E+04  0.22165965626E+04  0.00000000000E+00 0.  1.
         25    1    1    2    0    0 -0.24450779984E+03  0.13266294967E+03 -0.10210146483E+04  0.10655887736E+04  0.12500000000E+03 0.  0.
         25    1    1    2    0    0  0.10163517817E+03 -0.43586755315E+02 -0.57949741367E+03  0.60305204347E+03  0.12500000000E+03 0.  0.
         25    1    1    2    0    0  0.14287262167E+03 -0.89076194351E+02 -0.56313239372E+03  0.60090785257E+03  0.12500000000E+03 0.  0.
</event>
<event>
 5    0  0.5634041E-005  0.3116706E+03  0.7546771E-02  0.1079548E+00
         21   -1    0    0  502  501  0.00000000000E+00  0.00000000000E+00  0.71826778375E+02  0.71826778375E+02  0.00000000000E+00 0. -1.
         21   -1    0    0  501  502 -0.00000000000E+00 -0.00000000000E+00 -0.13524005992E+04  0.13524005992E+04  0.00000000000E+00 0. -1.
         25    1    1    2    0    0 -0.14560090833E+02  0.37836817244E+02 -0.47786498506E+03  0.49560424224E+03  0.12500000000E+03 0.  0.
         25    1    1    2    0    0  0.70050837010E+02  0.13691332598E+03 -0.18062866721E+03  0.26814938749E+03  0.12500000000E+03 0.  0.
         25    1    1    2    0    0 -0.55490746177E+02 -0.17475014322E+03 -0.62208016852E+03  0.66047374780E+03  0.12500000000E+03 0.  0.
</event>
<event>
 5    0  0.5634041E-005  0.3244912E+03  0.7546771E-02  0.1073601E+00
         21   -1    0    0  502  501  0.00000000000E+00  0.00000000000E+00  0.98097892190E+02  0.98097892190E+02  0.00000000000E+00 0. -1.
         21   -1    0    0  501  502 -0.00000000000E+00 -0.00000000000E+00 -0.10733620419E+04  0.10733620419E+04  0.00000000000E+00 0. -1.
         25    1    1    2    0    0  0.78329208136E+02 -0.96327284128E+02 -0.45254289483E+03  0.48562792565E+03  0.12500000000E+03 0.  0.
         25    1    1    2    0    0  0.71701701879E+02  0.18048759438E+03 -0.28647047362E+03  0.36797722488E+03  0.12500000000E+03 0.  0.
         25    1    1    2    0    0 -0.15003091001E+03 -0.84160310251E+02 -0.23625078127E+03  0.31785478356E+03  0.12500000000E+03 0.  0.
</event>
<event>
 5    0  0.5634041E-005  0.2581571E+03  0.7546771E-02  0.1108256E+00
         21   -1    0    0  502  501  0.00000000000E+00  0.00000000000E+00  0.30219991960E+03  0.30219991960E+03  0.00000000000E+00 0.  1.
         21   -1    0    0  501  502 -0.00000000000E+00 -0.00000000000E+00 -0.22053310834E+03  0.22053310834E+03  0.00000000000E+00 0.  1.
         25    1    1    2    0    0  0.39879962799E+02  0.10344327487E+02 -0.34501563962E+02  0.13606165683E+03  0.12500000000E+03 0.  0.
         25    1    1    2    0    0  0.95965245312E+00 -0.11505693992E+03  0.13570577762E+03  0.21743982716E+03  0.12500000000E+03 0.  0.
         25    1    1    2    0    0 -0.40839615253E+02  0.10471261243E+03 -0.19537402394E+02  0.16923154395E+03  0.12500000000E+03 0.  0.
</event>
<event>
 5    0  0.5634041E-005  0.3318095E+03  0.7546771E-02  0.1070339E+00
         21   -1    0    0  502  501  0.00000000000E+00  0.00000000000E+00  0.95253029069E+02  0.95253029069E+02  0.00000000000E+00 0.  1.
         21   -1    0    0  501  502 -0.00000000000E+00 -0.00000000000E+00 -0.11558427468E+04  0.11558427468E+04  0.00000000000E+00 0.  1.
         25    1    1    2    0    0  0.82595886763E+02  0.21275128240E+02 -0.29182831837E+03  0.32873010053E+03  0.12500000000E+03 0.  0.
         25    1    1    2    0    0 -0.25159469531E+03 -0.58852604489E+02 -0.35296519950E+03  0.45494280060E+03  0.12500000000E+03 0.  0.
         25    1    1    2    0    0  0.16899880855E+03  0.37577476249E+02 -0.41579619989E+03  0.46742287477E+03  0.12500000000E+03 0.  0.
</event>
<event>
 5    0  0.5634041E-005  0.3092965E+03  0.7546771E-02  0.1080684E+00
         21   -1    0    0  502  501  0.00000000000E+00  0.00000000000E+00  0.79312666176E+02  0.79312666176E+02  0.00000000000E+00 0.  1.
         21   -1    0    0  501  502 -0.00000000000E+00 -0.00000000000E+00 -0.12061671993E+04  0.12061671993E+04  0.00000000000E+00 0.  1.
         25    1    1    2    0    0 -0.13473404974E+03 -0.10728001340E+03 -0.59035431758E+03  0.62753923043E+03  0.12500000000E+03 0.  0.
         25    1    1    2    0    0  0.14277938557E+03 -0.32830225395E+02 -0.25769486608E+03  0.32170704165E+03  0.12500000000E+03 0.  0.
         25    1    1    2    0    0 -0.80453358318E+01  0.14011023880E+03 -0.27880534948E+03  0.33623359342E+03  0.12500000000E+03 0.  0.
</event>
<event>
 5    0  0.5634041E-005  0.4557118E+03  0.7546771E-02  0.1026032E+00
         21   -1    0    0  502  501  0.00000000000E+00  0.00000000000E+00  0.19027661617E+03  0.19027661617E+03  0.00000000000E+00 0. -1.
         21   -1    0    0  501  502 -0.00000000000E+00 -0.00000000000E+00 -0.10914278955E+04  0.10914278955E+04  0.00000000000E+00 0. -1.
         25    1    1    2    0    0  0.16759010660E+03  0.16907588187E+03 -0.58918000760E+03  0.64763506624E+03  0.12500000000E+03 0.  0.
         25    1    1    2    0    0 -0.38057804542E+02 -0.14987243576E+03  0.70464098764E+02  0.21095101968E+03  0.12500000000E+03 0.  0.
         25    1    1    2    0    0 -0.12953230206E+03 -0.19203446106E+02 -0.38243537049E+03  0.42311842576E+03  0.12500000000E+03 0.  0.
</event>
<event>
 5    0  0.5634041E-005  0.2654124E+03  0.7546771E-02  0.1103934E+00
         21   -1    0    0  502  501  0.00000000000E+00  0.00000000000E+00  0.98545578079E+03  0.98545578079E+03  0.00000000000E+00 0. -1.
         21   -1    0    0  501  502 -0.00000000000E+00 -0.00000000000E+00 -0.71483417828E+02  0.71483417828E+02  0.00000000000E+00 0. -1.
         25    1    1    2    0    0 -0.21884619887E+02  0.13683718801E+02  0.55782513574E+03  0.57224126276E+03  0.12500000000E+03 0.  0.
         25    1    1    2    0    0  0.84071660648E+02  0.43963569798E+02  0.96240945027E+02  0.18408736810E+03  0.12500000000E+03 0.  0.
         25    1    1    2    0    0 -0.62187040761E+02 -0.57647288599E+02  0.25990628220E+03  0.30061056776E+03  0.12500000000E+03 0.  0.
</event>
<event>
 5    0  0.5867764E-005  0.3299542E+03  0.7546771E-02  0.1071157E+00
         21   -1    0    0  502  501  0.00000000000E+00  0.00000000000E+00  0.19313300325E+03  0.19313300325E+03  0.00000000000E+00 0. -1.
         21   -1    0    0  501  502 -0.00000000000E+00 -0.00000000000E+00 -0.56370369296E+03  0.56370369296E+03  0.00000000000E+00 0. -1.
         25    1    1    2    0    0  0.48458670216E+02 -0.58965642447E+02 -0.27296369615E+02  0.14898080918E+03  0.12500000000E+03 0.  0.
         25    1    1    2    0    0  0.16260567756E+03 -0.71744824171E+02 -0.19921853969E+03  0.29478967541E+03  0.12500000000E+03 0.  0.
         25    1    1    2    0    0 -0.21106434778E+03  0.13071046662E+03 -0.14405578040E+03  0.31306621161E+03  0.12500000000E+03 0.  0.
</event>
<event>
 5    0  0.5634041E-005  0.2747094E+03  0.7546771E-02  0.1098614E+00
         21   -1    0    0  502  501  0.00000000000E+00  0.00000000000E+00  0.11196380621E+03  0.11196380621E+03  0.00000000000E+00 0. -1.
         21   -1    0    0  501  502 -0.00000000000E+00 -0.00000000000E+00 -0.67401463084E+03  0.67401463084E+03  0.00000000000E+00 0. -1.
         25    1    1    2    0    0 -0.12673838197E+02  0.45872474403E+02  0.22308109176E+02  0.13560074416E+03  0.12500000000E+03 0.  0.
         25    1    1    2    0    0 -0.51160239822E+02 -0.51883887634E+02 -0.28065462508E+03  0.31575516863E+03  0.12500000000E+03 0.  0.
         25    1    1    2    0    0  0.63834078019E+02  0.60114132315E+01 -0.30370430872E+03  0.33462252426E+03  0.12500000000E+03 0.  0.
</event>
<event>
 5    0  0.5634041E-005  0.2185388E+03  0.7546771E-02  0.1134977E+00
         21   -1    0    0  502  501  0.00000000000E+00  0.00000000000E+00  0.19767233435E+03  0.19767233435E+03  0.00000000000E+00 0.  1.
         21   -1    0    0  501  502 -0.00000000000E+00 -0.00000000000E+00 -0.24160788119E+03  0.24160788119E+03  0.00000000000E+00 0.  1.
         25    1    1    2    0    0 -0.40497164401E+02  0.59179509274E+02  0.43086145886E+02  0.15041160397E+03  0.12500000000E+03 0.  0.
         25    1    1    2    0    0  0.33504520189E+02 -0.54915008277E+02 -0.83585393933E+02  0.16355344413E+03  0.12500000000E+03 0.  0.
         25    1    1    2    0    0  0.69926442117E+01 -0.42645009973E+01 -0.34362987942E+01  0.12531516744E+03  0.12500000000E+03 0.  0.
</event>
<event>
 5    0  0.5634041E-005  0.3155653E+03  0.7546771E-02  0.1077709E+00
         21   -1    0    0  502  501  0.00000000000E+00  0.00000000000E+00  0.35219766627E+03  0.35219766627E+03  0.00000000000E+00 0. -1.
         21   -1    0    0  501  502 -0.00000000000E+00 -0.00000000000E+00 -0.28274308831E+03  0.28274308831E+03  0.00000000000E+00 0. -1.
         25    1    1    2    0    0 -0.16845688500E+03  0.35005384696E+02  0.20094308545E+02  0.21361619859E+03  0.12500000000E+03 0.  0.
         25    1    1    2    0    0  0.18048506950E+03 -0.32041121844E+02  0.14360362224E+03  0.26428865682E+03  0.12500000000E+03 0.  0.
         25    1    1    2    0    0 -0.12028184502E+02 -0.29642628517E+01 -0.94243352821E+02  0.15703589917E+03  0.12500000000E+03 0.  0.
</event>
<event>
 5    0  0.5634041E-005  0.8133210E+03  0.7546771E-02  0.9540933E-01
         21   -1    0    0  502  501  0.00000000000E+00  0.00000000000E+00  0.45464471534E+03  0.45464471534E+03  0.00000000000E+00 0.  1.
         21   -1    0    0  501  502 -0.00000000000E+00 -0.00000000000E+00 -0.14549626100E+04  0.14549626100E+04  0.00000000000E+00 0. -1.
         25    1    1    2    0    0  0.31458289794E+03  0.31953361447E+03 -0.42434598251E+03  0.62988780217E+03  0.12500000000E+03 0.  0.
         25    1    1    2    0    0 -0.20446949248E+03 -0.68841609378E+03 -0.29180854498E+03  0.78517623401E+03  0.12500000000E+03 0.  0.
         25    1    1    2    0    0 -0.11011340545E+03  0.36888247931E+03 -0.28416336716E+03  0.49454328915E+03  0.12500000000E+03 0.  0.
</event>
<event>
 5    0  0.5634041E-005  0.3159660E+03  0.7546771E-02  0.1077521E+00
         21   -1    0    0  502  501  0.00000000000E+00  0.00000000000E+00  0.17056359540E+03  0.17056359540E+03  0.00000000000E+00 0.  1.
         21   -1    0    0  501  502 -0.00000000000E+00 -0.00000000000E+00 -0.58532129338E+03  0.58532129338E+03  0.00000000000E+00 0.  1.
         25    1    1    2    0    0  0.14683145881E+03 -0.11388393948E+03 -0.32990392528E+02  0.22636783112E+03  0.12500000000E+03 0.  0.
         25    1    1    2    0    0 -0.29833588371E+02 -0.13082580269E+02 -0.24292222162E+03  0.27513160970E+03  0.12500000000E+03 0.  0.
         25    1    1    2    0    0 -0.11699787044E+03  0.12696651975E+03 -0.13884508384E+03  0.25438544795E+03  0.12500000000E+03 0.  0.
</event>
<event>
 5    0  0.5634041E-005  0.3089758E+03  0.7546771E-02  0.1080838E+00
         21   -1    0    0  502  501  0.00000000000E+00  0.00000000000E+00  0.15197462553E+03  0.15197462553E+03  0.00000000000E+00 0.  1.
         21   -1    0    0  501  502 -0.00000000000E+00 -0.00000000000E+00 -0.62817084638E+03  0.62817084638E+03  0.00000000000E+00 0.  1.
         25    1    1    2    0    0 -0.20122088563E+02  0.87006389652E+02 -0.11371327288E+02  0.15404323215E+03  0.12500000000E+03 0.  0.
         25    1    1    2    0    0  0.12234007922E+03 -0.35475381506E+02 -0.41130802467E+03  0.44835799182E+03  0.12500000000E+03 0.  0.
         25    1    1    2    0    0 -0.10221799066E+03 -0.51531008145E+02 -0.53516868893E+02  0.17774424792E+03  0.12500000000E+03 0.  0.
</event>
<event>
 5    0  0.5634041E-005  0.2710372E+03  0.7546771E-02  0.1100687E+00
         21   -1    0    0  502  501  0.00000000000E+00  0.00000000000E+00  0.10419958871E+03  0.10419958871E+03  0.00000000000E+00 0. -1.
         21   -1    0    0  501  502 -0.00000000000E+00 -0.00000000000E+00 -0.70500409861E+03  0.70500409861E+03  0.00000000000E+00 0. -1.
         25    1    1    2    0    0  0.34972064047E+02 -0.18563023536E+02 -0.25365735511E+03  0.28554278998E+03  0.12500000000E+03 0.  0.
         25    1    1    2    0    0  0.69764644043E+01 -0.59381307238E+02  0.60367668626E+01  0.13869482059E+03  0.12500000000E+03 0.  0.
         25    1    1    2    0    0 -0.41948528452E+02  0.77944330773E+02 -0.35318392164E+03  0.38496607675E+03  0.12500000000E+03 0.  0.
</event>
<event>
 5    0  0.5634041E-005  0.2984304E+03  0.7546771E-02  0.1086028E+00
         21   -1    0    0  502  501  0.00000000000E+00  0.00000000000E+00  0.11652506578E+04  0.11652506578E+04  0.00000000000E+00 0. -1.
         21   -1    0    0  501  502 -0.00000000000E+00 -0.00000000000E+00 -0.76430534507E+02  0.76430534507E+02  0.00000000000E+00 0. -1.
         25    1    1    2    0    0 -0.69637975662E+02  0.32714751053E+02  0.21474583790E+03  0.26011627686E+03  0.12500000000E+03 0.  0.
         25    1    1    2    0    0 -0.38642007600E+01 -0.64496369713E+02  0.80610469815E+03  0.81829365030E+03  0.12500000000E+03 0.  0.
         25    1    1    2    0    0  0.73502176422E+02  0.31781618659E+02  0.67969587202E+02  0.16327126510E+03  0.12500000000E+03 0.  0.
</event>
<event>
 5    0  0.5634041E-005  0.3860703E+03  0.7546771E-02  0.1048713E+00
         21   -1    0    0  502  501  0.00000000000E+00  0.00000000000E+00  0.48159491867E+03  0.48159491867E+03  0.00000000000E+00 0.  1.
         21   -1    0    0  501  502 -0.00000000000E+00 -0.00000000000E+00 -0.30949296984E+03  0.30949296984E+03  0.00000000000E+00 0.  1.
         25    1    1    2    0    0 -0.18763548411E+03 -0.15884593816E+03 -0.47243084984E+02  0.27981425275E+03  0.12500000000E+03 0.  0.
         25    1    1    2    0    0  0.43704252872E+02  0.21472226028E+03  0.67249386072E+02  0.26108081259E+03  0.12500000000E+03 0.  0.
         25    1    1    2    0    0  0.14393123123E+03 -0.55876322120E+02  0.15209564774E+03  0.25019282316E+03  0.12500000000E+03 0.  0.
</event>
<event>
 5    0  0.5634041E-005  0.2372797E+03  0.7546771E-02  0.1121618E+00
         21   -1    0    0  502  501  0.00000000000E+00  0.00000000000E+00  0.17142057588E+03  0.17142057588E+03  0.00000000000E+00 0.  1.
         21   -1    0    0  501  502 -0.00000000000E+00 -0.00000000000E+00 -0.32844151402E+03  0.32844151402E+03  0.00000000000E+00 0.  1.
         25    1    1    2    0    0  0.98741665338E+02 -0.53953296406E+02 -0.11812927445E+03  0.20552469474E+03  0.12500000000E+03 0.  0.
         25    1    1    2    0    0 -0.10010705844E+03  0.45402762602E+02 -0.22429785563E+02  0.16796109455E+03  0.12500000000E+03 0.  0.
         25    1    1    2    0    0  0.13653930982E+01  0.85505338035E+01 -0.16461878128E+02  0.12637630062E+03  0.12500000000E+03 0.  0.
</event>
<event>
 5    0  0.5634041E-005  0.3632308E+03  0.7546771E-02  0.1057312E+00
         21   -1    0    0  502  501  0.00000000000E+00  0.00000000000E+00  0.47812178648E+03  0.47812178648E+03  0.00000000000E+00 0.  1.
         21   -1    0    0  501  502 -0.00000000000E+00 -0.00000000000E+00 -0.27594768405E+03  0.27594768405E+03  0.00000000000E+00 0.  1.
         25    1    1    2    0    0 -0.23194113591E+03 -0.95476336242E+02 -0.87913046569E+02  0.29371095497E+03  0.12500000000E+03 0.  0.
         25    1    1    2    0    0  0.86592438041E+02  0.53420113466E+02  0.13344452938E+03  0.20924722524E+03  0.12500000000E+03 0.  0.
         25    1    1    2    0    0  0.14534869787E+03  0.42056222776E+02  0.15664261962E+03  0.25111129033E+03  0.12500000000E+03 0.  0.
</event>
<event>
 5    0  0.5634041E-005  0.2991528E+03  0.7546771E-02  0.1085665E+00
         21   -1    0    0  502  501  0.00000000000E+00  0.00000000000E+00  0.37114322251E+02  0.37114322251E+02  0.00000000000E+00 0. -1.
         21   -1    0    0  501  502 -0.00000000000E+00 -0.00000000000E+00 -0.24112634638E+04  0.24112634638E+04  0.00000000000E+00 0. -1.
         25    1    1    2    0    0  0.28929414130E+02 -0.12322989345E+03 -0.10215271126E+04  0.10369017116E+04  0.12500000000E+03 0.  0.
         25    1    1    2    0    0 -0.53793358085E+02  0.20859115976E+03 -0.79100638758E+03  0.82928891376E+03  0.12500000000E+03 0.  0.
         25    1    1    2    0    0  0.24863943956E+02 -0.85361266307E+02 -0.56161564140E+03  0.58218716077E+03  0.12500000000E+03 0.  0.
</event>
<event>
 5    0  0.5634041E-005  0.3204306E+03  0.7546771E-02  0.1075451E+00
         21   -1    0    0  502  501  0.00000000000E+00  0.00000000000E+00  0.19274576340E+03  0.19274576340E+03  0.00000000000E+00 0. -1.
         21   -1    0    0  501  502 -0.00000000000E+00 -0.00000000000E+00 -0.53270051796E+03  0.53270051796E+03  0.00000000000E+00 0. -1.
         25    1    1    2    0    0  0.11243006090E+03 -0.11085105865E+03 -0.22417963107E+03  0.30134694753E+03  0.12500000000E+03 0.  0.
         25    1    1    2    0    0  0.33024323599E+02  0.10231650137E+03  0.48037260614E+02  0.17173191552E+03  0.12500000000E+03 0.  0.
         25    1    1    2    0    0 -0.14545438450E+03  0.85345572816E+01 -0.16381238410E+03  0.25236741831E+03  0.12500000000E+03 0.  0.
</event>
<event>
 5    0  0.5634041E-005  0.5032480E+03  0.7546771E-02  0.1012935E+00
         21   -1    0    0  502  501  0.00000000000E+00  0.00000000000E+00  0.73971126008E+03  0.73971126008E+03  0.00000000000E+00 0.  1.
         21   -1    0    0  501  502 -0.00000000000E+00 -0.00000000000E+00 -0.34237486826E+03  0.34237486826E+03  0.00000000000E+00 0.  1.
         25    1    1    2    0    0  0.20757436043E+03 -0.31561513520E+03  0.42148408161E+03  0.57963252128E+03  0.12500000000E+03 0.  0.
         25    1    1    2    0    0 -0.19136573503E+03  0.23659176423E+03  0.55633987651E+02  0.33364149626E+03  0.12500000000E+03 0.  0.
         25    1    1    2    0    0 -0.16208625397E+02  0.79023370968E+02 -0.79781677440E+02  0.16881211080E+03  0.12500000000E+03 0.  0.
</event>
<event>
 5    0  0.5634041E-005  0.4128394E+03  0.7546771E-02  0.1039422E+00
         21   -1    0    0  502  501  0.00000000000E+00  0.00000000000E+00  0.18914256074E+03  0.18914256074E+03  0.00000000000E+00 0.  1.
         21   -1    0    0  501  502 -0.00000000000E+00 -0.00000000000E+00 -0.90110012199E+03  0.90110012199E+03  0.00000000000E+00 0.  1.
         25    1    1    2    0    0 -0.13644326820E+03  0.39683924953E+02 -0.98652618822E+02  0.21342192609E+03  0.12500000000E+03 0.  0.
         25    1    1    2    0    0 -0.11012412942E+03 -0.54695975093E+02  0.28694383343E+02  0.17767200457E+03  0.12500000000E+03 0.  0.
         25    1    1    2    0    0  0.24656739762E+03  0.15012050139E+02 -0.64199932577E+03  0.69914875206E+03  0.12500000000E+03 0.  0.
</event>
<event>
 5    0  0.5634041E-005  0.2485643E+03  0.7546771E-02  0.1114215E+00
         21   -1    0    0  502  501  0.00000000000E+00  0.00000000000E+00  0.85202305204E+02  0.85202305204E+02  0.00000000000E+00 0. -1.
         21   -1    0    0  501  502 -0.00000000000E+00 -0.00000000000E+00 -0.72514745877E+03  0.72514745877E+03  0.00000000000E+00 0. -1.
         25    1    1    2    0    0 -0.64039616120E+02 -0.39359206384E+02 -0.24431740836E+03  0.28454563006E+03  0.12500000000E+03 0.  0.
         25    1    1    2    0    0  0.11834785577E+03 -0.52289029857E+02 -0.17718122037E+03  0.25250453949E+03  0.12500000000E+03 0.  0.
         25    1    1    2    0    0 -0.54308239654E+02  0.91648236241E+02 -0.21844652484E+03  0.27329959443E+03  0.12500000000E+03 0.  0.
</event>
<event>
 5    0  0.6467806E-005  0.3482259E+03  0.7546771E-02  0.1063346E+00
         21   -1    0    0  502  501  0.00000000000E+00  0.00000000000E+00  0.35179754674E+03  0.35179754674E+03  0.00000000000E+00 0. -1.
         21   -1    0    0  501  502 -0.00000000000E+00 -0.00000000000E+00 -0.34469045262E+03  0.34469045262E+03  0.00000000000E+00 0. -1.
         25    1    1    2    0    0  0.82303666234E+02  0.22378097769E+03 -0.97708038536E+02  0.28639776579E+03  0.12500000000E+03 0.  0.
         25    1    1    2    0    0 -0.84068024670E+01 -0.12437699807E+03  0.14631497535E+03  0.22928886582E+03  0.12500000000E+03 0.  0.
         25    1    1    2    0    0 -0.73896863767E+02 -0.99403979621E+02 -0.41499842695E+02  0.18080136776E+03  0.12500000000E+03 0.  0.
</event>
<event>
 5    0  0.5634041E-005  0.2509024E+03  0.7546771E-02  0.1112736E+00
         21   -1    0    0  502  501  0.00000000000E+00  0.00000000000E+00  0.53712153875E+02  0.53712153875E+02  0.00000000000E+00 0.  1.
         21   -1    0    0  501  502 -0.00000000000E+00 -0.00000000000E+00 -0.11720257830E+04  0.11720257830E+04  0.00000000000E+00 0.  1.
         25    1    1    2    0    0  0.32524032541E+02  0.24199741873E+02 -0.11800739707E+03  0.17661875881E+03  0.12500000000E+03 0.  0.
         25    1    1    2    0    0  0.19257325540E+02  0.53437418479E+02 -0.27672975038E+03  0.30891868999E+03  0.12500000000E+03 0.  0.
         25    1    1    2    0    0 -0.51781358081E+02 -0.77637160353E+02 -0.72357648166E+03  0.74020048806E+03  0.12500000000E+03 0.  0.
</event>
<event>
 5    0  0.5634041E-005  0.3692580E+03  0.7546771E-02  0.1054977E+00
         21   -1    0    0  502  501  0.00000000000E+00  0.00000000000E+00  0.10527030007E+03  0.10527030007E+03  0.00000000000E+00 0.  1.
         21   -1    0    0  501  502 -0.00000000000E+00 -0.00000000000E+00 -0.12952514081E+04  0.12952514081E+04  0.00000000000E+00 0.  1.
         25    1    1    2    0    0 -0.54651892387E+02  0.11652094847E+03 -0.33882768990E+03  0.38339687559E+03  0.12500000000E+03 0.  0.
         25    1    1    2    0    0  0.12098210567E+03  0.16625865678E+03 -0.36530572298E+03  0.43743786083E+03  0.12500000000E+03 0.  0.
         25    1    1    2    0    0 -0.66330213286E+02 -0.28277960525E+03 -0.48584769519E+03  0.57968697179E+03  0.12500000000E+03 0.  0.
</event>
<event>
 5    0  0.5634041E-005  0.3714886E+03  0.7546771E-02  0.1054125E+00
         21   -1    0    0  502  501  0.00000000000E+00  0.00000000000E+00  0.19831133283E+03  0.19831133283E+03  0.00000000000E+00 0.  1.
         21   -1    0    0  501  502 -0.00000000000E+00 -0.00000000000E+00 -0.69589445245E+03  0.69589445245E+03  0.00000000000E+00 0.  1.
         25    1    1    2    0    0  0.89681331756E+02 -0.23244329736E+03 -0.13488624047E+03  0.30966421431E+03  0.12500000000E+03 0.  0.
         25    1    1    2    0    0 -0.68153415912E+02  0.27275035712E+03 -0.32201513932E+03  0.44537219868E+03  0.12500000000E+03 0.  0.
         25    1    1    2    0    0 -0.21527915844E+02 -0.40307059759E+02 -0.40681739833E+02  0.13916937229E+03  0.12500000000E+03 0.  0.
</event>
<event>
 5    0  0.5634041E-005  0.3745235E+03  0.7546771E-02  0.1052977E+00
         21   -1    0    0  502  501  0.00000000000E+00  0.00000000000E+00  0.17000849776E+04  0.17000849776E+04  0.00000000000E+00 0. -1.
         21   -1    0    0  501  502 -0.00000000000E+00 -0.00000000000E+00 -0.82506383204E+02  0.82506383204E+02  0.00000000000E+00 0. -1.
         25    1    1    2    0    0  0.76409490459E+02  0.12426375628E+03  0.45299161802E+03  0.49204298324E+03  0.12500000000E+03 0.  0.
         25    1    1    2    0    0  0.13608064627E+03 -0.21821094676E+03  0.70230438212E+03  0.75828121743E+03  0.12500000000E+03 0.  0.
         25    1    1    2    0    0 -0.21249013672E+03  0.93947190473E+02  0.46228259428E+03  0.53226716015E+03  0.12500000000E+03 0.  0.
</event>
<event>
 5    0  0.5634041E-005  0.2527219E+03  0.7546771E-02  0.1111597E+00
         21   -1    0    0  502  501  0.00000000000E+00  0.00000000000E+00  0.13292790189E+03  0.13292790189E+03  0.00000000000E+00 0.  1.
         21   -1    0    0  501  502 -0.00000000000E+00 -0.00000000000E+00 -0.48047357056E+03  0.48047357056E+03  0.00000000000E+00 0.  1.
         25    1    1    2    0    0  0.39772129168E+00 -0.10473559942E+03 -0.62566458508E+02  0.17466901757E+03  0.12500000000E+03 0.  0.
         25    1    1    2    0    0  0.46245144233E+02  0.53817260918E+02 -0.25514239172E+03  0.29284390209E+03  0.12500000000E+03 0.  0.
         25    1    1    2    0    0 -0.46642865525E+02  0.50918338502E+02 -0.29836818450E+02  0.14588855279E+03  0.12500000000E+03 0.  0.
</event>
<event>
 5    0  0.5634041E-005  0.6050018E+03  0.7546771E-02  0.9895083E-01
         21   -1    0    0  502  501  0.00000000000E+00  0.00000000000E+00  0.22850972886E+03  0.22850972886E+03  0.00000000000E+00 0. -1.
         21   -1    0    0  501  502 -0.00000000000E+00 -0.00000000000E+00 -0.16018010988E+04  0.16018010988E+04  0.00000000000E+00 0. -1.
         25    1    1    2    0    0  0.90886028260E+02 -0.38076394423E+03 -0.80428323382E+03  0.90318213643E+03  0.12500000000E+03 0.  0.
         25    1    1    2    0    0  0.67705294341E+02  0.24357525863E+03  0.26752275515E+02  0.28329065948E+03  0.12500000000E+03 0.  0.
         25    1    1    2    0    0 -0.15859132260E+03  0.13718868559E+03 -0.59576041166E+03  0.64383803177E+03  0.12500000000E+03 0.  0.
</event>
<event>
 5    0  0.5995206E-005  0.2803825E+03  0.7546771E-02  0.1095480E+00
         21   -1    0    0  502  501  0.00000000000E+00  0.00000000000E+00  0.13478445051E+03  0.13478445051E+03  0.00000000000E+00 0.  1.
         21   -1    0    0  501  502 -0.00000000000E+00 -0.00000000000E+00 -0.58325970376E+03  0.58325970376E+03  0.00000000000E+00 0.  1.
         25    1    1    2    0    0  0.84903626576E+02  0.13509753641E+03 -0.25374533581E+03  0.32476401524E+03  0.12500000000E+03 0.  0.
         25    1    1    2    0    0 -0.75676958039E+02 -0.20936425831E+02 -0.18550721881E+02  0.14877656128E+03  0.12500000000E+03 0.  0.
         25    1    1    2    0    0 -0.92266685369E+01 -0.11416111058E+03 -0.17617919556E+03  0.24450357774E+03  0.12500000000E+03 0.  0.
</event>
<event>
 5    0  0.5634041E-005  0.2595070E+03  0.7546771E-02  0.1107440E+00
         21   -1    0    0  502  501  0.00000000000E+00  0.00000000000E+00  0.66589083183E+03  0.66589083183E+03  0.00000000000E+00 0. -1.
         21   -1    0    0  501  502 -0.00000000000E+00 -0.00000000000E+00 -0.10113354485E+03  0.10113354485E+03  0.00000000000E+00 0. -1.
         25    1    1    2    0    0 -0.97969568405E+02  0.50862934671E+02  0.12934024791E+03  0.21104258856E+03  0.12500000000E+03 0.  0.
         25    1    1    2    0    0  0.15880593898E+03 -0.29443510393E+02  0.23865552963E+03  0.31411416457E+03  0.12500000000E+03 0.  0.
         25    1    1    2    0    0 -0.60836370577E+02 -0.21419424278E+02  0.19676150944E+03  0.24186762354E+03  0.12500000000E+03 0.  0.
</event>
<event>
 5    0  0.5634041E-005  0.3295396E+03  0.7546771E-02  0.1071341E+00
         21   -1    0    0  502  501  0.00000000000E+00  0.00000000000E+00  0.63243952097E+02  0.63243952097E+02  0.00000000000E+00 0.  1.
         21   -1    0    0  501  502 -0.00000000000E+00 -0.00000000000E+00 -0.17171023520E+04  0.17171023520E+04  0.00000000000E+00 0.  1.
         25    1    1    2    0    0 -0.75079020084E+00 -0.46688404195E+02 -0.22879807102E+03  0.26486586808E+03  0.12500000000E+03 0.  0.
         25    1    1    2    0    0  0.71779445696E+02  0.22335761668E+03 -0.54433455456E+03  0.60577720413E+03  0.12500000000E+03 0.  0.
         25    1    1    2    0    0 -0.71028655495E+02 -0.17666921249E+03 -0.88072577431E+03  0.90970323187E+03  0.12500000000E+03 0.  0.
</event>
<event>
 5    0  0.5804015E-005  0.2489453E+03  0.7546771E-02  0.1113973E+00
         21   -1    0    0  502  501  0.00000000000E+00  0.00000000000E+00  0.15354036026E+03  0.15354036026E+03  0.00000000000E+00 0.  1.
         21   -1    0    0  501  502 -0.00000000000E+00 -0.00000000000E+00 -0.40363168813E+03  0.40363168813E+03  0.00000000000E+00 0.  1.
         25    1    1    2    0    0 -0.19542834542E+02 -0.29912506136E+02 -0.11820792195E+02  0.13054275749E+03  0.12500000000E+03 0.  0.
         25    1    1    2    0    0 -0.12915104087E+02 -0.76718058822E+01  0.27404054809E+02  0.12884734665E+03  0.12500000000E+03 0.  0.
         25    1    1    2    0    0  0.32457938628E+02  0.37584312018E+02 -0.26567459049E+03  0.29778194425E+03  0.12500000000E+03 0.  0.
</event>
<event>
 5    0  0.5634041E-005  0.4379687E+03  0.7546771E-02  0.1031372E+00
         21   -1    0    0  502  501  0.00000000000E+00  0.00000000000E+00  0.18990185080E+04  0.18990185080E+04  0.00000000000E+00 0. -1.
         21   -1    0    0  501  502 -0.00000000000E+00 -0.00000000000E+00 -0.10100826692E+03  0.10100826692E+03  0.00000000000E+00 0.  1.
         25    1    1    2    0    0  0.28354609270E+02  0.11389796125E+03  0.14214698645E+03  0.22272740110E+03  0.12500000000E+03 0.  0.
         25    1    1    2    0    0 -0.37489744815E+02  0.14927232991E+03  0.13102896461E+04  0.13252062730E+04  0.12500000000E+03 0.  0.
         25    1    1    2    0    0  0.91351355447E+01 -0.26317029116E+03  0.34557360853E+03  0.45209310077E+03  0.12500000000E+03 0.  0.
</event>
<event>
 5    0  0.5634041E-005  0.7368045E+03  0.7546771E-02  0.9656283E-01
         21   -1    0    0  502  501  0.00000000000E+00  0.00000000000E+00  0.22669214986E+04  0.22669214986E+04  0.00000000000E+00 0. -1.
         21   -1    0    0  501  502 -0.00000000000E+00 -0.00000000000E+00 -0.23947932082E+03  0.23947932082E+03  0.00000000000E+00 0. -1.
         25    1    1    2    0    0  0.21200003349E+03 -0.24888657273E+03  0.13379251550E+00  0.35001936830E+03  0.12500000000E+03 0.  0.
         25    1    1    2    0    0 -0.27649169637E+03  0.45027962515E+02  0.17804891082E+04  0.18067212402E+04  0.12500000000E+03 0.  0.
         25    1    1    2    0    0  0.64491662873E+02  0.20385861021E+03  0.24681927713E+03  0.34966021092E+03  0.12500000000E+03 0.  0.
</event>
<event>
 5    0  0.5634041E-005  0.4153894E+03  0.7546771E-02  0.1038577E+00
         21   -1    0    0  502  501  0.00000000000E+00  0.00000000000E+00  0.11902317044E+04  0.11902317044E+04  0.00000000000E+00 0. -1.
         21   -1    0    0  501  502 -0.00000000000E+00 -0.00000000000E+00 -0.14497037209E+03  0.14497037209E+03  0.00000000000E+00 0. -1.
         25    1    1    2    0    0 -0.20349595312E+03  0.22521798015E+03  0.56438790420E+03  0.65291075036E+03  0.12500000000E+03 0.  0.
         25    1    1    2    0    0  0.24542124140E+03 -0.16364159537E+03  0.41032185657E+03  0.52057581911E+03  0.12500000000E+03 0.  0.
         25    1    1    2    0    0 -0.41925288283E+02 -0.61576384779E+02  0.70551571499E+02  0.16171550699E+03  0.12500000000E+03 0.  0.
</event>
<event>
 5    0  0.5634041E-005  0.2242610E+03  0.7546771E-02  0.1130746E+00
         21   -1    0    0  502  501  0.00000000000E+00  0.00000000000E+00  0.54440844422E+03  0.54440844422E+03  0.00000000000E+00 0. -1.
         21   -1    0    0  501  502 -0.00000000000E+00 -0.00000000000E+00 -0.92380998505E+02  0.92380998505E+02  0.00000000000E+00 0. -1.
         25    1    1    2    0    0 -0.46019362521E+02  0.64350065428E+02  0.25274631487E+03  0.29285561686E+03  0.12500000000E+03 0.  0.
         25    1    1    2    0    0  0.60900315186E+02 -0.78452317286E+01  0.12545953568E+03  0.18744463488E+03  0.12500000000E+03 0.  0.
         25    1    1    2    0    0 -0.14880952665E+02 -0.56504833699E+02  0.73821595166E+02  0.15648919099E+03  0.12500000000E+03 0.  0.
</event>
<event>
 5    0  0.5634041E-005  0.2669112E+03  0.7546771E-02  0.1103061E+00
         21   -1    0    0  502  501  0.00000000000E+00  0.00000000000E+00  0.47361297062E+02  0.47361297062E+02  0.00000000000E+00 0.  1.
         21   -1    0    0  501  502 -0.00000000000E+00 -0.00000000000E+00 -0.15042155468E+04  0.15042155468E+04  0.00000000000E+00 0.  1.
         25    1    1    2    0    0  0.53564427181E+02  0.12532314061E+03 -0.46654691893E+03  0.50186259573E+03  0.12500000000E+03 0.  0.
         25    1    1    2    0    0  0.68471124103E+02 -0.22266982635E+02 -0.37201326670E+03  0.39900248614E+03  0.12500000000E+03 0.  0.
         25    1    1    2    0    0 -0.12203555128E+03 -0.10305615797E+03 -0.61829406412E+03  0.65071176200E+03  0.12500000000E+03 0.  0.
</event>
<event>
 5    0  0.5634041E-005  0.2667333E+03  0.7546771E-02  0.1103164E+00
         21   -1    0    0  502  501  0.00000000000E+00  0.00000000000E+00  0.91100770935E+02  0.91100770935E+02  0.00000000000E+00 0. -1.
         21   -1    0    0  501  502 -0.00000000000E+00 -0.00000000000E+00 -0.78096663218E+03  0.78096663218E+03  0.00000000000E+00 0. -1.
         25    1    1    2    0    0 -0.61658123885E+02 -0.13522543578E+03 -0.30276998943E+03  0.35969752463E+03  0.12500000000E+03 0.  0.
         25    1    1    2    0    0 -0.37311581318E+02  0.11214847354E+03 -0.16830490244E+03  0.24066776769E+03  0.12500000000E+03 0.  0.
         25    1    1    2    0    0  0.98969705203E+02  0.23076962243E+02 -0.21879096937E+03  0.27170211080E+03  0.12500000000E+03 0.  0.
</event>
<event>
 5    0  0.5634041E-005  0.2825744E+03  0.7546771E-02  0.1094291E+00
         21   -1    0    0  502  501  0.00000000000E+00  0.00000000000E+00  0.31086607792E+03  0.31086607792E+03  0.00000000000E+00 0.  1.
         21   -1    0    0  501  502 -0.00000000000E+00 -0.00000000000E+00 -0.25685746274E+03  0.25685746274E+03  0.00000000000E+00 0.  1.
         25    1    1    2    0    0  0.11066326499E+03  0.35582560437E+02 -0.57688904287E+02  0.18018181513E+03  0.12500000000E+03 0.  0.
         25    1    1    2    0    0 -0.16922726231E+02  0.80972941559E+02 -0.21532800725E+02  0.15143202249E+03  0.12500000000E+03 0.  0.
         25    1    1    2    0    0 -0.93740538756E+02 -0.11655550200E+03  0.13323032019E+03  0.23610970304E+03  0.12500000000E+03 0.  0.
</event>
<event>
 5    0  0.5634041E-005  0.2696628E+03  0.7546771E-02  0.1101473E+00
         21   -1    0    0  502  501  0.00000000000E+00  0.00000000000E+00  0.18611210183E+03  0.18611210183E+03  0.00000000000E+00 0. -1.
         21   -1    0    0  501  502 -0.00000000000E+00 -0.00000000000E+00 -0.39072161537E+03  0.39072161537E+03  0.00000000000E+00 0. -1.
         25    1    1    2    0    0 -0.15877412596E+03  0.68480367448E+02 -0.18604941967E+02  0.21417265854E+03  0.12500000000E+03 0.  0.
         25    1    1    2    0    0  0.11357516065E+03 -0.47157794456E+02 -0.12188077991E+03  0.21354882160E+03  0.12500000000E+03 0.  0.
         25    1    1    2    0    0  0.45198965315E+02 -0.21322572992E+02 -0.64123791667E+02  0.14911223706E+03  0.12500000000E+03 0.  0.
</event>
<event>
 5    0  0.5634041E-005  0.3990886E+03  0.7546771E-02  0.1044096E+00
         21   -1    0    0  502  501  0.00000000000E+00  0.00000000000E+00  0.11453658685E+03  0.11453658685E+03  0.00000000000E+00 0.  1.
         21   -1    0    0  501  502 -0.00000000000E+00 -0.00000000000E+00 -0.13905751236E+04  0.13905751236E+04  0.00000000000E+00 0. -1.
         25    1    1    2    0    0  0.24483220894E+02  0.86960056215E+02 -0.30685893841E+03  0.34343687566E+03  0.12500000000E+03 0.  0.
         25    1    1    2    0    0 -0.10881503888E+03  0.20250344574E+03 -0.21071903040E+03  0.33597004032E+03  0.12500000000E+03 0.  0.
         25    1    1    2    0    0  0.84331817983E+02 -0.28946350195E+03 -0.75846056794E+03  0.82570479447E+03  0.12500000000E+03 0.  0.
</event>
<event>
 5    0  0.6554582E-005  0.2987245E+03  0.7546771E-02  0.1085880E+00
         21   -1    0    0  502  501  0.00000000000E+00  0.00000000000E+00  0.20285608157E+03  0.20285608157E+03  0.00000000000E+00 0. -1.
         21   -1    0    0  501  502 -0.00000000000E+00 -0.00000000000E+00 -0.43989968318E+03  0.43989968318E+03  0.00000000000E+00 0. -1.
         25    1    1    2    0    0  0.48194437961E+02 -0.41972222068E+02  0.47992025198E+02  0.14836645766E+03  0.12500000000E+03 0.  0.
         25    1    1    2    0    0 -0.34641971980E+02  0.64274801480E+02  0.35758608614E+02  0.14911403159E+03  0.12500000000E+03 0.  0.
         25    1    1    2    0    0 -0.13552465981E+02 -0.22302579412E+02 -0.32079423543E+03  0.34527527549E+03  0.12500000000E+03 0.  0.
</event>
<event>
 5    0  0.5634041E-005  0.4547596E+03  0.7546771E-02  0.1026312E+00
         21   -1    0    0  502  501  0.00000000000E+00  0.00000000000E+00  0.10161291057E+04  0.10161291057E+04  0.00000000000E+00 0. -1.
         21   -1    0    0  501  502 -0.00000000000E+00 -0.00000000000E+00 -0.20352363328E+03  0.20352363328E+03  0.00000000000E+00 0. -1.
         25    1    1    2    0    0 -0.31304363328E+03  0.21639574174E+03  0.37005088961E+03  0.54533117854E+03  0.12500000000E+03 0.  0.
         25    1    1    2    0    0  0.19608047910E+03 -0.59906182111E+00  0.18392058442E+03  0.29647882644E+03  0.12500000000E+03 0.  0.
         25    1    1    2    0    0  0.11696315419E+03 -0.21579667992E+03  0.25863399838E+03  0.37784273398E+03  0.12500000000E+03 0.  0.
</event>
<event>
 5    0  0.5634041E-005  0.3014123E+03  0.7546771E-02  0.1084537E+00
         21   -1    0    0  502  501  0.00000000000E+00  0.00000000000E+00  0.59865056440E+03  0.59865056440E+03  0.00000000000E+00 0.  1.
         21   -1    0    0  501  502 -0.00000000000E+00 -0.00000000000E+00 -0.15175695169E+03  0.15175695169E+03  0.00000000000E+00 0.  1.
         25    1    1    2    0    0  0.66321057407E+02 -0.12540592321E+03  0.50495170770E+02  0.19570357816E+03  0.12500000000E+03 0.  0.
         25    1    1    2    0    0  0.37084982315E+02 -0.58360439062E+02  0.14175463903E+03  0.20124764458E+03  0.12500000000E+03 0.  0.
         25    1    1    2    0    0 -0.10340603972E+03  0.18376636227E+03  0.25464380291E+03  0.35345629336E+03  0.12500000000E+03 0.  0.
</event>
<event>
 5    0  0.5634041E-005  0.3098057E+03  0.7546771E-02  0.1080439E+00
         21   -1    0    0  502  501  0.00000000000E+00  0.00000000000E+00  0.69604469264E+03  0.69604469264E+03  0.00000000000E+00 0.  1.
         21   -1    0    0  501  502 -0.00000000000E+00 -0.00000000000E+00 -0.13789279889E+03  0.13789279889E+03  0.00000000000E+00 0.  1.
         25    1    1    2    0    0 -0.91046976192E+02  0.17335711029E+03  0.21810142166E+03  0.31864630814E+03  0.12500000000E+03 0.  0.
         25    1    1    2    0    0 -0.29843647120E+02 -0.15216211920E+03  0.11462472985E+03  0.22979943970E+03  0.12500000000E+03 0.  0.
         25    1    1    2    0    0  0.12089062331E+03 -0.21194991083E+02  0.22542574224E+03  0.28549174369E+03  0.12500000000E+03 0.  0.
</event>
<event>
 5    0  0.5634041E-005  0.2826028E+03  0.7546771E-02  0.1094276E+00
         21   -1    0    0  502  501  0.00000000000E+00  0.00000000000E+00  0.12091079929E+04  0.12091079929E+04  0.00000000000E+00 0. -1.
         21   -1    0    0  501  502 -0.00000000000E+00 -0.00000000000E+00 -0.66052293925E+02  0.66052293925E+02  0.00000000000E+00 0. -1.
         25    1    1    2    0    0 -0.16836010392E+02  0.16038785172E+03  0.20561680555E+03  0.28967392867E+03  0.12500000000E+03 0.  0.
         25    1    1    2    0    0 -0.19361786390E+02 -0.95751691063E+02  0.49355313549E+03  0.51842353599E+03  0.12500000000E+03 0.  0.
         25    1    1    2    0    0  0.36197796782E+02 -0.64636160658E+02  0.44388575799E+03  0.46706282222E+03  0.12500000000E+03 0.  0.
</event>
<event>
 5    0  0.5634041E-005  0.3777502E+03  0.7546771E-02  0.1051768E+00
         21   -1    0    0  502  501  0.00000000000E+00  0.00000000000E+00  0.61366527491E+02  0.61366527491E+02  0.00000000000E+00 0. -1.
         21   -1    0    0  501  502 -0.00000000000E+00 -0.00000000000E+00 -0.23252941630E+04  0.23252941630E+04  0.00000000000E+00 0. -1.
         25    1    1    2    0    0  0.13370888163E+03  0.71944441244E+01 -0.15598329781E+04  0.15705520509E+04  0.12500000000E+03 0.  0.
         25    1    1    2    0    0  0.53510704241E+02 -0.10028292846E+03 -0.27951619960E+03  0.32661042091E+03  0.12500000000E+03 0.  0.
         25    1    1    2    0    0 -0.18721958588E+03  0.93088484331E+02 -0.42457845784E+03  0.48949821870E+03  0.12500000000E+03 0.  0.
</event>
<event>
 5    0  0.5634041E-005  0.2587272E+03  0.7546771E-02  0.1107910E+00
         21   -1    0    0  502  501  0.00000000000E+00  0.00000000000E+00  0.11805558815E+03  0.11805558815E+03  0.00000000000E+00 0. -1.
         21   -1    0    0  501  502 -0.00000000000E+00 -0.00000000000E+00 -0.56701912310E+03  0.56701912310E+03  0.00000000000E+00 0. -1.
         25    1    1    2    0    0 -0.11846790913E+03  0.16411783554E+02 -0.20228120192E+03  0.26617039051E+03  0.12500000000E+03 0.  0.
         25    1    1    2    0    0  0.12839648587E+03 -0.12443398179E+02 -0.51470478093E+02  0.18685477210E+03  0.12500000000E+03 0.  0.
         25    1    1    2    0    0 -0.99285767391E+01 -0.39683853755E+01 -0.19521185494E+03  0.23204954864E+03  0.12500000000E+03 0.  0.
</event>
<event>
 5    0  0.5634041E-005  0.3727899E+03  0.7546771E-02  0.1053631E+00
         21   -1    0    0  502  501  0.00000000000E+00  0.00000000000E+00  0.64410810937E+03  0.64410810937E+03  0.00000000000E+00 0.  1.
         21   -1    0    0  501  502 -0.00000000000E+00 -0.00000000000E+00 -0.21575932783E+03  0.21575932783E+03  0.00000000000E+00 0.  1.
         25    1    1    2    0    0 -0.58728478360E+01  0.28055367077E+03  0.16233687240E+03  0.34745231711E+03  0.12500000000E+03 0.  0.
         25    1    1    2    0    0 -0.49666759693E+02 -0.27000109749E+02  0.31061076520E+02  0.14066123638E+03  0.12500000000E+03 0.  0.
         25    1    1    2    0    0  0.55539607529E+02 -0.25355356102E+03  0.23495083262E+03  0.37175388372E+03  0.12500000000E+03 0.  0.
</event>
<event>
 5    0  0.5634041E-005  0.2920731E+03  0.7546771E-02  0.1089272E+00
         21   -1    0    0  502  501  0.00000000000E+00  0.00000000000E+00  0.13511452823E+04  0.13511452823E+04  0.00000000000E+00 0.  1.
         21   -1    0    0  501  502 -0.00000000000E+00 -0.00000000000E+00 -0.63136592581E+02  0.63136592581E+02  0.00000000000E+00 0.  1.
         25    1    1    2    0    0  0.17346065206E+02 -0.65378354593E+02  0.10016228502E+04  0.10116563395E+04  0.12500000000E+03 0.  0.
         25    1    1    2    0    0 -0.35694198809E+01  0.84239033006E+02  0.19269864467E+03  0.24467677270E+03  0.12500000000E+03 0.  0.
         25    1    1    2    0    0 -0.13776645325E+02 -0.18860678412E+02  0.93687194808E+02  0.15794876263E+03  0.12500000000E+03 0.  0.
</event>
<event>
 5    0  0.5634041E-005  0.2608702E+03  0.7546771E-02  0.1106622E+00
         21   -1    0    0  502  501  0.00000000000E+00  0.00000000000E+00  0.16375240954E+04  0.16375240954E+04  0.00000000000E+00 0. -1.
         21   -1    0    0  501  502 -0.00000000000E+00 -0.00000000000E+00 -0.41558638248E+02  0.41558638248E+02  0.00000000000E+00 0. -1.
         25    1    1    2    0    0 -0.58759436331E+01 -0.69233278432E+02  0.24762970750E+03  0.28596021680E+03  0.12500000000E+03 0.  0.
         25    1    1    2    0    0  0.50951692222E+02 -0.21047495299E+02  0.26703045692E+03  0.29994889052E+03  0.12500000000E+03 0.  0.
         25    1    1    2    0    0 -0.45075748589E+02  0.90280773731E+02  0.10813052927E+04  0.10931736263E+04  0.12500000000E+03 0.  0.
</event>
<event>
 5    0  0.5634041E-005  0.3576912E+03  0.7546771E-02  0.1059502E+00
         21   -1    0    0  502  501  0.00000000000E+00  0.00000000000E+00  0.70542547431E+03  0.70542547431E+03  0.00000000000E+00 0.  1.
         21   -1    0    0  501  502 -0.00000000000E+00 -0.00000000000E+00 -0.18137000068E+03  0.18137000068E+03  0.00000000000E+00 0.  1.
         25    1    1    2    0    0  0.11611306963E+03  0.17037170368E+03  0.41130930308E+01  0.24114452075E+03  0.12500000000E+03 0.  0.
         25    1    1    2    0    0 -0.41047001629E+02 -0.17887000353E+03  0.39639746144E+03  0.45435149603E+03  0.12500000000E+03 0.  0.
         25    1    1    2    0    0 -0.75066067996E+02  0.84982998506E+01  0.12354491916E+03  0.19129945822E+03  0.12500000000E+03 0.  0.
</event>
<event>
 5    0  0.5634041E-005  0.2145453E+03  0.7546771E-02  0.1138016E+00
         21   -1    0    0  502  501  0.00000000000E+00  0.00000000000E+00  0.28905961834E+04  0.28905961834E+04  0.00000000000E+00 0.  1.
         21   -1    0    0  501  502 -0.00000000000E+00 -0.00000000000E+00 -0.15923934963E+02  0.15923934963E+02  0.00000000000E+00 0.  1.
         25    1    1    2    0    0  0.14667282382E+02 -0.56181554357E+02  0.87416414954E+03  0.88496296903E+03  0.12500000000E+03 0.  0.
         25    1    1    2    0    0  0.90760273529E+01 -0.25745954111E+02  0.64040079352E+03  0.65305696901E+03  0.12500000000E+03 0.  0.
         25    1    1    2    0    0 -0.23743309735E+02  0.81927508468E+02  0.13601073054E+04  0.13685001803E+04  0.12500000000E+03 0.  0.
</event>
<event>
 5    0  0.5634041E-005  0.6836537E+03  0.7546771E-02  0.9745602E-01
         21   -1    0    0  502  501  0.00000000000E+00  0.00000000000E+00  0.36547704333E+03  0.36547704333E+03  0.00000000000E+00 0. -1.
         21   -1    0    0  501  502 -0.00000000000E+00 -0.00000000000E+00 -0.12788283651E+04  0.12788283651E+04  0.00000000000E+00 0. -1.
         25    1    1    2    0    0  0.95406206801E+02 -0.15914847436E+02 -0.48322386881E+03  0.50841511981E+03  0.12500000000E+03 0.  0.
         25    1    1    2    0    0 -0.49962510915E+03 -0.16441059822E+03 -0.40457844768E+03  0.67525166777E+03  0.12500000000E+03 0.  0.
         25    1    1    2    0    0  0.40421890235E+03  0.18032544565E+03 -0.25549005298E+02  0.46063862087E+03  0.12500000000E+03 0.  0.
</event>
<event>
 5    0  0.5634041E-005  0.6434547E+03  0.7546771E-02  0.9819139E-01
         21   -1    0    0  502  501  0.00000000000E+00  0.00000000000E+00  0.39858775240E+03  0.39858775240E+03  0.00000000000E+00 0.  1.
         21   -1    0    0  501  502 -0.00000000000E+00 -0.00000000000E+00 -0.10387522007E+04  0.10387522007E+04  0.00000000000E+00 0. -1.
         25    1    1    2    0    0  0.13448145722E+03  0.50922204479E+03 -0.39979976762E+03  0.67294666016E+03  0.12500000000E+03 0.  0.
         25    1    1    2    0    0 -0.23538323224E+03 -0.26612755300E+03  0.15023238087E+02  0.37693479299E+03  0.12500000000E+03 0.  0.
         25    1    1    2    0    0  0.10090177502E+03 -0.24309449179E+03 -0.25538791879E+03  0.38745849998E+03  0.12500000000E+03 0.  0.
</event>
<event>
 5    0  0.5634041E-005  0.2214637E+03  0.7546771E-02  0.1132796E+00
         21   -1    0    0  502  501  0.00000000000E+00  0.00000000000E+00  0.10025629242E+04  0.10025629242E+04  0.00000000000E+00 0.  1.
         21   -1    0    0  501  502 -0.00000000000E+00 -0.00000000000E+00 -0.48920797395E+02  0.48920797395E+02  0.00000000000E+00 0.  1.
         25    1    1    2    0    0  0.39011362062E+02  0.91869346161E+02  0.43732023417E+03  0.46565636509E+03  0.12500000000E+03 0.  0.
         25    1    1    2    0    0 -0.42158582266E+02 -0.43730247169E+02  0.31120020059E+03  0.34082289451E+03  0.12500000000E+03 0.  0.
         25    1    1    2    0    0  0.31472202037E+01 -0.48139098992E+02  0.20512169201E+03  0.24500446196E+03  0.12500000000E+03 0.  0.
</event>
<event>
 5    0  0.5634041E-005  0.4458902E+03  0.7546771E-02  0.1028955E+00
         21   -1    0    0  502  501  0.00000000000E+00  0.00000000000E+00  0.47503034625E+03  0.47503034625E+03  0.00000000000E+00 0. -1.
         21   -1    0    0  501  502 -0.00000000000E+00 -0.00000000000E+00 -0.41853766688E+03  0.41853766688E+03  0.00000000000E+00 0. -1.
         25    1    1    2    0    0  0.61053139037E+02  0.73968091080E+02  0.40458648740E+03  0.43418197806E+03  0.12500000000E+03 0.  0.
         25    1    1    2    0    0 -0.39601933006E+01 -0.25773367274E+02 -0.70370108235E+02  0.14579746817E+03  0.12500000000E+03 0.  0.
         25    1    1    2    0    0 -0.57092945736E+02 -0.48194723806E+02 -0.27772369980E+03  0.31358856690E+03  0.12500000000E+03 0.  0.
</event>
<event>
 5    0  0.5634041E-005  0.3496892E+03  0.7546771E-02  0.1062743E+00
         21   -1    0    0  502  501  0.00000000000E+00  0.00000000000E+00  0.12960706193E+04  0.12960706193E+04  0.00000000000E+00 0. -1.
         21   -1    0    0  501  502 -0.00000000000E+00 -0.00000000000E+00 -0.94348673777E+02  0.94348673777E+02  0.00000000000E+00 0. -1.
         25    1    1    2    0    0 -0.10504705884E+03 -0.80591902990E+02  0.60300177028E+03  0.62989370084E+03  0.12500000000E+03 0.  0.
         25    1    1    2    0    0  0.17823822498E+03  0.18325699046E+03  0.30357588521E+03  0.41609531057E+03  0.12500000000E+03 0.  0.
         25    1    1    2    0    0 -0.73191166145E+02 -0.10266508747E+03  0.29514429002E+03  0.34443028165E+03  0.12500000000E+03 0.  0.
</event>
<event>
 5    0  0.5634041E-005  0.1336769E+04  0.7546771E-02  0.9000905E-01
         21   -1    0    0  502  501  0.00000000000E+00  0.00000000000E+00  0.14237672040E+04  0.14237672040E+04  0.00000000000E+00 0.  1.
         21   -1    0    0  501  502 -0.00000000000E+00 -0.00000000000E+00 -0.12550859553E+04  0.12550859553E+04  0.00000000000E+00 0.  1.
         25    1    1    2    0    0  0.52238352307E+03  0.84534369646E+03  0.49599585679E+03  0.11176436822E+04  0.12500000000E+03 0.  0.
         25    1    1    2    0    0 -0.36775465876E+03 -0.73425808046E+02 -0.60019918998E+03  0.71867858322E+03  0.12500000000E+03 0.  0.
         25    1    1    2    0    0 -0.15462886431E+03 -0.77191788841E+03  0.27288458190E+03  0.84253089390E+03  0.12500000000E+03 0.  0.
</event>
<event>
 5    0  0.5634041E-005  0.2855524E+03  0.7546771E-02  0.1092694E+00
         21   -1    0    0  502  501  0.00000000000E+00  0.00000000000E+00  0.36254072283E+03  0.36254072283E+03  0.00000000000E+00 0. -1.
         21   -1    0    0  501  502 -0.00000000000E+00 -0.00000000000E+00 -0.22491315180E+03  0.22491315180E+03  0.00000000000E+00 0. -1.
         25    1    1    2    0    0 -0.15088595576E+02 -0.18805648608E+03  0.81940503348E+02  0.24069099228E+03  0.12500000000E+03 0.  0.
         25    1    1    2    0    0 -0.12181708623E+02  0.11196320299E+03  0.94435878684E+02  0.19294374318E+03  0.12500000000E+03 0.  0.
         25    1    1    2    0    0  0.27270304199E+02  0.76093283094E+02 -0.38748811010E+02  0.15381913918E+03  0.12500000000E+03 0.  0.
</event>
<event>
 5    0  0.5634041E-005  0.2945753E+03  0.7546771E-02  0.1087984E+00
         21   -1    0    0  502  501  0.00000000000E+00  0.00000000000E+00  0.67114905106E+03  0.67114905106E+03  0.00000000000E+00 0.  1.
         21   -1    0    0  501  502 -0.00000000000E+00 -0.00000000000E+00 -0.12929263649E+03  0.12929263649E+03  0.00000000000E+00 0.  1.
         25    1    1    2    0    0  0.96406675309E+02 -0.50368038916E+02  0.20476235493E+03  0.26340806439E+03  0.12500000000E+03 0.  0.
         25    1    1    2    0    0 -0.54595182379E+02 -0.12828317229E+03  0.10022188231E+03  0.21238321950E+03  0.12500000000E+03 0.  0.
         25    1    1    2    0    0 -0.41811492931E+02  0.17865121121E+03  0.23687217732E+03  0.32465040366E+03  0.12500000000E+03 0.  0.
</event>
<event>
 5    0  0.5634041E-005  0.2452335E+03  0.7546771E-02  0.1116355E+00
         21   -1    0    0  502  501  0.00000000000E+00  0.00000000000E+00  0.11713273823E+03  0.11713273823E+03  0.00000000000E+00 0.  1.
         21   -1    0    0  501  502 -0.00000000000E+00 -0.00000000000E+00 -0.51343011063E+03  0.51343011063E+03  0.00000000000E+00 0.  1.
         25    1    1    2    0    0 -0.26610685629E+02  0.13042856405E+03 -0.19794327816E+03  0.26930703719E+03  0.12500000000E+03 0.  0.
         25    1    1    2    0    0  0.40068554875E+02 -0.88447909819E+02 -0.15567076759E+03  0.22200655333E+03  0.12500000000E+03 0.  0.
         25    1    1    2    0    0 -0.13457869246E+02 -0.41980654233E+02 -0.42683326646E+02  0.13924925834E+03  0.12500000000E+03 0.  0.
</event>
<event>
 5    0  0.5634041E-005  0.2622369E+03  0.7546771E-02  0.1105807E+00
         21   -1    0    0  502  501  0.00000000000E+00  0.00000000000E+00  0.30664348766E+03  0.30664348766E+03  0.00000000000E+00 0. -1.
         21   -1    0    0  501  502 -0.00000000000E+00 -0.00000000000E+00 -0.22426103927E+03  0.22426103927E+03  0.00000000000E+00 0. -1.
         25    1    1    2    0    0 -0.26621006642E+02  0.14440082521E+03  0.29597546410E+02  0.19509303183E+03  0.12500000000E+03 0.  0.
         25    1    1    2    0    0  0.35343767184E+02 -0.15564937743E+03  0.54720773592E+02  0.20998874645E+03  0.12500000000E+03 0.  0.
         25    1    1    2    0    0 -0.87227605422E+01  0.11248552220E+02 -0.19358716166E+01  0.12582274865E+03  0.12500000000E+03 0.  0.
</event>
<event>
 5    0  0.5722242E-005  0.3341455E+03  0.7546771E-02  0.1069317E+00
         21   -1    0    0  502  501  0.00000000000E+00  0.00000000000E+00  0.29653292342E+03  0.29653292342E+03  0.00000000000E+00 0.  1.
         21   -1    0    0  501  502 -0.00000000000E+00 -0.00000000000E+00 -0.37652883581E+03  0.37652883581E+03  0.00000000000E+00 0.  1.
         25    1    1    2    0    0 -0.17887984898E+03 -0.26638600427E+02  0.19466664717E+02  0.22070696962E+03  0.12500000000E+03 0.  0.
         25    1    1    2    0    0 -0.76460643325E+02  0.21584828030E+02 -0.77512865458E+02  0.16716871445E+03  0.12500000000E+03 0.  0.
         25    1    1    2    0    0  0.25534049230E+03  0.50537723973E+01 -0.21949711652E+02  0.28518607516E+03  0.12500000000E+03 0.  0.
</event>
<event>
 5    0  0.5634041E-005  0.4166304E+03  0.7546771E-02  0.1038169E+00
         21   -1    0    0  502  501  0.00000000000E+00  0.00000000000E+00  0.20945616429E+03  0.20945616429E+03  0.00000000000E+00 0. -1.
         21   -1    0    0  501  502 -0.00000000000E+00 -0.00000000000E+00 -0.82872180166E+03  0.82872180166E+03  0.00000000000E+00 0. -1.
         25    1    1    2    0    0 -0.31244526521E+02  0.17988036063E+03 -0.44960382458E+02  0.22578662620E+03  0.12500000000E+03 0.  0.
         25    1    1    2    0    0 -0.81958585526E+02 -0.24285699686E+03 -0.56410161319E+03  0.63208572257E+03  0.12500000000E+03 0.  0.
         25    1    1    2    0    0  0.11320311205E+03  0.62976636221E+02 -0.10203641717E+02  0.18030561719E+03  0.12500000000E+03 0.  0.
</event>
<event>
 5    0  0.5634041E-005  0.3118730E+03  0.7546771E-02  0.1079452E+00
         21   -1    0    0  502  501  0.00000000000E+00  0.00000000000E+00  0.93108372992E+02  0.93108372992E+02  0.00000000000E+00 0.  1.
         21   -1    0    0  501  502 -0.00000000000E+00 -0.00000000000E+00 -0.10446403558E+04  0.10446403558E+04  0.00000000000E+00 0.  1.
         25    1    1    2    0    0  0.44075171528E+02 -0.42471972847E+02 -0.72446278726E+03  0.73771120321E+03  0.12500000000E+03 0.  0.
         25    1    1    2    0    0 -0.86334644440E+02  0.20365967456E+02 -0.21726440840E+03  0.26588957599E+03  0.12500000000E+03 0.  0.
         25    1    1    2    0    0  0.42259472912E+02  0.22106005391E+02 -0.98047871336E+01  0.13414794958E+03  0.12500000000E+03 0.  0.
</event>
<event>
 5    0  0.5634041E-005  0.2748092E+03  0.7546771E-02  0.1098558E+00
         21   -1    0    0  502  501  0.00000000000E+00  0.00000000000E+00  0.78553722271E+02  0.78553722271E+02  0.00000000000E+00 0.  1.
         21   -1    0    0  501  502 -0.00000000000E+00 -0.00000000000E+00 -0.96138172667E+03  0.96138172667E+03  0.00000000000E+00 0.  1.
         25    1    1    2    0    0 -0.87558292136E+02  0.10356052993E+02 -0.14344471108E+03  0.20970237836E+03  0.12500000000E+03 0.  0.
         25    1    1    2    0    0  0.28457977372E+02 -0.10218516861E+03 -0.56989178304E+03  0.59300363366E+03  0.12500000000E+03 0.  0.
         25    1    1    2    0    0  0.59100314764E+02  0.91829115621E+02 -0.16949151028E+03  0.23722943691E+03  0.12500000000E+03 0.  0.
</event>
<event>
 5    0  0.5634041E-005  0.3681655E+03  0.7546771E-02  0.1055397E+00
         21   -1    0    0  502  501  0.00000000000E+00  0.00000000000E+00  0.17876907971E+03  0.17876907971E+03  0.00000000000E+00 0.  1.
         21   -1    0    0  501  502 -0.00000000000E+00 -0.00000000000E+00 -0.75821739676E+03  0.75821739676E+03  0.00000000000E+00 0.  1.
         25    1    1    2    0    0  0.44148034436E+02  0.22774082055E+03 -0.76940369905E+02  0.27451730512E+03  0.12500000000E+03 0.  0.
         25    1    1    2    0    0 -0.52209874051E+02 -0.19748832031E+03 -0.47315148403E+03  0.53030635905E+03  0.12500000000E+03 0.  0.
         25    1    1    2    0    0  0.80618396151E+01 -0.30252500245E+02 -0.29356463113E+02  0.13216281230E+03  0.12500000000E+03 0.  0.
</event>
<event>
 5    0  0.5634041E-005  0.2606818E+03  0.7546771E-02  0.1106734E+00
         21   -1    0    0  502  501  0.00000000000E+00  0.00000000000E+00  0.44487483466E+02  0.44487483466E+02  0.00000000000E+00 0.  1.
         21   -1    0    0  501  502 -0.00000000000E+00 -0.00000000000E+00 -0.15275085687E+04  0.15275085687E+04  0.00000000000E+00 0.  1.
         25    1    1    2    0    0 -0.83653231170E+02  0.28113286754E+02 -0.31766937508E+03  0.35260041384E+03  0.12500000000E+03 0.  0.
         25    1    1    2    0    0  0.14818379569E+03  0.46928600333E+02 -0.66181709515E+03  0.69122181554E+03  0.12500000000E+03 0.  0.
         25    1    1    2    0    0 -0.64530564521E+02 -0.75041887086E+02 -0.50353461499E+03  0.52817382278E+03  0.12500000000E+03 0.  0.
</event>
<event>
 5    0  0.5634041E-005  0.2364738E+03  0.7546771E-02  0.1122164E+00
         21   -1    0    0  502  501  0.00000000000E+00  0.00000000000E+00  0.31510467433E+03  0.31510467433E+03  0.00000000000E+00 0. -1.
         21   -1    0    0  501  502 -0.00000000000E+00 -0.00000000000E+00 -0.17746446196E+03  0.17746446196E+03  0.00000000000E+00 0. -1.
         25    1    1    2    0    0 -0.25210778446E+02 -0.77316189669E+02  0.30453425165E+02  0.15220311311E+03  0.12500000000E+03 0.  0.
         25    1    1    2    0    0  0.93540407954E+02 -0.83577530305E+01  0.61083771981E+02  0.16785674593E+03  0.12500000000E+03 0.  0.
         25    1    1    2    0    0 -0.68329629508E+02  0.85673942699E+02  0.46103015226E+02  0.17250927726E+03  0.12500000000E+03 0.  0.
</event>
<event>
 5    0  0.5634041E-005  0.2523260E+03  0.7546771E-02  0.1111844E+00
         21   -1    0    0  502  501  0.00000000000E+00  0.00000000000E+00  0.21405703678E+03  0.21405703678E+03  0.00000000000E+00 0.  1.
         21   -1    0    0  501  502 -0.00000000000E+00 -0.00000000000E+00 -0.29743673376E+03  0.29743673376E+03  0.00000000000E+00 0.  1.
         25    1    1    2    0    0  0.19000848057E+02  0.90621001720E+02 -0.11312308998E+03  0.19234092561E+03  0.12500000000E+03 0.  0.
         25    1    1    2    0    0 -0.29699444318E+02 -0.52510138352E+02  0.99364369040E+02  0.17069753794E+03  0.12500000000E+03 0.  0.
         25    1    1    2    0    0  0.10698596261E+02 -0.38110863367E+02 -0.69620976044E+02  0.14845530699E+03  0.12500000000E+03 0.  0.
</event>
<event>
 5    0  0.5985707E-005  0.2909755E+03  0.7546771E-02  0.1089841E+00
         21   -1    0    0  502  501  0.00000000000E+00  0.00000000000E+00  0.60291040551E+03  0.60291040551E+03  0.00000000000E+00 0.  1.
         21   -1    0    0  501  502 -0.00000000000E+00 -0.00000000000E+00 -0.14043006920E+03  0.14043006920E+03  0.00000000000E+00 0.  1.
         25    1    1    2    0    0  0.10004246820E+03  0.77345084846E+02  0.21425447061E+03  0.27842545819E+03  0.12500000000E+03 0.  0.
         25    1    1    2    0    0 -0.19477517302E+02  0.65106921003E+02 -0.14026528103E+00  0.14227896723E+03  0.12500000000E+03 0.  0.
         25    1    1    2    0    0 -0.80564950901E+02 -0.14245200585E+03  0.24836613098E+03  0.32263604929E+03  0.12500000000E+03 0.  0.
</event>
<event>
 5    0  0.5634041E-005  0.2923595E+03  0.7546771E-02  0.1089124E+00
         21   -1    0    0  502  501  0.00000000000E+00  0.00000000000E+00  0.73284939707E+03  0.73284939707E+03  0.00000000000E+00 0.  1.
         21   -1    0    0  501  502 -0.00000000000E+00 -0.00000000000E+00 -0.11663252177E+03  0.11663252177E+03  0.00000000000E+00 0.  1.
         25    1    1    2    0    0  0.10814585710E+03  0.39252119039E+02  0.10382427683E+03  0.19909981345E+03  0.12500000000E+03 0.  0.
         25    1    1    2    0    0 -0.11015770449E+03  0.11302739562E+03  0.29302554627E+03  0.35552620549E+03  0.12500000000E+03 0.  0.
         25    1    1    2    0    0  0.20118473857E+01 -0.15227951466E+03  0.21936705220E+03  0.29485589990E+03  0.12500000000E+03 0.  0.
</event>
<event>
 5    0  0.5634041E-005  0.3585986E+03  0.7546771E-02  0.1059140E+00
         21   -1    0    0  502  501  0.00000000000E+00  0.00000000000E+00  0.21963323319E+04  0.21963323319E+04  0.00000000000E+00 0. -1.
         21   -1    0    0  501  502 -0.00000000000E+00 -0.00000000000E+00 -0.58548951957E+02  0.58548951957E+02  0.00000000000E+00 0. -1.
         25    1    1    2    0    0 -0.70414339979E+02  0.17477814733E+03  0.10256793227E+04  0.10503088370E+04  0.12500000000E+03 0.  0.
         25    1    1    2    0    0 -0.52707260313E+02 -0.22821126803E+03  0.79607646387E+03  0.83917886917E+03  0.12500000000E+03 0.  0.
         25    1    1    2    0    0  0.12312160029E+03  0.53433120699E+02  0.31602759345E+03  0.36539357776E+03  0.12500000000E+03 0.  0.
</event>
<event>
 5    0  0.5634041E-005  0.3358294E+03  0.7546771E-02  0.1068586E+00
         21   -1    0    0  502  501  0.00000000000E+00  0.00000000000E+00  0.10127819145E+04  0.10127819145E+04  0.00000000000E+00 0. -1.
         21   -1    0    0  501  502 -0.00000000000E+00 -0.00000000000E+00 -0.11135798678E+03  0.11135798678E+03  0.00000000000E+00 0. -1.
         25    1    1    2    0    0 -0.70515689054E+02  0.15929672044E+03  0.48974904424E+03  0.53462793967E+03  0.12500000000E+03 0.  0.
         25    1    1    2    0    0  0.55129305012E+02 -0.23675292054E+03  0.25006401093E+03  0.37047023527E+03  0.12500000000E+03 0.  0.
         25    1    1    2    0    0  0.15386384043E+02  0.77456200102E+02  0.16161087255E+03  0.21904172633E+03  0.12500000000E+03 0.  0.
</event>
<event>
 5    0  0.5878587E-005  0.3454597E+03  0.7546771E-02  0.1064494E+00
         21   -1    0    0  502  501  0.00000000000E+00  0.00000000000E+00  0.49182181664E+03  0.49182181664E+03  0.00000000000E+00 0. -1.
         21   -1    0    0  501  502 -0.00000000000E+00 -0.00000000000E+00 -0.24265373518E+03  0.24265373518E+03  0.00000000000E+00 0. -1.
         25    1    1    2    0    0  0.17040093060E+03 -0.10821377193E+03 -0.28608481138E+02  0.23914460641E+03  0.12500000000E+03 0.  0.
         25    1    1    2    0    0 -0.99022932683E+02  0.17525727921E+03  0.10063238993E+03  0.25743452180E+03  0.12500000000E+03 0.  0.
         25    1    1    2    0    0 -0.71377997913E+02 -0.67043507282E+02  0.17714417266E+03  0.23789642360E+03  0.12500000000E+03 0.  0.
</event>
<event>
 5    0  0.5634041E-005  0.2455060E+03  0.7546771E-02  0.1116178E+00
         21   -1    0    0  502  501  0.00000000000E+00  0.00000000000E+00  0.17308597035E+03  0.17308597035E+03  0.00000000000E+00 0.  1.
         21   -1    0    0  501  502 -0.00000000000E+00 -0.00000000000E+00 -0.34822704905E+03  0.34822704905E+03  0.00000000000E+00 0.  1.
         25    1    1    2    0    0  0.53310378716E+02  0.95331345380E+02  0.31458313569E+02  0.16895173093E+03  0.12500000000E+03 0.  0.
         25    1    1    2    0    0 -0.60692168227E+02 -0.76942588816E+02 -0.11196465667E+03  0.19433163819E+03  0.12500000000E+03 0.  0.
         25    1    1    2    0    0  0.73817895112E+01 -0.18388756564E+02 -0.94634735602E+02  0.15802965028E+03  0.12500000000E+03 0.  0.
</event>
<event>
 5    0  0.5634041E-005  0.3221226E+03  0.7546771E-02  0.1074677E+00
         21   -1    0    0  502  501  0.00000000000E+00  0.00000000000E+00  0.92531014300E+03  0.92531014300E+03  0.00000000000E+00 0.  1.
         21   -1    0    0  501  502 -0.00000000000E+00 -0.00000000000E+00 -0.11213856270E+03  0.11213856270E+03  0.00000000000E+00 0.  1.
         25    1    1    2    0    0 -0.63302088151E+02 -0.76457153271E+02  0.41932201529E+02  0.16503381525E+03  0.12500000000E+03 0.  0.
         25    1    1    2    0    0 -0.63405604290E+02  0.60352287104E+02  0.11176435767E+03  0.18915322059E+03  0.12500000000E+03 0.  0.
         25    1    1    2    0    0  0.12670769244E+03  0.16104866167E+02  0.65947502110E+03  0.68326166985E+03  0.12500000000E+03 0.  0.
</event>
<event>
 5    0  0.5634041E-005  0.2174307E+03  0.7546771E-02  0.1135813E+00
         21   -1    0    0  502  501  0.00000000000E+00  0.00000000000E+00  0.56250111328E+02  0.56250111328E+02  0.00000000000E+00 0. -1.
         21   -1    0    0  501  502 -0.00000000000E+00 -0.00000000000E+00 -0.84046284067E+03  0.84046284067E+03  0.00000000000E+00 0. -1.
         25    1    1    2    0    0 -0.21948951756E+02 -0.40700785529E+02 -0.11546636448E+03  0.17633998909E+03  0.12500000000E+03 0.  0.
         25    1    1    2    0    0 -0.16127607707E+02 -0.94182284476E+01 -0.35500562451E+03  0.37683258377E+03  0.12500000000E+03 0.  0.
         25    1    1    2    0    0  0.38076559462E+02  0.50119013977E+02 -0.31374074036E+03  0.34354037914E+03  0.12500000000E+03 0.  0.
</event>
<event>
 5    0  0.5634041E-005  0.2618219E+03  0.7546771E-02  0.1106054E+00
         21   -1    0    0  502  501  0.00000000000E+00  0.00000000000E+00  0.14475291198E+03  0.14475291198E+03  0.00000000000E+00 0.  1.
         21   -1    0    0  501  502 -0.00000000000E+00 -0.00000000000E+00 -0.47357049338E+03  0.47357049338E+03  0.00000000000E+00 0.  1.
         25    1    1    2    0    0 -0.10611906754E+03 -0.12227755418E+03 -0.17526770216E+03  0.26936373953E+03  0.12500000000E+03 0.  0.
         25    1    1    2    0    0  0.35849469251E+02  0.68311993271E+02 -0.25090932041E+02  0.14901767593E+03  0.12500000000E+03 0.  0.
         25    1    1    2    0    0  0.70269598291E+02  0.53965560905E+02 -0.12845894721E+03  0.19994198990E+03  0.12500000000E+03 0.  0.
</event>
<event>
 5    0  0.5634041E-005  0.2957573E+03  0.7546771E-02  0.1087381E+00
         21   -1    0    0  502  501  0.00000000000E+00  0.00000000000E+00  0.30231697819E+03  0.30231697819E+03  0.00000000000E+00 0.  1.
         21   -1    0    0  501  502 -0.00000000000E+00 -0.00000000000E+00 -0.28933997950E+03  0.28933997950E+03  0.00000000000E+00 0.  1.
         25    1    1    2    0    0  0.87168751487E+01  0.15320572251E+03  0.82411870830E+02  0.21439378203E+03  0.12500000000E+03 0.  0.
         25    1    1    2    0    0  0.27017384247E+02 -0.45746837046E+02 -0.13942770576E+03  0.19464788025E+03  0.12500000000E+03 0.  0.
         25    1    1    2    0    0 -0.35734259396E+02 -0.10745888546E+03  0.69992833627E+02  0.18261529541E+03  0.12500000000E+03 0.  0.
</event>
<event>
 5    0  0.5634041E-005  0.2620327E+03  0.7546771E-02  0.1105928E+00
         21   -1    0    0  502  501  0.00000000000E+00  0.00000000000E+00  0.51627415666E+03  0.51627415666E+03  0.00000000000E+00 0. -1.
         21   -1    0    0  501  502 -0.00000000000E+00 -0.00000000000E+00 -0.13299359290E+03  0.13299359290E+03  0.00000000000E+00 0. -1.
         25    1    1    2    0    0  0.86514305966E+02  0.10388959279E+02  0.13473294668E+00  0.15237346805E+03  0.12500000000E+03 0.  0.
         25    1    1    2    0    0 -0.11944776981E+03 -0.29142756315E+02  0.15510069053E+03  0.23409035469E+03  0.12500000000E+03 0.  0.
         25    1    1    2    0    0  0.32933463840E+02  0.18753797036E+02  0.22804514028E+03  0.26280392681E+03  0.12500000000E+03 0.  0.
</event>
<event>
 5    0  0.5634041E-005  0.3881530E+03  0.7546771E-02  0.1047961E+00
         21   -1    0    0  502  501  0.00000000000E+00  0.00000000000E+00  0.40052755881E+03  0.40052755881E+03  0.00000000000E+00 0.  1.
         21   -1    0    0  501  502 -0.00000000000E+00 -0.00000000000E+00 -0.37616067015E+03  0.37616067015E+03  0.00000000000E+00 0.  1.
         25    1    1    2    0    0  0.11187256731E+03  0.52347988628E+02  0.19853292923E+03  0.26513413062E+03  0.12500000000E+03 0.  0.
         25    1    1    2    0    0  0.46240361565E+02  0.63969209738E+02  0.79052621476E+02  0.16764411053E+03  0.12500000000E+03 0.  0.
         25    1    1    2    0    0 -0.15811292888E+03 -0.11631719837E+03 -0.25321866205E+03  0.34390998782E+03  0.12500000000E+03 0.  0.
</event>
<event>
 5    0  0.5634041E-005  0.3181554E+03  0.7546771E-02  0.1076501E+00
         21   -1    0    0  502  501  0.00000000000E+00  0.00000000000E+00  0.48913431878E+03  0.48913431878E+03  0.00000000000E+00 0. -1.
         21   -1    0    0  501  502 -0.00000000000E+00 -0.00000000000E+00 -0.20694283420E+03  0.20694283420E+03  0.00000000000E+00 0. -1.
         25    1    1    2    0    0  0.52316280818E+02 -0.13563149686E+03 -0.30120709562E+02  0.19407512289E+03  0.12500000000E+03 0.  0.
         25    1    1    2    0    0 -0.12202842510E+03 -0.26077658176E+02  0.15247880179E+03  0.23333616476E+03  0.12500000000E+03 0.  0.
         25    1    1    2    0    0  0.69712144284E+02  0.16170915504E+03  0.15983339235E+03  0.26866586533E+03  0.12500000000E+03 0.  0.
</event>
<event>
 5    0  0.5634041E-005  0.2383491E+03  0.7546771E-02  0.1120898E+00
         21   -1    0    0  502  501  0.00000000000E+00  0.00000000000E+00  0.63361054992E+03  0.63361054992E+03  0.00000000000E+00 0. -1.
         21   -1    0    0  501  502 -0.00000000000E+00 -0.00000000000E+00 -0.89661192123E+02  0.89661192123E+02  0.00000000000E+00 0. -1.
         25    1    1    2    0    0  0.55459592366E+02  0.83866386017E+02  0.12756974327E+03  0.20495945083E+03  0.12500000000E+03 0.  0.
         25    1    1    2    0    0 -0.43712425028E+02 -0.62707677115E+02  0.10032415736E+03  0.17757523876E+03  0.12500000000E+03 0.  0.
         25    1    1    2    0    0 -0.11747167338E+02 -0.21158708902E+02  0.31605545717E+03  0.34073705245E+03  0.12500000000E+03 0.  0.
</event>
<event>
 5    0  0.5634041E-005  0.3868800E+03  0.7546771E-02  0.1048420E+00
         21   -1    0    0  502  501  0.00000000000E+00  0.00000000000E+00  0.11959895201E+04  0.11959895201E+04  0.00000000000E+00 0. -1.
         21   -1    0    0  501  502 -0.00000000000E+00 -0.00000000000E+00 -0.12514833530E+03  0.12514833530E+03  0.00000000000E+00 0. -1.
         25    1    1    2    0    0 -0.48338816183E+02 -0.28328590271E+03  0.28519084140E+03  0.42372911140E+03  0.12500000000E+03 0.  0.
         25    1    1    2    0    0 -0.67255569404E+02  0.12679031387E+03  0.25192126972E+03  0.31573473272E+03  0.12500000000E+03 0.  0.
         25    1    1    2    0    0  0.11559438559E+03  0.15649558884E+03  0.53372907364E+03  0.58167401124E+03  0.12500000000E+03 0.  0.
</event>
<event>
 5    0  0.5732851E-005  0.3846714E+03  0.7546771E-02  0.1049221E+00
         21   -1    0    0  502  501  0.00000000000E+00  0.00000000000E+00  0.84056733031E+03  0.84056733031E+03  0.00000000000E+00 0.  1.
         21   -1    0    0  501  502 -0.00000000000E+00 -0.00000000000E+00 -0.17603831288E+03  0.17603831288E+03  0.00000000000E+00 0.  1.
         25    1    1    2    0    0  0.10414466284E+03  0.22418241976E+03  0.30117136438E+03  0.40918584879E+03  0.12500000000E+03 0.  0.
         25    1    1    2    0    0 -0.18342223441E+03 -0.13271227672E+03  0.34683054809E+03  0.43263459588E+03  0.12500000000E+03 0.  0.
         25    1    1    2    0    0  0.79277571567E+02 -0.91470143039E+02  0.16527104957E+02  0.17478519851E+03  0.12500000000E+03 0.  0.
</event>
<event>
 5    0  0.5634041E-005  0.2311643E+03  0.7546771E-02  0.1125823E+00
         21   -1    0    0  502  501  0.00000000000E+00  0.00000000000E+00  0.36490781474E+03  0.36490781474E+03  0.00000000000E+00 0.  1.
         21   -1    0    0  501  502 -0.00000000000E+00 -0.00000000000E+00 -0.14643954680E+03  0.14643954680E+03  0.00000000000E+00 0.  1.
         25    1    1    2    0    0  0.87730967721E+02 -0.24253379418E+02  0.32435509504E+02  0.15799370680E+03  0.12500000000E+03 0.  0.
         25    1    1    2    0    0 -0.71400988297E+02 -0.44907680533E+02  0.12977994255E+03  0.19895384990E+03  0.12500000000E+03 0.  0.
         25    1    1    2    0    0 -0.16329979424E+02  0.69161059951E+02  0.56252815876E+02  0.15439980484E+03  0.12500000000E+03 0.  0.
</event>
<event>
 5    0  0.5634041E-005  0.3684472E+03  0.7546771E-02  0.1055288E+00
         21   -1    0    0  502  501  0.00000000000E+00  0.00000000000E+00  0.29675001655E+03  0.29675001655E+03  0.00000000000E+00 0. -1.
         21   -1    0    0  501  502 -0.00000000000E+00 -0.00000000000E+00 -0.45746689317E+03  0.45746689317E+03  0.00000000000E+00 0. -1.
         25    1    1    2    0    0 -0.79239423838E+02  0.11273295071E+03 -0.35189997640E+03  0.39805300885E+03  0.12500000000E+03 0.  0.
         25    1    1    2    0    0  0.72364886889E+02 -0.44996957318E+02  0.13624516195E+03  0.20359063627E+03  0.12500000000E+03 0.  0.
         25    1    1    2    0    0  0.68745369484E+01 -0.67735993397E+02  0.54937937832E+02  0.15257326461E+03  0.12500000000E+03 0.  0.
</event>
<event>
 5    0  0.5634041E-005  0.2376483E+03  0.7546771E-02  0.1121369E+00
         21   -1    0    0  502  501  0.00000000000E+00  0.00000000000E+00  0.66129992150E+03  0.66129992150E+03  0.00000000000E+00 0. -1.
         21   -1    0    0  501  502 -0.00000000000E+00 -0.00000000000E+00 -0.85402593478E+02  0.85402593478E+02  0.00000000000E+00 0. -1.
         25    1    1    2    0    0 -0.14610977115E+02 -0.89087534250E+02  0.14922274090E+03  0.21457515190E+03  0.12500000000E+03 0.  0.
         25    1    1    2    0    0  0.80548152392E+02  0.52226062423E+02  0.29961760026E+03  0.33854286706E+03  0.12500000000E+03 0.  0.
         25    1    1    2    0    0 -0.65937175277E+02  0.36861471828E+02  0.12705698685E+03  0.19358449601E+03  0.12500000000E+03 0.  0.
</event>
<event>
 5    0  0.5634041E-005  0.4135637E+03  0.7546771E-02  0.1039182E+00
         21   -1    0    0  502  501  0.00000000000E+00  0.00000000000E+00  0.29303045761E+03  0.29303045761E+03  0.00000000000E+00 0.  1.
         21   -1    0    0  501  502 -0.00000000000E+00 -0.00000000000E+00 -0.58367627463E+03  0.58367627463E+03  0.00000000000E+00 0.  1.
         25    1    1    2    0    0  0.21903634071E+02 -0.21021377434E+02 -0.92667652520E+02  0.15853693992E+03  0.12500000000E+03 0.  0.
         25    1    1    2    0    0 -0.90991196705E+02 -0.29894343338E+03 -0.61477583399E+02  0.34212726799E+03  0.12500000000E+03 0.  0.
         25    1    1    2    0    0  0.69087562634E+02  0.31996481081E+03 -0.13650058110E+03  0.37604252434E+03  0.12500000000E+03 0.  0.
</event>
<event>
 5    0  0.5634041E-005  0.2684084E+03  0.7546771E-02  0.1102194E+00
         21   -1    0    0  502  501  0.00000000000E+00  0.00000000000E+00  0.37451933065E+02  0.37451933065E+02  0.00000000000E+00 0.  1.
         21   -1    0    0  501  502 -0.00000000000E+00 -0.00000000000E+00 -0.19236146108E+04  0.19236146108E+04  0.00000000000E+00 0.  1.
         25    1    1    2    0    0  0.47454643680E+02  0.53342205560E+02 -0.80287311416E+03  0.81567614379E+03  0.12500000000E+03 0.  0.
         25    1    1    2    0    0  0.44851875451E+02 -0.84389381250E+02 -0.84298218681E+03  0.85754138424E+03  0.12500000000E+03 0.  0.
         25    1    1    2    0    0 -0.92306519132E+02  0.31047175690E+02 -0.24030737675E+03  0.28784901583E+03  0.12500000000E+03 0.  0.
</event>
<event>
 5    0  0.5634041E-005  0.2904294E+03  0.7546771E-02  0.1090125E+00
         21   -1    0    0  502  501  0.00000000000E+00  0.00000000000E+00  0.76137734368E+03  0.76137734368E+03  0.00000000000E+00 0. -1.
         21   -1    0    0  501  502 -0.00000000000E+00 -0.00000000000E+00 -0.11078509743E+03  0.11078509743E+03  0.00000000000E+00 0. -1.
         25    1    1    2    0    0  0.49124669132E+02 -0.85761899220E+02  0.26775335800E+03  0.31158497588E+03  0.12500000000E+03 0.  0.
         25    1    1    2    0    0 -0.11311815293E+03 -0.12387426609E+01  0.35507556291E+03  0.39306603311E+03  0.12500000000E+03 0.  0.
         25    1    1    2    0    0  0.63993483796E+02  0.87000641881E+02  0.27763325339E+02  0.16751143212E+03  0.12500000000E+03 0.  0.
</event>
<event>
 5    0  0.5702974E-005  0.3004321E+03  0.7546771E-02  0.1085025E+00
         21   -1    0    0  502  501  0.00000000000E+00  0.00000000000E+00  0.82863381122E+03  0.82863381122E+03  0.00000000000E+00 0. -1.
         21   -1    0    0  501  502 -0.00000000000E+00 -0.00000000000E+00 -0.10892563423E+03  0.10892563423E+03  0.00000000000E+00 0. -1.
         25    1    1    2    0    0 -0.43445594443E+02 -0.80978423597E+02  0.91328654194E+02  0.18003040810E+03  0.12500000000E+03 0.  0.
         25    1    1    2    0    0 -0.47799812476E+02 -0.16538347372E+01  0.54880173737E+03  0.56488574436E+03  0.12500000000E+03 0.  0.
         25    1    1    2    0    0  0.91245406919E+02  0.82632258334E+02  0.79577785429E+02  0.19264329299E+03  0.12500000000E+03 0.  0.
</event>
<event>
 5    0  0.5634041E-005  0.2592697E+03  0.7546771E-02  0.1107583E+00
         21   -1    0    0  502  501  0.00000000000E+00  0.00000000000E+00  0.16524955992E+04  0.16524955992E+04  0.00000000000E+00 0.  1.
         21   -1    0    0  501  502 -0.00000000000E+00 -0.00000000000E+00 -0.40678328569E+02  0.40678328569E+02  0.00000000000E+00 0.  1.
         25    1    1    2    0    0  0.28755355968E+02 -0.40995490706E+02  0.38864054834E+03  0.41130764224E+03  0.12500000000E+03 0.  0.
         25    1    1    2    0    0  0.11593794076E+01 -0.12277301250E+03  0.56777715408E+03  0.59419731862E+03  0.12500000000E+03 0.  0.
         25    1    1    2    0    0 -0.29914735376E+02  0.16376850321E+03  0.65539956826E+03  0.68766896695E+03  0.12500000000E+03 0.  0.
</event>
<event>
 5    0  0.5634041E-005  0.2522571E+03  0.7546771E-02  0.1111887E+00
         21   -1    0    0  502  501  0.00000000000E+00  0.00000000000E+00  0.10659393397E+04  0.10659393397E+04  0.00000000000E+00 0.  1.
         21   -1    0    0  501  502 -0.00000000000E+00 -0.00000000000E+00 -0.59697249594E+02  0.59697249594E+02  0.00000000000E+00 0.  1.
         25    1    1    2    0    0  0.63855462048E+02 -0.61319435716E+01  0.20832842260E+03  0.25127843606E+03  0.12500000000E+03 0.  0.
         25    1    1    2    0    0 -0.10987256073E+03  0.21823709105E+02  0.19770390199E+03  0.25934549686E+03  0.12500000000E+03 0.  0.
         25    1    1    2    0    0  0.46017098680E+02 -0.15691765533E+02  0.60020976550E+03  0.61501265636E+03  0.12500000000E+03 0.  0.
</event>
<event>
 5    0  0.5634041E-005  0.2288667E+03  0.7546771E-02  0.1127440E+00
         21   -1    0    0  502  501  0.00000000000E+00  0.00000000000E+00  0.43656833008E+02  0.43656833008E+02  0.00000000000E+00 0.  1.
         21   -1    0    0  501  502 -0.00000000000E+00 -0.00000000000E+00 -0.11998114136E+04  0.11998114136E+04  0.00000000000E+00 0.  1.
         25    1    1    2    0    0 -0.30054277410E+02 -0.27981069371E+02 -0.32471227325E+03  0.35035590509E+03  0.12500000000E+03 0.  0.
         25    1    1    2    0    0  0.94986581097E+02 -0.26358089579E+02 -0.56358202993E+03  0.58563376263E+03  0.12500000000E+03 0.  0.
         25    1    1    2    0    0 -0.64932303687E+02  0.54339158949E+02 -0.26786027741E+03  0.30747857888E+03  0.12500000000E+03 0.  0.
</event>
<event>
 5    0  0.5634041E-005  0.3229807E+03  0.7546771E-02  0.1074286E+00
         21   -1    0    0  502  501  0.00000000000E+00  0.00000000000E+00  0.87968746921E+02  0.87968746921E+02  0.00000000000E+00 0. -1.
         21   -1    0    0  501  502 -0.00000000000E+00 -0.00000000000E+00 -0.11858364533E+04  0.11858364533E+04  0.00000000000E+00 0. -1.
         25    1    1    2    0    0 -0.27840515340E+02 -0.16229449403E+03 -0.17345517790E+03  0.26986347627E+03  0.12500000000E+03 0.  0.
         25    1    1    2    0    0 -0.85977805466E+02  0.72315525123E+02 -0.23831414343E+03  0.29161678478E+03  0.12500000000E+03 0.  0.
         25    1    1    2    0    0  0.11381832081E+03  0.89978968902E+02 -0.68609838509E+03  0.71232493920E+03  0.12500000000E+03 0.  0.
</event>
<event>
 5    0  0.5634041E-005  0.4176615E+03  0.7546771E-02  0.1037830E+00
         21   -1    0    0  502  501  0.00000000000E+00  0.00000000000E+00  0.43252204453E+03  0.43252204453E+03  0.00000000000E+00 0. -1.
         21   -1    0    0  501  502 -0.00000000000E+00 -0.00000000000E+00 -0.40331144927E+03  0.40331144927E+03  0.00000000000E+00 0. -1.
         25    1    1    2    0    0  0.68656478972E+01  0.19333281460E+02  0.10172246760E+03  0.16246037458E+03  0.12500000000E+03 0.  0.
         25    1    1    2    0    0 -0.29477835340E+03  0.31553346323E+02 -0.13569405078E+03  0.34918156698E+03  0.12500000000E+03 0.  0.
         25    1    1    2    0    0  0.28791270551E+03 -0.50886627782E+02  0.63182178434E+02  0.32419155225E+03  0.12500000000E+03 0.  0.
</event>
<event>
 5    0  0.5634041E-005  0.2461940E+03  0.7546771E-02  0.1115734E+00
         21   -1    0    0  502  501  0.00000000000E+00  0.00000000000E+00  0.42956204098E+03  0.42956204098E+03  0.00000000000E+00 0.  1.
         21   -1    0    0  501  502 -0.00000000000E+00 -0.00000000000E+00 -0.14110066935E+03  0.14110066935E+03  0.00000000000E+00 0.  1.
         25    1    1    2    0    0  0.10050906985E+02  0.93521982969E+01  0.37488248470E+02  0.13122062764E+03  0.12500000000E+03 0.  0.
         25    1    1    2    0    0  0.79534912746E+02 -0.74889334512E+02  0.20932347424E+03  0.26716199512E+03  0.12500000000E+03 0.  0.
         25    1    1    2    0    0 -0.89585819731E+02  0.65537136215E+02  0.41649648916E+02  0.17228008758E+03  0.12500000000E+03 0.  0.
</event>
<event>
 5    0  0.5634041E-005  0.4045478E+03  0.7546771E-02  0.1042216E+00
         21   -1    0    0  502  501  0.00000000000E+00  0.00000000000E+00  0.30128290712E+03  0.30128290712E+03  0.00000000000E+00 0.  1.
         21   -1    0    0  501  502 -0.00000000000E+00 -0.00000000000E+00 -0.54320675449E+03  0.54320675449E+03  0.00000000000E+00 0.  1.
         25    1    1    2    0    0  0.18792047350E+03 -0.28082579221E+03 -0.55316788393E+02  0.36450264335E+03  0.12500000000E+03 0.  0.
         25    1    1    2    0    0 -0.17301611364E+02  0.91948594538E+02 -0.42057344334E+02  0.16170253556E+03  0.12500000000E+03 0.  0.
         25    1    1    2    0    0 -0.17061886214E+03  0.18887719767E+03 -0.14454971464E+03  0.31828448269E+03  0.12500000000E+03 0.  0.
</event>
<event>
 5    0  0.5634041E-005  0.3130436E+03  0.7546771E-02  0.1078896E+00
         21   -1    0    0  502  501  0.00000000000E+00  0.00000000000E+00  0.87662351884E+03  0.87662351884E+03  0.00000000000E+00 0.  1.
         21   -1    0    0  501  502 -0.00000000000E+00 -0.00000000000E+00 -0.11178836044E+03  0.11178836044E+03  0.00000000000E+00 0.  1.
         25    1    1    2    0    0  0.16483639970E+03 -0.40254289506E+02  0.51548247650E+03  0.55690091584E+03  0.12500000000E+03 0.  0.
         25    1    1    2    0    0 -0.12527989538E+03  0.91635832143E+02  0.19987399774E+03  0.28225306534E+03  0.12500000000E+03 0.  0.
         25    1    1    2    0    0 -0.39556504322E+02 -0.51381542637E+02  0.49478684173E+02  0.14925789810E+03  0.12500000000E+03 0.  0.
</event>
<event>
 5    0  0.5634041E-005  0.3346126E+03  0.7546771E-02  0.1069114E+00
         21   -1    0    0  502  501  0.00000000000E+00  0.00000000000E+00  0.53918077395E+03  0.53918077395E+03  0.00000000000E+00 0.  1.
         21   -1    0    0  501  502 -0.00000000000E+00 -0.00000000000E+00 -0.20765870923E+03  0.20765870923E+03  0.00000000000E+00 0. -1.
         25    1    1    2    0    0  0.15929941355E+03 -0.68250766706E+02 -0.58504200186E+02  0.22154505581E+03  0.12500000000E+03 0.  0.
         25    1    1    2    0    0  0.15958080620E+02  0.61414648010E+01  0.16548973218E+03  0.20809668278E+03  0.12500000000E+03 0.  0.
         25    1    1    2    0    0 -0.17525749417E+03  0.62109301905E+02  0.22453653273E+03  0.31719774459E+03  0.12500000000E+03 0.  0.
</event>
<event>
 5    0  0.6611812E-005  0.3451708E+03  0.7546771E-02  0.1064615E+00
         21   -1    0    0  502  501  0.00000000000E+00  0.00000000000E+00  0.70987715161E+03  0.70987715161E+03  0.00000000000E+00 0. -1.
         21   -1    0    0  501  502 -0.00000000000E+00 -0.00000000000E+00 -0.16783587105E+03  0.16783587105E+03  0.00000000000E+00 0. -1.
         25    1    1    2    0    0 -0.11577854936E+03 -0.15802188965E+03  0.33693133283E+03  0.40929611915E+03  0.12500000000E+03 0.  0.
         25    1    1    2    0    0  0.23624653298E+02  0.71307732641E+02 -0.52818878970E+02  0.15510561226E+03  0.12500000000E+03 0.  0.
         25    1    1    2    0    0  0.92153896066E+02  0.86714157014E+02  0.25792882670E+03  0.31331129126E+03  0.12500000000E+03 0.  0.
</event>
<event>
 5    0  0.5634041E-005  0.2447017E+03  0.7546771E-02  0.1116700E+00
         21   -1    0    0  502  501  0.00000000000E+00  0.00000000000E+00  0.10580055530E+04  0.10580055530E+04  0.00000000000E+00 0. -1.
         21   -1    0    0  501  502 -0.00000000000E+00 -0.00000000000E+00 -0.56596045679E+02  0.56596045679E+02  0.00000000000E+00 0. -1.
         25    1    1    2    0    0  0.10216373371E+03 -0.41217020537E+02  0.55579557675E+03  0.58023270711E+03  0.12500000000E+03 0.  0.
         25    1    1    2    0    0 -0.58538185237E+02 -0.34271576866E+02  0.20310585563E+03  0.24794807663E+03  0.12500000000E+03 0.  0.
         25    1    1    2    0    0 -0.43625548469E+02  0.75488597403E+02  0.24250807491E+03  0.28642081491E+03  0.12500000000E+03 0.  0.
</event>
<event>
 5    0  0.5634041E-005  0.2852700E+03  0.7546771E-02  0.1092845E+00
         21   -1    0    0  502  501  0.00000000000E+00  0.00000000000E+00  0.29412433334E+03  0.29412433334E+03  0.00000000000E+00 0.  1.
         21   -1    0    0  501  502 -0.00000000000E+00 -0.00000000000E+00 -0.27668217588E+03  0.27668217588E+03  0.00000000000E+00 0.  1.
         25    1    1    2    0    0  0.57579357825E+01  0.75058037293E+02 -0.42499269975E+02  0.15198042879E+03  0.12500000000E+03 0.  0.
         25    1    1    2    0    0 -0.61694025124E+02  0.11206831173E+03 -0.17831870084E+01  0.17886765774E+03  0.12500000000E+03 0.  0.
         25    1    1    2    0    0  0.55936089341E+02 -0.18712634902E+03  0.61724614436E+02  0.23995842268E+03  0.12500000000E+03 0.  0.
</event>
<event>
 5    0  0.5634041E-005  0.4001912E+03  0.7546771E-02  0.1043714E+00
         21   -1    0    0  502  501  0.00000000000E+00  0.00000000000E+00  0.51165829813E+03  0.51165829813E+03  0.00000000000E+00 0. -1.
         21   -1    0    0  501  502 -0.00000000000E+00 -0.00000000000E+00 -0.31300766883E+03  0.31300766883E+03  0.00000000000E+00 0. -1.
         25    1    1    2    0    0  0.22673706133E+03  0.77921596959E+02  0.88713031276E+02  0.28456365223E+03  0.12500000000E+03 0.  0.
         25    1    1    2    0    0 -0.52554929013E+02 -0.22775376563E+03  0.30889521779E+02  0.26685756665E+03  0.12500000000E+03 0.  0.
         25    1    1    2    0    0 -0.17418213232E+03  0.14983216867E+03  0.79048076242E+02  0.27324474807E+03  0.12500000000E+03 0.  0.
</event>
<event>
 5    0  0.5634041E-005  0.2877763E+03  0.7546771E-02  0.1091516E+00
         21   -1    0    0  502  501  0.00000000000E+00  0.00000000000E+00  0.59697207633E+03  0.59697207633E+03  0.00000000000E+00 0. -1.
         21   -1    0    0  501  502 -0.00000000000E+00 -0.00000000000E+00 -0.13872540482E+03  0.13872540482E+03  0.00000000000E+00 0. -1.
         25    1    1    2    0    0  0.36495784853E+02 -0.55790812058E+02  0.18054302078E+03  0.22948930122E+03  0.12500000000E+03 0.  0.
         25    1    1    2    0    0  0.11359020998E+03  0.42400213555E+02  0.25545870843E+03  0.30916769823E+03  0.12500000000E+03 0.  0.
         25    1    1    2    0    0 -0.15008599483E+03  0.13390598504E+02  0.22244942293E+02  0.19704048171E+03  0.12500000000E+03 0.  0.
</event>
<event>
 5    0  0.5634041E-005  0.2477876E+03  0.7546771E-02  0.1114711E+00
         21   -1    0    0  502  501  0.00000000000E+00  0.00000000000E+00  0.79233064114E+02  0.79233064114E+02  0.00000000000E+00 0. -1.
         21   -1    0    0  501  502 -0.00000000000E+00 -0.00000000000E+00 -0.77491265940E+03  0.77491265940E+03  0.00000000000E+00 0. -1.
         25    1    1    2    0    0 -0.23045954652E+02 -0.54434539058E+02 -0.96069367988E+02  0.16837030182E+03  0.12500000000E+03 0.  0.
         25    1    1    2    0    0  0.73764009697E+02  0.10527034953E+03 -0.41079738330E+03  0.44822144721E+03  0.12500000000E+03 0.  0.
         25    1    1    2    0    0 -0.50718055044E+02 -0.50835810472E+02 -0.18881284400E+03  0.23755397449E+03  0.12500000000E+03 0.  0.
</event>
<event>
 5    0  0.5634041E-005  0.3046949E+03  0.7546771E-02  0.1082917E+00
         21   -1    0    0  502  501  0.00000000000E+00  0.00000000000E+00  0.92922229634E+02  0.92922229634E+02  0.00000000000E+00 0. -1.
         21   -1    0    0  501  502 -0.00000000000E+00 -0.00000000000E+00 -0.99910431864E+03  0.99910431864E+03  0.00000000000E+00 0. -1.
         25    1    1    2    0    0 -0.22254772232E+02 -0.16017573721E+03 -0.29453409321E+03  0.35850644867E+03  0.12500000000E+03 0.  0.
         25    1    1    2    0    0 -0.12530239089E+02 -0.59274703377E+02 -0.30209319939E+03  0.33249932101E+03  0.12500000000E+03 0.  0.
         25    1    1    2    0    0  0.34785011321E+02  0.21945044059E+03 -0.30955479640E+03  0.40102077859E+03  0.12500000000E+03 0.  0.
</event>
<event>
 5    0  0.5634041E-005  0.2334639E+03  0.7546771E-02  0.1124225E+00
         21   -1    0    0  502  501  0.00000000000E+00  0.00000000000E+00  0.36713707151E+03  0.36713707151E+03  0.00000000000E+00 0. -1.
         21   -1    0    0  501  502 -0.00000000000E+00 -0.00000000000E+00 -0.14846064575E+03  0.14846064575E+03  0.00000000000E+00 0. -1.
         25    1    1    2    0    0  0.61580605901E+02 -0.82557096214E+02  0.93073408252E+02  0.18680338456E+03  0.12500000000E+03 0.  0.
         25    1    1    2    0    0 -0.94887939207E+02  0.75882755233E+02  0.73073949366E+02  0.18901512010E+03  0.12500000000E+03 0.  0.
         25    1    1    2    0    0  0.33307333306E+02  0.66743409805E+01  0.52529068138E+02  0.13977921261E+03  0.12500000000E+03 0.  0.
</event>
<event>
 5    0  0.5634041E-005  0.2552556E+03  0.7546771E-02  0.1110028E+00
         21   -1    0    0  502  501  0.00000000000E+00  0.00000000000E+00  0.90941401648E+03  0.90941401648E+03  0.00000000000E+00 0.  1.
         21   -1    0    0  501  502 -0.00000000000E+00 -0.00000000000E+00 -0.71645514208E+02  0.71645514208E+02  0.00000000000E+00 0.  1.
         25    1    1    2    0    0  0.12946496093E+03 -0.39926971034E+02  0.43768708199E+03  0.47492138388E+03  0.12500000000E+03 0.  0.
         25    1    1    2    0    0 -0.83990658118E+01  0.50398028088E+02  0.19094245385E+03  0.23386860889E+03  0.12500000000E+03 0.  0.
         25    1    1    2    0    0 -0.12106589512E+03 -0.10471057054E+02  0.20913896643E+03  0.27226953791E+03  0.12500000000E+03 0.  0.
</event>
<event>
 5    0  0.5634041E-005  0.2484289E+03  0.7546771E-02  0.1114302E+00
         21   -1    0    0  502  501  0.00000000000E+00  0.00000000000E+00  0.59245594345E+02  0.59245594345E+02  0.00000000000E+00 0. -1.
         21   -1    0    0  501  502 -0.00000000000E+00 -0.00000000000E+00 -0.10417136237E+04  0.10417136237E+04  0.00000000000E+00 0. -1.
         25    1    1    2    0    0 -0.77569812671E+02 -0.75553570126E+02 -0.47847550609E+03  0.50625016318E+03  0.12500000000E+03 0.  0.
         25    1    1    2    0    0 -0.52193490906E+01  0.89295765236E+02 -0.17510056603E+03  0.23299395597E+03  0.12500000000E+03 0.  0.
         25    1    1    2    0    0  0.82789161762E+02 -0.13742195109E+02 -0.32889195724E+03  0.36171509890E+03  0.12500000000E+03 0.  0.
</event>
<event>
 5    0  0.5634041E-005  0.2948433E+03  0.7546771E-02  0.1087847E+00
         21   -1    0    0  502  501  0.00000000000E+00  0.00000000000E+00  0.26031435630E+04  0.26031435630E+04  0.00000000000E+00 0.  1.
         21   -1    0    0  501  502 -0.00000000000E+00 -0.00000000000E+00 -0.33395237048E+02  0.33395237048E+02  0.00000000000E+00 0.  1.
         25    1    1    2    0    0 -0.72339638229E+02 -0.14997836832E+02  0.35291200536E+03  0.38161478207E+03  0.12500000000E+03 0.  0.
         25    1    1    2    0    0  0.17166997152E+03 -0.75269695165E+02  0.10643740403E+04  0.10879582730E+04  0.12500000000E+03 0.  0.
         25    1    1    2    0    0 -0.99330333288E+02  0.90267531997E+02  0.11524622803E+04  0.11669657450E+04  0.12500000000E+03 0.  0.
</event>
<event>
 5    0  0.5634041E-005  0.2810428E+03  0.7546771E-02  0.1095121E+00
         21   -1    0    0  502  501  0.00000000000E+00  0.00000000000E+00  0.20339902256E+04  0.20339902256E+04  0.00000000000E+00 0.  1.
         21   -1    0    0  501  502 -0.00000000000E+00 -0.00000000000E+00 -0.38832567701E+02  0.38832567701E+02  0.00000000000E+00 0.  1.
         25    1    1    2    0    0 -0.36416987693E+02  0.32654805226E+02  0.19038919534E+03  0.23294973492E+03  0.12500000000E+03 0.  0.
         25    1    1    2    0    0 -0.71686391271E+02 -0.95038168376E+02  0.69389937580E+03  0.71504722633E+03  0.12500000000E+03 0.  0.
         25    1    1    2    0    0  0.10810337896E+03  0.62383363150E+02  0.11108690867E+04  0.11248258320E+04  0.12500000000E+03 0.  0.
</event>
<event>
 5    0  0.5634041E-005  0.3942255E+03  0.7546771E-02  0.1045798E+00
         21   -1    0    0  502  501  0.00000000000E+00  0.00000000000E+00  0.10995914030E+03  0.10995914030E+03  0.00000000000E+00 0.  1.
         21   -1    0    0  501  502 -0.00000000000E+00 -0.00000000000E+00 -0.14133770894E+04  0.14133770894E+04  0.00000000000E+00 0.  1.
         25    1    1    2    0    0 -0.43968386439E+02 -0.22510962896E+03 -0.83877714432E+03  0.87850990995E+03  0.12500000000E+03 0.  0.
         25    1    1    2    0    0 -0.47042354134E+02  0.76271445968E+02 -0.25303697275E+02  0.15587043866E+03  0.12500000000E+03 0.  0.
         25    1    1    2    0    0  0.91010740572E+02  0.14883818299E+03 -0.43933710746E+03  0.48895588104E+03  0.12500000000E+03 0.  0.
</event>
<event>
 5    0  0.5634041E-005  0.2829629E+03  0.7546771E-02  0.1094082E+00
         21   -1    0    0  502  501  0.00000000000E+00  0.00000000000E+00  0.76513165684E+03  0.76513165684E+03  0.00000000000E+00 0. -1.
         21   -1    0    0  501  502 -0.00000000000E+00 -0.00000000000E+00 -0.10464605505E+03  0.10464605505E+03  0.00000000000E+00 0. -1.
         25    1    1    2    0    0 -0.59720185844E+02 -0.59861005081E+02  0.36865963654E+03  0.39835256763E+03  0.12500000000E+03 0.  0.
         25    1    1    2    0    0  0.82626595368E+02 -0.83038684982E+02  0.18597174820E+03  0.25284989340E+03  0.12500000000E+03 0.  0.
         25    1    1    2    0    0 -0.22906409525E+02  0.14289969006E+03  0.10585421705E+03  0.21857525085E+03  0.12500000000E+03 0.  0.
</event>
<event>
 5    0  0.5634041E-005  0.4153519E+03  0.7546771E-02  0.1038590E+00
         21   -1    0    0  502  501  0.00000000000E+00  0.00000000000E+00  0.43436152116E+03  0.43436152116E+03  0.00000000000E+00 0.  1.
         21   -1    0    0  501  502 -0.00000000000E+00 -0.00000000000E+00 -0.39717428566E+03  0.39717428566E+03  0.00000000000E+00 0.  1.
         25    1    1    2    0    0  0.44640529540E+02 -0.14430629213E+03  0.97783289199E+02  0.21909736300E+03  0.12500000000E+03 0.  0.
         25    1    1    2    0    0  0.14044610996E+03 -0.10135787140E+03  0.10879762848E+03  0.23970909841E+03  0.12500000000E+03 0.  0.
         25    1    1    2    0    0 -0.18508663950E+03  0.24566416354E+03 -0.16939368217E+03  0.37272934541E+03  0.12500000000E+03 0.  0.
</event>
<event>
 5    0  0.5634041E-005  0.3188924E+03  0.7546771E-02  0.1076160E+00
         21   -1    0    0  502  501  0.00000000000E+00  0.00000000000E+00  0.42501888293E+02  0.42501888293E+02  0.00000000000E+00 0.  1.
         21   -1    0    0  501  502 -0.00000000000E+00 -0.00000000000E+00 -0.23926552044E+04  0.23926552044E+04  0.00000000000E+00 0.  1.
         25    1    1    2    0    0  0.38077579094E+02  0.75317073432E+02 -0.44861325749E+03  0.47328788108E+03  0.12500000000E+03 0.  0.
         25    1    1    2    0    0 -0.21117704126E+02  0.37521901137E+02 -0.16691590134E+04  0.16743866526E+04  0.12500000000E+03 0.  0.
         25    1    1    2    0    0 -0.16959874968E+02 -0.11283897457E+03 -0.23238104519E+03  0.28748255896E+03  0.12500000000E+03 0.  0.
</event>
<event>
 5    0  0.5634041E-005  0.2791781E+03  0.7546771E-02  0.1096139E+00
         21   -1    0    0  502  501  0.00000000000E+00  0.00000000000E+00  0.12660441382E+04  0.12660441382E+04  0.00000000000E+00 0.  1.
         21   -1    0    0  501  502 -0.00000000000E+00 -0.00000000000E+00 -0.61562156882E+02  0.61562156882E+02  0.00000000000E+00 0.  1.
         25    1    1    2    0    0 -0.77996028007E+02  0.43164858638E+02  0.81532609954E+03  0.82965549115E+03  0.12500000000E+03 0.  0.
         25    1    1    2    0    0  0.11567853266E+03 -0.52928358795E+02  0.24745090093E+03  0.30502439649E+03  0.12500000000E+03 0.  0.
         25    1    1    2    0    0 -0.37682504651E+02  0.97635001571E+01  0.14170498085E+03  0.19292640745E+03  0.12500000000E+03 0.  0.
</event>
<event>
 5    0  0.5634041E-005  0.2724392E+03  0.7546771E-02  0.1099892E+00
         21   -1    0    0  502  501  0.00000000000E+00  0.00000000000E+00  0.16894032883E+04  0.16894032883E+04  0.00000000000E+00 0.  1.
         21   -1    0    0  501  502 -0.00000000000E+00 -0.00000000000E+00 -0.43934515081E+02  0.43934515081E+02  0.00000000000E+00 0.  1.
         25    1    1    2    0    0  0.11156537569E+03  0.73441389808E+02  0.42105754848E+03  0.45908052662E+03  0.12500000000E+03 0.  0.
         25    1    1    2    0    0 -0.19779031542E+02 -0.11851663861E+03  0.43083574595E+03  0.46441559374E+03  0.12500000000E+03 0.  0.
         25    1    1    2    0    0 -0.91786344152E+02  0.45075248805E+02  0.79357547878E+03  0.80984168302E+03  0.12500000000E+03 0.  0.
</event>
<event>
 5    0  0.5634041E-005  0.3819087E+03  0.7546771E-02  0.1050231E+00
         21   -1    0    0  502  501  0.00000000000E+00  0.00000000000E+00  0.15464145612E+03  0.15464145612E+03  0.00000000000E+00 0.  1.
         21   -1    0    0  501  502 -0.00000000000E+00 -0.00000000000E+00 -0.94317680729E+03  0.94317680729E+03  0.00000000000E+00 0.  1.
         25    1    1    2    0    0  0.17640868784E+03 -0.27472124805E+02 -0.67846719078E+02  0.22826064066E+03  0.12500000000E+03 0.  0.
         25    1    1    2    0    0 -0.19861163239E+03  0.16168300932E+03 -0.32106467659E+03  0.42929652057E+03  0.12500000000E+03 0.  0.
         25    1    1    2    0    0  0.22202944553E+02 -0.13421088452E+03 -0.39962395551E+03  0.44026110217E+03  0.12500000000E+03 0.  0.
</event>
<event>
 5    0  0.5634041E-005  0.3960644E+03  0.7546771E-02  0.1045151E+00
         21   -1    0    0  502  501  0.00000000000E+00  0.00000000000E+00  0.72910030904E+02  0.72910030904E+02  0.00000000000E+00 0.  1.
         21   -1    0    0  501  502 -0.00000000000E+00 -0.00000000000E+00 -0.21515148340E+04  0.21515148340E+04  0.00000000000E+00 0.  1.
         25    1    1    2    0    0 -0.28115807585E+03 -0.14459636362E+03 -0.12436438470E+04  0.12892761497E+04  0.12500000000E+03 0.  0.
         25    1    1    2    0    0  0.83858701234E+02  0.17856378052E+02 -0.24494819706E+03  0.28805511843E+03  0.12500000000E+03 0.  0.
         25    1    1    2    0    0  0.19729937461E+03  0.12673998557E+03 -0.59001275897E+03  0.64709359672E+03  0.12500000000E+03 0.  0.
</event>
<event>
 5    0  0.5634041E-005  0.2697604E+03  0.7546771E-02  0.1101417E+00
         21   -1    0    0  502  501  0.00000000000E+00  0.00000000000E+00  0.83063057416E+03  0.83063057416E+03  0.00000000000E+00 0.  1.
         21   -1    0    0  501  502 -0.00000000000E+00 -0.00000000000E+00 -0.87608955283E+02  0.87608955283E+02  0.00000000000E+00 0.  1.
         25    1    1    2    0    0 -0.18252484654E+02  0.89450215931E+02  0.23478743260E+03  0.28121990121E+03  0.12500000000E+03 0.  0.
         25    1    1    2    0    0 -0.27010941643E+01  0.93273570105E+02  0.15707896405E+03  0.22137311431E+03  0.12500000000E+03 0.  0.
         25    1    1    2    0    0  0.20953578818E+02 -0.18272378604E+03  0.35115522222E+03  0.41564651393E+03  0.12500000000E+03 0.  0.
</event>
<event>
 5    0  0.5634041E-005  0.3002572E+03  0.7546771E-02  0.1085112E+00
         21   -1    0    0  502  501  0.00000000000E+00  0.00000000000E+00  0.36915077146E+03  0.36915077146E+03  0.00000000000E+00 0.  1.
         21   -1    0    0  501  502 -0.00000000000E+00 -0.00000000000E+00 -0.24422097539E+03  0.24422097539E+03  0.00000000000E+00 0.  1.
         25    1    1    2    0    0  0.15875021343E+03 -0.10248484757E+03 -0.14988628822E+02  0.22705601344E+03  0.12500000000E+03 0.  0.
         25    1    1    2    0    0 -0.13505488902E+03  0.10136751708E+03  0.15081046946E+03  0.25861940041E+03  0.12500000000E+03 0.  0.
         25    1    1    2    0    0 -0.23695324408E+02  0.11173304897E+01 -0.10892044564E+02  0.12769633300E+03  0.12500000000E+03 0.  0.
</event>
<event>
 5    0  0.5634041E-005  0.3471421E+03  0.7546771E-02  0.1063794E+00
         21   -1    0    0  502  501  0.00000000000E+00  0.00000000000E+00  0.16716073816E+04  0.16716073816E+04  0.00000000000E+00 0.  1.
         21   -1    0    0  501  502 -0.00000000000E+00 -0.00000000000E+00 -0.72090864689E+02  0.72090864689E+02  0.00000000000E+00 0.  1.
         25    1    1    2    0    0  0.10727858536E+03 -0.59336338090E+02  0.72106432713E+03  0.74201634737E+03  0.12500000000E+03 0.  0.
         25    1    1    2    0    0  0.23930336807E+02  0.10289245305E+03  0.80752833593E+02  0.18249804943E+03  0.12500000000E+03 0.  0.
         25    1    1    2    0    0 -0.13120892217E+03 -0.43556114959E+02  0.79769935622E+03  0.81918384952E+03  0.12500000000E+03 0.  0.
</event>
<event>
 5    0  0.5634041E-005  0.3337182E+03  0.7546771E-02  0.1069503E+00
         21   -1    0    0  502  501  0.00000000000E+00  0.00000000000E+00  0.81956692664E+02  0.81956692664E+02  0.00000000000E+00 0.  1.
         21   -1    0    0  501  502 -0.00000000000E+00 -0.00000000000E+00 -0.13588618927E+04  0.13588618927E+04  0.00000000000E+00 0.  1.
         25    1    1    2    0    0  0.25985354571E+02 -0.76980109303E+02 -0.32021014185E+03  0.35321482249E+03  0.12500000000E+03 0.  0.
         25    1    1    2    0    0  0.12602077942E+03 -0.15401537035E+02 -0.10117004351E+03  0.20488733951E+03  0.12500000000E+03 0.  0.
         25    1    1    2    0    0 -0.15200613399E+03  0.92381646338E+02 -0.85552501471E+03  0.88271642340E+03  0.12500000000E+03 0.  0.
</event>
