<event>
 5    0  0.5503691E-005  0.3779470E+03  0.7546771E-02  0.1051695E+00
         21   -1    0    0  502  501  0.00000000000E+00  0.00000000000E+00  0.39319334289E+03  0.39319334289E+03  0.00000000000E+00 0. -1.
         21   -1    0    0  501  502 -0.00000000000E+00 -0.00000000000E+00 -0.36329182602E+03  0.36329182602E+03  0.00000000000E+00 0. -1.
         25    1    1    2    0    0  0.30330909739E+02  0.45668362239E+02 -0.26271271773E+03  0.29605495343E+03  0.12500000000E+03 0.  0.
         25    1    1    2    0    0 -0.37506724755E+02  0.70188876037E+02  0.36341179675E+02  0.15257429030E+03  0.12500000000E+03 0.  0.
         25    1    1    2    0    0  0.71758150155E+01 -0.11585723828E+03  0.25627305493E+03  0.30785592517E+03  0.12500000000E+03 0.  0.
</event>
<event>
 5    0  0.5503691E-005  0.5606698E+03  0.7546771E-02  0.9990540E-01
         21   -1    0    0  502  501  0.00000000000E+00  0.00000000000E+00  0.60683568361E+03  0.60683568361E+03  0.00000000000E+00 0. -1.
         21   -1    0    0  501  502 -0.00000000000E+00 -0.00000000000E+00 -0.51801613626E+03  0.51801613626E+03  0.00000000000E+00 0.  1.
         25    1    1    2    0    0  0.25910491112E+03  0.85024785162E+02  0.40272479904E+03  0.50217211474E+03  0.12500000000E+03 0.  0.
         25    1    1    2    0    0 -0.61810962340E+02 -0.13624323751E+03  0.36621666902E+02  0.19836572617E+03  0.12500000000E+03 0.  0.
         25    1    1    2    0    0 -0.19729394878E+03  0.51218452344E+02 -0.35052691859E+03  0.42431397896E+03  0.12500000000E+03 0.  0.
</event>
<event>
 5    0  0.5503691E-005  0.2554748E+03  0.7546771E-02  0.1109893E+00
         21   -1    0    0  502  501  0.00000000000E+00  0.00000000000E+00  0.31318692904E+03  0.31318692904E+03  0.00000000000E+00 0.  1.
         21   -1    0    0  501  502 -0.00000000000E+00 -0.00000000000E+00 -0.20839751723E+03  0.20839751723E+03  0.00000000000E+00 0.  1.
         25    1    1    2    0    0  0.74378730024E+02 -0.60987978617E+02  0.11732141635E+03  0.19657325288E+03  0.12500000000E+03 0.  0.
         25    1    1    2    0    0  0.10280542128E+02  0.49866467137E+02 -0.82558617281E+02  0.15821908664E+03  0.12500000000E+03 0.  0.
         25    1    1    2    0    0 -0.84659272152E+02  0.11121511481E+02  0.70026612743E+02  0.16679210674E+03  0.12500000000E+03 0.  0.
</event>
<event>
 5    0  0.5503691E-005  0.4425902E+03  0.7546771E-02  0.1029955E+00
         21   -1    0    0  502  501  0.00000000000E+00  0.00000000000E+00  0.18907035994E+04  0.18907035994E+04  0.00000000000E+00 0. -1.
         21   -1    0    0  501  502 -0.00000000000E+00 -0.00000000000E+00 -0.10360485196E+03  0.10360485196E+03  0.00000000000E+00 0. -1.
         25    1    1    2    0    0  0.92628172623E+02  0.19558312837E+03  0.13690044970E+04  0.13916289201E+04  0.12500000000E+03 0.  0.
         25    1    1    2    0    0 -0.17266909184E+03 -0.10433810435E+03  0.33261957380E+03  0.40860963788E+03  0.12500000000E+03 0.  0.
         25    1    1    2    0    0  0.80040919215E+02 -0.91245024021E+02  0.85474676604E+02  0.19406989333E+03  0.12500000000E+03 0.  0.
</event>
<event>
 5    0  0.5503691E-005  0.3855527E+03  0.7546771E-02  0.1048900E+00
         21   -1    0    0  502  501  0.00000000000E+00  0.00000000000E+00  0.40648789333E+03  0.40648789333E+03  0.00000000000E+00 0. -1.
         21   -1    0    0  501  502 -0.00000000000E+00 -0.00000000000E+00 -0.36569565139E+03  0.36569565139E+03  0.00000000000E+00 0. -1.
         25    1    1    2    0    0 -0.57024639246E+02  0.61385122986E+02  0.11558350116E+02  0.15092560506E+03  0.12500000000E+03 0.  0.
         25    1    1    2    0    0 -0.25088606446E+03 -0.22997066198E+02 -0.25048875953E+02  0.28235638576E+03  0.12500000000E+03 0.  0.
         25    1    1    2    0    0  0.30791070370E+03 -0.38388056788E+02  0.54282767773E+02  0.33890155390E+03  0.12500000000E+03 0.  0.
</event>
<event>
 5    0  0.5503691E-005  0.4427785E+03  0.7546771E-02  0.1029898E+00
         21   -1    0    0  502  501  0.00000000000E+00  0.00000000000E+00  0.71482768742E+03  0.71482768742E+03  0.00000000000E+00 0.  1.
         21   -1    0    0  501  502 -0.00000000000E+00 -0.00000000000E+00 -0.27426580091E+03  0.27426580091E+03  0.00000000000E+00 0.  1.
         25    1    1    2    0    0 -0.10359075301E+03 -0.55210290539E+02  0.49136375701E+02  0.17837769958E+03  0.12500000000E+03 0.  0.
         25    1    1    2    0    0  0.32882659129E+03  0.43977858420E+02  0.15498066069E+02  0.35486077442E+03  0.12500000000E+03 0.  0.
         25    1    1    2    0    0 -0.22523583828E+03  0.11232432119E+02  0.37592744474E+03  0.45585501432E+03  0.12500000000E+03 0.  0.
</event>
<event>
 5    0  0.5503691E-005  0.3561456E+03  0.7546771E-02  0.1060121E+00
         21   -1    0    0  502  501  0.00000000000E+00  0.00000000000E+00  0.65240020723E+02  0.65240020723E+02  0.00000000000E+00 0. -1.
         21   -1    0    0  501  502 -0.00000000000E+00 -0.00000000000E+00 -0.19442007942E+04  0.19442007942E+04  0.00000000000E+00 0. -1.
         25    1    1    2    0    0  0.27942399504E+02  0.16564374261E+03 -0.72189005736E+03  0.75164411929E+03  0.12500000000E+03 0.  0.
         25    1    1    2    0    0 -0.10003187854E+03 -0.17639712417E+03 -0.10528744454E+04  0.10794868781E+04  0.12500000000E+03 0.  0.
         25    1    1    2    0    0  0.72089479039E+02  0.10753381564E+02 -0.10419627069E+03  0.17830981753E+03  0.12500000000E+03 0.  0.
</event>
<event>
 5    0  0.5662247E-005  0.3742851E+03  0.7546771E-02  0.1053066E+00
         21   -1    0    0  502  501  0.00000000000E+00  0.00000000000E+00  0.17353369547E+03  0.17353369547E+03  0.00000000000E+00 0. -1.
         21   -1    0    0  501  502 -0.00000000000E+00 -0.00000000000E+00 -0.80727474325E+03  0.80727474325E+03  0.00000000000E+00 0. -1.
         25    1    1    2    0    0 -0.16108555344E+02 -0.17462727425E+03 -0.25610181924E+03  0.33461517043E+03  0.12500000000E+03 0.  0.
         25    1    1    2    0    0  0.10533153769E+03  0.48303559811E+02 -0.41064749468E+03  0.44461706176E+03  0.12500000000E+03 0.  0.
         25    1    1    2    0    0 -0.89222982349E+02  0.12632371444E+03  0.33008266132E+02  0.20157620654E+03  0.12500000000E+03 0.  0.
</event>
<event>
 5    0  0.5503691E-005  0.4614229E+03  0.7546771E-02  0.1024369E+00
         21   -1    0    0  502  501  0.00000000000E+00  0.00000000000E+00  0.27465357253E+03  0.27465357253E+03  0.00000000000E+00 0. -1.
         21   -1    0    0  501  502 -0.00000000000E+00 -0.00000000000E+00 -0.77519881287E+03  0.77519881287E+03  0.00000000000E+00 0. -1.
         25    1    1    2    0    0  0.31696222225E+03  0.13508371279E+03 -0.25355982021E+03  0.44567952861E+03  0.12500000000E+03 0.  0.
         25    1    1    2    0    0 -0.13382280237E+03 -0.12438778567E+03  0.56210240054E+02  0.22839758042E+03  0.12500000000E+03 0.  0.
         25    1    1    2    0    0 -0.18313941988E+03 -0.10695927124E+02 -0.30319566019E+03  0.37577527637E+03  0.12500000000E+03 0.  0.
</event>
<event>
 5    0  0.5503691E-005  0.4431184E+03  0.7546771E-02  0.1029794E+00
         21   -1    0    0  502  501  0.00000000000E+00  0.00000000000E+00  0.45477961770E+03  0.45477961770E+03  0.00000000000E+00 0. -1.
         21   -1    0    0  501  502 -0.00000000000E+00 -0.00000000000E+00 -0.43175614301E+03  0.43175614301E+03  0.00000000000E+00 0. -1.
         25    1    1    2    0    0 -0.14962079735E+03  0.85164297444E+02  0.88417967862E+02  0.23039548086E+03  0.12500000000E+03 0.  0.
         25    1    1    2    0    0  0.19674416387E+03  0.21350720500E+03 -0.88163273959E+02  0.32816361083E+03  0.12500000000E+03 0.  0.
         25    1    1    2    0    0 -0.47123366516E+02 -0.29867150244E+03  0.22768780780E+02  0.32797666902E+03  0.12500000000E+03 0.  0.
</event>
<event>
 5    0  0.5601337E-005  0.5159859E+03  0.7546771E-02  0.1009689E+00
         21   -1    0    0  502  501  0.00000000000E+00  0.00000000000E+00  0.67006086031E+03  0.67006086031E+03  0.00000000000E+00 0.  1.
         21   -1    0    0  501  502 -0.00000000000E+00 -0.00000000000E+00 -0.39733927637E+03  0.39733927637E+03  0.00000000000E+00 0.  1.
         25    1    1    2    0    0 -0.41516954780E+02  0.23607665400E+02 -0.16843906936E+03  0.21512252203E+03  0.12500000000E+03 0.  0.
         25    1    1    2    0    0  0.35335178327E+03  0.65306704431E+02  0.25529887574E+03  0.45817569156E+03  0.12500000000E+03 0.  0.
         25    1    1    2    0    0 -0.31183482849E+03 -0.88914369831E+02  0.18586177755E+03  0.39410192308E+03  0.12500000000E+03 0.  0.
</event>
<event>
 5    0  0.5503691E-005  0.4635325E+03  0.7546771E-02  0.1023762E+00
         21   -1    0    0  502  501  0.00000000000E+00  0.00000000000E+00  0.13415728206E+04  0.13415728206E+04  0.00000000000E+00 0.  1.
         21   -1    0    0  501  502 -0.00000000000E+00 -0.00000000000E+00 -0.16015705198E+03  0.16015705198E+03  0.00000000000E+00 0.  1.
         25    1    1    2    0    0  0.15138000577E+02 -0.25391524293E+03  0.47090746094E+03  0.54961891018E+03  0.12500000000E+03 0.  0.
         25    1    1    2    0    0  0.41536746192E+02  0.34421089330E+03  0.69552958058E+03  0.78714219669E+03  0.12500000000E+03 0.  0.
         25    1    1    2    0    0 -0.56674746769E+02 -0.90295650375E+02  0.14978727100E+02  0.16496876572E+03  0.12500000000E+03 0.  0.
</event>
<event>
 5    0  0.5503691E-005  0.3348510E+03  0.7546771E-02  0.1069010E+00
         21   -1    0    0  502  501  0.00000000000E+00  0.00000000000E+00  0.22764564412E+03  0.22764564412E+03  0.00000000000E+00 0.  1.
         21   -1    0    0  501  502 -0.00000000000E+00 -0.00000000000E+00 -0.49254276216E+03  0.49254276216E+03  0.00000000000E+00 0.  1.
         25    1    1    2    0    0  0.16102170014E+02  0.10440804874E+03 -0.33427584186E+03  0.37219035314E+03  0.12500000000E+03 0.  0.
         25    1    1    2    0    0  0.57610742383E+02 -0.10425912576E+03  0.10021484211E+03  0.19964212362E+03  0.12500000000E+03 0.  0.
         25    1    1    2    0    0 -0.73712912397E+02 -0.14892297331E+00 -0.30836118288E+02  0.14835592952E+03  0.12500000000E+03 0.  0.
</event>
<event>
 5    0  0.5503691E-005  0.2747165E+03  0.7546771E-02  0.1098610E+00
         21   -1    0    0  502  501  0.00000000000E+00  0.00000000000E+00  0.62027325176E+03  0.62027325176E+03  0.00000000000E+00 0.  1.
         21   -1    0    0  501  502 -0.00000000000E+00 -0.00000000000E+00 -0.12167079613E+03  0.12167079613E+03  0.00000000000E+00 0.  1.
         25    1    1    2    0    0  0.12843243564E+03 -0.78654016049E+02  0.59879457244E+02  0.20467509415E+03  0.12500000000E+03 0.  0.
         25    1    1    2    0    0 -0.66248483265E+02  0.87803570876E+02  0.27923704942E+03  0.32511022495E+03  0.12500000000E+03 0.  0.
         25    1    1    2    0    0 -0.62183952374E+02 -0.91495548264E+01  0.15948594896E+03  0.21215872879E+03  0.12500000000E+03 0.  0.
</event>
<event>
 5    0  0.5503691E-005  0.2038796E+03  0.7546771E-02  0.1146506E+00
         21   -1    0    0  502  501  0.00000000000E+00  0.00000000000E+00  0.19309242770E+03  0.19309242770E+03  0.00000000000E+00 0. -1.
         21   -1    0    0  501  502 -0.00000000000E+00 -0.00000000000E+00 -0.21526939312E+03  0.21526939312E+03  0.00000000000E+00 0. -1.
         25    1    1    2    0    0  0.32379208669E+02 -0.14285661543E+02  0.68833170350E+01  0.13009563149E+03  0.12500000000E+03 0.  0.
         25    1    1    2    0    0 -0.28461199717E+02 -0.35105646045E+02 -0.50338453108E+02  0.14213165071E+03  0.12500000000E+03 0.  0.
         25    1    1    2    0    0 -0.39180089530E+01  0.49391307588E+02  0.21278170654E+02  0.13613453862E+03  0.12500000000E+03 0.  0.
</event>
<event>
 5    0  0.5503691E-005  0.3342135E+03  0.7546771E-02  0.1069288E+00
         21   -1    0    0  502  501  0.00000000000E+00  0.00000000000E+00  0.10179637561E+03  0.10179637561E+03  0.00000000000E+00 0.  1.
         21   -1    0    0  501  502 -0.00000000000E+00 -0.00000000000E+00 -0.10972753013E+04  0.10972753013E+04  0.00000000000E+00 0.  1.
         25    1    1    2    0    0 -0.58147897071E+02  0.42090015097E+02 -0.35414591409E+01  0.14418838108E+03  0.12500000000E+03 0.  0.
         25    1    1    2    0    0  0.26096736992E+02  0.12049735350E+02 -0.83425965544E+03  0.84406185111E+03  0.12500000000E+03 0.  0.
         25    1    1    2    0    0  0.32051160078E+02 -0.54139750446E+02 -0.15767781115E+03  0.21082144476E+03  0.12500000000E+03 0.  0.
</event>
<event>
 5    0  0.5503691E-005  0.4420556E+03  0.7546771E-02  0.1030118E+00
         21   -1    0    0  502  501  0.00000000000E+00  0.00000000000E+00  0.14000919756E+03  0.14000919756E+03  0.00000000000E+00 0.  1.
         21   -1    0    0  501  502 -0.00000000000E+00 -0.00000000000E+00 -0.13957167986E+04  0.13957167986E+04  0.00000000000E+00 0.  1.
         25    1    1    2    0    0  0.33298888748E+03 -0.57991370974E+02 -0.31843751365E+03  0.48090752582E+03  0.12500000000E+03 0.  0.
         25    1    1    2    0    0 -0.28882836358E+03  0.34301126627E+02 -0.45642293066E+03  0.55546852524E+03  0.12500000000E+03 0.  0.
         25    1    1    2    0    0 -0.44160523899E+02  0.23690244346E+02 -0.48084715677E+03  0.49934994515E+03  0.12500000000E+03 0.  0.
</event>
<event>
 5    0  0.5503691E-005  0.2979332E+03  0.7546771E-02  0.1086278E+00
         21   -1    0    0  502  501  0.00000000000E+00  0.00000000000E+00  0.63600961143E+02  0.63600961143E+02  0.00000000000E+00 0.  1.
         21   -1    0    0  501  502 -0.00000000000E+00 -0.00000000000E+00 -0.13956424036E+04  0.13956424036E+04  0.00000000000E+00 0.  1.
         25    1    1    2    0    0  0.61346147817E+02 -0.86965714129E+02 -0.62158222672E+03  0.64289645346E+03  0.12500000000E+03 0.  0.
         25    1    1    2    0    0 -0.42138735883E+02  0.10402460720E+03 -0.10617092639E+03  0.19873111879E+03  0.12500000000E+03 0.  0.
         25    1    1    2    0    0 -0.19207411933E+02 -0.17058893069E+02 -0.60428828934E+03  0.61761579250E+03  0.12500000000E+03 0.  0.
</event>
<event>
 5    0  0.5503691E-005  0.3826892E+03  0.7546771E-02  0.1049944E+00
         21   -1    0    0  502  501  0.00000000000E+00  0.00000000000E+00  0.25645208044E+03  0.25645208044E+03  0.00000000000E+00 0.  1.
         21   -1    0    0  501  502 -0.00000000000E+00 -0.00000000000E+00 -0.57106573678E+03  0.57106573678E+03  0.00000000000E+00 0.  1.
         25    1    1    2    0    0 -0.42345388628E+02 -0.10801690849E+03  0.50604487161E+00  0.17054630028E+03  0.12500000000E+03 0.  0.
         25    1    1    2    0    0 -0.85440391503E+02 -0.72186374863E+02  0.81183515012E+02  0.18635100302E+03  0.12500000000E+03 0.  0.
         25    1    1    2    0    0  0.12778578013E+03  0.18020328335E+03 -0.39630321622E+03  0.47062051392E+03  0.12500000000E+03 0.  0.
</event>
<event>
 5    0  0.5503691E-005  0.5123279E+03  0.7546771E-02  0.1010610E+00
         21   -1    0    0  502  501  0.00000000000E+00  0.00000000000E+00  0.42651666213E+03  0.42651666213E+03  0.00000000000E+00 0.  1.
         21   -1    0    0  501  502 -0.00000000000E+00 -0.00000000000E+00 -0.61540367368E+03  0.61540367368E+03  0.00000000000E+00 0.  1.
         25    1    1    2    0    0  0.16959570795E+03 -0.16986702788E+03 -0.56668172727E+02  0.27650279043E+03  0.12500000000E+03 0.  0.
         25    1    1    2    0    0  0.48579268370E+02  0.37144516129E+03 -0.18961327548E+03  0.43807493354E+03  0.12500000000E+03 0.  0.
         25    1    1    2    0    0 -0.21817497632E+03 -0.20157813341E+03  0.57394436654E+02  0.32734261183E+03  0.12500000000E+03 0.  0.
</event>
<event>
 5    0  0.5503691E-005  0.3087884E+03  0.7546771E-02  0.1080928E+00
         21   -1    0    0  502  501  0.00000000000E+00  0.00000000000E+00  0.37110960403E+03  0.37110960403E+03  0.00000000000E+00 0. -1.
         21   -1    0    0  501  502 -0.00000000000E+00 -0.00000000000E+00 -0.25693297124E+03  0.25693297124E+03  0.00000000000E+00 0. -1.
         25    1    1    2    0    0 -0.11611955051E+02  0.41223857339E+02 -0.16321283853E+03  0.20999446320E+03  0.12500000000E+03 0.  0.
         25    1    1    2    0    0  0.49453974883E+02 -0.10143585613E+03  0.13731140163E+03  0.21728863191E+03  0.12500000000E+03 0.  0.
         25    1    1    2    0    0 -0.37842019832E+02  0.60211998794E+02  0.14007806969E+03  0.20075948016E+03  0.12500000000E+03 0.  0.
</event>
<event>
 5    0  0.5503691E-005  0.2533597E+03  0.7546771E-02  0.1111200E+00
         21   -1    0    0  502  501  0.00000000000E+00  0.00000000000E+00  0.76720242809E+03  0.76720242809E+03  0.00000000000E+00 0. -1.
         21   -1    0    0  501  502 -0.00000000000E+00 -0.00000000000E+00 -0.83669130879E+02  0.83669130879E+02  0.00000000000E+00 0. -1.
         25    1    1    2    0    0 -0.40672132711E+02  0.53036778969E+02  0.17401047470E+03  0.22443655586E+03  0.12500000000E+03 0.  0.
         25    1    1    2    0    0 -0.37536283812E+02  0.80623819467E+02  0.14482667726E+03  0.21097141824E+03  0.12500000000E+03 0.  0.
         25    1    1    2    0    0  0.78208416523E+02 -0.13366059844E+03  0.36469614526E+03  0.41546358487E+03  0.12500000000E+03 0.  0.
</event>
<event>
 5    0  0.7042044E-005  0.3263084E+03  0.7546771E-02  0.1072782E+00
         21   -1    0    0  502  501  0.00000000000E+00  0.00000000000E+00  0.10461257943E+04  0.10461257943E+04  0.00000000000E+00 0.  1.
         21   -1    0    0  501  502 -0.00000000000E+00 -0.00000000000E+00 -0.10178238410E+03  0.10178238410E+03  0.00000000000E+00 0.  1.
         25    1    1    2    0    0 -0.22420557471E+03 -0.94838092994E+02  0.34575752558E+03  0.44094860257E+03  0.12500000000E+03 0.  0.
         25    1    1    2    0    0  0.10604069659E+03  0.34987305218E+02  0.41856953603E+03  0.45088157797E+03  0.12500000000E+03 0.  0.
         25    1    1    2    0    0  0.11816487812E+03  0.59850787775E+02  0.18001634855E+03  0.25607799781E+03  0.12500000000E+03 0.  0.
</event>
<event>
 5    0  0.5503691E-005  0.3137185E+03  0.7546771E-02  0.1078577E+00
         21   -1    0    0  502  501  0.00000000000E+00  0.00000000000E+00  0.56045414129E+03  0.56045414129E+03  0.00000000000E+00 0. -1.
         21   -1    0    0  501  502 -0.00000000000E+00 -0.00000000000E+00 -0.17560635807E+03  0.17560635807E+03  0.00000000000E+00 0. -1.
         25    1    1    2    0    0  0.12880528496E+02  0.80598961361E+02  0.41586957968E+03  0.44185360459E+03  0.12500000000E+03 0.  0.
         25    1    1    2    0    0 -0.34904202775E+02 -0.17977485803E+02  0.38445770340E+02  0.13654512303E+03  0.12500000000E+03 0.  0.
         25    1    1    2    0    0  0.22023674279E+02 -0.62621475559E+02 -0.69467566795E+02  0.15766177173E+03  0.12500000000E+03 0.  0.
</event>
<event>
 5    0  0.5503691E-005  0.3284148E+03  0.7546771E-02  0.1071840E+00
         21   -1    0    0  502  501  0.00000000000E+00  0.00000000000E+00  0.20224682698E+03  0.20224682698E+03  0.00000000000E+00 0.  1.
         21   -1    0    0  501  502 -0.00000000000E+00 -0.00000000000E+00 -0.53329048074E+03  0.53329048074E+03  0.00000000000E+00 0.  1.
         25    1    1    2    0    0  0.11976801946E+03 -0.16918219258E+03 -0.58344384686E+02  0.24899008012E+03  0.12500000000E+03 0.  0.
         25    1    1    2    0    0 -0.88083410411E+02  0.42838013637E+02  0.83731229847E+00  0.15880643467E+03  0.12500000000E+03 0.  0.
         25    1    1    2    0    0 -0.31684609044E+02  0.12634417895E+03 -0.27353658137E+03  0.32774079293E+03  0.12500000000E+03 0.  0.
</event>
<event>
 5    0  0.5503691E-005  0.3678114E+03  0.7546771E-02  0.1055533E+00
         21   -1    0    0  502  501  0.00000000000E+00  0.00000000000E+00  0.10471087638E+04  0.10471087638E+04  0.00000000000E+00 0.  1.
         21   -1    0    0  501  502 -0.00000000000E+00 -0.00000000000E+00 -0.12919882556E+03  0.12919882556E+03  0.00000000000E+00 0.  1.
         25    1    1    2    0    0 -0.16111087808E+03 -0.95356183406E+02  0.35730004875E+02  0.22792794914E+03  0.12500000000E+03 0.  0.
         25    1    1    2    0    0  0.13919048006E+03  0.10317071498E+03  0.45466890614E+03  0.50236142406E+03  0.12500000000E+03 0.  0.
         25    1    1    2    0    0  0.21920398023E+02 -0.78145315766E+01  0.42751102727E+03  0.44601821621E+03  0.12500000000E+03 0.  0.
</event>
<event>
 5    0  0.5503691E-005  0.4523740E+03  0.7546771E-02  0.1027016E+00
         21   -1    0    0  502  501  0.00000000000E+00  0.00000000000E+00  0.38370716241E+04  0.38370716241E+04  0.00000000000E+00 0.  1.
         21   -1    0    0  501  502 -0.00000000000E+00 -0.00000000000E+00 -0.53332923247E+02  0.53332923247E+02  0.00000000000E+00 0.  1.
         25    1    1    2    0    0  0.22678205537E+03  0.22896641069E+02  0.11351598705E+04  0.11645459580E+04  0.12500000000E+03 0.  0.
         25    1    1    2    0    0 -0.13678851541E+03 -0.12757824082E+03  0.32753551993E+03  0.39735603971E+03  0.12500000000E+03 0.  0.
         25    1    1    2    0    0 -0.89993539965E+02  0.10468159976E+03  0.23210433105E+04  0.23285025496E+04  0.12500000000E+03 0.  0.
</event>
<event>
 5    0  0.5503691E-005  0.3150315E+03  0.7546771E-02  0.1077959E+00
         21   -1    0    0  502  501  0.00000000000E+00  0.00000000000E+00  0.92075174334E+03  0.92075174334E+03  0.00000000000E+00 0. -1.
         21   -1    0    0  501  502 -0.00000000000E+00 -0.00000000000E+00 -0.10778677193E+03  0.10778677193E+03  0.00000000000E+00 0. -1.
         25    1    1    2    0    0  0.96676872610E+02  0.30532675941E+02  0.10639519149E+03  0.19293418248E+03  0.12500000000E+03 0.  0.
         25    1    1    2    0    0 -0.48317544380E+02 -0.10602223800E+03  0.64938766055E+03  0.67149432888E+03  0.12500000000E+03 0.  0.
         25    1    1    2    0    0 -0.48359328230E+02  0.75489562055E+02  0.57182119366E+02  0.16411000390E+03  0.12500000000E+03 0.  0.
</event>
<event>
 5    0  0.5503691E-005  0.2629287E+03  0.7546771E-02  0.1105396E+00
         21   -1    0    0  502  501  0.00000000000E+00  0.00000000000E+00  0.34080288127E+02  0.34080288127E+02  0.00000000000E+00 0. -1.
         21   -1    0    0  501  502 -0.00000000000E+00 -0.00000000000E+00 -0.20284898191E+04  0.20284898191E+04  0.00000000000E+00 0. -1.
         25    1    1    2    0    0 -0.16322100512E+02 -0.15869583228E+03 -0.87002418062E+03  0.89331844994E+03  0.12500000000E+03 0.  0.
         25    1    1    2    0    0  0.46945382365E+02  0.11058540920E+03 -0.76736201409E+03  0.78670354157E+03  0.12500000000E+03 0.  0.
         25    1    1    2    0    0 -0.30623281852E+02  0.48110423081E+02 -0.35702333631E+03  0.38254811576E+03  0.12500000000E+03 0.  0.
</event>
<event>
 5    0  0.5503691E-005  0.4154759E+03  0.7546771E-02  0.1038549E+00
         21   -1    0    0  502  501  0.00000000000E+00  0.00000000000E+00  0.15620000610E+03  0.15620000610E+03  0.00000000000E+00 0.  1.
         21   -1    0    0  501  502 -0.00000000000E+00 -0.00000000000E+00 -0.11051229765E+04  0.11051229765E+04  0.00000000000E+00 0.  1.
         25    1    1    2    0    0  0.12045499466E+03 -0.24337619707E+03 -0.10205529362E+03  0.31588235467E+03  0.12500000000E+03 0.  0.
         25    1    1    2    0    0 -0.11848432946E+03  0.33236592026E+02 -0.33350900141E+03  0.37682417836E+03  0.12500000000E+03 0.  0.
         25    1    1    2    0    0 -0.19706652021E+01  0.21013960504E+03 -0.51335867538E+03  0.56861644956E+03  0.12500000000E+03 0.  0.
</event>
<event>
 5    0  0.5503691E-005  0.3410506E+03  0.7546771E-02  0.1066349E+00
         21   -1    0    0  502  501  0.00000000000E+00  0.00000000000E+00  0.36219784374E+03  0.36219784374E+03  0.00000000000E+00 0.  1.
         21   -1    0    0  501  502 -0.00000000000E+00 -0.00000000000E+00 -0.32113803802E+03  0.32113803802E+03  0.00000000000E+00 0.  1.
         25    1    1    2    0    0 -0.83256423757E+01  0.19900641961E+03  0.56894422900E+02  0.24193975846E+03  0.12500000000E+03 0.  0.
         25    1    1    2    0    0  0.72999838242E+02 -0.21006614777E+03 -0.10340091452E+03  0.27526988929E+03  0.12500000000E+03 0.  0.
         25    1    1    2    0    0 -0.64674195866E+02  0.11059728164E+02  0.87566297348E+02  0.16612623402E+03  0.12500000000E+03 0.  0.
</event>
<event>
 5    0  0.5792855E-005  0.4394882E+03  0.7546771E-02  0.1030904E+00
         21   -1    0    0  502  501  0.00000000000E+00  0.00000000000E+00  0.85893575942E+03  0.85893575942E+03  0.00000000000E+00 0.  1.
         21   -1    0    0  501  502 -0.00000000000E+00 -0.00000000000E+00 -0.22487119279E+03  0.22487119279E+03  0.00000000000E+00 0.  1.
         25    1    1    2    0    0 -0.16287522650E+03  0.15275179983E+02  0.25478766434E+03  0.32757201412E+03  0.12500000000E+03 0.  0.
         25    1    1    2    0    0 -0.66211817327E+02 -0.47871456957E+02 -0.12023200192E+03  0.19171962714E+03  0.12500000000E+03 0.  0.
         25    1    1    2    0    0  0.22908704382E+03  0.32596276973E+02  0.49950890420E+03  0.56451531095E+03  0.12500000000E+03 0.  0.
</event>
<event>
 5    0  0.5503691E-005  0.2363279E+03  0.7546771E-02  0.1122264E+00
         21   -1    0    0  502  501  0.00000000000E+00  0.00000000000E+00  0.95988738404E+02  0.95988738404E+02  0.00000000000E+00 0.  1.
         21   -1    0    0  501  502 -0.00000000000E+00 -0.00000000000E+00 -0.58184811473E+03  0.58184811473E+03  0.00000000000E+00 0.  1.
         25    1    1    2    0    0 -0.66632348106E+02  0.13627600617E+02 -0.22136674652E+03  0.26316120113E+03  0.12500000000E+03 0.  0.
         25    1    1    2    0    0  0.92506481485E+02  0.54884450196E+02 -0.89960387932E+02  0.18785000236E+03  0.12500000000E+03 0.  0.
         25    1    1    2    0    0 -0.25874133380E+02 -0.68512050814E+02 -0.17453224187E+03  0.22682564965E+03  0.12500000000E+03 0.  0.
</event>
<event>
 5    0  0.5503691E-005  0.4191229E+03  0.7546771E-02  0.1037352E+00
         21   -1    0    0  502  501  0.00000000000E+00  0.00000000000E+00  0.54999380654E+03  0.54999380654E+03  0.00000000000E+00 0.  1.
         21   -1    0    0  501  502 -0.00000000000E+00 -0.00000000000E+00 -0.31939275660E+03  0.31939275660E+03  0.00000000000E+00 0.  1.
         25    1    1    2    0    0 -0.12380200540E+03 -0.31717712033E+02 -0.11069054481E+03  0.21026256563E+03  0.12500000000E+03 0.  0.
         25    1    1    2    0    0  0.51730318751E+01 -0.20380499617E+03  0.45180786947E+02  0.24337119844E+03  0.12500000000E+03 0.  0.
         25    1    1    2    0    0  0.11862897352E+03  0.23552270820E+03  0.29611080780E+03  0.41575279907E+03  0.12500000000E+03 0.  0.
</event>
<event>
 5    0  0.5503691E-005  0.2384313E+03  0.7546771E-02  0.1120842E+00
         21   -1    0    0  502  501  0.00000000000E+00  0.00000000000E+00  0.78355586057E+03  0.78355586057E+03  0.00000000000E+00 0.  1.
         21   -1    0    0  501  502 -0.00000000000E+00 -0.00000000000E+00 -0.72553171642E+02  0.72553171642E+02  0.00000000000E+00 0.  1.
         25    1    1    2    0    0 -0.25525819730E+02  0.13562648426E+02  0.20391207160E+03  0.24091626315E+03  0.12500000000E+03 0.  0.
         25    1    1    2    0    0  0.79958261410E+02  0.27548587117E+02  0.92936706453E+02  0.17724130339E+03  0.12500000000E+03 0.  0.
         25    1    1    2    0    0 -0.54432441680E+02 -0.41111235543E+02  0.41415391087E+03  0.43795146567E+03  0.12500000000E+03 0.  0.
</event>
<event>
 5    0  0.5503691E-005  0.3170389E+03  0.7546771E-02  0.1077020E+00
         21   -1    0    0  502  501  0.00000000000E+00  0.00000000000E+00  0.43882393114E+03  0.43882393114E+03  0.00000000000E+00 0.  1.
         21   -1    0    0  501  502 -0.00000000000E+00 -0.00000000000E+00 -0.22905237473E+03  0.22905237473E+03  0.00000000000E+00 0.  1.
         25    1    1    2    0    0  0.10905386343E+03 -0.10397844990E+03 -0.67104998653E+02  0.20695976425E+03  0.12500000000E+03 0.  0.
         25    1    1    2    0    0  0.62735991097E+02  0.56171153132E+02  0.11231267222E+03  0.18796313299E+03  0.12500000000E+03 0.  0.
         25    1    1    2    0    0 -0.17178985453E+03  0.47807296766E+02  0.16456388285E+03  0.27295340863E+03  0.12500000000E+03 0.  0.
</event>
<event>
 5    0  0.5503691E-005  0.2617407E+03  0.7546771E-02  0.1106102E+00
         21   -1    0    0  502  501  0.00000000000E+00  0.00000000000E+00  0.46363057203E+03  0.46363057203E+03  0.00000000000E+00 0.  1.
         21   -1    0    0  501  502 -0.00000000000E+00 -0.00000000000E+00 -0.14776457927E+03  0.14776457927E+03  0.00000000000E+00 0.  1.
         25    1    1    2    0    0  0.15160726727E+03  0.65477288512E+02  0.11934175598E+03  0.23903868624E+03  0.12500000000E+03 0.  0.
         25    1    1    2    0    0 -0.11815084097E+03 -0.99954630740E+01  0.13418159240E+03  0.21837863962E+03  0.12500000000E+03 0.  0.
         25    1    1    2    0    0 -0.33456426302E+02 -0.55481825438E+02  0.62342644381E+02  0.15397782543E+03  0.12500000000E+03 0.  0.
</event>
<event>
 5    0  0.5503691E-005  0.2512784E+03  0.7546771E-02  0.1112500E+00
         21   -1    0    0  502  501  0.00000000000E+00  0.00000000000E+00  0.35016638137E+03  0.35016638137E+03  0.00000000000E+00 0.  1.
         21   -1    0    0  501  502 -0.00000000000E+00 -0.00000000000E+00 -0.18031668051E+03  0.18031668051E+03  0.00000000000E+00 0.  1.
         25    1    1    2    0    0 -0.29676782219E+02 -0.18777419841E+02  0.78311623164E+02  0.15162787745E+03  0.12500000000E+03 0.  0.
         25    1    1    2    0    0  0.44315383907E+02  0.13915400266E+03  0.63568933878E+02  0.20246900766E+03  0.12500000000E+03 0.  0.
         25    1    1    2    0    0 -0.14638601688E+02 -0.12037658282E+03  0.27969143819E+02  0.17638617677E+03  0.12500000000E+03 0.  0.
</event>
<event>
 5    0  0.5503691E-005  0.2453534E+03  0.7546771E-02  0.1116277E+00
         21   -1    0    0  502  501  0.00000000000E+00  0.00000000000E+00  0.33178436038E+03  0.33178436038E+03  0.00000000000E+00 0.  1.
         21   -1    0    0  501  502 -0.00000000000E+00 -0.00000000000E+00 -0.18143807420E+03  0.18143807420E+03  0.00000000000E+00 0.  1.
         25    1    1    2    0    0 -0.23703546085E+02 -0.90491643208E+01  0.80267872184E+02  0.15070393750E+03  0.12500000000E+03 0.  0.
         25    1    1    2    0    0 -0.29348762004E+01 -0.76338184088E+02  0.13163048022E+03  0.19694597018E+03  0.12500000000E+03 0.  0.
         25    1    1    2    0    0  0.26638422285E+02  0.85387348408E+02 -0.61552066224E+02  0.16557252691E+03  0.12500000000E+03 0.  0.
</event>
<event>
 5    0  0.5503691E-005  0.3327132E+03  0.7546771E-02  0.1069943E+00
         21   -1    0    0  502  501  0.00000000000E+00  0.00000000000E+00  0.43985930518E+03  0.43985930518E+03  0.00000000000E+00 0.  1.
         21   -1    0    0  501  502 -0.00000000000E+00 -0.00000000000E+00 -0.25166701387E+03  0.25166701387E+03  0.00000000000E+00 0.  1.
         25    1    1    2    0    0  0.63226416147E+01  0.78008658423E+02  0.67381168401E+02  0.16214360438E+03  0.12500000000E+03 0.  0.
         25    1    1    2    0    0 -0.12585241456E+03  0.14155932714E+03  0.54505210000E+01  0.22700788870E+03  0.12500000000E+03 0.  0.
         25    1    1    2    0    0  0.11952977295E+03 -0.21956798556E+03  0.11536060191E+03  0.30237482597E+03  0.12500000000E+03 0.  0.
</event>
<event>
 5    0  0.5503691E-005  0.5468439E+03  0.7546771E-02  0.1002227E+00
         21   -1    0    0  502  501  0.00000000000E+00  0.00000000000E+00  0.17321328940E+03  0.17321328940E+03  0.00000000000E+00 0.  1.
         21   -1    0    0  501  502 -0.00000000000E+00 -0.00000000000E+00 -0.17264164459E+04  0.17264164459E+04  0.00000000000E+00 0.  1.
         25    1    1    2    0    0  0.20940046475E+03  0.28813374287E+03 -0.10175744516E+04  0.10853351432E+04  0.12500000000E+03 0.  0.
         25    1    1    2    0    0 -0.31137337673E+03 -0.17435737746E+03 -0.20738133363E+03  0.43126081708E+03  0.12500000000E+03 0.  0.
         25    1    1    2    0    0  0.10197291197E+03 -0.11377636541E+03 -0.32824737130E+03  0.38303377510E+03  0.12500000000E+03 0.  0.
</event>
<event>
 5    0  0.5503691E-005  0.5544478E+03  0.7546771E-02  0.1000470E+00
         21   -1    0    0  502  501  0.00000000000E+00  0.00000000000E+00  0.46471551904E+03  0.46471551904E+03  0.00000000000E+00 0. -1.
         21   -1    0    0  501  502 -0.00000000000E+00 -0.00000000000E+00 -0.66150666532E+03  0.66150666532E+03  0.00000000000E+00 0. -1.
         25    1    1    2    0    0 -0.21981896517E+03  0.36624702631E+03 -0.25592000092E+03  0.51339780736E+03  0.12500000000E+03 0.  0.
         25    1    1    2    0    0  0.10693191708E+03 -0.40203773061E+03  0.71312719194E+02  0.44020367518E+03  0.12500000000E+03 0.  0.
         25    1    1    2    0    0  0.11288704809E+03  0.35790704294E+02 -0.12183864558E+02  0.17262070182E+03  0.12500000000E+03 0.  0.
</event>
<event>
 5    0  0.5503691E-005  0.3605242E+03  0.7546771E-02  0.1058376E+00
         21   -1    0    0  502  501  0.00000000000E+00  0.00000000000E+00  0.27081937489E+03  0.27081937489E+03  0.00000000000E+00 0. -1.
         21   -1    0    0  501  502 -0.00000000000E+00 -0.00000000000E+00 -0.47994249998E+03  0.47994249998E+03  0.00000000000E+00 0. -1.
         25    1    1    2    0    0  0.10767787210E+03 -0.41214271727E+02 -0.30556144769E+03  0.34969406436E+03  0.12500000000E+03 0.  0.
         25    1    1    2    0    0  0.14203670468E+01 -0.19277031259E+02  0.16819596407E+03  0.21044833976E+03  0.12500000000E+03 0.  0.
         25    1    1    2    0    0 -0.10909823914E+03  0.60491302986E+02 -0.71757641463E+02  0.19061947075E+03  0.12500000000E+03 0.  0.
</event>
<event>
 5    0  0.5503691E-005  0.2678299E+03  0.7546771E-02  0.1102528E+00
         21   -1    0    0  502  501  0.00000000000E+00  0.00000000000E+00  0.76356690864E+02  0.76356690864E+02  0.00000000000E+00 0.  1.
         21   -1    0    0  501  502 -0.00000000000E+00 -0.00000000000E+00 -0.93944460165E+03  0.93944460165E+03  0.00000000000E+00 0.  1.
         25    1    1    2    0    0 -0.55455242548E+02  0.98272061263E+02 -0.40842499077E+03  0.44177896627E+03  0.12500000000E+03 0.  0.
         25    1    1    2    0    0 -0.27117365923E+02 -0.11317061358E+03 -0.35363688811E+03  0.39271744034E+03  0.12500000000E+03 0.  0.
         25    1    1    2    0    0  0.82572608471E+02  0.14898552321E+02 -0.10102603190E+03  0.18130488590E+03  0.12500000000E+03 0.  0.
</event>
<event>
 5    0  0.5503691E-005  0.2719029E+03  0.7546771E-02  0.1100195E+00
         21   -1    0    0  502  501  0.00000000000E+00  0.00000000000E+00  0.11143966777E+04  0.11143966777E+04  0.00000000000E+00 0. -1.
         21   -1    0    0  501  502 -0.00000000000E+00 -0.00000000000E+00 -0.66341872131E+02  0.66341872131E+02  0.00000000000E+00 0. -1.
         25    1    1    2    0    0 -0.51253611648E+02  0.62257888061E+02  0.46227444328E+03  0.48561881990E+03  0.12500000000E+03 0.  0.
         25    1    1    2    0    0 -0.10077410928E+03 -0.29098032647E+02  0.35023350265E+03  0.38638144751E+03  0.12500000000E+03 0.  0.
         25    1    1    2    0    0  0.15202772093E+03 -0.33159855414E+02  0.23554685963E+03  0.30873828240E+03  0.12500000000E+03 0.  0.
</event>
<event>
 5    0  0.5503691E-005  0.4042234E+03  0.7546771E-02  0.1042327E+00
         21   -1    0    0  502  501  0.00000000000E+00  0.00000000000E+00  0.14865920288E+03  0.14865920288E+03  0.00000000000E+00 0.  1.
         21   -1    0    0  501  502 -0.00000000000E+00 -0.00000000000E+00 -0.10991349822E+04  0.10991349822E+04  0.00000000000E+00 0.  1.
         25    1    1    2    0    0  0.16901262234E+03  0.20686472537E+03 -0.30539947506E+03  0.42456109157E+03  0.12500000000E+03 0.  0.
         25    1    1    2    0    0  0.60995685093E+02 -0.33078028670E+02 -0.52125468495E+02  0.15217323696E+03  0.12500000000E+03 0.  0.
         25    1    1    2    0    0 -0.23000830743E+03 -0.17378669670E+03 -0.59295083576E+03  0.67105985654E+03  0.12500000000E+03 0.  0.
</event>
<event>
 5    0  0.5503691E-005  0.2603471E+03  0.7546771E-02  0.1106935E+00
         21   -1    0    0  502  501  0.00000000000E+00  0.00000000000E+00  0.49350313229E+03  0.49350313229E+03  0.00000000000E+00 0. -1.
         21   -1    0    0  501  502 -0.00000000000E+00 -0.00000000000E+00 -0.13734587356E+03  0.13734587356E+03  0.00000000000E+00 0. -1.
         25    1    1    2    0    0  0.10255971012E+03  0.11131867821E+03  0.73025541119E+02  0.20944706232E+03  0.12500000000E+03 0.  0.
         25    1    1    2    0    0 -0.45268325228E+02 -0.67695633204E+02  0.71896873394E+02  0.16560821365E+03  0.12500000000E+03 0.  0.
         25    1    1    2    0    0 -0.57291384894E+02 -0.43623045001E+02  0.21123484422E+03  0.25579372989E+03  0.12500000000E+03 0.  0.
</event>
<event>
 5    0  0.5503691E-005  0.2728110E+03  0.7546771E-02  0.1099681E+00
         21   -1    0    0  502  501  0.00000000000E+00  0.00000000000E+00  0.10566808402E+03  0.10566808402E+03  0.00000000000E+00 0. -1.
         21   -1    0    0  501  502 -0.00000000000E+00 -0.00000000000E+00 -0.70433618811E+03  0.70433618811E+03  0.00000000000E+00 0. -1.
         25    1    1    2    0    0  0.32912135326E+02  0.57759083786E+02 -0.23737968132E+03  0.27639362061E+03  0.12500000000E+03 0.  0.
         25    1    1    2    0    0 -0.51105160273E+02 -0.10114817662E+03 -0.23470566452E+02  0.17034834466E+03  0.12500000000E+03 0.  0.
         25    1    1    2    0    0  0.18193024947E+02  0.43389092831E+02 -0.33781785631E+03  0.36326230685E+03  0.12500000000E+03 0.  0.
</event>
<event>
 5    0  0.5503691E-005  0.2629282E+03  0.7546771E-02  0.1105397E+00
         21   -1    0    0  502  501  0.00000000000E+00  0.00000000000E+00  0.11025736876E+03  0.11025736876E+03  0.00000000000E+00 0. -1.
         21   -1    0    0  501  502 -0.00000000000E+00 -0.00000000000E+00 -0.62699889512E+03  0.62699889512E+03  0.00000000000E+00 0. -1.
         25    1    1    2    0    0 -0.14543117592E+03  0.21992851867E+02 -0.12814552429E+03  0.23168985273E+03  0.12500000000E+03 0.  0.
         25    1    1    2    0    0  0.80615064419E+02  0.27339573634E+02 -0.28900789977E+03  0.32618523423E+03  0.12500000000E+03 0.  0.
         25    1    1    2    0    0  0.64816111497E+02 -0.49332425500E+02 -0.99588102296E+02  0.17938117692E+03  0.12500000000E+03 0.  0.
</event>
<event>
 5    0  0.5503691E-005  0.2907506E+03  0.7546771E-02  0.1089958E+00
         21   -1    0    0  502  501  0.00000000000E+00  0.00000000000E+00  0.29996607464E+03  0.29996607464E+03  0.00000000000E+00 0.  1.
         21   -1    0    0  501  502 -0.00000000000E+00 -0.00000000000E+00 -0.28181829488E+03  0.28181829488E+03  0.00000000000E+00 0.  1.
         25    1    1    2    0    0  0.87737615992E+02  0.57450416813E+02  0.89302801178E+02  0.18600653201E+03  0.12500000000E+03 0.  0.
         25    1    1    2    0    0  0.11827955319E+02 -0.90800625579E+02  0.79041155775E+02  0.17394584916E+03  0.12500000000E+03 0.  0.
         25    1    1    2    0    0 -0.99565571311E+02  0.33350208766E+02 -0.15019617719E+03  0.22183198836E+03  0.12500000000E+03 0.  0.
</event>
<event>
 5    0  0.5503691E-005  0.3775277E+03  0.7546771E-02  0.1051851E+00
         21   -1    0    0  502  501  0.00000000000E+00  0.00000000000E+00  0.17611392223E+03  0.17611392223E+03  0.00000000000E+00 0. -1.
         21   -1    0    0  501  502 -0.00000000000E+00 -0.00000000000E+00 -0.80928939021E+03  0.80928939021E+03  0.00000000000E+00 0. -1.
         25    1    1    2    0    0  0.14745138772E+03  0.44790331965E+02 -0.36891734617E+03  0.41889508697E+03  0.12500000000E+03 0.  0.
         25    1    1    2    0    0 -0.26436028042E+03  0.61084312573E+02 -0.17627207082E+03  0.34686379756E+03  0.12500000000E+03 0.  0.
         25    1    1    2    0    0  0.11690889270E+03 -0.10587464454E+03 -0.87986050981E+02  0.21964442792E+03  0.12500000000E+03 0.  0.
</event>
<event>
 5    0  0.5503691E-005  0.2631485E+03  0.7546771E-02  0.1105266E+00
         21   -1    0    0  502  501  0.00000000000E+00  0.00000000000E+00  0.12331115480E+03  0.12331115480E+03  0.00000000000E+00 0. -1.
         21   -1    0    0  501  502 -0.00000000000E+00 -0.00000000000E+00 -0.56156443131E+03  0.56156443131E+03  0.00000000000E+00 0. -1.
         25    1    1    2    0    0  0.10770646806E+03  0.10576834969E+03 -0.15705507303E+03  0.25115517718E+03  0.12500000000E+03 0.  0.
         25    1    1    2    0    0 -0.61157311878E+02 -0.53856633323E+02 -0.24370700931E+03  0.28576014441E+03  0.12500000000E+03 0.  0.
         25    1    1    2    0    0 -0.46549156180E+02 -0.51911716369E+02 -0.37491194169E+02  0.14796026452E+03  0.12500000000E+03 0.  0.
</event>
<event>
 5    0  0.5981323E-005  0.2570174E+03  0.7546771E-02  0.1108949E+00
         21   -1    0    0  502  501  0.00000000000E+00  0.00000000000E+00  0.41195172204E+03  0.41195172204E+03  0.00000000000E+00 0.  1.
         21   -1    0    0  501  502 -0.00000000000E+00 -0.00000000000E+00 -0.16035359144E+03  0.16035359144E+03  0.00000000000E+00 0.  1.
         25    1    1    2    0    0  0.43110323933E+02  0.15282030658E+02  0.17305787352E+03  0.21832560106E+03  0.12500000000E+03 0.  0.
         25    1    1    2    0    0 -0.11301717115E+03  0.30891790400E+02 -0.22397373968E+02  0.17278259765E+03  0.12500000000E+03 0.  0.
         25    1    1    2    0    0  0.69906847220E+02 -0.46173821057E+02  0.10093763106E+03  0.18119711477E+03  0.12500000000E+03 0.  0.
</event>
<event>
 5    0  0.5893060E-005  0.2860781E+03  0.7546771E-02  0.1092415E+00
         21   -1    0    0  502  501  0.00000000000E+00  0.00000000000E+00  0.15370216745E+03  0.15370216745E+03  0.00000000000E+00 0.  1.
         21   -1    0    0  501  502 -0.00000000000E+00 -0.00000000000E+00 -0.53246262881E+03  0.53246262881E+03  0.00000000000E+00 0.  1.
         25    1    1    2    0    0  0.70514509488E+01  0.10414145207E+03 -0.89807721199E+01  0.16309757591E+03  0.12500000000E+03 0.  0.
         25    1    1    2    0    0  0.58257913639E+02 -0.15753306274E+03 -0.27236666217E+03  0.34353929763E+03  0.12500000000E+03 0.  0.
         25    1    1    2    0    0 -0.65309364588E+02  0.53391610663E+02 -0.97413027077E+02  0.17952792272E+03  0.12500000000E+03 0.  0.
</event>
<event>
 5    0  0.5503691E-005  0.2884805E+03  0.7546771E-02  0.1091145E+00
         21   -1    0    0  502  501  0.00000000000E+00  0.00000000000E+00  0.12813859640E+04  0.12813859640E+04  0.00000000000E+00 0.  1.
         21   -1    0    0  501  502 -0.00000000000E+00 -0.00000000000E+00 -0.64946062091E+02  0.64946062091E+02  0.00000000000E+00 0.  1.
         25    1    1    2    0    0  0.53207467847E+02 -0.78842388599E+02  0.48909993044E+03  0.51370312325E+03  0.12500000000E+03 0.  0.
         25    1    1    2    0    0  0.82413045642E+02  0.13333079216E+03  0.26831316647E+03  0.33494173453E+03  0.12500000000E+03 0.  0.
         25    1    1    2    0    0 -0.13562051349E+03 -0.54488403558E+02  0.45902680503E+03  0.49768716834E+03  0.12500000000E+03 0.  0.
</event>
<event>
 5    0  0.5503691E-005  0.4689164E+03  0.7546771E-02  0.1022226E+00
         21   -1    0    0  502  501  0.00000000000E+00  0.00000000000E+00  0.16415786792E+04  0.16415786792E+04  0.00000000000E+00 0.  1.
         21   -1    0    0  501  502 -0.00000000000E+00 -0.00000000000E+00 -0.13394581488E+03  0.13394581488E+03  0.00000000000E+00 0.  1.
         25    1    1    2    0    0  0.16398166530E+03 -0.36827515760E+03  0.57995310628E+03  0.71727761971E+03  0.12500000000E+03 0.  0.
         25    1    1    2    0    0 -0.15351252447E+03  0.13151787191E+03  0.49921498281E+03  0.55290473399E+03  0.12500000000E+03 0.  0.
         25    1    1    2    0    0 -0.10469140822E+02  0.23675728569E+03  0.42846477527E+03  0.50534214042E+03  0.12500000000E+03 0.  0.
</event>
<event>
 5    0  0.5503691E-005  0.5008086E+03  0.7546771E-02  0.1013568E+00
         21   -1    0    0  502  501  0.00000000000E+00  0.00000000000E+00  0.23554782147E+03  0.23554782147E+03  0.00000000000E+00 0.  1.
         21   -1    0    0  501  502 -0.00000000000E+00 -0.00000000000E+00 -0.10647913890E+04  0.10647913890E+04  0.00000000000E+00 0.  1.
         25    1    1    2    0    0  0.93320105356E+02 -0.66839901752E+02 -0.57387428573E+02  0.17914946689E+03  0.12500000000E+03 0.  0.
         25    1    1    2    0    0 -0.34245347643E+02 -0.14824724563E+03  0.94122439214E+02  0.21825220099E+03  0.12500000000E+03 0.  0.
         25    1    1    2    0    0 -0.59074757713E+02  0.21508714738E+03 -0.86597857820E+03  0.90293754262E+03  0.12500000000E+03 0.  0.
</event>
<event>
 5    0  0.5503691E-005  0.3705358E+03  0.7546771E-02  0.1054488E+00
         21   -1    0    0  502  501  0.00000000000E+00  0.00000000000E+00  0.11985081156E+04  0.11985081156E+04  0.00000000000E+00 0. -1.
         21   -1    0    0  501  502 -0.00000000000E+00 -0.00000000000E+00 -0.11455638611E+03  0.11455638611E+03  0.00000000000E+00 0. -1.
         25    1    1    2    0    0 -0.12312494722E+03  0.51485322726E+02  0.69214796824E+03  0.71589405712E+03  0.12500000000E+03 0.  0.
         25    1    1    2    0    0  0.66879903374E+02  0.31513485972E+02  0.41088660852E+03  0.43579677182E+03  0.12500000000E+03 0.  0.
         25    1    1    2    0    0  0.56245043843E+02 -0.82998808698E+02 -0.19082847260E+02  0.16137367277E+03  0.12500000000E+03 0.  0.
</event>
<event>
 5    0  0.5503691E-005  0.8936170E+03  0.7546771E-02  0.9433596E-01
         21   -1    0    0  502  501  0.00000000000E+00  0.00000000000E+00  0.13509478484E+04  0.13509478484E+04  0.00000000000E+00 0.  1.
         21   -1    0    0  501  502 -0.00000000000E+00 -0.00000000000E+00 -0.59110450772E+03  0.59110450772E+03  0.00000000000E+00 0.  1.
         25    1    1    2    0    0 -0.15491509478E+03  0.35867024190E+02 -0.71302174783E+02  0.21446242129E+03  0.12500000000E+03 0.  0.
         25    1    1    2    0    0 -0.21346052645E+03  0.43455752459E+03  0.97918098920E+03  0.10994662560E+04  0.12500000000E+03 0.  0.
         25    1    1    2    0    0  0.36837562123E+03 -0.47042454878E+03 -0.14803547373E+03  0.62812367882E+03  0.12500000000E+03 0.  0.
</event>
<event>
 5    0  0.5503691E-005  0.3396019E+03  0.7546771E-02  0.1066966E+00
         21   -1    0    0  502  501  0.00000000000E+00  0.00000000000E+00  0.12104421067E+03  0.12104421067E+03  0.00000000000E+00 0.  1.
         21   -1    0    0  501  502 -0.00000000000E+00 -0.00000000000E+00 -0.95278757872E+03  0.95278757872E+03  0.00000000000E+00 0.  1.
         25    1    1    2    0    0 -0.11479390915E+03  0.50088931114E+02 -0.13726612112E+03  0.22394983948E+03  0.12500000000E+03 0.  0.
         25    1    1    2    0    0  0.92597250527E+02 -0.13386809387E+03 -0.85727589681E+02  0.22241658435E+03  0.12500000000E+03 0.  0.
         25    1    1    2    0    0  0.22196658620E+02  0.83779162754E+02 -0.60874965726E+03  0.62746536556E+03  0.12500000000E+03 0.  0.
</event>
<event>
 5    0  0.5503691E-005  0.2119237E+03  0.7546771E-02  0.1140052E+00
         21   -1    0    0  502  501  0.00000000000E+00  0.00000000000E+00  0.45585612589E+03  0.45585612589E+03  0.00000000000E+00 0. -1.
         21   -1    0    0  501  502 -0.00000000000E+00 -0.00000000000E+00 -0.98521521340E+02  0.98521521340E+02  0.00000000000E+00 0. -1.
         25    1    1    2    0    0  0.49740727897E+02  0.59310678319E+02  0.11094392563E+03  0.18418862942E+03  0.12500000000E+03 0.  0.
         25    1    1    2    0    0 -0.67962908332E+02 -0.33798422234E+02  0.14788556002E+03  0.20798179996E+03  0.12500000000E+03 0.  0.
         25    1    1    2    0    0  0.18222180435E+02 -0.25512256085E+02  0.98505118903E+02  0.16220721784E+03  0.12500000000E+03 0.  0.
</event>
<event>
 5    0  0.5503691E-005  0.3170652E+03  0.7546771E-02  0.1077008E+00
         21   -1    0    0  502  501  0.00000000000E+00  0.00000000000E+00  0.94066634373E+03  0.94066634373E+03  0.00000000000E+00 0.  1.
         21   -1    0    0  501  502 -0.00000000000E+00 -0.00000000000E+00 -0.10687144584E+03  0.10687144584E+03  0.00000000000E+00 0.  1.
         25    1    1    2    0    0 -0.12998806044E+03 -0.98637336638E+02  0.10159410827E+03  0.22928711885E+03  0.12500000000E+03 0.  0.
         25    1    1    2    0    0 -0.34198355114E+02 -0.11113013270E+02  0.29775618960E+03  0.32492579922E+03  0.12500000000E+03 0.  0.
         25    1    1    2    0    0  0.16418641555E+03  0.10975034991E+03  0.43444460001E+03  0.49332487149E+03  0.12500000000E+03 0.  0.
</event>
<event>
 5    0  0.5503691E-005  0.3921273E+03  0.7546771E-02  0.1046540E+00
         21   -1    0    0  502  501  0.00000000000E+00  0.00000000000E+00  0.16613188845E+04  0.16613188845E+04  0.00000000000E+00 0. -1.
         21   -1    0    0  501  502 -0.00000000000E+00 -0.00000000000E+00 -0.92555287140E+02  0.92555287140E+02  0.00000000000E+00 0. -1.
         25    1    1    2    0    0  0.97600787404E+02 -0.12248574219E+03  0.68849425993E+03  0.71706207312E+03  0.12500000000E+03 0.  0.
         25    1    1    2    0    0  0.80588455002E+02 -0.11139419442E+03  0.14690154671E+03  0.23687175867E+03  0.12500000000E+03 0.  0.
         25    1    1    2    0    0 -0.17818924241E+03  0.23387993662E+03  0.73336779075E+03  0.79994033988E+03  0.12500000000E+03 0.  0.
</event>
<event>
 5    0  0.5503691E-005  0.4093085E+03  0.7546771E-02  0.1040603E+00
         21   -1    0    0  502  501  0.00000000000E+00  0.00000000000E+00  0.33185132665E+03  0.33185132665E+03  0.00000000000E+00 0.  1.
         21   -1    0    0  501  502 -0.00000000000E+00 -0.00000000000E+00 -0.50484481220E+03  0.50484481220E+03  0.00000000000E+00 0.  1.
         25    1    1    2    0    0 -0.30086741940E+03 -0.72645548607E+01 -0.26429952138E+03  0.41958695739E+03  0.12500000000E+03 0.  0.
         25    1    1    2    0    0  0.12588526130E+03  0.47587859656E+02  0.72658021771E+02  0.19752440742E+03  0.12500000000E+03 0.  0.
         25    1    1    2    0    0  0.17498215809E+03 -0.40323304795E+02  0.18648014056E+02  0.21958477404E+03  0.12500000000E+03 0.  0.
</event>
<event>
 5    0  0.5503691E-005  0.3683311E+03  0.7546771E-02  0.1055333E+00
         21   -1    0    0  502  501  0.00000000000E+00  0.00000000000E+00  0.13080409024E+04  0.13080409024E+04  0.00000000000E+00 0.  1.
         21   -1    0    0  501  502 -0.00000000000E+00 -0.00000000000E+00 -0.10371831437E+03  0.10371831437E+03  0.00000000000E+00 0.  1.
         25    1    1    2    0    0  0.99942004813E+02  0.13404037823E+03  0.23368798404E+03  0.31335331689E+03  0.12500000000E+03 0.  0.
         25    1    1    2    0    0 -0.10068903933E+03 -0.23095746460E+03  0.86146947258E+03  0.90621977758E+03  0.12500000000E+03 0.  0.
         25    1    1    2    0    0  0.74703451396E+00  0.96917086363E+02  0.10916513141E+03  0.19218612230E+03  0.12500000000E+03 0.  0.
</event>
<event>
 5    0  0.5503691E-005  0.2654769E+03  0.7546771E-02  0.1103897E+00
         21   -1    0    0  502  501  0.00000000000E+00  0.00000000000E+00  0.22462122764E+03  0.22462122764E+03  0.00000000000E+00 0. -1.
         21   -1    0    0  501  502 -0.00000000000E+00 -0.00000000000E+00 -0.31376361039E+03  0.31376361039E+03  0.00000000000E+00 0. -1.
         25    1    1    2    0    0 -0.81570078919E+01 -0.42823607644E+02  0.33538698505E+01  0.13242600422E+03  0.12500000000E+03 0.  0.
         25    1    1    2    0    0  0.60298867700E+02 -0.33595685842E+02  0.87983654089E+02  0.16772223150E+03  0.12500000000E+03 0.  0.
         25    1    1    2    0    0 -0.52141859809E+02  0.76419293486E+02 -0.18047990669E+03  0.23823660231E+03  0.12500000000E+03 0.  0.
</event>
<event>
 5    0  0.5503691E-005  0.2863640E+03  0.7546771E-02  0.1092263E+00
         21   -1    0    0  502  501  0.00000000000E+00  0.00000000000E+00  0.25599993542E+03  0.25599993542E+03  0.00000000000E+00 0. -1.
         21   -1    0    0  501  502 -0.00000000000E+00 -0.00000000000E+00 -0.32032954399E+03  0.32032954399E+03  0.00000000000E+00 0. -1.
         25    1    1    2    0    0  0.22475948464E+02  0.14575688444E+03 -0.12782284571E+03  0.23176263182E+03  0.12500000000E+03 0.  0.
         25    1    1    2    0    0  0.15521741135E+02 -0.15530374008E+03  0.22841573235E+01  0.19997598232E+03  0.12500000000E+03 0.  0.
         25    1    1    2    0    0 -0.37997689600E+02  0.95468556393E+01  0.61209079814E+02  0.14459086527E+03  0.12500000000E+03 0.  0.
</event>
<event>
 5    0  0.5503691E-005  0.2773802E+03  0.7546771E-02  0.1097128E+00
         21   -1    0    0  502  501  0.00000000000E+00  0.00000000000E+00  0.91370666166E+02  0.91370666166E+02  0.00000000000E+00 0.  1.
         21   -1    0    0  501  502 -0.00000000000E+00 -0.00000000000E+00 -0.84206194005E+03  0.84206194005E+03  0.00000000000E+00 0.  1.
         25    1    1    2    0    0 -0.30456512853E+02 -0.23835986128E+02 -0.34566037586E+03  0.36959687343E+03  0.12500000000E+03 0.  0.
         25    1    1    2    0    0  0.14716833877E+03  0.76927647726E+02 -0.26337923628E+03  0.33551453772E+03  0.12500000000E+03 0.  0.
         25    1    1    2    0    0 -0.11671182592E+03 -0.53091661598E+02 -0.14165166175E+03  0.22832119507E+03  0.12500000000E+03 0.  0.
</event>
<event>
 5    0  0.5503691E-005  0.2846451E+03  0.7546771E-02  0.1093179E+00
         21   -1    0    0  502  501  0.00000000000E+00  0.00000000000E+00  0.37717415613E+03  0.37717415613E+03  0.00000000000E+00 0.  1.
         21   -1    0    0  501  502 -0.00000000000E+00 -0.00000000000E+00 -0.21481550690E+03  0.21481550690E+03  0.00000000000E+00 0.  1.
         25    1    1    2    0    0  0.15656137292E+03 -0.90201908032E+02  0.59541539014E+02  0.22763576734E+03  0.12500000000E+03 0.  0.
         25    1    1    2    0    0 -0.22419788067E+02 -0.21460265808E+02  0.71766456908E+02  0.14744020565E+03  0.12500000000E+03 0.  0.
         25    1    1    2    0    0 -0.13414158486E+03  0.11166217384E+03  0.31050653313E+02  0.21691369004E+03  0.12500000000E+03 0.  0.
</event>
<event>
 5    0  0.5503691E-005  0.2490777E+03  0.7546771E-02  0.1113889E+00
         21   -1    0    0  502  501  0.00000000000E+00  0.00000000000E+00  0.31713939327E+03  0.31713939327E+03  0.00000000000E+00 0. -1.
         21   -1    0    0  501  502 -0.00000000000E+00 -0.00000000000E+00 -0.19562279987E+03  0.19562279987E+03  0.00000000000E+00 0. -1.
         25    1    1    2    0    0  0.90300951934E+02 -0.10740055537E+03  0.15029873963E+02  0.18852065755E+03  0.12500000000E+03 0.  0.
         25    1    1    2    0    0 -0.43415416274E+02  0.96738431036E+01  0.84587285412E+02  0.15734830938E+03  0.12500000000E+03 0.  0.
         25    1    1    2    0    0 -0.46885535660E+02  0.97726712264E+02  0.21899434022E+02  0.16689322621E+03  0.12500000000E+03 0.  0.
</event>
<event>
 5    0  0.5503691E-005  0.2898130E+03  0.7546771E-02  0.1090447E+00
         21   -1    0    0  502  501  0.00000000000E+00  0.00000000000E+00  0.17935003612E+03  0.17935003612E+03  0.00000000000E+00 0. -1.
         21   -1    0    0  501  502 -0.00000000000E+00 -0.00000000000E+00 -0.46831084811E+03  0.46831084811E+03  0.00000000000E+00 0. -1.
         25    1    1    2    0    0 -0.55060850153E+02  0.16067342345E+03 -0.13403675459E+03  0.24987696533E+03  0.12500000000E+03 0.  0.
         25    1    1    2    0    0  0.12927969365E+03 -0.79991565745E+02 -0.57337562263E+02  0.20499874591E+03  0.12500000000E+03 0.  0.
         25    1    1    2    0    0 -0.74218843494E+02 -0.80681857702E+02 -0.97586495130E+02  0.19278517299E+03  0.12500000000E+03 0.  0.
</event>
<event>
 5    0  0.5503691E-005  0.3646139E+03  0.7546771E-02  0.1056772E+00
         21   -1    0    0  502  501  0.00000000000E+00  0.00000000000E+00  0.76774351201E+03  0.76774351201E+03  0.00000000000E+00 0. -1.
         21   -1    0    0  501  502 -0.00000000000E+00 -0.00000000000E+00 -0.17316107852E+03  0.17316107852E+03  0.00000000000E+00 0. -1.
         25    1    1    2    0    0  0.74035744399E+02 -0.26730859194E+03  0.41809652981E+03  0.51707338261E+03  0.12500000000E+03 0.  0.
         25    1    1    2    0    0 -0.15327645699E+02  0.89135472557E+02  0.10763868579E+03  0.18812537274E+03  0.12500000000E+03 0.  0.
         25    1    1    2    0    0 -0.58708098700E+02  0.17817311938E+03  0.68847217904E+02  0.23570583518E+03  0.12500000000E+03 0.  0.
</event>
<event>
 5    0  0.5857309E-005  0.3305193E+03  0.7546771E-02  0.1070907E+00
         21   -1    0    0  502  501  0.00000000000E+00  0.00000000000E+00  0.75697512017E+03  0.75697512017E+03  0.00000000000E+00 0. -1.
         21   -1    0    0  501  502 -0.00000000000E+00 -0.00000000000E+00 -0.14431518541E+03  0.14431518541E+03  0.00000000000E+00 0. -1.
         25    1    1    2    0    0 -0.77849135455E+02  0.75957097388E+01  0.54749805132E+03  0.56700731820E+03  0.12500000000E+03 0.  0.
         25    1    1    2    0    0  0.11291454653E+03 -0.16687337207E+02  0.10375226114E+03  0.19853889728E+03  0.12500000000E+03 0.  0.
         25    1    1    2    0    0 -0.35065411079E+02  0.90916274679E+01 -0.38590377695E+02  0.13574409009E+03  0.12500000000E+03 0.  0.
</event>
<event>
 5    0  0.5503691E-005  0.2350753E+03  0.7546771E-02  0.1123118E+00
         21   -1    0    0  502  501  0.00000000000E+00  0.00000000000E+00  0.33945837504E+03  0.33945837504E+03  0.00000000000E+00 0.  1.
         21   -1    0    0  501  502 -0.00000000000E+00 -0.00000000000E+00 -0.16278992517E+03  0.16278992517E+03  0.00000000000E+00 0.  1.
         25    1    1    2    0    0 -0.21569137030E+02 -0.62443745445E+02 -0.43618014060E+02  0.14795938689E+03  0.12500000000E+03 0.  0.
         25    1    1    2    0    0  0.40765407782E+02 -0.19060028251E+01  0.75793404248E+02  0.15177315786E+03  0.12500000000E+03 0.  0.
         25    1    1    2    0    0 -0.19196270752E+02  0.64349748270E+02  0.14449305969E+03  0.20251575547E+03  0.12500000000E+03 0.  0.
</event>
<event>
 5    0  0.5503691E-005  0.2555835E+03  0.7546771E-02  0.1109826E+00
         21   -1    0    0  502  501  0.00000000000E+00  0.00000000000E+00  0.35323619876E+03  0.35323619876E+03  0.00000000000E+00 0. -1.
         21   -1    0    0  501  502 -0.00000000000E+00 -0.00000000000E+00 -0.18492698585E+03  0.18492698585E+03  0.00000000000E+00 0. -1.
         25    1    1    2    0    0 -0.47629437811E+02 -0.54699011860E+02  0.99201626570E+01  0.14485839593E+03  0.12500000000E+03 0.  0.
         25    1    1    2    0    0  0.11701862777E+02  0.13215038462E+03  0.11919999969E+02  0.18266839942E+03  0.12500000000E+03 0.  0.
         25    1    1    2    0    0  0.35927575033E+02 -0.77451372758E+02  0.14646905029E+03  0.21063638926E+03  0.12500000000E+03 0.  0.
</event>
<event>
 5    0  0.5503691E-005  0.3085655E+03  0.7546771E-02  0.1081035E+00
         21   -1    0    0  502  501  0.00000000000E+00  0.00000000000E+00  0.10238200314E+03  0.10238200314E+03  0.00000000000E+00 0. -1.
         21   -1    0    0  501  502 -0.00000000000E+00 -0.00000000000E+00 -0.92997480118E+03  0.92997480118E+03  0.00000000000E+00 0. -1.
         25    1    1    2    0    0  0.15522643070E+03 -0.64054325641E+02 -0.25864570833E+03  0.33274735740E+03  0.12500000000E+03 0.  0.
         25    1    1    2    0    0 -0.17081906274E+03  0.10812925785E+03 -0.48985605638E+03  0.54447685402E+03  0.12500000000E+03 0.  0.
         25    1    1    2    0    0  0.15592632050E+02 -0.44074932207E+02 -0.79091033339E+02  0.15513259289E+03  0.12500000000E+03 0.  0.
</event>
<event>
 5    0  0.5503691E-005  0.4579630E+03  0.7546771E-02  0.1025374E+00
         21   -1    0    0  502  501  0.00000000000E+00  0.00000000000E+00  0.10663426486E+04  0.10663426486E+04  0.00000000000E+00 0. -1.
         21   -1    0    0  501  502 -0.00000000000E+00 -0.00000000000E+00 -0.19668171818E+03  0.19668171818E+03  0.00000000000E+00 0. -1.
         25    1    1    2    0    0 -0.14495788069E+03  0.13464846968E+02  0.93812590455E+02  0.21358813498E+03  0.12500000000E+03 0.  0.
         25    1    1    2    0    0  0.32101865715E+03 -0.61672074660E+02  0.74880250401E+03  0.82655103475E+03  0.12500000000E+03 0.  0.
         25    1    1    2    0    0 -0.17606077646E+03  0.48207227692E+02  0.27045835933E+02  0.22288519702E+03  0.12500000000E+03 0.  0.
</event>
<event>
 5    0  0.5503691E-005  0.3099725E+03  0.7546771E-02  0.1080359E+00
         21   -1    0    0  502  501  0.00000000000E+00  0.00000000000E+00  0.30340088246E+03  0.30340088246E+03  0.00000000000E+00 0.  1.
         21   -1    0    0  501  502 -0.00000000000E+00 -0.00000000000E+00 -0.31668645123E+03  0.31668645123E+03  0.00000000000E+00 0.  1.
         25    1    1    2    0    0  0.16537337347E+03 -0.99295192603E+02 -0.12161273162E+03  0.26004335104E+03  0.12500000000E+03 0.  0.
         25    1    1    2    0    0 -0.12284198347E+03  0.11251178185E+03  0.45276534322E+02  0.21312911232E+03  0.12500000000E+03 0.  0.
         25    1    1    2    0    0 -0.42531390008E+02 -0.13216589244E+02  0.63050628526E+02  0.14691487033E+03  0.12500000000E+03 0.  0.
</event>
<event>
 5    0  0.5628438E-005  0.3036794E+03  0.7546771E-02  0.1083416E+00
         21   -1    0    0  502  501  0.00000000000E+00  0.00000000000E+00  0.36319187604E+03  0.36319187604E+03  0.00000000000E+00 0.  1.
         21   -1    0    0  501  502 -0.00000000000E+00 -0.00000000000E+00 -0.25391857434E+03  0.25391857434E+03  0.00000000000E+00 0.  1.
         25    1    1    2    0    0  0.30078062765E+02 -0.14380048944E+03 -0.41147137092E+02  0.19723427064E+03  0.12500000000E+03 0.  0.
         25    1    1    2    0    0 -0.12538340462E+03  0.34190139584E+02  0.68860488281E+01  0.18045049589E+03  0.12500000000E+03 0.  0.
         25    1    1    2    0    0  0.95305341858E+02  0.10961034986E+03  0.14353438996E+03  0.23942568384E+03  0.12500000000E+03 0.  0.
</event>
<event>
 5    0  0.5503691E-005  0.2540289E+03  0.7546771E-02  0.1110785E+00
         21   -1    0    0  502  501  0.00000000000E+00  0.00000000000E+00  0.61236152654E+03  0.61236152654E+03  0.00000000000E+00 0. -1.
         21   -1    0    0  501  502 -0.00000000000E+00 -0.00000000000E+00 -0.10538004772E+03  0.10538004772E+03  0.00000000000E+00 0. -1.
         25    1    1    2    0    0  0.71635028512E+02  0.28966080790E+02  0.13708044965E+03  0.20096432724E+03  0.12500000000E+03 0.  0.
         25    1    1    2    0    0 -0.10930744174E+03  0.53126267456E+02  0.87635067954E+02  0.19512924499E+03  0.12500000000E+03 0.  0.
         25    1    1    2    0    0  0.37672413226E+02 -0.82092348246E+02  0.28226596121E+03  0.32164800204E+03  0.12500000000E+03 0.  0.
</event>
<event>
 5    0  0.5503691E-005  0.3416058E+03  0.7546771E-02  0.1066114E+00
         21   -1    0    0  502  501  0.00000000000E+00  0.00000000000E+00  0.47632570902E+03  0.47632570902E+03  0.00000000000E+00 0. -1.
         21   -1    0    0  501  502 -0.00000000000E+00 -0.00000000000E+00 -0.24498886675E+03  0.24498886675E+03  0.00000000000E+00 0. -1.
         25    1    1    2    0    0  0.65238265255E+02 -0.14981250661E+03  0.31045929235E+02  0.20805928990E+03  0.12500000000E+03 0.  0.
         25    1    1    2    0    0  0.10888021549E+03 -0.47952804763E+02  0.12185271158E+03  0.21125211509E+03  0.12500000000E+03 0.  0.
         25    1    1    2    0    0 -0.17411848074E+03  0.19776531138E+03  0.78438201450E+02  0.30200317079E+03  0.12500000000E+03 0.  0.
</event>
<event>
 5    0  0.5503691E-005  0.2731320E+03  0.7546771E-02  0.1099500E+00
         21   -1    0    0  502  501  0.00000000000E+00  0.00000000000E+00  0.98145077224E+03  0.98145077224E+03  0.00000000000E+00 0. -1.
         21   -1    0    0  501  502 -0.00000000000E+00 -0.00000000000E+00 -0.76011048396E+02  0.76011048396E+02  0.00000000000E+00 0. -1.
         25    1    1    2    0    0  0.66348080109E+02  0.79984280326E+02  0.11777084525E+03  0.20073496164E+03  0.12500000000E+03 0.  0.
         25    1    1    2    0    0 -0.63658899667E+02 -0.11953048692E+03  0.60084534563E+03  0.62847444035E+03  0.12500000000E+03 0.  0.
         25    1    1    2    0    0 -0.26891804414E+01  0.39546206597E+02  0.18682353297E+03  0.22825241865E+03  0.12500000000E+03 0.  0.
</event>
<event>
 5    0  0.5503691E-005  0.3361509E+03  0.7546771E-02  0.1068447E+00
         21   -1    0    0  502  501  0.00000000000E+00  0.00000000000E+00  0.16652026303E+03  0.16652026303E+03  0.00000000000E+00 0. -1.
         21   -1    0    0  501  502 -0.00000000000E+00 -0.00000000000E+00 -0.67858059154E+03  0.67858059154E+03  0.00000000000E+00 0. -1.
         25    1    1    2    0    0 -0.17671585774E+03  0.74724634385E+02 -0.42461855633E+03  0.48242945986E+03  0.12500000000E+03 0.  0.
         25    1    1    2    0    0  0.14494970453E+03  0.14315217784E+02 -0.23365812426E+02  0.19335538134E+03  0.12500000000E+03 0.  0.
         25    1    1    2    0    0  0.31766153219E+02 -0.89039852169E+02 -0.64075959762E+02  0.16931601337E+03  0.12500000000E+03 0.  0.
</event>
<event>
 5    0  0.5503691E-005  0.2117059E+03  0.7546771E-02  0.1140222E+00
         21   -1    0    0  502  501  0.00000000000E+00  0.00000000000E+00  0.27292761711E+03  0.27292761711E+03  0.00000000000E+00 0.  1.
         21   -1    0    0  501  502 -0.00000000000E+00 -0.00000000000E+00 -0.16421711522E+03  0.16421711522E+03  0.00000000000E+00 0.  1.
         25    1    1    2    0    0  0.53936922759E+02  0.32652010315E+02  0.99157165773E+02  0.17155899550E+03  0.12500000000E+03 0.  0.
         25    1    1    2    0    0 -0.24800343109E+02  0.11486487421E+02 -0.10504031046E+02  0.12838353119E+03  0.12500000000E+03 0.  0.
         25    1    1    2    0    0 -0.29136579649E+02 -0.44138497735E+02  0.20057367162E+02  0.13720220564E+03  0.12500000000E+03 0.  0.
</event>
<event>
 5    0  0.5503691E-005  0.4224154E+03  0.7546771E-02  0.1036283E+00
         21   -1    0    0  502  501  0.00000000000E+00  0.00000000000E+00  0.18238693469E+03  0.18238693469E+03  0.00000000000E+00 0. -1.
         21   -1    0    0  501  502 -0.00000000000E+00 -0.00000000000E+00 -0.97833084712E+03  0.97833084712E+03  0.00000000000E+00 0. -1.
         25    1    1    2    0    0  0.21229117086E+03 -0.23270757298E+03 -0.40443938772E+03  0.52765194408E+03  0.12500000000E+03 0.  0.
         25    1    1    2    0    0 -0.20686064057E+03  0.32055150857E+02 -0.28107844159E+03  0.37208728498E+03  0.12500000000E+03 0.  0.
         25    1    1    2    0    0 -0.54305302928E+01  0.20065242213E+03 -0.11042608312E+03  0.26097855275E+03  0.12500000000E+03 0.  0.
</event>
<event>
 5    0  0.6410578E-005  0.3410372E+03  0.7546771E-02  0.1066355E+00
         21   -1    0    0  502  501  0.00000000000E+00  0.00000000000E+00  0.78353963903E+03  0.78353963903E+03  0.00000000000E+00 0. -1.
         21   -1    0    0  501  502 -0.00000000000E+00 -0.00000000000E+00 -0.14843712811E+03  0.14843712811E+03  0.00000000000E+00 0. -1.
         25    1    1    2    0    0 -0.10503578146E+03  0.10415205148E+03  0.14128884225E+03  0.23972422105E+03  0.12500000000E+03 0.  0.
         25    1    1    2    0    0  0.14742403876E+03 -0.41390637124E+02  0.22672121045E+02  0.19896245153E+03  0.12500000000E+03 0.  0.
         25    1    1    2    0    0 -0.42388257301E+02 -0.62761414354E+02  0.47114154764E+03  0.49329009457E+03  0.12500000000E+03 0.  0.
</event>
<event>
 5    0  0.5503691E-005  0.2524953E+03  0.7546771E-02  0.1111738E+00
         21   -1    0    0  502  501  0.00000000000E+00  0.00000000000E+00  0.13831750867E+03  0.13831750867E+03  0.00000000000E+00 0. -1.
         21   -1    0    0  501  502 -0.00000000000E+00 -0.00000000000E+00 -0.46092412504E+03  0.46092412504E+03  0.00000000000E+00 0. -1.
         25    1    1    2    0    0 -0.17375591151E+02 -0.11217530642E+03 -0.16003435574E+03  0.23263964743E+03  0.12500000000E+03 0.  0.
         25    1    1    2    0    0  0.79674874609E+02 -0.81613484692E+00 -0.85441173247E+02  0.17109630565E+03  0.12500000000E+03 0.  0.
         25    1    1    2    0    0 -0.62299283459E+02  0.11299144127E+03 -0.77131087377E+02  0.19550568063E+03  0.12500000000E+03 0.  0.
</event>
<event>
 5    0  0.6472550E-005  0.2851408E+03  0.7546771E-02  0.1092914E+00
         21   -1    0    0  502  501  0.00000000000E+00  0.00000000000E+00  0.23962911509E+03  0.23962911509E+03  0.00000000000E+00 0. -1.
         21   -1    0    0  501  502 -0.00000000000E+00 -0.00000000000E+00 -0.33929639787E+03  0.33929639787E+03  0.00000000000E+00 0. -1.
         25    1    1    2    0    0  0.73511146850E+02 -0.11438425106E+03 -0.13217517526E+03  0.22711874110E+03  0.12500000000E+03 0.  0.
         25    1    1    2    0    0 -0.39596710839E+02  0.10487061856E+02  0.10724681757E+03  0.16971964487E+03  0.12500000000E+03 0.  0.
         25    1    1    2    0    0 -0.33914436011E+02  0.10389718920E+03 -0.74738925088E+02  0.18208712699E+03  0.12500000000E+03 0.  0.
</event>
<event>
 5    0  0.5503691E-005  0.2047431E+03  0.7546771E-02  0.1145798E+00
         21   -1    0    0  502  501  0.00000000000E+00  0.00000000000E+00  0.91784184023E+02  0.91784184023E+02  0.00000000000E+00 0. -1.
         21   -1    0    0  501  502 -0.00000000000E+00 -0.00000000000E+00 -0.45672089291E+03  0.45672089291E+03  0.00000000000E+00 0. -1.
         25    1    1    2    0    0 -0.34242505686E+02  0.51723889066E+02 -0.97847499195E+02  0.17043193068E+03  0.12500000000E+03 0.  0.
         25    1    1    2    0    0  0.18718595473E+02 -0.55144958417E+02 -0.10818533092E+03  0.17527241107E+03  0.12500000000E+03 0.  0.
         25    1    1    2    0    0  0.15523910212E+02  0.34210693517E+01 -0.15890387878E+03  0.20280073519E+03  0.12500000000E+03 0.  0.
</event>
<event>
 5    0  0.5503691E-005  0.3103353E+03  0.7546771E-02  0.1080185E+00
         21   -1    0    0  502  501  0.00000000000E+00  0.00000000000E+00  0.28718523122E+04  0.28718523122E+04  0.00000000000E+00 0. -1.
         21   -1    0    0  501  502 -0.00000000000E+00 -0.00000000000E+00 -0.33535154698E+02  0.33535154698E+02  0.00000000000E+00 0. -1.
         25    1    1    2    0    0 -0.12723923670E+03 -0.40894398439E+02  0.33738644948E+03  0.38381869610E+03  0.12500000000E+03 0.  0.
         25    1    1    2    0    0  0.38932160070E+02 -0.42734787736E+02  0.14194768247E+04  0.14261421496E+04  0.12500000000E+03 0.  0.
         25    1    1    2    0    0  0.88307076628E+02  0.83629186174E+02  0.10814538834E+04  0.10954266212E+04  0.12500000000E+03 0.  0.
</event>
<event>
 5    0  0.5503691E-005  0.3229607E+03  0.7546771E-02  0.1074295E+00
         21   -1    0    0  502  501  0.00000000000E+00  0.00000000000E+00  0.25890670476E+04  0.25890670476E+04  0.00000000000E+00 0.  1.
         21   -1    0    0  501  502 -0.00000000000E+00 -0.00000000000E+00 -0.40286188195E+02  0.40286188195E+02  0.00000000000E+00 0.  1.
         25    1    1    2    0    0 -0.56708267077E+02 -0.68411346292E+02  0.27120776613E+03  0.31156795770E+03  0.12500000000E+03 0.  0.
         25    1    1    2    0    0  0.11972319886E+03 -0.73090360643E+02  0.60745004747E+03  0.63584306659E+03  0.12500000000E+03 0.  0.
         25    1    1    2    0    0 -0.63014931786E+02  0.14150170693E+03  0.16701230458E+04  0.16819422115E+04  0.12500000000E+03 0.  0.
</event>
<event>
 5    0  0.5503691E-005  0.2747563E+03  0.7546771E-02  0.1098588E+00
         21   -1    0    0  502  501  0.00000000000E+00  0.00000000000E+00  0.18829511254E+04  0.18829511254E+04  0.00000000000E+00 0. -1.
         21   -1    0    0  501  502 -0.00000000000E+00 -0.00000000000E+00 -0.40091867305E+02  0.40091867305E+02  0.00000000000E+00 0. -1.
         25    1    1    2    0    0  0.13274043519E+03 -0.91276815841E+02  0.86872012337E+03  0.89232904973E+03  0.12500000000E+03 0.  0.
         25    1    1    2    0    0 -0.43221039235E+02 -0.33914597566E+02  0.34355374461E+03  0.36969234993E+03  0.12500000000E+03 0.  0.
         25    1    1    2    0    0 -0.89519395956E+02  0.12519141341E+03  0.63058539008E+03  0.66102159301E+03  0.12500000000E+03 0.  0.
</event>
<event>
 5    0  0.5503691E-005  0.3056694E+03  0.7546771E-02  0.1082440E+00
         21   -1    0    0  502  501  0.00000000000E+00  0.00000000000E+00  0.25927470306E+03  0.25927470306E+03  0.00000000000E+00 0.  1.
         21   -1    0    0  501  502 -0.00000000000E+00 -0.00000000000E+00 -0.36036598262E+03  0.36036598262E+03  0.00000000000E+00 0.  1.
         25    1    1    2    0    0  0.88639571846E+02  0.20033448157E+02  0.93404518352E+02  0.18057606926E+03  0.12500000000E+03 0.  0.
         25    1    1    2    0    0 -0.76819197895E+02  0.11678238071E+03 -0.16745947034E+03  0.25140999944E+03  0.12500000000E+03 0.  0.
         25    1    1    2    0    0 -0.11820373951E+02 -0.13681582886E+03 -0.27036327567E+02  0.18765461699E+03  0.12500000000E+03 0.  0.
</event>
<event>
 5    0  0.5503691E-005  0.4304316E+03  0.7546771E-02  0.1033724E+00
         21   -1    0    0  502  501  0.00000000000E+00  0.00000000000E+00  0.77994483414E+03  0.77994483414E+03  0.00000000000E+00 0. -1.
         21   -1    0    0  501  502 -0.00000000000E+00 -0.00000000000E+00 -0.23754423958E+03  0.23754423958E+03  0.00000000000E+00 0. -1.
         25    1    1    2    0    0 -0.20280946017E+03  0.27222936142E+03  0.11941570789E+03  0.38095355838E+03  0.12500000000E+03 0.  0.
         25    1    1    2    0    0  0.58017921451E+02 -0.14024484378E+03  0.33420971171E+03  0.38775743296E+03  0.12500000000E+03 0.  0.
         25    1    1    2    0    0  0.14479153872E+03 -0.13198451763E+03  0.88775174957E+02  0.24877808237E+03  0.12500000000E+03 0.  0.
</event>
<event>
 5    0  0.5503691E-005  0.3331239E+03  0.7546771E-02  0.1069763E+00
         21   -1    0    0  502  501  0.00000000000E+00  0.00000000000E+00  0.75245737513E+03  0.75245737513E+03  0.00000000000E+00 0. -1.
         21   -1    0    0  501  502 -0.00000000000E+00 -0.00000000000E+00 -0.14747885553E+03  0.14747885553E+03  0.00000000000E+00 0. -1.
         25    1    1    2    0    0 -0.18600019990E+03  0.26910889152E+02  0.18704890874E+03  0.29314256699E+03  0.12500000000E+03 0.  0.
         25    1    1    2    0    0  0.17420749613E+03 -0.12597158674E+03  0.13801255042E+03  0.28441089369E+03  0.12500000000E+03 0.  0.
         25    1    1    2    0    0  0.11792703770E+02  0.99060697587E+02  0.27991706043E+03  0.32238276999E+03  0.12500000000E+03 0.  0.
</event>
<event>
 5    0  0.5503691E-005  0.2444621E+03  0.7546771E-02  0.1116856E+00
         21   -1    0    0  502  501  0.00000000000E+00  0.00000000000E+00  0.44421203265E+03  0.44421203265E+03  0.00000000000E+00 0.  1.
         21   -1    0    0  501  502 -0.00000000000E+00 -0.00000000000E+00 -0.13453420321E+03  0.13453420321E+03  0.00000000000E+00 0.  1.
         25    1    1    2    0    0 -0.83645754605E+02  0.68738257882E+02  0.18311431877E+03  0.24673348800E+03  0.12500000000E+03 0.  0.
         25    1    1    2    0    0  0.53777541196E+01 -0.46326071427E+02  0.12500655719E+03  0.18282960502E+03  0.12500000000E+03 0.  0.
         25    1    1    2    0    0  0.78268000485E+02 -0.22412186455E+02  0.15569534819E+01  0.14918314283E+03  0.12500000000E+03 0.  0.
</event>
<event>
 5    0  0.5503691E-005  0.4835545E+03  0.7546771E-02  0.1018163E+00
         21   -1    0    0  502  501  0.00000000000E+00  0.00000000000E+00  0.12020213018E+03  0.12020213018E+03  0.00000000000E+00 0. -1.
         21   -1    0    0  501  502 -0.00000000000E+00 -0.00000000000E+00 -0.19452648661E+04  0.19452648661E+04  0.00000000000E+00 0. -1.
         25    1    1    2    0    0 -0.10583222339E+03 -0.14781925207E+03 -0.10270508657E+04  0.10504805908E+04  0.12500000000E+03 0.  0.
         25    1    1    2    0    0 -0.13875343404E+03  0.77905845910E+02 -0.40744826593E+02  0.20641457598E+03  0.12500000000E+03 0.  0.
         25    1    1    2    0    0  0.24458565742E+03  0.69913406159E+02 -0.75726704356E+03  0.80857182949E+03  0.12500000000E+03 0.  0.
</event>
<event>
 5    0  0.5503691E-005  0.2658781E+03  0.7546771E-02  0.1103662E+00
         21   -1    0    0  502  501  0.00000000000E+00  0.00000000000E+00  0.61265673885E+02  0.61265673885E+02  0.00000000000E+00 0.  1.
         21   -1    0    0  501  502 -0.00000000000E+00 -0.00000000000E+00 -0.11538458701E+04  0.11538458701E+04  0.00000000000E+00 0.  1.
         25    1    1    2    0    0  0.15648182426E+02  0.77250498569E+02 -0.36776651040E+03  0.39634544443E+03  0.12500000000E+03 0.  0.
         25    1    1    2    0    0  0.29815268634E+02 -0.17396485853E+03 -0.40330613564E+03  0.45763911687E+03  0.12500000000E+03 0.  0.
         25    1    1    2    0    0 -0.45463451060E+02  0.96714359959E+02 -0.32150755013E+03  0.36112698265E+03  0.12500000000E+03 0.  0.
</event>
<event>
 5    0  0.5503691E-005  0.2326713E+03  0.7546771E-02  0.1124774E+00
         21   -1    0    0  502  501  0.00000000000E+00  0.00000000000E+00  0.22501612966E+03  0.22501612966E+03  0.00000000000E+00 0. -1.
         21   -1    0    0  501  502 -0.00000000000E+00 -0.00000000000E+00 -0.24058695762E+03  0.24058695762E+03  0.00000000000E+00 0. -1.
         25    1    1    2    0    0  0.46181083094E+01  0.67468966081E+02  0.61900076451E+02  0.15501615326E+03  0.12500000000E+03 0.  0.
         25    1    1    2    0    0  0.32956883015E+02  0.34658246814E+02 -0.48433374685E+02  0.14233109988E+03  0.12500000000E+03 0.  0.
         25    1    1    2    0    0 -0.37574991324E+02 -0.10212721290E+03 -0.29037529722E+02  0.16825583413E+03  0.12500000000E+03 0.  0.
</event>
<event>
 5    0  0.5503691E-005  0.2432369E+03  0.7546771E-02  0.1117655E+00
         21   -1    0    0  502  501  0.00000000000E+00  0.00000000000E+00  0.22210953207E+03  0.22210953207E+03  0.00000000000E+00 0. -1.
         21   -1    0    0  501  502 -0.00000000000E+00 -0.00000000000E+00 -0.26637383531E+03  0.26637383531E+03  0.00000000000E+00 0. -1.
         25    1    1    2    0    0 -0.44269629459E+02 -0.11308478766E+03 -0.33074013505E+02  0.17738900660E+03  0.12500000000E+03 0.  0.
         25    1    1    2    0    0  0.16291167060E+01  0.91250986618E+02  0.51717889133E+02  0.16318436395E+03  0.12500000000E+03 0.  0.
         25    1    1    2    0    0  0.42640512753E+02  0.21833801039E+02 -0.62908178873E+02  0.14790999684E+03  0.12500000000E+03 0.  0.
</event>
<event>
 5    0  0.5503691E-005  0.2502204E+03  0.7546771E-02  0.1113166E+00
         21   -1    0    0  502  501  0.00000000000E+00  0.00000000000E+00  0.26059045301E+03  0.26059045301E+03  0.00000000000E+00 0.  1.
         21   -1    0    0  501  502 -0.00000000000E+00 -0.00000000000E+00 -0.24026299251E+03  0.24026299251E+03  0.00000000000E+00 0.  1.
         25    1    1    2    0    0  0.10097821007E+02  0.81269463080E+02  0.27148400273E+01  0.14946257717E+03  0.12500000000E+03 0.  0.
         25    1    1    2    0    0  0.41844131289E+01 -0.15712802168E+03 -0.13274597000E+02  0.20126584269E+03  0.12500000000E+03 0.  0.
         25    1    1    2    0    0 -0.14282234136E+02  0.75858558600E+02  0.30887217467E+02  0.15012502565E+03  0.12500000000E+03 0.  0.
</event>
<event>
 5    0  0.5503691E-005  0.3070254E+03  0.7546771E-02  0.1081780E+00
         21   -1    0    0  502  501  0.00000000000E+00  0.00000000000E+00  0.10270673500E+04  0.10270673500E+04  0.00000000000E+00 0. -1.
         21   -1    0    0  501  502 -0.00000000000E+00 -0.00000000000E+00 -0.91780354106E+02  0.91780354106E+02  0.00000000000E+00 0. -1.
         25    1    1    2    0    0 -0.12715867926E+03 -0.99531680284E+02  0.17736897298E+03  0.27048223170E+03  0.12500000000E+03 0.  0.
         25    1    1    2    0    0  0.17331075039E+02  0.96646790444E+02  0.15171815291E+03  0.21973703872E+03  0.12500000000E+03 0.  0.
         25    1    1    2    0    0  0.10982760422E+03  0.28848898397E+01  0.60619987002E+03  0.62862843369E+03  0.12500000000E+03 0.  0.
</event>
<event>
 5    0  0.5503691E-005  0.3418645E+03  0.7546771E-02  0.1066005E+00
         21   -1    0    0  502  501  0.00000000000E+00  0.00000000000E+00  0.95315475838E+02  0.95315475838E+02  0.00000000000E+00 0.  1.
         21   -1    0    0  501  502 -0.00000000000E+00 -0.00000000000E+00 -0.12261527770E+04  0.12261527770E+04  0.00000000000E+00 0.  1.
         25    1    1    2    0    0  0.23292829954E+03 -0.83469462794E+02 -0.41712188514E+03  0.50083770925E+03  0.12500000000E+03 0.  0.
         25    1    1    2    0    0 -0.18145605008E+02 -0.23699826425E+02 -0.16823738479E+03  0.21170678401E+03  0.12500000000E+03 0.  0.
         25    1    1    2    0    0 -0.21478269453E+03  0.10716928922E+03 -0.54547803120E+03  0.60892375955E+03  0.12500000000E+03 0.  0.
</event>
<event>
 5    0  0.5503691E-005  0.2895283E+03  0.7546771E-02  0.1090596E+00
         21   -1    0    0  502  501  0.00000000000E+00  0.00000000000E+00  0.37139285354E+02  0.37139285354E+02  0.00000000000E+00 0.  1.
         21   -1    0    0  501  502 -0.00000000000E+00 -0.00000000000E+00 -0.22570886042E+04  0.22570886042E+04  0.00000000000E+00 0.  1.
         25    1    1    2    0    0  0.12486490188E+03  0.11217929331E+03 -0.11823568106E+04  0.12007364678E+04  0.12500000000E+03 0.  0.
         25    1    1    2    0    0 -0.10238433097E+03 -0.12956971737E+03 -0.76024233963E+03  0.78794941326E+03  0.12500000000E+03 0.  0.
         25    1    1    2    0    0 -0.22480570908E+02  0.17390424068E+02 -0.27735016869E+03  0.30554200855E+03  0.12500000000E+03 0.  0.
</event>
<event>
 5    0  0.5503691E-005  0.2146962E+03  0.7546771E-02  0.1137900E+00
         21   -1    0    0  502  501  0.00000000000E+00  0.00000000000E+00  0.37966072951E+03  0.37966072951E+03  0.00000000000E+00 0. -1.
         21   -1    0    0  501  502 -0.00000000000E+00 -0.00000000000E+00 -0.12140961219E+03  0.12140961219E+03  0.00000000000E+00 0. -1.
         25    1    1    2    0    0  0.15853162770E+01  0.16885614689E+02  0.12856213844E+03  0.18011346605E+03  0.12500000000E+03 0.  0.
         25    1    1    2    0    0 -0.36172115436E+02 -0.68718505656E+02  0.10068568512E+03  0.17830665199E+03  0.12500000000E+03 0.  0.
         25    1    1    2    0    0  0.34586799159E+02  0.51832890968E+02  0.29003293748E+02  0.14265022366E+03  0.12500000000E+03 0.  0.
</event>
<event>
 5    0  0.5503691E-005  0.3587273E+03  0.7546771E-02  0.1059089E+00
         21   -1    0    0  502  501  0.00000000000E+00  0.00000000000E+00  0.82420130940E+03  0.82420130940E+03  0.00000000000E+00 0.  1.
         21   -1    0    0  501  502 -0.00000000000E+00 -0.00000000000E+00 -0.15613330095E+03  0.15613330095E+03  0.00000000000E+00 0.  1.
         25    1    1    2    0    0 -0.92676854708E+02 -0.17996205907E+03  0.11341333025E+03  0.26355820151E+03  0.12500000000E+03 0.  0.
         25    1    1    2    0    0  0.93686693012E+02  0.40307347883E+02  0.36002336958E+02  0.16529684512E+03  0.12500000000E+03 0.  0.
         25    1    1    2    0    0 -0.10098383039E+01  0.13965471119E+03  0.51865234125E+03  0.55147956373E+03  0.12500000000E+03 0.  0.
</event>
<event>
 5    0  0.5503691E-005  0.5070917E+03  0.7546771E-02  0.1011944E+00
         21   -1    0    0  502  501  0.00000000000E+00  0.00000000000E+00  0.31761710447E+03  0.31761710447E+03  0.00000000000E+00 0.  1.
         21   -1    0    0  501  502 -0.00000000000E+00 -0.00000000000E+00 -0.80959738167E+03  0.80959738167E+03  0.00000000000E+00 0.  1.
         25    1    1    2    0    0 -0.28953383931E+03  0.22923883314E+03 -0.40317365857E+03  0.56085139359E+03  0.12500000000E+03 0.  0.
         25    1    1    2    0    0  0.48802137090E+02  0.73055795078E+02 -0.14532226860E+02  0.15347632846E+03  0.12500000000E+03 0.  0.
         25    1    1    2    0    0  0.24073170222E+03 -0.30229462821E+03 -0.74274391765E+02  0.41288676410E+03  0.12500000000E+03 0.  0.
</event>
<event>
 5    0  0.5503691E-005  0.2733140E+03  0.7546771E-02  0.1099398E+00
         21   -1    0    0  502  501  0.00000000000E+00  0.00000000000E+00  0.27412493220E+03  0.27412493220E+03  0.00000000000E+00 0.  1.
         21   -1    0    0  501  502 -0.00000000000E+00 -0.00000000000E+00 -0.27250544309E+03  0.27250544309E+03  0.00000000000E+00 0.  1.
         25    1    1    2    0    0  0.18063442539E+03  0.18017482210E+02 -0.20679682970E+02  0.22137315688E+03  0.12500000000E+03 0.  0.
         25    1    1    2    0    0 -0.12280259917E+03 -0.82285563644E+01  0.54079927342E+02  0.18356967626E+03  0.12500000000E+03 0.  0.
         25    1    1    2    0    0 -0.57831826218E+02 -0.97889258454E+01 -0.31780755264E+02  0.14168754214E+03  0.12500000000E+03 0.  0.
</event>
<event>
 5    0  0.5503691E-005  0.2502143E+03  0.7546771E-02  0.1113169E+00
         21   -1    0    0  502  501  0.00000000000E+00  0.00000000000E+00  0.17872100404E+03  0.17872100404E+03  0.00000000000E+00 0.  1.
         21   -1    0    0  501  502 -0.00000000000E+00 -0.00000000000E+00 -0.35030697525E+03  0.35030697525E+03  0.00000000000E+00 0.  1.
         25    1    1    2    0    0 -0.11572072437E+03  0.37969237223E+02 -0.85369452990E+02  0.19428302172E+03  0.12500000000E+03 0.  0.
         25    1    1    2    0    0  0.13024576105E+03 -0.16826708985E+02 -0.98873334424E+02  0.20651400114E+03  0.12500000000E+03 0.  0.
         25    1    1    2    0    0 -0.14525036678E+02 -0.21142528237E+02  0.12656816205E+02  0.12823095643E+03  0.12500000000E+03 0.  0.
</event>
<event>
 5    0  0.5503691E-005  0.3781596E+03  0.7546771E-02  0.1051616E+00
         21   -1    0    0  502  501  0.00000000000E+00  0.00000000000E+00  0.51461230343E+03  0.51461230343E+03  0.00000000000E+00 0. -1.
         21   -1    0    0  501  502 -0.00000000000E+00 -0.00000000000E+00 -0.27788813640E+03  0.27788813640E+03  0.00000000000E+00 0. -1.
         25    1    1    2    0    0 -0.17627556743E+02  0.31337794342E+02  0.68207418501E+02  0.14686742338E+03  0.12500000000E+03 0.  0.
         25    1    1    2    0    0 -0.26110500389E+03 -0.81704254036E+02  0.17865771258E+02  0.30132307241E+03  0.12500000000E+03 0.  0.
         25    1    1    2    0    0  0.27873256063E+03  0.50366459694E+02  0.15065097727E+03  0.34430994405E+03  0.12500000000E+03 0.  0.
</event>
<event>
 5    0  0.5503691E-005  0.2620822E+03  0.7546771E-02  0.1105899E+00
         21   -1    0    0  502  501  0.00000000000E+00  0.00000000000E+00  0.22330007390E+03  0.22330007390E+03  0.00000000000E+00 0.  1.
         21   -1    0    0  501  502 -0.00000000000E+00 -0.00000000000E+00 -0.30759986728E+03  0.30759986728E+03  0.00000000000E+00 0.  1.
         25    1    1    2    0    0  0.13362212235E+03  0.65392880820E+01 -0.56099018077E+02  0.19149342991E+03  0.12500000000E+03 0.  0.
         25    1    1    2    0    0 -0.82379057736E+02 -0.14664475297E+02 -0.10532959565E+03  0.18363191364E+03  0.12500000000E+03 0.  0.
         25    1    1    2    0    0 -0.51243064612E+02  0.81251872147E+01  0.77128820338E+02  0.15577459762E+03  0.12500000000E+03 0.  0.
</event>
<event>
 5    0  0.5503691E-005  0.2929682E+03  0.7546771E-02  0.1088810E+00
         21   -1    0    0  502  501  0.00000000000E+00  0.00000000000E+00  0.32607810927E+03  0.32607810927E+03  0.00000000000E+00 0. -1.
         21   -1    0    0  501  502 -0.00000000000E+00 -0.00000000000E+00 -0.26322018335E+03  0.26322018335E+03  0.00000000000E+00 0. -1.
         25    1    1    2    0    0  0.54709992921E+02 -0.16008823779E+03 -0.85311876538E+02  0.22699018367E+03  0.12500000000E+03 0.  0.
         25    1    1    2    0    0 -0.48176264084E+02  0.13642063778E+02  0.36012200862E+02  0.13938772161E+03  0.12500000000E+03 0.  0.
         25    1    1    2    0    0 -0.65337288370E+01  0.14644617401E+03  0.11215760160E+03  0.22292038734E+03  0.12500000000E+03 0.  0.
</event>
<event>
 5    0  0.5503691E-005  0.3184514E+03  0.7546771E-02  0.1076364E+00
         21   -1    0    0  502  501  0.00000000000E+00  0.00000000000E+00  0.26093865063E+03  0.26093865063E+03  0.00000000000E+00 0. -1.
         21   -1    0    0  501  502 -0.00000000000E+00 -0.00000000000E+00 -0.38864029207E+03  0.38864029207E+03  0.00000000000E+00 0. -1.
         25    1    1    2    0    0 -0.18409865972E+02 -0.10701099892E+03  0.47798497731E+02  0.17233680234E+03  0.12500000000E+03 0.  0.
         25    1    1    2    0    0  0.22690190007E+02  0.63373153038E+02  0.98571665610E+02  0.17283626503E+03  0.12500000000E+03 0.  0.
         25    1    1    2    0    0 -0.42803240350E+01  0.43637845877E+02 -0.27407180477E+03  0.30440587533E+03  0.12500000000E+03 0.  0.
</event>
<event>
 5    0  0.5503691E-005  0.3968157E+03  0.7546771E-02  0.1044888E+00
         21   -1    0    0  502  501  0.00000000000E+00  0.00000000000E+00  0.33705477796E+04  0.33705477796E+04  0.00000000000E+00 0.  1.
         21   -1    0    0  501  502 -0.00000000000E+00 -0.00000000000E+00 -0.46717238856E+02  0.46717238856E+02  0.00000000000E+00 0.  1.
         25    1    1    2    0    0 -0.22022375020E+02 -0.11095904889E+03  0.38587409876E+03  0.42109466349E+03  0.12500000000E+03 0.  0.
         25    1    1    2    0    0 -0.81891471836E+02 -0.16897393320E+03  0.17653578753E+04  0.17797111651E+04  0.12500000000E+03 0.  0.
         25    1    1    2    0    0  0.10391384686E+03  0.27993298209E+03  0.11725985667E+04  0.12164591899E+04  0.12500000000E+03 0.  0.
</event>
<event>
 5    0  0.5503691E-005  0.2269993E+03  0.7546771E-02  0.1128770E+00
         21   -1    0    0  502  501  0.00000000000E+00  0.00000000000E+00  0.34355957544E+03  0.34355957544E+03  0.00000000000E+00 0. -1.
         21   -1    0    0  501  502 -0.00000000000E+00 -0.00000000000E+00 -0.14998476108E+03  0.14998476108E+03  0.00000000000E+00 0. -1.
         25    1    1    2    0    0  0.49893508114E+02 -0.56872803748E+02 -0.11666858799E+02  0.14657760249E+03  0.12500000000E+03 0.  0.
         25    1    1    2    0    0 -0.12014651795E+02  0.46158152346E+02  0.47693323464E+02  0.14203724860E+03  0.12500000000E+03 0.  0.
         25    1    1    2    0    0 -0.37878856319E+02  0.10714651402E+02  0.15754834970E+03  0.20492948544E+03  0.12500000000E+03 0.  0.
</event>
<event>
 5    0  0.5503691E-005  0.3194606E+03  0.7546771E-02  0.1075898E+00
         21   -1    0    0  502  501  0.00000000000E+00  0.00000000000E+00  0.76396653945E+03  0.76396653945E+03  0.00000000000E+00 0.  1.
         21   -1    0    0  501  502 -0.00000000000E+00 -0.00000000000E+00 -0.13358579044E+03  0.13358579044E+03  0.00000000000E+00 0.  1.
         25    1    1    2    0    0  0.69987149875E+00 -0.11657037342E+03  0.30467944122E+03  0.34934753996E+03  0.12500000000E+03 0.  0.
         25    1    1    2    0    0 -0.13852011982E+03 -0.32018777807E+02  0.78395167658E+02  0.20489955598E+03  0.12500000000E+03 0.  0.
         25    1    1    2    0    0  0.13782024832E+03  0.14858915123E+03  0.24730614013E+03  0.34330523395E+03  0.12500000000E+03 0.  0.
</event>
<event>
 5    0  0.5503691E-005  0.2587718E+03  0.7546771E-02  0.1107883E+00
         21   -1    0    0  502  501  0.00000000000E+00  0.00000000000E+00  0.30695427501E+03  0.30695427501E+03  0.00000000000E+00 0.  1.
         21   -1    0    0  501  502 -0.00000000000E+00 -0.00000000000E+00 -0.21815243941E+03  0.21815243941E+03  0.00000000000E+00 0.  1.
         25    1    1    2    0    0  0.52410882006E+02  0.13957375207E+02  0.52000732674E+02  0.14584507216E+03  0.12500000000E+03 0.  0.
         25    1    1    2    0    0  0.88492698027E+02  0.67669330534E+02  0.46418208622E+02  0.17375196687E+03  0.12500000000E+03 0.  0.
         25    1    1    2    0    0 -0.14090358003E+03 -0.81626705741E+02 -0.96171056925E+01  0.20550967539E+03  0.12500000000E+03 0.  0.
</event>
<event>
 5    0  0.5503691E-005  0.2669440E+03  0.7546771E-02  0.1103041E+00
         21   -1    0    0  502  501  0.00000000000E+00  0.00000000000E+00  0.19016945598E+03  0.19016945598E+03  0.00000000000E+00 0.  1.
         21   -1    0    0  501  502 -0.00000000000E+00 -0.00000000000E+00 -0.37471371057E+03  0.37471371057E+03  0.00000000000E+00 0.  1.
         25    1    1    2    0    0 -0.31720292924E+02 -0.38500391655E+02 -0.52692263350E+02  0.14453349701E+03  0.12500000000E+03 0.  0.
         25    1    1    2    0    0 -0.37533416731E+02  0.54730771515E+02  0.81300483679E+02  0.16321453173E+03  0.12500000000E+03 0.  0.
         25    1    1    2    0    0  0.69253709655E+02 -0.16230379859E+02 -0.21315247492E+03  0.25713513781E+03  0.12500000000E+03 0.  0.
</event>
<event>
 5    0  0.5503691E-005  0.4141408E+03  0.7546771E-02  0.1038990E+00
         21   -1    0    0  502  501  0.00000000000E+00  0.00000000000E+00  0.11071081730E+04  0.11071081730E+04  0.00000000000E+00 0.  1.
         21   -1    0    0  501  502 -0.00000000000E+00 -0.00000000000E+00 -0.15491948011E+03  0.15491948011E+03  0.00000000000E+00 0.  1.
         25    1    1    2    0    0  0.31986055738E+02  0.97253649226E+01  0.91199206908E+02  0.15830346119E+03  0.12500000000E+03 0.  0.
         25    1    1    2    0    0 -0.24464176815E+03  0.94744079913E+01  0.80418352619E+03  0.84986793264E+03  0.12500000000E+03 0.  0.
         25    1    1    2    0    0  0.21265571241E+03 -0.19199772914E+02  0.56805959782E+02  0.25385625927E+03  0.12500000000E+03 0.  0.
</event>
<event>
 5    0  0.5503691E-005  0.3407815E+03  0.7546771E-02  0.1066464E+00
         21   -1    0    0  502  501  0.00000000000E+00  0.00000000000E+00  0.18561042441E+03  0.18561042441E+03  0.00000000000E+00 0.  1.
         21   -1    0    0  501  502 -0.00000000000E+00 -0.00000000000E+00 -0.62567614416E+03  0.62567614416E+03  0.00000000000E+00 0.  1.
         25    1    1    2    0    0  0.49988822393E+02 -0.17670758756E+03 -0.70190218137E+02  0.23297236014E+03  0.12500000000E+03 0.  0.
         25    1    1    2    0    0 -0.63190324206E+02 -0.76918717230E+02 -0.15817576130E+03  0.22484233942E+03  0.12500000000E+03 0.  0.
         25    1    1    2    0    0  0.13201501814E+02  0.25362630479E+03 -0.21169974031E+03  0.35347186901E+03  0.12500000000E+03 0.  0.
</event>
<event>
 5    0  0.5503691E-005  0.3742003E+03  0.7546771E-02  0.1053098E+00
         21   -1    0    0  502  501  0.00000000000E+00  0.00000000000E+00  0.12260839731E+04  0.12260839731E+04  0.00000000000E+00 0. -1.
         21   -1    0    0  501  502 -0.00000000000E+00 -0.00000000000E+00 -0.11420577524E+03  0.11420577524E+03  0.00000000000E+00 0. -1.
         25    1    1    2    0    0 -0.42928938979E+02 -0.20168842360E+03  0.70165034238E+03  0.74192945553E+03  0.12500000000E+03 0.  0.
         25    1    1    2    0    0  0.65251485762E+02  0.25216770697E+03  0.21531680340E+03  0.36032295883E+03  0.12500000000E+03 0.  0.
         25    1    1    2    0    0 -0.22322546783E+02 -0.50479283368E+02  0.19491105203E+03  0.23803733394E+03  0.12500000000E+03 0.  0.
</event>
<event>
 5    0  0.5503691E-005  0.3205276E+03  0.7546771E-02  0.1075407E+00
         21   -1    0    0  502  501  0.00000000000E+00  0.00000000000E+00  0.12152358473E+04  0.12152358473E+04  0.00000000000E+00 0.  1.
         21   -1    0    0  501  502 -0.00000000000E+00 -0.00000000000E+00 -0.84541588869E+02  0.84541588869E+02  0.00000000000E+00 0.  1.
         25    1    1    2    0    0 -0.13808168633E+03 -0.45163541872E+02  0.38174538458E+03  0.42715434711E+03  0.12500000000E+03 0.  0.
         25    1    1    2    0    0  0.21967609467E+03 -0.57706986365E+02  0.36143835540E+03  0.44480374054E+03  0.12500000000E+03 0.  0.
         25    1    1    2    0    0 -0.81594408341E+02  0.10287052824E+03  0.38751051848E+03  0.42781934854E+03  0.12500000000E+03 0.  0.
</event>
<event>
 5    0  0.5503691E-005  0.2255368E+03  0.7546771E-02  0.1129821E+00
         21   -1    0    0  502  501  0.00000000000E+00  0.00000000000E+00  0.41731376089E+03  0.41731376089E+03  0.00000000000E+00 0.  1.
         21   -1    0    0  501  502 -0.00000000000E+00 -0.00000000000E+00 -0.12189109304E+03  0.12189109304E+03  0.00000000000E+00 0.  1.
         25    1    1    2    0    0 -0.71598606465E+02 -0.43303668921E+02  0.11004774331E+03  0.18637884536E+03  0.12500000000E+03 0.  0.
         25    1    1    2    0    0 -0.21308489319E+02  0.60553819212E+02  0.62958718257E+02  0.15397927439E+03  0.12500000000E+03 0.  0.
         25    1    1    2    0    0  0.92907095784E+02 -0.17250150291E+02  0.12241620629E+03  0.19884673418E+03  0.12500000000E+03 0.  0.
</event>
<event>
 5    0  0.6020779E-005  0.2572988E+03  0.7546771E-02  0.1108777E+00
         21   -1    0    0  502  501  0.00000000000E+00  0.00000000000E+00  0.31355440847E+03  0.31355440847E+03  0.00000000000E+00 0. -1.
         21   -1    0    0  501  502 -0.00000000000E+00 -0.00000000000E+00 -0.21113618333E+03  0.21113618333E+03  0.00000000000E+00 0. -1.
         25    1    1    2    0    0 -0.71463800089E+02 -0.35774614640E+02  0.12782333635E+03  0.19583335541E+03  0.12500000000E+03 0.  0.
         25    1    1    2    0    0  0.11678755800E+03  0.19564990471E+01 -0.69633450888E+02  0.18470782083E+03  0.12500000000E+03 0.  0.
         25    1    1    2    0    0 -0.45323757913E+02  0.33818115593E+02  0.44228339681E+02  0.14414941555E+03  0.12500000000E+03 0.  0.
</event>
<event>
 5    0  0.6649328E-005  0.6604055E+03  0.7546771E-02  0.9787447E-01
         21   -1    0    0  502  501  0.00000000000E+00  0.00000000000E+00  0.39770639826E+03  0.39770639826E+03  0.00000000000E+00 0. -1.
         21   -1    0    0  501  502 -0.00000000000E+00 -0.00000000000E+00 -0.10966267529E+04  0.10966267529E+04  0.00000000000E+00 0. -1.
         25    1    1    2    0    0 -0.22968990466E+03  0.19899701438E+03 -0.32654837111E+03  0.46326677272E+03  0.12500000000E+03 0.  0.
         25    1    1    2    0    0  0.42752628201E+03  0.48460299928E+02 -0.49630351679E+03  0.66863241265E+03  0.12500000000E+03 0.  0.
         25    1    1    2    0    0 -0.19783637734E+03 -0.24745731430E+03  0.12393153327E+03  0.36243396577E+03  0.12500000000E+03 0.  0.
</event>
<event>
 5    0  0.5503691E-005  0.2617021E+03  0.7546771E-02  0.1106125E+00
         21   -1    0    0  502  501  0.00000000000E+00  0.00000000000E+00  0.33283585041E+03  0.33283585041E+03  0.00000000000E+00 0.  1.
         21   -1    0    0  501  502 -0.00000000000E+00 -0.00000000000E+00 -0.20577108045E+03  0.20577108045E+03  0.00000000000E+00 0.  1.
         25    1    1    2    0    0  0.12209211588E+02  0.10306976145E+03  0.59991658253E+02  0.17319480255E+03  0.12500000000E+03 0.  0.
         25    1    1    2    0    0  0.75716595850E+02 -0.11444095380E+02 -0.46876648655E+02  0.15390383489E+03  0.12500000000E+03 0.  0.
         25    1    1    2    0    0 -0.87925807438E+02 -0.91625666066E+02  0.11394976035E+03  0.21150829341E+03  0.12500000000E+03 0.  0.
</event>
<event>
 5    0  0.5503691E-005  0.5393401E+03  0.7546771E-02  0.1003992E+00
         21   -1    0    0  502  501  0.00000000000E+00  0.00000000000E+00  0.36667433581E+03  0.36667433581E+03  0.00000000000E+00 0. -1.
         21   -1    0    0  501  502 -0.00000000000E+00 -0.00000000000E+00 -0.79331363866E+03  0.79331363866E+03  0.00000000000E+00 0. -1.
         25    1    1    2    0    0 -0.10879643612E+03  0.17955773694E+03 -0.13245817244E+03  0.27793490758E+03  0.12500000000E+03 0.  0.
         25    1    1    2    0    0  0.30411449679E+03 -0.62964337573E+02  0.15059080987E+03  0.36708681123E+03  0.12500000000E+03 0.  0.
         25    1    1    2    0    0 -0.19531806067E+03 -0.11659339937E+03 -0.44477194028E+03  0.51496625566E+03  0.12500000000E+03 0.  0.
</event>
<event>
 5    0  0.5503691E-005  0.2727890E+03  0.7546771E-02  0.1099694E+00
         21   -1    0    0  502  501  0.00000000000E+00  0.00000000000E+00  0.41069742508E+02  0.41069742508E+02  0.00000000000E+00 0.  1.
         21   -1    0    0  501  502 -0.00000000000E+00 -0.00000000000E+00 -0.18118895037E+04  0.18118895037E+04  0.00000000000E+00 0.  1.
         25    1    1    2    0    0  0.60962640084E+01  0.13946239235E+03 -0.31083503265E+03  0.36294674656E+03  0.12500000000E+03 0.  0.
         25    1    1    2    0    0  0.31887842869E+02 -0.78379343323E+02 -0.84194710906E+03  0.85537131728E+03  0.12500000000E+03 0.  0.
         25    1    1    2    0    0 -0.37984106877E+02 -0.61083049032E+02 -0.61803761953E+03  0.63464118241E+03  0.12500000000E+03 0.  0.
</event>
<event>
 5    0  0.5503691E-005  0.2907089E+03  0.7546771E-02  0.1089980E+00
         21   -1    0    0  502  501  0.00000000000E+00  0.00000000000E+00  0.20839872166E+03  0.20839872166E+03  0.00000000000E+00 0. -1.
         21   -1    0    0  501  502 -0.00000000000E+00 -0.00000000000E+00 -0.40552875375E+03  0.40552875375E+03  0.00000000000E+00 0. -1.
         25    1    1    2    0    0 -0.13879360068E+03 -0.19495760504E+01 -0.24613904741E+03  0.30899335769E+03  0.12500000000E+03 0.  0.
         25    1    1    2    0    0  0.77399059113E+02 -0.30480257190E+02  0.59617766979E+02  0.16155165914E+03  0.12500000000E+03 0.  0.
         25    1    1    2    0    0  0.61394541567E+02  0.32429833241E+02 -0.10608751653E+02  0.14338245859E+03  0.12500000000E+03 0.  0.
</event>
<event>
 5    0  0.5503691E-005  0.3974162E+03  0.7546771E-02  0.1044678E+00
         21   -1    0    0  502  501  0.00000000000E+00  0.00000000000E+00  0.11312849731E+04  0.11312849731E+04  0.00000000000E+00 0. -1.
         21   -1    0    0  501  502 -0.00000000000E+00 -0.00000000000E+00 -0.13961080562E+03  0.13961080562E+03  0.00000000000E+00 0. -1.
         25    1    1    2    0    0 -0.11949899415E+03  0.16493593006E+03  0.25158070192E+03  0.34698951022E+03  0.12500000000E+03 0.  0.
         25    1    1    2    0    0  0.12524938451E+03 -0.20788926317E+02  0.20405916459E+02  0.17933485217E+03  0.12500000000E+03 0.  0.
         25    1    1    2    0    0 -0.57503903591E+01 -0.14414700374E+03  0.71968754912E+03  0.74457141635E+03  0.12500000000E+03 0.  0.
</event>
<event>
 5    0  0.5503691E-005  0.4126096E+03  0.7546771E-02  0.1039499E+00
         21   -1    0    0  502  501  0.00000000000E+00  0.00000000000E+00  0.96389920048E+02  0.96389920048E+02  0.00000000000E+00 0.  1.
         21   -1    0    0  501  502 -0.00000000000E+00 -0.00000000000E+00 -0.17662290700E+04  0.17662290700E+04  0.00000000000E+00 0.  1.
         25    1    1    2    0    0 -0.19668022177E+03  0.28265286308E+03 -0.63159339070E+03  0.73014448010E+03  0.12500000000E+03 0.  0.
         25    1    1    2    0    0  0.14991087582E+03 -0.24020591810E+03 -0.76979477279E+03  0.82968737847E+03  0.12500000000E+03 0.  0.
         25    1    1    2    0    0  0.46769345953E+02 -0.42446944975E+02 -0.26845098649E+03  0.30278713151E+03  0.12500000000E+03 0.  0.
</event>
<event>
 5    0  0.5503691E-005  0.2658259E+03  0.7546771E-02  0.1103693E+00
         21   -1    0    0  502  501  0.00000000000E+00  0.00000000000E+00  0.42930548054E+03  0.42930548054E+03  0.00000000000E+00 0. -1.
         21   -1    0    0  501  502 -0.00000000000E+00 -0.00000000000E+00 -0.16459936184E+03  0.16459936184E+03  0.00000000000E+00 0. -1.
         25    1    1    2    0    0 -0.40734620406E+02  0.42402014854E+01  0.68819678754E+01  0.13171807048E+03  0.12500000000E+03 0.  0.
         25    1    1    2    0    0 -0.14721597771E+00 -0.93709873162E+02 -0.34935694644E+01  0.15626505377E+03  0.12500000000E+03 0.  0.
         25    1    1    2    0    0  0.40881836384E+02  0.89469671677E+02  0.26131772029E+03  0.30592171814E+03  0.12500000000E+03 0.  0.
</event>
<event>
 5    0  0.5503691E-005  0.3259445E+03  0.7546771E-02  0.1072946E+00
         21   -1    0    0  502  501  0.00000000000E+00  0.00000000000E+00  0.26164779947E+03  0.26164779947E+03  0.00000000000E+00 0. -1.
         21   -1    0    0  501  502 -0.00000000000E+00 -0.00000000000E+00 -0.40604133415E+03  0.40604133415E+03  0.00000000000E+00 0. -1.
         25    1    1    2    0    0  0.13946181791E+03  0.58046024788E+02  0.10088618822E+03  0.22050388346E+03  0.12500000000E+03 0.  0.
         25    1    1    2    0    0 -0.93244025155E+02 -0.14318114142E+03 -0.10747875718E+03  0.23742782215E+03  0.12500000000E+03 0.  0.
         25    1    1    2    0    0 -0.46217792751E+02  0.85135116632E+02 -0.13780096572E+03  0.20975742800E+03  0.12500000000E+03 0.  0.
</event>
<event>
 5    0  0.5503691E-005  0.2566028E+03  0.7546771E-02  0.1109202E+00
         21   -1    0    0  502  501  0.00000000000E+00  0.00000000000E+00  0.57708764119E+03  0.57708764119E+03  0.00000000000E+00 0. -1.
         21   -1    0    0  501  502 -0.00000000000E+00 -0.00000000000E+00 -0.11409875472E+03  0.11409875472E+03  0.00000000000E+00 0. -1.
         25    1    1    2    0    0 -0.15732022759E+03  0.14442690402E+02  0.14464642999E+03  0.24800369962E+03  0.12500000000E+03 0.  0.
         25    1    1    2    0    0  0.46822649707E+02 -0.38164850635E+02  0.16152628210E+03  0.21298980295E+03  0.12500000000E+03 0.  0.
         25    1    1    2    0    0  0.11049757788E+03  0.23722160233E+02  0.15681617437E+03  0.23019289335E+03  0.12500000000E+03 0.  0.
</event>
<event>
 5    0  0.5503691E-005  0.2749747E+03  0.7546771E-02  0.1098466E+00
         21   -1    0    0  502  501  0.00000000000E+00  0.00000000000E+00  0.13417123185E+03  0.13417123185E+03  0.00000000000E+00 0.  1.
         21   -1    0    0  501  502 -0.00000000000E+00 -0.00000000000E+00 -0.56354165967E+03  0.56354165967E+03  0.00000000000E+00 0.  1.
         25    1    1    2    0    0 -0.99369849781E+02  0.12603247130E+03 -0.23606810648E+03  0.31162750483E+03  0.12500000000E+03 0.  0.
         25    1    1    2    0    0  0.11726148448E+02 -0.90237055139E+02 -0.16612628407E+03  0.22694310066E+03  0.12500000000E+03 0.  0.
         25    1    1    2    0    0  0.87643701333E+02 -0.35795416161E+02 -0.27176037270E+02  0.15914228603E+03  0.12500000000E+03 0.  0.
</event>
<event>
 5    0  0.5503691E-005  0.3563201E+03  0.7546771E-02  0.1060050E+00
         21   -1    0    0  502  501  0.00000000000E+00  0.00000000000E+00  0.25480215798E+03  0.25480215798E+03  0.00000000000E+00 0.  1.
         21   -1    0    0  501  502 -0.00000000000E+00 -0.00000000000E+00 -0.49828474484E+03  0.49828474484E+03  0.00000000000E+00 0. -1.
         25    1    1    2    0    0  0.22550493516E+03 -0.89073735047E+02 -0.23124673023E+03  0.35761243868E+03  0.12500000000E+03 0.  0.
         25    1    1    2    0    0 -0.38917640861E+02  0.44588062549E+02 -0.76000608816E+02  0.15780928563E+03  0.12500000000E+03 0.  0.
         25    1    1    2    0    0 -0.18658729430E+03  0.44485672498E+02  0.63764752190E+02  0.23766517851E+03  0.12500000000E+03 0.  0.
</event>
<event>
 5    0  0.5503691E-005  0.3587155E+03  0.7546771E-02  0.1059094E+00
         21   -1    0    0  502  501  0.00000000000E+00  0.00000000000E+00  0.28146164198E+04  0.28146164198E+04  0.00000000000E+00 0. -1.
         21   -1    0    0  501  502 -0.00000000000E+00 -0.00000000000E+00 -0.45717360946E+02  0.45717360946E+02  0.00000000000E+00 0. -1.
         25    1    1    2    0    0  0.11026736071E+03  0.31111100334E+02  0.10908723852E+04  0.11039720794E+04  0.12500000000E+03 0.  0.
         25    1    1    2    0    0  0.14875566963E+03 -0.18409314978E+02  0.38465112743E+03  0.43133356229E+03  0.12500000000E+03 0.  0.
         25    1    1    2    0    0 -0.25902303034E+03 -0.12701785356E+02  0.12933755462E+04  0.13250281390E+04  0.12500000000E+03 0.  0.
</event>
<event>
 5    0  0.5503691E-005  0.2084739E+03  0.7546771E-02  0.1142780E+00
         21   -1    0    0  502  501  0.00000000000E+00  0.00000000000E+00  0.78895210955E+02  0.78895210955E+02  0.00000000000E+00 0.  1.
         21   -1    0    0  501  502 -0.00000000000E+00 -0.00000000000E+00 -0.55087479872E+03  0.55087479872E+03  0.00000000000E+00 0.  1.
         25    1    1    2    0    0 -0.22669577671E+02 -0.88179304716E+01 -0.13816616432E+03  0.18790038481E+03  0.12500000000E+03 0.  0.
         25    1    1    2    0    0  0.75110742612E+01  0.73378596130E+02 -0.20000971907E+03  0.24712288912E+03  0.12500000000E+03 0.  0.
         25    1    1    2    0    0  0.15158503410E+02 -0.64560665659E+02 -0.13380370437E+03  0.19474673574E+03  0.12500000000E+03 0.  0.
</event>
<event>
 5    0  0.5503691E-005  0.2311091E+03  0.7546771E-02  0.1125862E+00
         21   -1    0    0  502  501  0.00000000000E+00  0.00000000000E+00  0.12681292832E+03  0.12681292832E+03  0.00000000000E+00 0. -1.
         21   -1    0    0  501  502 -0.00000000000E+00 -0.00000000000E+00 -0.42118264269E+03  0.42118264269E+03  0.00000000000E+00 0. -1.
         25    1    1    2    0    0  0.48376474634E+02  0.44747105821E+02 -0.17615579520E+03  0.22582836616E+03  0.12500000000E+03 0.  0.
         25    1    1    2    0    0 -0.33140370256E+02 -0.97584970476E+02 -0.50198045651E+02  0.16960528998E+03  0.12500000000E+03 0.  0.
         25    1    1    2    0    0 -0.15236104377E+02  0.52837864655E+02 -0.68015873520E+02  0.15256191487E+03  0.12500000000E+03 0.  0.
</event>
<event>
 5    0  0.5503691E-005  0.2512717E+03  0.7546771E-02  0.1112504E+00
         21   -1    0    0  502  501  0.00000000000E+00  0.00000000000E+00  0.15025399486E+03  0.15025399486E+03  0.00000000000E+00 0.  1.
         21   -1    0    0  501  502 -0.00000000000E+00 -0.00000000000E+00 -0.42020489674E+03  0.42020489674E+03  0.00000000000E+00 0.  1.
         25    1    1    2    0    0  0.90194582769E+02  0.12604392764E+02 -0.63557892787E+02  0.16720807162E+03  0.12500000000E+03 0.  0.
         25    1    1    2    0    0 -0.14828470555E+03 -0.44260166632E+02 -0.82954682342E+02  0.21553142595E+03  0.12500000000E+03 0.  0.
         25    1    1    2    0    0  0.58090122784E+02  0.31655773868E+02 -0.12343832675E+03  0.18771939403E+03  0.12500000000E+03 0.  0.
</event>
<event>
 5    0  0.5503691E-005  0.2299668E+03  0.7546771E-02  0.1126663E+00
         21   -1    0    0  502  501  0.00000000000E+00  0.00000000000E+00  0.74309343018E+03  0.74309343018E+03  0.00000000000E+00 0. -1.
         21   -1    0    0  501  502 -0.00000000000E+00 -0.00000000000E+00 -0.71168375067E+02  0.71168375067E+02  0.00000000000E+00 0. -1.
         25    1    1    2    0    0 -0.67860124362E+02 -0.34425438695E+02  0.15794281685E+03  0.21531614130E+03  0.12500000000E+03 0.  0.
         25    1    1    2    0    0  0.20510886737E+01  0.89459645394E+02  0.29425400936E+03  0.33199044737E+03  0.12500000000E+03 0.  0.
         25    1    1    2    0    0  0.65809035688E+02 -0.55034206699E+02  0.21972822890E+03  0.26695521658E+03  0.12500000000E+03 0.  0.
</event>
<event>
 5    0  0.5503691E-005  0.3223272E+03  0.7546771E-02  0.1074583E+00
         21   -1    0    0  502  501  0.00000000000E+00  0.00000000000E+00  0.21812006984E+04  0.21812006984E+04  0.00000000000E+00 0. -1.
         21   -1    0    0  501  502 -0.00000000000E+00 -0.00000000000E+00 -0.47631945177E+02  0.47631945177E+02  0.00000000000E+00 0. -1.
         25    1    1    2    0    0 -0.10302154231E+03 -0.18343346913E+03  0.50467469368E+03  0.56087683338E+03  0.12500000000E+03 0.  0.
         25    1    1    2    0    0  0.90375210892E+02  0.13859631103E+03  0.71800640971E+03  0.74735187198E+03  0.12500000000E+03 0.  0.
         25    1    1    2    0    0  0.12646331420E+02  0.44837158099E+02  0.91088764986E+03  0.92060393824E+03  0.12500000000E+03 0.  0.
</event>
<event>
 5    0  0.5503691E-005  0.4041608E+03  0.7546771E-02  0.1042348E+00
         21   -1    0    0  502  501  0.00000000000E+00  0.00000000000E+00  0.10729751583E+04  0.10729751583E+04  0.00000000000E+00 0.  1.
         21   -1    0    0  501  502 -0.00000000000E+00 -0.00000000000E+00 -0.15223650447E+03  0.15223650447E+03  0.00000000000E+00 0.  1.
         25    1    1    2    0    0  0.31692163998E+02  0.14491384056E+03  0.16126479636E+03  0.25226127128E+03  0.12500000000E+03 0.  0.
         25    1    1    2    0    0 -0.22322279216E+03  0.42553369053E+02  0.55738621562E+03  0.61477117493E+03  0.12500000000E+03 0.  0.
         25    1    1    2    0    0  0.19153062816E+03 -0.18746720961E+03  0.20208764188E+03  0.35817921660E+03  0.12500000000E+03 0.  0.
</event>
<event>
 5    0  0.5503691E-005  0.2996879E+03  0.7546771E-02  0.1085397E+00
         21   -1    0    0  502  501  0.00000000000E+00  0.00000000000E+00  0.11700315806E+04  0.11700315806E+04  0.00000000000E+00 0.  1.
         21   -1    0    0  501  502 -0.00000000000E+00 -0.00000000000E+00 -0.76761012542E+02  0.76761012542E+02  0.00000000000E+00 0.  1.
         25    1    1    2    0    0  0.35318898398E+02 -0.67181955789E+02  0.10322405722E+03  0.17900012781E+03  0.12500000000E+03 0.  0.
         25    1    1    2    0    0  0.11778018071E+03  0.96634403312E+02  0.55785925593E+03  0.59164375117E+03  0.12500000000E+03 0.  0.
         25    1    1    2    0    0 -0.15309907911E+03 -0.29452447522E+02  0.43218725489E+03  0.47614871414E+03  0.12500000000E+03 0.  0.
</event>
<event>
 5    0  0.5503691E-005  0.4161034E+03  0.7546771E-02  0.1038342E+00
         21   -1    0    0  502  501  0.00000000000E+00  0.00000000000E+00  0.14691057970E+04  0.14691057970E+04  0.00000000000E+00 0. -1.
         21   -1    0    0  501  502 -0.00000000000E+00 -0.00000000000E+00 -0.11785541401E+03  0.11785541401E+03  0.00000000000E+00 0. -1.
         25    1    1    2    0    0  0.28469474509E+03  0.10005261463E+03  0.73893488645E+03  0.80790555759E+03  0.12500000000E+03 0.  0.
         25    1    1    2    0    0 -0.27919998928E+03 -0.72887670448E+02  0.55687749231E+03  0.63953325790E+03  0.12500000000E+03 0.  0.
         25    1    1    2    0    0 -0.54947558119E+01 -0.27164944186E+02  0.55438004205E+02  0.13952239549E+03  0.12500000000E+03 0.  0.
</event>
<event>
 5    0  0.5503691E-005  0.2038622E+03  0.7546771E-02  0.1146521E+00
         21   -1    0    0  502  501  0.00000000000E+00  0.00000000000E+00  0.16670318098E+03  0.16670318098E+03  0.00000000000E+00 0. -1.
         21   -1    0    0  501  502 -0.00000000000E+00 -0.00000000000E+00 -0.24930422984E+03  0.24930422984E+03  0.00000000000E+00 0. -1.
         25    1    1    2    0    0 -0.29065829382E+02  0.35282634072E+01 -0.80806980481E+02  0.15169719567E+03  0.12500000000E+03 0.  0.
         25    1    1    2    0    0  0.25770696396E+02  0.87305705349E+00  0.37735698752E+02  0.13309347836E+03  0.12500000000E+03 0.  0.
         25    1    1    2    0    0  0.32951329856E+01 -0.44013204607E+01 -0.39529767131E+02  0.13121673679E+03  0.12500000000E+03 0.  0.
</event>
<event>
 5    0  0.5503691E-005  0.2298843E+03  0.7546771E-02  0.1126721E+00
         21   -1    0    0  502  501  0.00000000000E+00  0.00000000000E+00  0.17077276220E+03  0.17077276220E+03  0.00000000000E+00 0.  1.
         21   -1    0    0  501  502 -0.00000000000E+00 -0.00000000000E+00 -0.30945669190E+03  0.30945669190E+03  0.00000000000E+00 0.  1.
         25    1    1    2    0    0  0.84961470627E+02 -0.14684686405E+01 -0.25102195496E+02  0.15321791054E+03  0.12500000000E+03 0.  0.
         25    1    1    2    0    0 -0.64517751112E+02  0.41261628593E+02 -0.12648748483E+03  0.19362114043E+03  0.12500000000E+03 0.  0.
         25    1    1    2    0    0 -0.20443719516E+02 -0.39793159952E+02  0.12905750623E+02  0.13339040312E+03  0.12500000000E+03 0.  0.
</event>
<event>
 5    0  0.5503691E-005  0.3580974E+03  0.7546771E-02  0.1059340E+00
         21   -1    0    0  502  501  0.00000000000E+00  0.00000000000E+00  0.20147651255E+03  0.20147651255E+03  0.00000000000E+00 0.  1.
         21   -1    0    0  501  502 -0.00000000000E+00 -0.00000000000E+00 -0.63646983171E+03  0.63646983171E+03  0.00000000000E+00 0.  1.
         25    1    1    2    0    0  0.12650364846E+03  0.35903520631E+02 -0.17342844039E+03  0.25098736981E+03  0.12500000000E+03 0.  0.
         25    1    1    2    0    0 -0.26818847028E+03 -0.11863575247E+03 -0.17006392263E+03  0.36131182535E+03  0.12500000000E+03 0.  0.
         25    1    1    2    0    0  0.14168482182E+03  0.82732231844E+02 -0.91500956144E+02  0.22564714910E+03  0.12500000000E+03 0.  0.
</event>
<event>
 5    0  0.8694109E-005  0.6496104E+03  0.7546771E-02  0.9807511E-01
         21   -1    0    0  502  501  0.00000000000E+00  0.00000000000E+00  0.10093258328E+04  0.10093258328E+04  0.00000000000E+00 0. -1.
         21   -1    0    0  501  502 -0.00000000000E+00 -0.00000000000E+00 -0.41809455216E+03  0.41809455216E+03  0.00000000000E+00 0. -1.
         25    1    1    2    0    0 -0.83062253339E+02 -0.93777108646E+02  0.49786764848E+03  0.52838497276E+03  0.12500000000E+03 0.  0.
         25    1    1    2    0    0  0.41939421834E+03 -0.56237823628E+01  0.23968032897E+03  0.49899378494E+03  0.12500000000E+03 0.  0.
         25    1    1    2    0    0 -0.33633196501E+03  0.99400891008E+02 -0.14631669677E+03  0.40004162730E+03  0.12500000000E+03 0.  0.
</event>
<event>
 5    0  0.5503691E-005  0.3026876E+03  0.7546771E-02  0.1083905E+00
         21   -1    0    0  502  501  0.00000000000E+00  0.00000000000E+00  0.24936755378E+03  0.24936755378E+03  0.00000000000E+00 0. -1.
         21   -1    0    0  501  502 -0.00000000000E+00 -0.00000000000E+00 -0.36740857623E+03  0.36740857623E+03  0.00000000000E+00 0. -1.
         25    1    1    2    0    0 -0.15872424057E+03  0.67681874686E+02 -0.35609333434E+02  0.21602602930E+03  0.12500000000E+03 0.  0.
         25    1    1    2    0    0  0.13233042608E+03  0.72279808781E+02 -0.79073320112E+02  0.21121861276E+03  0.12500000000E+03 0.  0.
         25    1    1    2    0    0  0.26393814495E+02 -0.13996168347E+03 -0.33583689087E+01  0.18953148795E+03  0.12500000000E+03 0.  0.
</event>
<event>
 5    0  0.5503691E-005  0.2459476E+03  0.7546771E-02  0.1115893E+00
         21   -1    0    0  502  501  0.00000000000E+00  0.00000000000E+00  0.19897527064E+03  0.19897527064E+03  0.00000000000E+00 0.  1.
         21   -1    0    0  501  502 -0.00000000000E+00 -0.00000000000E+00 -0.30400864653E+03  0.30400864653E+03  0.00000000000E+00 0.  1.
         25    1    1    2    0    0  0.58714979866E+02 -0.11465003140E+03 -0.53537428462E+02  0.18730545856E+03  0.12500000000E+03 0.  0.
         25    1    1    2    0    0 -0.89413531373E+02  0.85702328670E+02 -0.58135816717E+01  0.17606381361E+03  0.12500000000E+03 0.  0.
         25    1    1    2    0    0  0.30698551507E+02  0.28947702728E+02 -0.45682365759E+02  0.13961464500E+03  0.12500000000E+03 0.  0.
</event>
<event>
 5    0  0.5503691E-005  0.3600272E+03  0.7546771E-02  0.1058573E+00
         21   -1    0    0  502  501  0.00000000000E+00  0.00000000000E+00  0.10778442334E+03  0.10778442334E+03  0.00000000000E+00 0. -1.
         21   -1    0    0  501  502 -0.00000000000E+00 -0.00000000000E+00 -0.12025819698E+04  0.12025819698E+04  0.00000000000E+00 0. -1.
         25    1    1    2    0    0  0.30547979055E+02 -0.14113859241E+03 -0.60023856917E+03  0.62989254735E+03  0.12500000000E+03 0.  0.
         25    1    1    2    0    0 -0.19464893821E+03  0.61156121111E+02 -0.31474107192E+03  0.39536719976E+03  0.12500000000E+03 0.  0.
         25    1    1    2    0    0  0.16410095916E+03  0.79982471301E+02 -0.17981790535E+03  0.28510664600E+03  0.12500000000E+03 0.  0.
</event>
<event>
 5    0  0.5503691E-005  0.2650287E+03  0.7546771E-02  0.1104159E+00
         21   -1    0    0  502  501  0.00000000000E+00  0.00000000000E+00  0.78105374799E+03  0.78105374799E+03  0.00000000000E+00 0.  1.
         21   -1    0    0  501  502 -0.00000000000E+00 -0.00000000000E+00 -0.89930093723E+02  0.89930093723E+02  0.00000000000E+00 0.  1.
         25    1    1    2    0    0 -0.44455554158E+02  0.10418946560E+03  0.25942681943E+03  0.30944953656E+03  0.12500000000E+03 0.  0.
         25    1    1    2    0    0 -0.72231713229E+02  0.18848777681E+02  0.21176444715E+03  0.25698614339E+03  0.12500000000E+03 0.  0.
         25    1    1    2    0    0  0.11668726739E+03 -0.12303824328E+03  0.21993238769E+03  0.30454816177E+03  0.12500000000E+03 0.  0.
</event>
<event>
 5    0  0.5503691E-005  0.2463725E+03  0.7546771E-02  0.1115619E+00
         21   -1    0    0  502  501  0.00000000000E+00  0.00000000000E+00  0.67952706579E+03  0.67952706579E+03  0.00000000000E+00 0. -1.
         21   -1    0    0  501  502 -0.00000000000E+00 -0.00000000000E+00 -0.89325986139E+02  0.89325986139E+02  0.00000000000E+00 0. -1.
         25    1    1    2    0    0 -0.21381400572E+02  0.13475210276E+03  0.28822267589E+03  0.34250927635E+03  0.12500000000E+03 0.  0.
         25    1    1    2    0    0  0.35707067842E+02 -0.21843534124E+02  0.13741908063E+03  0.19042357627E+03  0.12500000000E+03 0.  0.
         25    1    1    2    0    0 -0.14325667270E+02 -0.11290856864E+03  0.16455932312E+03  0.23592019931E+03  0.12500000000E+03 0.  0.
</event>
<event>
 5    0  0.5503691E-005  0.3583276E+03  0.7546771E-02  0.1059248E+00
         21   -1    0    0  502  501  0.00000000000E+00  0.00000000000E+00  0.13714772882E+04  0.13714772882E+04  0.00000000000E+00 0.  1.
         21   -1    0    0  501  502 -0.00000000000E+00 -0.00000000000E+00 -0.93620712372E+02  0.93620712372E+02  0.00000000000E+00 0.  1.
         25    1    1    2    0    0 -0.64270581926E+02  0.30384761579E+02  0.51909668345E+02  0.15288412313E+03  0.12500000000E+03 0.  0.
         25    1    1    2    0    0 -0.45674831340E+02 -0.84869988300E+02  0.13620657002E+03  0.20848581450E+03  0.12500000000E+03 0.  0.
         25    1    1    2    0    0  0.10994541327E+03  0.54485226722E+02  0.10897403375E+04  0.11037280630E+04  0.12500000000E+03 0.  0.
</event>
<event>
 5    0  0.5503691E-005  0.2312136E+03  0.7546771E-02  0.1125788E+00
         21   -1    0    0  502  501  0.00000000000E+00  0.00000000000E+00  0.17873383497E+03  0.17873383497E+03  0.00000000000E+00 0. -1.
         21   -1    0    0  501  502 -0.00000000000E+00 -0.00000000000E+00 -0.29910243596E+03  0.29910243596E+03  0.00000000000E+00 0. -1.
         25    1    1    2    0    0  0.35512250678E+02  0.25330539303E+02 -0.14658948996E+03  0.19752527619E+03  0.12500000000E+03 0.  0.
         25    1    1    2    0    0  0.63313087566E+01 -0.61478138946E+02 -0.70977672285E+01  0.13962458716E+03  0.12500000000E+03 0.  0.
         25    1    1    2    0    0 -0.41843559434E+02  0.36147599643E+02  0.33318656195E+02  0.14068640758E+03  0.12500000000E+03 0.  0.
</event>
<event>
 5    0  0.5503691E-005  0.2506520E+03  0.7546771E-02  0.1112893E+00
         21   -1    0    0  502  501  0.00000000000E+00  0.00000000000E+00  0.37981450061E+03  0.37981450061E+03  0.00000000000E+00 0.  1.
         21   -1    0    0  501  502 -0.00000000000E+00 -0.00000000000E+00 -0.16541338541E+03  0.16541338541E+03  0.00000000000E+00 0.  1.
         25    1    1    2    0    0 -0.41620695463E+02  0.13773964962E+03  0.61157731107E+02  0.20017432763E+03  0.12500000000E+03 0.  0.
         25    1    1    2    0    0  0.30739167450E+02 -0.75606764510E+02  0.13958037503E+03  0.20437455896E+03  0.12500000000E+03 0.  0.
         25    1    1    2    0    0  0.10881528013E+02 -0.62132885109E+02  0.13663009065E+02  0.14067899943E+03  0.12500000000E+03 0.  0.
</event>
<event>
 5    0  0.5503691E-005  0.4145223E+03  0.7546771E-02  0.1038864E+00
         21   -1    0    0  502  501  0.00000000000E+00  0.00000000000E+00  0.15627155667E+04  0.15627155667E+04  0.00000000000E+00 0. -1.
         21   -1    0    0  501  502 -0.00000000000E+00 -0.00000000000E+00 -0.10995521265E+03  0.10995521265E+03  0.00000000000E+00 0. -1.
         25    1    1    2    0    0  0.10404097837E+03 -0.19641797536E+03  0.61350705549E+03  0.66439480233E+03  0.12500000000E+03 0.  0.
         25    1    1    2    0    0 -0.12285872943E+03 -0.33533672785E+02  0.63607816667E+02  0.18944584701E+03  0.12500000000E+03 0.  0.
         25    1    1    2    0    0  0.18817751061E+02  0.22995164815E+03  0.77564548191E+03  0.81883013003E+03  0.12500000000E+03 0.  0.
</event>
<event>
 5    0  0.5503691E-005  0.2973925E+03  0.7546771E-02  0.1086551E+00
         21   -1    0    0  502  501  0.00000000000E+00  0.00000000000E+00  0.24199636783E+03  0.24199636783E+03  0.00000000000E+00 0.  1.
         21   -1    0    0  501  502 -0.00000000000E+00 -0.00000000000E+00 -0.36546962118E+03  0.36546962118E+03  0.00000000000E+00 0.  1.
         25    1    1    2    0    0 -0.14047706988E+03 -0.62133042615E+02 -0.95273165708E+02  0.21976418783E+03  0.12500000000E+03 0.  0.
         25    1    1    2    0    0  0.13552619416E+03 -0.72618563280E+02  0.15339634919E+02  0.19874886021E+03  0.12500000000E+03 0.  0.
         25    1    1    2    0    0  0.49508757280E+01  0.13475160590E+03 -0.43539722559E+02  0.18895294097E+03  0.12500000000E+03 0.  0.
</event>
<event>
 5    0  0.5503691E-005  0.3214434E+03  0.7546771E-02  0.1074987E+00
         21   -1    0    0  502  501  0.00000000000E+00  0.00000000000E+00  0.39332137176E+03  0.39332137176E+03  0.00000000000E+00 0.  1.
         21   -1    0    0  501  502 -0.00000000000E+00 -0.00000000000E+00 -0.26270084165E+03  0.26270084165E+03  0.00000000000E+00 0.  1.
         25    1    1    2    0    0 -0.16982336068E+02  0.95593841160E+02 -0.16109571746E+03  0.22583935084E+03  0.12500000000E+03 0.  0.
         25    1    1    2    0    0  0.64488171945E+01  0.65241466327E+01  0.22010011482E+03  0.25328484415E+03  0.12500000000E+03 0.  0.
         25    1    1    2    0    0  0.10533518873E+02 -0.10211798779E+03  0.71616132748E+02  0.17689801842E+03  0.12500000000E+03 0.  0.
</event>
<event>
 5    0  0.5503691E-005  0.2880206E+03  0.7546771E-02  0.1091387E+00
         21   -1    0    0  502  501  0.00000000000E+00  0.00000000000E+00  0.18896726336E+03  0.18896726336E+03  0.00000000000E+00 0. -1.
         21   -1    0    0  501  502 -0.00000000000E+00 -0.00000000000E+00 -0.43899603426E+03  0.43899603426E+03  0.00000000000E+00 0. -1.
         25    1    1    2    0    0 -0.15001276443E+02 -0.86943613105E+01 -0.10777033241E+03  0.16595202548E+03  0.12500000000E+03 0.  0.
         25    1    1    2    0    0  0.16188813141E+03 -0.76641674879E+02 -0.12187052001E+03  0.25011824617E+03  0.12500000000E+03 0.  0.
         25    1    1    2    0    0 -0.14688685497E+03  0.85336036189E+02 -0.20387918486E+02  0.21189302597E+03  0.12500000000E+03 0.  0.
</event>
<event>
 5    0  0.5503691E-005  0.2696025E+03  0.7546771E-02  0.1101507E+00
         21   -1    0    0  502  501  0.00000000000E+00  0.00000000000E+00  0.14297601155E+03  0.14297601155E+03  0.00000000000E+00 0.  1.
         21   -1    0    0  501  502 -0.00000000000E+00 -0.00000000000E+00 -0.50837546049E+03  0.50837546049E+03  0.00000000000E+00 0.  1.
         25    1    1    2    0    0 -0.11707453388E+03  0.14020375775E+03 -0.11486035271E+03  0.24936206767E+03  0.12500000000E+03 0.  0.
         25    1    1    2    0    0  0.65099552293E+02 -0.90083825789E+02 -0.16074748550E+03  0.23198664072E+03  0.12500000000E+03 0.  0.
         25    1    1    2    0    0  0.51974981584E+02 -0.50119931960E+02 -0.89791610727E+02  0.17000276365E+03  0.12500000000E+03 0.  0.
</event>
<event>
 5    0  0.5503691E-005  0.2626744E+03  0.7546771E-02  0.1105547E+00
         21   -1    0    0  502  501  0.00000000000E+00  0.00000000000E+00  0.15884936781E+03  0.15884936781E+03  0.00000000000E+00 0. -1.
         21   -1    0    0  501  502 -0.00000000000E+00 -0.00000000000E+00 -0.43436021864E+03  0.43436021864E+03  0.00000000000E+00 0. -1.
         25    1    1    2    0    0  0.96278025420E+01  0.89812516271E+02 -0.21138355561E+03  0.26166197707E+03  0.12500000000E+03 0.  0.
         25    1    1    2    0    0  0.18201999614E+02 -0.12478020369E+02  0.56918091687E+02  0.13911032652E+03  0.12500000000E+03 0.  0.
         25    1    1    2    0    0 -0.27829802156E+02 -0.77334495903E+02 -0.12104538692E+03  0.19243728287E+03  0.12500000000E+03 0.  0.
</event>
<event>
 5    0  0.5503691E-005  0.3948641E+03  0.7546771E-02  0.1045573E+00
         21   -1    0    0  502  501  0.00000000000E+00  0.00000000000E+00  0.96696472790E+02  0.96696472790E+02  0.00000000000E+00 0. -1.
         21   -1    0    0  501  502 -0.00000000000E+00 -0.00000000000E+00 -0.16124437961E+04  0.16124437961E+04  0.00000000000E+00 0. -1.
         25    1    1    2    0    0  0.16068820704E+03 -0.15179948524E+03 -0.14857044596E+03  0.29421414143E+03  0.12500000000E+03 0.  0.
         25    1    1    2    0    0 -0.10227388337E+03  0.20986584875E+02 -0.80974055349E+03  0.82595711023E+03  0.12500000000E+03 0.  0.
         25    1    1    2    0    0 -0.58414323676E+02  0.13081290037E+03 -0.55743632388E+03  0.58896901726E+03  0.12500000000E+03 0.  0.
</event>
<event>
 5    0  0.5503691E-005  0.5708848E+03  0.7546771E-02  0.9967723E-01
         21   -1    0    0  502  501  0.00000000000E+00  0.00000000000E+00  0.98051162484E+03  0.98051162484E+03  0.00000000000E+00 0. -1.
         21   -1    0    0  501  502 -0.00000000000E+00 -0.00000000000E+00 -0.33238709977E+03  0.33238709977E+03  0.00000000000E+00 0. -1.
         25    1    1    2    0    0  0.41161915419E+02 -0.52433286818E+02 -0.24853985790E+03  0.28607798555E+03  0.12500000000E+03 0.  0.
         25    1    1    2    0    0  0.43655338070E+02 -0.13408550296E+03  0.67250372900E+03  0.69840602529E+03  0.12500000000E+03 0.  0.
         25    1    1    2    0    0 -0.84817253489E+02  0.18651878978E+03  0.22416065398E+03  0.32841471377E+03  0.12500000000E+03 0.  0.
</event>
<event>
 5    0  0.5503691E-005  0.2915427E+03  0.7546771E-02  0.1089546E+00
         21   -1    0    0  502  501  0.00000000000E+00  0.00000000000E+00  0.61005398821E+03  0.61005398821E+03  0.00000000000E+00 0.  1.
         21   -1    0    0  501  502 -0.00000000000E+00 -0.00000000000E+00 -0.13932724786E+03  0.13932724786E+03  0.00000000000E+00 0.  1.
         25    1    1    2    0    0 -0.10482907956E+03 -0.35096595489E+02  0.96860518102E+02  0.19294524328E+03  0.12500000000E+03 0.  0.
         25    1    1    2    0    0 -0.92800649219E+02 -0.47334687951E+02  0.12554298041E+03  0.20552024988E+03  0.12500000000E+03 0.  0.
         25    1    1    2    0    0  0.19762972878E+03  0.82431283440E+02  0.24832324184E+03  0.35091574292E+03  0.12500000000E+03 0.  0.
</event>
<event>
 5    0  0.5503691E-005  0.2665830E+03  0.7546771E-02  0.1103251E+00
         21   -1    0    0  502  501  0.00000000000E+00  0.00000000000E+00  0.25966554372E+04  0.25966554372E+04  0.00000000000E+00 0. -1.
         21   -1    0    0  501  502 -0.00000000000E+00 -0.00000000000E+00 -0.27368473622E+02  0.27368473622E+02  0.00000000000E+00 0. -1.
         25    1    1    2    0    0 -0.16938175885E+02  0.10707556383E+03  0.41762464593E+03  0.44920755009E+03  0.12500000000E+03 0.  0.
         25    1    1    2    0    0 -0.24611224358E+02  0.22818190323E+02  0.10107554440E+04  0.10190083169E+04  0.12500000000E+03 0.  0.
         25    1    1    2    0    0  0.41549400243E+02 -0.12989375415E+03  0.11409068736E+04  0.11558080439E+04  0.12500000000E+03 0.  0.
</event>
<event>
 5    0  0.5503691E-005  0.3501031E+03  0.7546771E-02  0.1062573E+00
         21   -1    0    0  502  501  0.00000000000E+00  0.00000000000E+00  0.14228210984E+03  0.14228210984E+03  0.00000000000E+00 0. -1.
         21   -1    0    0  501  502 -0.00000000000E+00 -0.00000000000E+00 -0.86147308779E+03  0.86147308779E+03  0.00000000000E+00 0. -1.
         25    1    1    2    0    0  0.81538012141E+02  0.54029891954E+02 -0.58013460736E+02  0.16899182902E+03  0.12500000000E+03 0.  0.
         25    1    1    2    0    0 -0.53575601391E+02 -0.11361297858E+03 -0.67017443259E+03  0.69320777842E+03  0.12500000000E+03 0.  0.
         25    1    1    2    0    0 -0.27962410750E+02  0.59583086629E+02  0.89969153732E+01  0.14155559019E+03  0.12500000000E+03 0.  0.
</event>
<event>
 5    0  0.5503691E-005  0.2778696E+03  0.7546771E-02  0.1096858E+00
         21   -1    0    0  502  501  0.00000000000E+00  0.00000000000E+00  0.28282155695E+03  0.28282155695E+03  0.00000000000E+00 0.  1.
         21   -1    0    0  501  502 -0.00000000000E+00 -0.00000000000E+00 -0.27300426339E+03  0.27300426339E+03  0.00000000000E+00 0.  1.
         25    1    1    2    0    0  0.16019577505E+03 -0.15834509956E+02  0.96214077687E+02  0.22537871859E+03  0.12500000000E+03 0.  0.
         25    1    1    2    0    0 -0.12876095671E+03  0.22455695123E+02 -0.88544556839E+02  0.20136727828E+03  0.12500000000E+03 0.  0.
         25    1    1    2    0    0 -0.31434818347E+02 -0.66211851672E+01  0.21477727084E+01  0.12907982346E+03  0.12500000000E+03 0.  0.
</event>
<event>
 5    0  0.5503691E-005  0.3207901E+03  0.7546771E-02  0.1075286E+00
         21   -1    0    0  502  501  0.00000000000E+00  0.00000000000E+00  0.50834363704E+02  0.50834363704E+02  0.00000000000E+00 0.  1.
         21   -1    0    0  501  502 -0.00000000000E+00 -0.00000000000E+00 -0.20243450384E+04  0.20243450384E+04  0.00000000000E+00 0.  1.
         25    1    1    2    0    0  0.32894367817E+02 -0.75846403576E+02 -0.22575210927E+03  0.27096813689E+03  0.12500000000E+03 0.  0.
         25    1    1    2    0    0  0.10991930533E+02  0.18517132038E+03 -0.13837495403E+04  0.14017121783E+04  0.12500000000E+03 0.  0.
         25    1    1    2    0    0 -0.43886298350E+02 -0.10932491681E+03 -0.36400902512E+03  0.40249908694E+03  0.12500000000E+03 0.  0.
</event>
<event>
 5    0  0.5503691E-005  0.2278891E+03  0.7546771E-02  0.1128134E+00
         21   -1    0    0  502  501  0.00000000000E+00  0.00000000000E+00  0.41576207666E+03  0.41576207666E+03  0.00000000000E+00 0. -1.
         21   -1    0    0  501  502 -0.00000000000E+00 -0.00000000000E+00 -0.12491141771E+03  0.12491141771E+03  0.00000000000E+00 0. -1.
         25    1    1    2    0    0 -0.67270710750E+02  0.48253515993E+01  0.14761681825E+03  0.20485203825E+03  0.12500000000E+03 0.  0.
         25    1    1    2    0    0  0.40628340855E+02  0.69222718587E+02  0.34768452819E+02  0.15256569785E+03  0.12500000000E+03 0.  0.
         25    1    1    2    0    0  0.26642369894E+02 -0.74048070186E+02  0.10846538789E+03  0.18325575828E+03  0.12500000000E+03 0.  0.
</event>
<event>
 5    0  0.5503691E-005  0.4085417E+03  0.7546771E-02  0.1040861E+00
         21   -1    0    0  502  501  0.00000000000E+00  0.00000000000E+00  0.13226599215E+04  0.13226599215E+04  0.00000000000E+00 0.  1.
         21   -1    0    0  501  502 -0.00000000000E+00 -0.00000000000E+00 -0.12618987686E+03  0.12618987686E+03  0.00000000000E+00 0.  1.
         25    1    1    2    0    0  0.52378044517E+01  0.83946722610E+02  0.83904588847E+03  0.85246553584E+03  0.12500000000E+03 0.  0.
         25    1    1    2    0    0 -0.56154913134E+02 -0.19178146379E+03  0.35188659429E+03  0.42353592452E+03  0.12500000000E+03 0.  0.
         25    1    1    2    0    0  0.50917108683E+02  0.10783474118E+03  0.55375618994E+01  0.17284833801E+03  0.12500000000E+03 0.  0.
</event>
<event>
 5    0  0.5503691E-005  0.2760406E+03  0.7546771E-02  0.1097871E+00
         21   -1    0    0  502  501  0.00000000000E+00  0.00000000000E+00  0.67654230927E+02  0.67654230927E+02  0.00000000000E+00 0.  1.
         21   -1    0    0  501  502 -0.00000000000E+00 -0.00000000000E+00 -0.11262918609E+04  0.11262918609E+04  0.00000000000E+00 0.  1.
         25    1    1    2    0    0  0.11101539999E+02 -0.10878724121E+03 -0.18618408621E+03  0.24949433260E+03  0.12500000000E+03 0.  0.
         25    1    1    2    0    0  0.46273471113E+02 -0.44601611378E+02 -0.49338170262E+03  0.51301173705E+03  0.12500000000E+03 0.  0.
         25    1    1    2    0    0 -0.57375011111E+02  0.15338885259E+03 -0.37907184118E+03  0.43144002222E+03  0.12500000000E+03 0.  0.
</event>
<event>
 5    0  0.5503691E-005  0.2397588E+03  0.7546771E-02  0.1119954E+00
         21   -1    0    0  502  501  0.00000000000E+00  0.00000000000E+00  0.50059662417E+03  0.50059662417E+03  0.00000000000E+00 0.  1.
         21   -1    0    0  501  502 -0.00000000000E+00 -0.00000000000E+00 -0.11483149897E+03  0.11483149897E+03  0.00000000000E+00 0.  1.
         25    1    1    2    0    0  0.89278014689E+01  0.85126909680E+02  0.11935457268E+03  0.19286474641E+03  0.12500000000E+03 0.  0.
         25    1    1    2    0    0  0.72161218694E+02 -0.90189652029E+01  0.18961758211E+03  0.23847098495E+03  0.12500000000E+03 0.  0.
         25    1    1    2    0    0 -0.81089020163E+02 -0.76107944478E+02  0.76792970416E+02  0.18409239177E+03  0.12500000000E+03 0.  0.
</event>
<event>
 5    0  0.5503691E-005  0.2607911E+03  0.7546771E-02  0.1106669E+00
         21   -1    0    0  502  501  0.00000000000E+00  0.00000000000E+00  0.51092635742E+03  0.51092635742E+03  0.00000000000E+00 0. -1.
         21   -1    0    0  501  502 -0.00000000000E+00 -0.00000000000E+00 -0.13311505293E+03  0.13311505293E+03  0.00000000000E+00 0. -1.
         25    1    1    2    0    0 -0.14747038983E+02  0.67206246161E+02  0.89225561489E+02  0.16828652800E+03  0.12500000000E+03 0.  0.
         25    1    1    2    0    0  0.13948124802E+03  0.29778630327E+01  0.12696477358E+03  0.22629392380E+03  0.12500000000E+03 0.  0.
         25    1    1    2    0    0 -0.12473420904E+03 -0.70184109194E+02  0.16162096942E+03  0.24946095856E+03  0.12500000000E+03 0.  0.
</event>
<event>
 5    0  0.5503691E-005  0.4240349E+03  0.7546771E-02  0.1035761E+00
         21   -1    0    0  502  501  0.00000000000E+00  0.00000000000E+00  0.31585346038E+03  0.31585346038E+03  0.00000000000E+00 0. -1.
         21   -1    0    0  501  502 -0.00000000000E+00 -0.00000000000E+00 -0.56926912096E+03  0.56926912096E+03  0.00000000000E+00 0. -1.
         25    1    1    2    0    0  0.15154224481E+03 -0.71869757869E+02 -0.19353927163E+03  0.28497853204E+03  0.12500000000E+03 0.  0.
         25    1    1    2    0    0 -0.13884727509E+03 -0.26805991160E+02  0.21259728726E+03  0.28428811707E+03  0.12500000000E+03 0.  0.
         25    1    1    2    0    0 -0.12694969723E+02  0.98675749028E+02 -0.27247367620E+03  0.31585593223E+03  0.12500000000E+03 0.  0.
</event>
<event>
 5    0  0.5503691E-005  0.2400166E+03  0.7546771E-02  0.1119782E+00
         21   -1    0    0  502  501  0.00000000000E+00  0.00000000000E+00  0.39719569162E+03  0.39719569162E+03  0.00000000000E+00 0. -1.
         21   -1    0    0  501  502 -0.00000000000E+00 -0.00000000000E+00 -0.14503675692E+03  0.14503675692E+03  0.00000000000E+00 0. -1.
         25    1    1    2    0    0 -0.47206032294E+02 -0.21316098790E+02  0.18490300764E+03  0.22912203689E+03  0.12500000000E+03 0.  0.
         25    1    1    2    0    0  0.10290812926E+03 -0.46279231336E+00  0.71622879840E+01  0.16206972454E+03  0.12500000000E+03 0.  0.
         25    1    1    2    0    0 -0.55702096968E+02  0.21778891103E+02  0.60093639071E+02  0.15104068710E+03  0.12500000000E+03 0.  0.
</event>
<event>
 5    0  0.5503691E-005  0.3137483E+03  0.7546771E-02  0.1078563E+00
         21   -1    0    0  502  501  0.00000000000E+00  0.00000000000E+00  0.54731325820E+03  0.54731325820E+03  0.00000000000E+00 0. -1.
         21   -1    0    0  501  502 -0.00000000000E+00 -0.00000000000E+00 -0.17985682903E+03  0.17985682903E+03  0.00000000000E+00 0. -1.
         25    1    1    2    0    0 -0.16080501414E+02  0.10122069129E+03  0.12005553048E+03  0.20135178487E+03  0.12500000000E+03 0.  0.
         25    1    1    2    0    0 -0.98211014427E+02  0.51460207988E+01  0.28111799436E+03  0.32299258759E+03  0.12500000000E+03 0.  0.
         25    1    1    2    0    0  0.11429151584E+03 -0.10636671209E+03 -0.33717095662E+02  0.20282571478E+03  0.12500000000E+03 0.  0.
</event>
<event>
 5    0  0.5503691E-005  0.3034515E+03  0.7546771E-02  0.1083528E+00
         21   -1    0    0  502  501  0.00000000000E+00  0.00000000000E+00  0.55171842977E+03  0.55171842977E+03  0.00000000000E+00 0. -1.
         21   -1    0    0  501  502 -0.00000000000E+00 -0.00000000000E+00 -0.16690187922E+03  0.16690187922E+03  0.00000000000E+00 0. -1.
         25    1    1    2    0    0  0.28125679551E+02 -0.33561619644E+02  0.28975020292E+03  0.31858690534E+03  0.12500000000E+03 0.  0.
         25    1    1    2    0    0 -0.74619336827E+02 -0.35135581071E+02  0.17476869687E+03  0.23015571228E+03  0.12500000000E+03 0.  0.
         25    1    1    2    0    0  0.46493657276E+02  0.68697200716E+02 -0.79702349240E+02  0.16987769138E+03  0.12500000000E+03 0.  0.
</event>
<event>
 5    0  0.6116213E-005  0.3130513E+03  0.7546771E-02  0.1078892E+00
         21   -1    0    0  502  501  0.00000000000E+00  0.00000000000E+00  0.51752943646E+03  0.51752943646E+03  0.00000000000E+00 0. -1.
         21   -1    0    0  501  502 -0.00000000000E+00 -0.00000000000E+00 -0.18936337971E+03  0.18936337971E+03  0.00000000000E+00 0. -1.
         25    1    1    2    0    0  0.56571122589E+02 -0.94408653075E+02  0.17213003897E+03  0.23951416660E+03  0.12500000000E+03 0.  0.
         25    1    1    2    0    0  0.10366843694E+03 -0.64024005386E+02  0.19197201949E+02  0.17561250140E+03  0.12500000000E+03 0.  0.
         25    1    1    2    0    0 -0.16023955953E+03  0.15843265846E+03  0.13683881584E+03  0.29176614818E+03  0.12500000000E+03 0.  0.
</event>
<event>
 5    0  0.5503691E-005  0.2535418E+03  0.7546771E-02  0.1111087E+00
         21   -1    0    0  502  501  0.00000000000E+00  0.00000000000E+00  0.76988521159E+02  0.76988521159E+02  0.00000000000E+00 0.  1.
         21   -1    0    0  501  502 -0.00000000000E+00 -0.00000000000E+00 -0.83497453997E+03  0.83497453997E+03  0.00000000000E+00 0.  1.
         25    1    1    2    0    0 -0.43221457083E+02  0.13541930250E+02 -0.32341165441E+03  0.34967352836E+03  0.12500000000E+03 0.  0.
         25    1    1    2    0    0  0.21826536532E+01  0.52730167391E+02 -0.40528995197E+02  0.14160802937E+03  0.12500000000E+03 0.  0.
         25    1    1    2    0    0  0.41038803429E+02 -0.66272097640E+02 -0.39404536921E+03  0.42068150340E+03  0.12500000000E+03 0.  0.
</event>
<event>
 5    0  0.5503691E-005  0.3035960E+03  0.7546771E-02  0.1083457E+00
         21   -1    0    0  502  501  0.00000000000E+00  0.00000000000E+00  0.38932566200E+02  0.38932566200E+02  0.00000000000E+00 0. -1.
         21   -1    0    0  501  502 -0.00000000000E+00 -0.00000000000E+00 -0.23674397336E+04  0.23674397336E+04  0.00000000000E+00 0. -1.
         25    1    1    2    0    0  0.10906354186E+03 -0.54700542787E+01 -0.47329792076E+03  0.50155827124E+03  0.12500000000E+03 0.  0.
         25    1    1    2    0    0 -0.15665374326E+03 -0.12108607702E+03 -0.12670580928E+04  0.12885121047E+04  0.12500000000E+03 0.  0.
         25    1    1    2    0    0  0.47590201394E+02  0.12655613130E+03 -0.58815115387E+03  0.61630192392E+03  0.12500000000E+03 0.  0.
</event>
<event>
 5    0  0.5503691E-005  0.3856268E+03  0.7546771E-02  0.1048873E+00
         21   -1    0    0  502  501  0.00000000000E+00  0.00000000000E+00  0.11218714757E+04  0.11218714757E+04  0.00000000000E+00 0.  1.
         21   -1    0    0  501  502 -0.00000000000E+00 -0.00000000000E+00 -0.13255356415E+03  0.13255356415E+03  0.00000000000E+00 0.  1.
         25    1    1    2    0    0  0.16755244033E+02 -0.20415086074E+03  0.66827275973E+03  0.71005055704E+03  0.12500000000E+03 0.  0.
         25    1    1    2    0    0  0.10951741986E+03 -0.36115893755E+01  0.11871491073E+03  0.20426781161E+03  0.12500000000E+03 0.  0.
         25    1    1    2    0    0 -0.12627266390E+03  0.20776245012E+03  0.20233024107E+03  0.34010667118E+03  0.12500000000E+03 0.  0.
</event>
<event>
 5    0  0.5503691E-005  0.2264065E+03  0.7546771E-02  0.1129195E+00
         21   -1    0    0  502  501  0.00000000000E+00  0.00000000000E+00  0.34310969343E+03  0.34310969343E+03  0.00000000000E+00 0.  1.
         21   -1    0    0  501  502 -0.00000000000E+00 -0.00000000000E+00 -0.14939795978E+03  0.14939795978E+03  0.00000000000E+00 0.  1.
         25    1    1    2    0    0 -0.12582574914E+02  0.16350329614E+02 -0.77316343720E+00  0.12669353674E+03  0.12500000000E+03 0.  0.
         25    1    1    2    0    0  0.10255855279E+02 -0.41843895219E+02 -0.11812416322E+01  0.13222136539E+03  0.12500000000E+03 0.  0.
         25    1    1    2    0    0  0.23267196353E+01  0.25493565606E+02  0.19566613873E+03  0.23359275108E+03  0.12500000000E+03 0.  0.
</event>
<event>
 5    0  0.5503691E-005  0.3321278E+03  0.7546771E-02  0.1070199E+00
         21   -1    0    0  502  501  0.00000000000E+00  0.00000000000E+00  0.11805245064E+03  0.11805245064E+03  0.00000000000E+00 0. -1.
         21   -1    0    0  501  502 -0.00000000000E+00 -0.00000000000E+00 -0.93440537270E+03  0.93440537270E+03  0.00000000000E+00 0. -1.
         25    1    1    2    0    0  0.25068184397E+02  0.96451396679E+02 -0.10105321270E+03  0.18912439713E+03  0.12500000000E+03 0.  0.
         25    1    1    2    0    0  0.14322363266E+03  0.82726858600E+02 -0.32259008873E+03  0.38346591430E+03  0.12500000000E+03 0.  0.
         25    1    1    2    0    0 -0.16829181706E+03 -0.17917825528E+03 -0.39270962063E+03  0.47986751192E+03  0.12500000000E+03 0.  0.
</event>
<event>
 5    0  0.5503691E-005  0.2430945E+03  0.7546771E-02  0.1117748E+00
         21   -1    0    0  502  501  0.00000000000E+00  0.00000000000E+00  0.60992041752E+03  0.60992041752E+03  0.00000000000E+00 0. -1.
         21   -1    0    0  501  502 -0.00000000000E+00 -0.00000000000E+00 -0.96889586081E+02  0.96889586081E+02  0.00000000000E+00 0. -1.
         25    1    1    2    0    0 -0.94848578608E+02 -0.71638117334E+02  0.14287555703E+03  0.22397923456E+03  0.12500000000E+03 0.  0.
         25    1    1    2    0    0  0.98658772771E+02  0.31188794405E+02  0.27940762942E+03  0.32310976111E+03  0.12500000000E+03 0.  0.
         25    1    1    2    0    0 -0.38101941631E+01  0.40449322929E+02  0.90747644988E+02  0.15972100794E+03  0.12500000000E+03 0.  0.
</event>
<event>
 5    0  0.5503691E-005  0.4062672E+03  0.7546771E-02  0.1041631E+00
         21   -1    0    0  502  501  0.00000000000E+00  0.00000000000E+00  0.10062808015E+04  0.10062808015E+04  0.00000000000E+00 0. -1.
         21   -1    0    0  501  502 -0.00000000000E+00 -0.00000000000E+00 -0.16402286775E+03  0.16402286775E+03  0.00000000000E+00 0. -1.
         25    1    1    2    0    0 -0.65516024743E+02  0.24603070235E+03  0.26544618962E+03  0.38847153767E+03  0.12500000000E+03 0.  0.
         25    1    1    2    0    0 -0.22678008597E+02 -0.12953941312E+03  0.82387658829E+01  0.18162496769E+03  0.12500000000E+03 0.  0.
         25    1    1    2    0    0  0.88194033341E+02 -0.11649128924E+03  0.56857297830E+03  0.60020716393E+03  0.12500000000E+03 0.  0.
</event>
<event>
 5    0  0.5503691E-005  0.2188666E+03  0.7546771E-02  0.1134731E+00
         21   -1    0    0  502  501  0.00000000000E+00  0.00000000000E+00  0.39102919448E+03  0.39102919448E+03  0.00000000000E+00 0.  1.
         21   -1    0    0  501  502 -0.00000000000E+00 -0.00000000000E+00 -0.12250387497E+03  0.12250387497E+03  0.00000000000E+00 0.  1.
         25    1    1    2    0    0 -0.24541169299E+02 -0.10484102093E+02  0.11858060888E+03  0.17435178861E+03  0.12500000000E+03 0.  0.
         25    1    1    2    0    0 -0.40212586190E+02  0.72282406878E+02  0.63337430501E+02  0.16272193624E+03  0.12500000000E+03 0.  0.
         25    1    1    2    0    0  0.64753755489E+02 -0.61798304785E+02  0.86607280136E+02  0.17645934460E+03  0.12500000000E+03 0.  0.
</event>
<event>
 5    0  0.5503691E-005  0.3187074E+03  0.7546771E-02  0.1076246E+00
         21   -1    0    0  502  501  0.00000000000E+00  0.00000000000E+00  0.90799376824E+02  0.90799376824E+02  0.00000000000E+00 0.  1.
         21   -1    0    0  501  502 -0.00000000000E+00 -0.00000000000E+00 -0.11186687434E+04  0.11186687434E+04  0.00000000000E+00 0.  1.
         25    1    1    2    0    0 -0.44155673405E+02  0.99874271867E+02 -0.19186527432E+03  0.25369642718E+03  0.12500000000E+03 0.  0.
         25    1    1    2    0    0  0.76976463986E+02  0.10920979975E+03 -0.18628688326E+03  0.26111292431E+03  0.12500000000E+03 0.  0.
         25    1    1    2    0    0 -0.32820790581E+02 -0.20908407162E+03 -0.64971720899E+03  0.69465876871E+03  0.12500000000E+03 0.  0.
</event>
<event>
 5    0  0.5503691E-005  0.2378594E+03  0.7546771E-02  0.1121227E+00
         21   -1    0    0  502  501  0.00000000000E+00  0.00000000000E+00  0.14474201591E+03  0.14474201591E+03  0.00000000000E+00 0.  1.
         21   -1    0    0  501  502 -0.00000000000E+00 -0.00000000000E+00 -0.39088223441E+03  0.39088223441E+03  0.00000000000E+00 0.  1.
         25    1    1    2    0    0  0.91331369451E+02  0.36523126211E+02 -0.26005553888E+02  0.16117272296E+03  0.12500000000E+03 0.  0.
         25    1    1    2    0    0  0.39387210791E+01 -0.33585004454E+01 -0.15961212807E+03  0.20279996173E+03  0.12500000000E+03 0.  0.
         25    1    1    2    0    0 -0.95270090530E+02 -0.33164625766E+02 -0.60522536538E+02  0.17165156562E+03  0.12500000000E+03 0.  0.
</event>
<event>
 5    0  0.5503691E-005  0.2570040E+03  0.7546771E-02  0.1108957E+00
         21   -1    0    0  502  501  0.00000000000E+00  0.00000000000E+00  0.26001938333E+03  0.26001938333E+03  0.00000000000E+00 0. -1.
         21   -1    0    0  501  502 -0.00000000000E+00 -0.00000000000E+00 -0.25402355684E+03  0.25402355684E+03  0.00000000000E+00 0. -1.
         25    1    1    2    0    0 -0.21311646658E+02  0.65426688532E+00  0.93142955443E+01  0.12714704263E+03  0.12500000000E+03 0.  0.
         25    1    1    2    0    0 -0.67654013748E+02 -0.72921509604E+02 -0.10309569680E+03  0.19012715440E+03  0.12500000000E+03 0.  0.
         25    1    1    2    0    0  0.88965660406E+02  0.72267242718E+02  0.99777227754E+02  0.19676874315E+03  0.12500000000E+03 0.  0.
</event>
<event>
 5    0  0.5503691E-005  0.5769865E+03  0.7546771E-02  0.9954337E-01
         21   -1    0    0  502  501  0.00000000000E+00  0.00000000000E+00  0.55411109710E+03  0.55411109710E+03  0.00000000000E+00 0.  1.
         21   -1    0    0  501  502 -0.00000000000E+00 -0.00000000000E+00 -0.60080621516E+03  0.60080621516E+03  0.00000000000E+00 0.  1.
         25    1    1    2    0    0  0.26992258732E+03  0.12727263095E+03  0.14711030788E+03  0.35541942605E+03  0.12500000000E+03 0.  0.
         25    1    1    2    0    0  0.44890302554E+02  0.22804216138E+03  0.18734108540E+02  0.26456442213E+03  0.12500000000E+03 0.  0.
         25    1    1    2    0    0 -0.31481288987E+03 -0.35531479234E+03 -0.21253953448E+03  0.53493346409E+03  0.12500000000E+03 0.  0.
</event>
<event>
 5    0  0.5503691E-005  0.5825979E+03  0.7546771E-02  0.9942182E-01
         21   -1    0    0  502  501  0.00000000000E+00  0.00000000000E+00  0.29375247514E+03  0.29375247514E+03  0.00000000000E+00 0. -1.
         21   -1    0    0  501  502 -0.00000000000E+00 -0.00000000000E+00 -0.11554638269E+04  0.11554638269E+04  0.00000000000E+00 0. -1.
         25    1    1    2    0    0  0.30218621323E+03 -0.25072649404E+03 -0.17808645200E+03  0.44890986475E+03  0.12500000000E+03 0.  0.
         25    1    1    2    0    0  0.16021857497E+03  0.60943146631E+02 -0.16019780323E+03  0.26584280138E+03  0.12500000000E+03 0.  0.
         25    1    1    2    0    0 -0.46240478820E+03  0.18978334741E+03 -0.52342709658E+03  0.73446363596E+03  0.12500000000E+03 0.  0.
</event>
<event>
 5    0  0.5503691E-005  0.3954628E+03  0.7546771E-02  0.1045362E+00
         21   -1    0    0  502  501  0.00000000000E+00  0.00000000000E+00  0.15738759968E+04  0.15738759968E+04  0.00000000000E+00 0.  1.
         21   -1    0    0  501  502 -0.00000000000E+00 -0.00000000000E+00 -0.99366687979E+02  0.99366687979E+02  0.00000000000E+00 0.  1.
         25    1    1    2    0    0 -0.44878235017E+00 -0.13730972426E+03  0.73321737262E+02  0.19963776931E+03  0.12500000000E+03 0.  0.
         25    1    1    2    0    0  0.82270959224E+02 -0.83069748949E+01  0.10817022289E+04  0.10920358183E+04  0.12500000000E+03 0.  0.
         25    1    1    2    0    0 -0.81822176874E+02  0.14561669915E+03  0.31948534271E+03  0.38156909716E+03  0.12500000000E+03 0.  0.
</event>
<event>
 5    0  0.5503691E-005  0.3026756E+03  0.7546771E-02  0.1083911E+00
         21   -1    0    0  502  501  0.00000000000E+00  0.00000000000E+00  0.10548727471E+04  0.10548727471E+04  0.00000000000E+00 0.  1.
         21   -1    0    0  501  502 -0.00000000000E+00 -0.00000000000E+00 -0.86847010702E+02  0.86847010702E+02  0.00000000000E+00 0.  1.
         25    1    1    2    0    0  0.41286684360E+02 -0.21088296294E+03  0.43685617034E+03  0.50263757115E+03  0.12500000000E+03 0.  0.
         25    1    1    2    0    0 -0.29666701593E+02  0.12294562699E+03  0.16689338265E+03  0.24387320794E+03  0.12500000000E+03 0.  0.
         25    1    1    2    0    0 -0.11619982767E+02  0.87937335950E+02  0.36427618337E+03  0.39520897867E+03  0.12500000000E+03 0.  0.
</event>
<event>
 5    0  0.5503691E-005  0.2392488E+03  0.7546771E-02  0.1120294E+00
         21   -1    0    0  502  501  0.00000000000E+00  0.00000000000E+00  0.39146712873E+03  0.39146712873E+03  0.00000000000E+00 0.  1.
         21   -1    0    0  501  502 -0.00000000000E+00 -0.00000000000E+00 -0.14621919706E+03  0.14621919706E+03  0.00000000000E+00 0.  1.
         25    1    1    2    0    0 -0.85248945066E+02 -0.28865388476E+02  0.13365519320E+03  0.20393455802E+03  0.12500000000E+03 0.  0.
         25    1    1    2    0    0  0.32545550061E+02 -0.49479381252E+02  0.11058921294E+03  0.17709431390E+03  0.12500000000E+03 0.  0.
         25    1    1    2    0    0  0.52703395005E+02  0.78344769728E+02  0.10035255304E+01  0.15665745387E+03  0.12500000000E+03 0.  0.
</event>
<event>
 5    0  0.5503691E-005  0.2969903E+03  0.7546771E-02  0.1086755E+00
         21   -1    0    0  502  501  0.00000000000E+00  0.00000000000E+00  0.23335698407E+03  0.23335698407E+03  0.00000000000E+00 0. -1.
         21   -1    0    0  501  502 -0.00000000000E+00 -0.00000000000E+00 -0.37797555200E+03  0.37797555200E+03  0.00000000000E+00 0. -1.
         25    1    1    2    0    0 -0.62407230610E+02 -0.85876545875E+02 -0.40972645387E+02  0.16903609447E+03  0.12500000000E+03 0.  0.
         25    1    1    2    0    0  0.86232192654E+02  0.59826963615E+02  0.10675601213E+03  0.19503103023E+03  0.12500000000E+03 0.  0.
         25    1    1    2    0    0 -0.23824962045E+02  0.26049582260E+02 -0.21040193466E+03  0.24726541137E+03  0.12500000000E+03 0.  0.
</event>
<event>
 5    0  0.5503691E-005  0.3514350E+03  0.7546771E-02  0.1062028E+00
         21   -1    0    0  502  501  0.00000000000E+00  0.00000000000E+00  0.46827484429E+03  0.46827484429E+03  0.00000000000E+00 0.  1.
         21   -1    0    0  501  502 -0.00000000000E+00 -0.00000000000E+00 -0.26374807169E+03  0.26374807169E+03  0.00000000000E+00 0.  1.
         25    1    1    2    0    0 -0.59635838689E+02  0.47778747808E+02 -0.16229643674E+03  0.21864211711E+03  0.12500000000E+03 0.  0.
         25    1    1    2    0    0  0.57366806277E+02 -0.51136619545E+02  0.24291665757E+02  0.14873126553E+03  0.12500000000E+03 0.  0.
         25    1    1    2    0    0  0.22690324115E+01  0.33578717372E+01  0.34253154358E+03  0.36464953333E+03  0.12500000000E+03 0.  0.
</event>
<event>
 5    0  0.5503691E-005  0.2816124E+03  0.7546771E-02  0.1094812E+00
         21   -1    0    0  502  501  0.00000000000E+00  0.00000000000E+00  0.53785745131E+03  0.53785745131E+03  0.00000000000E+00 0. -1.
         21   -1    0    0  501  502 -0.00000000000E+00 -0.00000000000E+00 -0.14744718292E+03  0.14744718292E+03  0.00000000000E+00 0. -1.
         25    1    1    2    0    0  0.17183399490E+02 -0.47627831093E+02  0.22263573825E+03  0.26029858136E+03  0.12500000000E+03 0.  0.
         25    1    1    2    0    0 -0.10267931154E+03  0.13382679541E+03  0.12925254683E+03  0.24654385624E+03  0.12500000000E+03 0.  0.
         25    1    1    2    0    0  0.85495912053E+02 -0.86198964320E+02  0.38521983306E+02  0.17846219663E+03  0.12500000000E+03 0.  0.
</event>
<event>
 5    0  0.5503691E-005  0.2855445E+03  0.7546771E-02  0.1092699E+00
         21   -1    0    0  502  501  0.00000000000E+00  0.00000000000E+00  0.21648531684E+04  0.21648531684E+04  0.00000000000E+00 0.  1.
         21   -1    0    0  501  502 -0.00000000000E+00 -0.00000000000E+00 -0.37663370791E+02  0.37663370791E+02  0.00000000000E+00 0.  1.
         25    1    1    2    0    0  0.94717111429E+02 -0.12521642274E+03  0.54464014771E+03  0.58043808819E+03  0.12500000000E+03 0.  0.
         25    1    1    2    0    0 -0.77443818337E+02  0.89807149868E+02  0.44812804957E+03  0.48011104755E+03  0.12500000000E+03 0.  0.
         25    1    1    2    0    0 -0.17273293092E+02  0.35409272874E+02  0.11344216003E+04  0.11419674034E+04  0.12500000000E+03 0.  0.
</event>
<event>
 5    0  0.5503691E-005  0.3433637E+03  0.7546771E-02  0.1065372E+00
         21   -1    0    0  502  501  0.00000000000E+00  0.00000000000E+00  0.78636648900E+02  0.78636648900E+02  0.00000000000E+00 0.  1.
         21   -1    0    0  501  502 -0.00000000000E+00 -0.00000000000E+00 -0.14992830948E+04  0.14992830948E+04  0.00000000000E+00 0.  1.
         25    1    1    2    0    0  0.59686056440E+02 -0.15472992209E+03 -0.76787633176E+03  0.79546391181E+03  0.12500000000E+03 0.  0.
         25    1    1    2    0    0  0.79479118721E+02  0.18420782219E+03 -0.29859039440E+03  0.38082893232E+03  0.12500000000E+03 0.  0.
         25    1    1    2    0    0 -0.13916517516E+03 -0.29477900101E+02 -0.35417971972E+03  0.40162689954E+03  0.12500000000E+03 0.  0.
</event>
<event>
 5    0  0.5503691E-005  0.2505952E+03  0.7546771E-02  0.1112929E+00
         21   -1    0    0  502  501  0.00000000000E+00  0.00000000000E+00  0.22456164806E+03  0.22456164806E+03  0.00000000000E+00 0. -1.
         21   -1    0    0  501  502 -0.00000000000E+00 -0.00000000000E+00 -0.27964679429E+03  0.27964679429E+03  0.00000000000E+00 0. -1.
         25    1    1    2    0    0  0.23795084736E+02  0.46405199520E+02  0.52165293306E+02  0.14514085030E+03  0.12500000000E+03 0.  0.
         25    1    1    2    0    0  0.14772088042E+02  0.86412300500E+02 -0.22650564054E+02  0.15434813998E+03  0.12500000000E+03 0.  0.
         25    1    1    2    0    0 -0.38567172778E+02 -0.13281750002E+03 -0.84599875478E+02  0.20471945208E+03  0.12500000000E+03 0.  0.
</event>
<event>
 5    0  0.5503691E-005  0.2380029E+03  0.7546771E-02  0.1121130E+00
         21   -1    0    0  502  501  0.00000000000E+00  0.00000000000E+00  0.23945449364E+03  0.23945449364E+03  0.00000000000E+00 0.  1.
         21   -1    0    0  501  502 -0.00000000000E+00 -0.00000000000E+00 -0.23656016130E+03  0.23656016130E+03  0.00000000000E+00 0.  1.
         25    1    1    2    0    0 -0.44542671537E+02  0.79341661461E+02 -0.75382198164E+02  0.17200762957E+03  0.12500000000E+03 0.  0.
         25    1    1    2    0    0  0.15266780864E+02 -0.92773393464E+02  0.70385145324E+01  0.15657112703E+03  0.12500000000E+03 0.  0.
         25    1    1    2    0    0  0.29275890673E+02  0.13431732003E+02  0.71238015968E+02  0.14743589834E+03  0.12500000000E+03 0.  0.
</event>
<event>
 5    0  0.5503691E-005  0.2973724E+03  0.7546771E-02  0.1086562E+00
         21   -1    0    0  502  501  0.00000000000E+00  0.00000000000E+00  0.70945820591E+03  0.70945820591E+03  0.00000000000E+00 0.  1.
         21   -1    0    0  501  502 -0.00000000000E+00 -0.00000000000E+00 -0.12464487405E+03  0.12464487405E+03  0.00000000000E+00 0.  1.
         25    1    1    2    0    0 -0.15545319045E+03  0.15653374790E+02  0.37553399749E+02  0.20358285880E+03  0.12500000000E+03 0.  0.
         25    1    1    2    0    0  0.22087242496E+02 -0.11522752087E+02  0.18387179277E+03  0.22372853254E+03  0.12500000000E+03 0.  0.
         25    1    1    2    0    0  0.13336594795E+03 -0.41306227028E+01  0.36338813934E+03  0.40679168862E+03  0.12500000000E+03 0.  0.
</event>
<event>
 5    0  0.5520119E-005  0.3526243E+03  0.7546771E-02  0.1061543E+00
         21   -1    0    0  502  501  0.00000000000E+00  0.00000000000E+00  0.62268284801E+03  0.62268284801E+03  0.00000000000E+00 0.  1.
         21   -1    0    0  501  502 -0.00000000000E+00 -0.00000000000E+00 -0.19969052408E+03  0.19969052408E+03  0.00000000000E+00 0.  1.
         25    1    1    2    0    0  0.10233158420E+03 -0.15197576323E+03  0.18806034185E+02  0.22259167248E+03  0.12500000000E+03 0.  0.
         25    1    1    2    0    0  0.45427677944E+02 -0.68457250728E+02  0.14540036292E+03  0.20860569177E+03  0.12500000000E+03 0.  0.
         25    1    1    2    0    0 -0.14775926215E+03  0.22043301396E+03  0.25878592682E+03  0.39117600785E+03  0.12500000000E+03 0.  0.
</event>
<event>
 5    0  0.5503691E-005  0.2555021E+03  0.7546771E-02  0.1109876E+00
         21   -1    0    0  502  501  0.00000000000E+00  0.00000000000E+00  0.30366351470E+03  0.30366351470E+03  0.00000000000E+00 0.  1.
         21   -1    0    0  501  502 -0.00000000000E+00 -0.00000000000E+00 -0.21497919912E+03  0.21497919912E+03  0.00000000000E+00 0.  1.
         25    1    1    2    0    0 -0.48207422396E+02 -0.10294267255E+03  0.14082629860E+03  0.21995043938E+03  0.12500000000E+03 0.  0.
         25    1    1    2    0    0 -0.10157858228E+02  0.98806092685E+01 -0.39262767678E+02  0.13178533093E+03  0.12500000000E+03 0.  0.
         25    1    1    2    0    0  0.58365280624E+02  0.93062063278E+02 -0.12879215346E+02  0.16690694351E+03  0.12500000000E+03 0.  0.
</event>
<event>
 5    0  0.5503691E-005  0.3289071E+03  0.7546771E-02  0.1071621E+00
         21   -1    0    0  502  501  0.00000000000E+00  0.00000000000E+00  0.22195561739E+03  0.22195561739E+03  0.00000000000E+00 0. -1.
         21   -1    0    0  501  502 -0.00000000000E+00 -0.00000000000E+00 -0.48739426665E+03  0.48739426665E+03  0.00000000000E+00 0. -1.
         25    1    1    2    0    0  0.35343368735E+01  0.47354190441E+02  0.37835688037E+02  0.13896564388E+03  0.12500000000E+03 0.  0.
         25    1    1    2    0    0  0.68090295935E+02 -0.91337147730E+02 -0.36909658617E+03  0.40600006513E+03  0.12500000000E+03 0.  0.
         25    1    1    2    0    0 -0.71624632809E+02  0.43982957289E+02  0.65822248878E+02  0.16438417504E+03  0.12500000000E+03 0.  0.
</event>
<event>
 5    0  0.5503691E-005  0.7117979E+03  0.7546771E-02  0.9697266E-01
         21   -1    0    0  502  501  0.00000000000E+00  0.00000000000E+00  0.49567114981E+03  0.49567114981E+03  0.00000000000E+00 0. -1.
         21   -1    0    0  501  502 -0.00000000000E+00 -0.00000000000E+00 -0.10221620781E+04  0.10221620781E+04  0.00000000000E+00 0. -1.
         25    1    1    2    0    0  0.15710339281E+03  0.32022290370E+03 -0.65548145917E+03  0.75664068579E+03  0.12500000000E+03 0.  0.
         25    1    1    2    0    0  0.14237220032E+02  0.15135282804E+03 -0.67465046295E+02  0.20805506353E+03  0.12500000000E+03 0.  0.
         25    1    1    2    0    0 -0.17134061285E+03 -0.47157573173E+03  0.19645557720E+03  0.55313747856E+03  0.12500000000E+03 0.  0.
</event>
<event>
 5    0  0.6087660E-005  0.3407701E+03  0.7546771E-02  0.1066468E+00
         21   -1    0    0  502  501  0.00000000000E+00  0.00000000000E+00  0.45297938105E+03  0.45297938105E+03  0.00000000000E+00 0. -1.
         21   -1    0    0  501  502 -0.00000000000E+00 -0.00000000000E+00 -0.25635659537E+03  0.25635659537E+03  0.00000000000E+00 0. -1.
         25    1    1    2    0    0 -0.18847472978E+03 -0.54649440481E+02  0.92981486453E+02  0.25055905877E+03  0.12500000000E+03 0.  0.
         25    1    1    2    0    0 -0.66878154664E+02 -0.38631466442E+02  0.46792318147E+02  0.15420635139E+03  0.12500000000E+03 0.  0.
         25    1    1    2    0    0  0.25535288444E+03  0.93280906923E+02  0.56848981079E+02  0.30457056627E+03  0.12500000000E+03 0.  0.
</event>
<event>
 5    0  0.5503691E-005  0.3157355E+03  0.7546771E-02  0.1077629E+00
         21   -1    0    0  502  501  0.00000000000E+00  0.00000000000E+00  0.30090245219E+03  0.30090245219E+03  0.00000000000E+00 0.  1.
         21   -1    0    0  501  502 -0.00000000000E+00 -0.00000000000E+00 -0.33129978076E+03  0.33129978076E+03  0.00000000000E+00 0.  1.
         25    1    1    2    0    0  0.88971261810E+02  0.18116869324E+03 -0.70756539371E+02  0.24772861906E+03  0.12500000000E+03 0.  0.
         25    1    1    2    0    0  0.22348303653E+02 -0.16260658691E+03 -0.15875956753E+02  0.20692364482E+03  0.12500000000E+03 0.  0.
         25    1    1    2    0    0 -0.11131956546E+03 -0.18562106331E+02  0.56235167552E+02  0.17754996907E+03  0.12500000000E+03 0.  0.
</event>
<event>
 5    0  0.5869813E-005  0.3008888E+03  0.7546771E-02  0.1084797E+00
         21   -1    0    0  502  501  0.00000000000E+00  0.00000000000E+00  0.48973973498E+03  0.48973973498E+03  0.00000000000E+00 0.  1.
         21   -1    0    0  501  502 -0.00000000000E+00 -0.00000000000E+00 -0.18486163478E+03  0.18486163478E+03  0.00000000000E+00 0.  1.
         25    1    1    2    0    0  0.81140537735E+02 -0.12230025287E+03  0.11748610373E+03  0.22576342327E+03  0.12500000000E+03 0.  0.
         25    1    1    2    0    0  0.83512100709E+02  0.65105969060E+02  0.16609272943E+03  0.23329134776E+03  0.12500000000E+03 0.  0.
         25    1    1    2    0    0 -0.16465263844E+03  0.57194283812E+02  0.21299267054E+02  0.21554659873E+03  0.12500000000E+03 0.  0.
</event>
<event>
 5    0  0.5503691E-005  0.2473879E+03  0.7546771E-02  0.1114967E+00
         21   -1    0    0  502  501  0.00000000000E+00  0.00000000000E+00  0.14984185067E+04  0.14984185067E+04  0.00000000000E+00 0.  1.
         21   -1    0    0  501  502 -0.00000000000E+00 -0.00000000000E+00 -0.40843578353E+02  0.40843578353E+02  0.00000000000E+00 0.  1.
         25    1    1    2    0    0  0.38753741216E+02  0.80115328018E+02  0.85798399836E+03  0.87159730362E+03  0.12500000000E+03 0.  0.
         25    1    1    2    0    0  0.20263216691E+02 -0.83005161713E+01  0.36164403286E+03  0.38326349033E+03  0.12500000000E+03 0.  0.
         25    1    1    2    0    0 -0.59016957907E+02 -0.71814811847E+02  0.23794689709E+03  0.28440129106E+03  0.12500000000E+03 0.  0.
</event>
<event>
 5    0  0.5503691E-005  0.2618896E+03  0.7546771E-02  0.1106013E+00
         21   -1    0    0  502  501  0.00000000000E+00  0.00000000000E+00  0.16092881696E+03  0.16092881696E+03  0.00000000000E+00 0. -1.
         21   -1    0    0  501  502 -0.00000000000E+00 -0.00000000000E+00 -0.42618958008E+03  0.42618958008E+03  0.00000000000E+00 0. -1.
         25    1    1    2    0    0 -0.73336217128E+02  0.33291349792E+02 -0.21035001639E+02  0.15017984554E+03  0.12500000000E+03 0.  0.
         25    1    1    2    0    0  0.12162402745E+03  0.69692249480E+02 -0.90513382024E+02  0.20848761598E+03  0.12500000000E+03 0.  0.
         25    1    1    2    0    0 -0.48287810320E+02 -0.10298359927E+03 -0.15371237945E+03  0.22845093552E+03  0.12500000000E+03 0.  0.
</event>
<event>
 5    0  0.5503691E-005  0.2656753E+03  0.7546771E-02  0.1103781E+00
         21   -1    0    0  502  501  0.00000000000E+00  0.00000000000E+00  0.31360109777E+03  0.31360109777E+03  0.00000000000E+00 0.  1.
         21   -1    0    0  501  502 -0.00000000000E+00 -0.00000000000E+00 -0.22507366356E+03  0.22507366356E+03  0.00000000000E+00 0.  1.
         25    1    1    2    0    0  0.46714727184E+02  0.59900190419E+02 -0.77483656374E+01  0.14647639987E+03  0.12500000000E+03 0.  0.
         25    1    1    2    0    0 -0.55756555496E+02 -0.50700248720E+02 -0.87043081302E+02  0.16994353975E+03  0.12500000000E+03 0.  0.
         25    1    1    2    0    0  0.90418283122E+01 -0.91999416988E+01  0.18331888115E+03  0.22225482171E+03  0.12500000000E+03 0.  0.
</event>
<event>
 5    0  0.5503691E-005  0.4766522E+03  0.7546771E-02  0.1020059E+00
         21   -1    0    0  502  501  0.00000000000E+00  0.00000000000E+00  0.75268917674E+03  0.75268917674E+03  0.00000000000E+00 0. -1.
         21   -1    0    0  501  502 -0.00000000000E+00 -0.00000000000E+00 -0.30184752171E+03  0.30184752171E+03  0.00000000000E+00 0. -1.
         25    1    1    2    0    0  0.38751624621E+02 -0.17407764147E+03  0.43701256758E+03  0.48827215556E+03  0.12500000000E+03 0.  0.
         25    1    1    2    0    0  0.15892837968E+03  0.24720274699E+03  0.29445548150E+02  0.32071711569E+03  0.12500000000E+03 0.  0.
         25    1    1    2    0    0 -0.19768000430E+03 -0.73125105522E+02 -0.15616460706E+02  0.24554742720E+03  0.12500000000E+03 0.  0.
</event>
<event>
 5    0  0.5686457E-005  0.2691355E+03  0.7546771E-02  0.1101775E+00
         21   -1    0    0  502  501  0.00000000000E+00  0.00000000000E+00  0.89220425837E+03  0.89220425837E+03  0.00000000000E+00 0.  1.
         21   -1    0    0  501  502 -0.00000000000E+00 -0.00000000000E+00 -0.81185361251E+02  0.81185361251E+02  0.00000000000E+00 0.  1.
         25    1    1    2    0    0 -0.80616123258E+02 -0.67759794667E+02  0.20306492469E+03  0.26067357507E+03  0.12500000000E+03 0.  0.
         25    1    1    2    0    0 -0.95437759675E+01  0.23979732796E+02  0.58547299617E+02  0.14042399203E+03  0.12500000000E+03 0.  0.
         25    1    1    2    0    0  0.90159899226E+02  0.43780061871E+02  0.54940667281E+03  0.57229205252E+03  0.12500000000E+03 0.  0.
</event>
<event>
 5    0  0.5503691E-005  0.3486557E+03  0.7546771E-02  0.1063168E+00
         21   -1    0    0  502  501  0.00000000000E+00  0.00000000000E+00  0.31037065990E+03  0.31037065990E+03  0.00000000000E+00 0. -1.
         21   -1    0    0  501  502 -0.00000000000E+00 -0.00000000000E+00 -0.39166322453E+03  0.39166322453E+03  0.00000000000E+00 0. -1.
         25    1    1    2    0    0  0.64269530160E+01 -0.15484111503E+03 -0.15112219804E+03  0.24995998753E+03  0.12500000000E+03 0.  0.
         25    1    1    2    0    0  0.87350607658E+02 -0.45482947800E+02 -0.55814446195E+02  0.16863890299E+03  0.12500000000E+03 0.  0.
         25    1    1    2    0    0 -0.93777560674E+02  0.20032406283E+03  0.12564407960E+03  0.28343499391E+03  0.12500000000E+03 0.  0.
</event>
<event>
 5    0  0.5503691E-005  0.3648974E+03  0.7546771E-02  0.1056661E+00
         21   -1    0    0  502  501  0.00000000000E+00  0.00000000000E+00  0.73003407779E+02  0.73003407779E+02  0.00000000000E+00 0. -1.
         21   -1    0    0  501  502 -0.00000000000E+00 -0.00000000000E+00 -0.18238893733E+04  0.18238893733E+04  0.00000000000E+00 0. -1.
         25    1    1    2    0    0 -0.96273644349E+02  0.19532328837E+03 -0.63165992081E+03  0.67973454902E+03  0.12500000000E+03 0.  0.
         25    1    1    2    0    0 -0.16553572235E+02 -0.14979071561E+03 -0.19399490389E+03  0.27562710674E+03  0.12500000000E+03 0.  0.
         25    1    1    2    0    0  0.11282721658E+03 -0.45532572766E+02 -0.92523114078E+03  0.94153112527E+03  0.12500000000E+03 0.  0.
</event>
<event>
 5    0  0.5503691E-005  0.3402043E+03  0.7546771E-02  0.1066709E+00
         21   -1    0    0  502  501  0.00000000000E+00  0.00000000000E+00  0.39727599628E+03  0.39727599628E+03  0.00000000000E+00 0.  1.
         21   -1    0    0  501  502 -0.00000000000E+00 -0.00000000000E+00 -0.29133134438E+03  0.29133134438E+03  0.00000000000E+00 0.  1.
         25    1    1    2    0    0 -0.13996052949E+03 -0.15290894581E+03  0.15994984524E+03  0.29013625853E+03  0.12500000000E+03 0.  0.
         25    1    1    2    0    0  0.11576050153E+03  0.56692644204E+02 -0.13003792497E+03  0.22169666563E+03  0.12500000000E+03 0.  0.
         25    1    1    2    0    0  0.24200027958E+02  0.96216301603E+02  0.76032731628E+02  0.17677441649E+03  0.12500000000E+03 0.  0.
</event>
<event>
 5    0  0.5503691E-005  0.3874368E+03  0.7546771E-02  0.1048219E+00
         21   -1    0    0  502  501  0.00000000000E+00  0.00000000000E+00  0.10714029499E+04  0.10714029499E+04  0.00000000000E+00 0.  1.
         21   -1    0    0  501  502 -0.00000000000E+00 -0.00000000000E+00 -0.14010344283E+03  0.14010344283E+03  0.00000000000E+00 0.  1.
         25    1    1    2    0    0  0.70984152693E+02 -0.11091455024E+03  0.81103289542E+03  0.83110778172E+03  0.12500000000E+03 0.  0.
         25    1    1    2    0    0 -0.10562076318E+03  0.83062306699E+02  0.15832857970E+03  0.24237993225E+03  0.12500000000E+03 0.  0.
         25    1    1    2    0    0  0.34636610485E+02  0.27852243541E+02 -0.38061968107E+02  0.13801867871E+03  0.12500000000E+03 0.  0.
</event>
<event>
 5    0  0.5503691E-005  0.2683545E+03  0.7546771E-02  0.1102225E+00
         21   -1    0    0  502  501  0.00000000000E+00  0.00000000000E+00  0.26984278058E+03  0.26984278058E+03  0.00000000000E+00 0. -1.
         21   -1    0    0  501  502 -0.00000000000E+00 -0.00000000000E+00 -0.26687452641E+03  0.26687452641E+03  0.00000000000E+00 0. -1.
         25    1    1    2    0    0  0.68829617031E+01  0.64712063557E+02 -0.13362399243E+03  0.19420452540E+03  0.12500000000E+03 0.  0.
         25    1    1    2    0    0 -0.33419239404E+02 -0.76221934103E+02  0.15153663983E+03  0.21334240557E+03  0.12500000000E+03 0.  0.
         25    1    1    2    0    0  0.26536277701E+02  0.11509870546E+02 -0.14944393237E+02  0.12917037603E+03  0.12500000000E+03 0.  0.
</event>
<event>
 5    0  0.5503691E-005  0.3217615E+03  0.7546771E-02  0.1074841E+00
         21   -1    0    0  502  501  0.00000000000E+00  0.00000000000E+00  0.23481827091E+03  0.23481827091E+03  0.00000000000E+00 0.  1.
         21   -1    0    0  501  502 -0.00000000000E+00 -0.00000000000E+00 -0.44089620768E+03  0.44089620768E+03  0.00000000000E+00 0.  1.
         25    1    1    2    0    0 -0.11690774345E+03 -0.17219927859E+03 -0.14451599097E+03  0.28254182641E+03  0.12500000000E+03 0.  0.
         25    1    1    2    0    0  0.12990364121E+03  0.14954915045E+03 -0.10715454663E+03  0.25757911651E+03  0.12500000000E+03 0.  0.
         25    1    1    2    0    0 -0.12995897761E+02  0.22650128145E+02  0.45592600827E+02  0.13559353566E+03  0.12500000000E+03 0.  0.
</event>
<event>
 5    0  0.5503691E-005  0.2885977E+03  0.7546771E-02  0.1091084E+00
         21   -1    0    0  502  501  0.00000000000E+00  0.00000000000E+00  0.64468066637E+03  0.64468066637E+03  0.00000000000E+00 0.  1.
         21   -1    0    0  501  502 -0.00000000000E+00 -0.00000000000E+00 -0.12919364732E+03  0.12919364732E+03  0.00000000000E+00 0.  1.
         25    1    1    2    0    0  0.68725814236E+02 -0.18868134952E+03  0.12978644787E+03  0.26980254122E+03  0.12500000000E+03 0.  0.
         25    1    1    2    0    0 -0.29368661042E+02  0.12211869506E+03  0.22242010710E+03  0.28437861730E+03  0.12500000000E+03 0.  0.
         25    1    1    2    0    0 -0.39357153194E+02  0.66562654459E+02  0.16328046409E+03  0.21969315517E+03  0.12500000000E+03 0.  0.
</event>
<event>
 5    0  0.5503691E-005  0.3736000E+03  0.7546771E-02  0.1053325E+00
         21   -1    0    0  502  501  0.00000000000E+00  0.00000000000E+00  0.61725942611E+03  0.61725942611E+03  0.00000000000E+00 0.  1.
         21   -1    0    0  501  502 -0.00000000000E+00 -0.00000000000E+00 -0.22612360008E+03  0.22612360008E+03  0.00000000000E+00 0.  1.
         25    1    1    2    0    0 -0.86067683464E+01  0.90794173922E+02  0.20681469044E+03  0.25829242083E+03  0.12500000000E+03 0.  0.
         25    1    1    2    0    0 -0.18615272627E+03 -0.19802017498E+03  0.81167079502E+02  0.30996438826E+03  0.12500000000E+03 0.  0.
         25    1    1    2    0    0  0.19475949461E+03  0.10722600106E+03  0.10315405608E+03  0.27512621709E+03  0.12500000000E+03 0.  0.
</event>
<event>
 5    0  0.5503691E-005  0.2410248E+03  0.7546771E-02  0.1119112E+00
         21   -1    0    0  502  501  0.00000000000E+00  0.00000000000E+00  0.67927825850E+02  0.67927825850E+02  0.00000000000E+00 0. -1.
         21   -1    0    0  501  502 -0.00000000000E+00 -0.00000000000E+00 -0.85521587223E+03  0.85521587223E+03  0.00000000000E+00 0. -1.
         25    1    1    2    0    0  0.39746072832E+02  0.76936908263E+02 -0.11422279454E+03  0.19018644787E+03  0.12500000000E+03 0.  0.
         25    1    1    2    0    0 -0.63611577263E+02 -0.36515685254E+02 -0.45231175773E+03  0.47496395043E+03  0.12500000000E+03 0.  0.
         25    1    1    2    0    0  0.23865504432E+02 -0.40421223008E+02 -0.22075349410E+03  0.25799329978E+03  0.12500000000E+03 0.  0.
</event>
<event>
 5    0  0.7212361E-005  0.4849535E+03  0.7546771E-02  0.1017783E+00
         21   -1    0    0  502  501  0.00000000000E+00  0.00000000000E+00  0.27594708909E+03  0.27594708909E+03  0.00000000000E+00 0. -1.
         21   -1    0    0  501  502 -0.00000000000E+00 -0.00000000000E+00 -0.85226450401E+03  0.85226450401E+03  0.00000000000E+00 0. -1.
         25    1    1    2    0    0  0.29606999069E+03 -0.11445022232E+02 -0.19265178215E+03  0.37487082720E+03  0.12500000000E+03 0.  0.
         25    1    1    2    0    0 -0.13874745299E+03 -0.89877779439E+02  0.92284894392E+02  0.22687082819E+03  0.12500000000E+03 0.  0.
         25    1    1    2    0    0 -0.15732253770E+03  0.10132280167E+03 -0.47595052716E+03  0.52646993771E+03  0.12500000000E+03 0.  0.
</event>
<event>
 5    0  0.5503691E-005  0.3047573E+03  0.7546771E-02  0.1082886E+00
         21   -1    0    0  502  501  0.00000000000E+00  0.00000000000E+00  0.85626006509E+02  0.85626006509E+02  0.00000000000E+00 0. -1.
         21   -1    0    0  501  502 -0.00000000000E+00 -0.00000000000E+00 -0.10846824707E+04  0.10846824707E+04  0.00000000000E+00 0. -1.
         25    1    1    2    0    0 -0.11049364483E+03 -0.13169702869E+03 -0.25472862868E+03  0.33175989388E+03  0.12500000000E+03 0.  0.
         25    1    1    2    0    0  0.40872215785E+02  0.17196286314E+02 -0.57137196239E+03  0.58656386668E+03  0.12500000000E+03 0.  0.
         25    1    1    2    0    0  0.69621429046E+02  0.11450074238E+03 -0.17295587315E+03  0.25198471669E+03  0.12500000000E+03 0.  0.
</event>
<event>
 5    0  0.5503691E-005  0.4577167E+03  0.7546771E-02  0.1025446E+00
         21   -1    0    0  502  501  0.00000000000E+00  0.00000000000E+00  0.20380632601E+03  0.20380632601E+03  0.00000000000E+00 0. -1.
         21   -1    0    0  501  502 -0.00000000000E+00 -0.00000000000E+00 -0.10279592302E+04  0.10279592302E+04  0.00000000000E+00 0. -1.
         25    1    1    2    0    0  0.11792575097E+03 -0.14821005410E+02  0.11332361361E+03  0.20638165216E+03  0.12500000000E+03 0.  0.
         25    1    1    2    0    0 -0.12458151948E+03 -0.13009513875E+03 -0.57601678929E+03  0.61633241166E+03  0.12500000000E+03 0.  0.
         25    1    1    2    0    0  0.66557685067E+01  0.14491614416E+03 -0.36145972848E+03  0.40905149236E+03  0.12500000000E+03 0.  0.
</event>
<event>
 5    0  0.5503691E-005  0.5225733E+03  0.7546771E-02  0.1008049E+00
         21   -1    0    0  502  501  0.00000000000E+00  0.00000000000E+00  0.14831392323E+03  0.14831392323E+03  0.00000000000E+00 0.  1.
         21   -1    0    0  501  502 -0.00000000000E+00 -0.00000000000E+00 -0.18412492581E+04  0.18412492581E+04  0.00000000000E+00 0.  1.
         25    1    1    2    0    0  0.14996836864E+03 -0.10052774069E+03 -0.10467405652E+04  0.10695266005E+04  0.12500000000E+03 0.  0.
         25    1    1    2    0    0 -0.93093897096E+02 -0.19725643468E+03 -0.50276510131E+03  0.56211593269E+03  0.12500000000E+03 0.  0.
         25    1    1    2    0    0 -0.56874471541E+02  0.29778417536E+03 -0.14342966830E+03  0.35792064813E+03  0.12500000000E+03 0.  0.
</event>
<event>
 5    0  0.5507918E-005  0.2916598E+03  0.7546771E-02  0.1089486E+00
         21   -1    0    0  502  501  0.00000000000E+00  0.00000000000E+00  0.48543981672E+03  0.48543981672E+03  0.00000000000E+00 0.  1.
         21   -1    0    0  501  502 -0.00000000000E+00 -0.00000000000E+00 -0.17523370609E+03  0.17523370609E+03  0.00000000000E+00 0.  1.
         25    1    1    2    0    0  0.12183373473E+03 -0.24403305464E+01  0.12625269008E+03  0.21543944830E+03  0.12500000000E+03 0.  0.
         25    1    1    2    0    0 -0.72618651412E+02  0.14137517964E+03  0.44846802690E+02  0.20711505417E+03  0.12500000000E+03 0.  0.
         25    1    1    2    0    0 -0.49215083313E+02 -0.13893484910E+03  0.13910661786E+03  0.23811902035E+03  0.12500000000E+03 0.  0.
</event>
<event>
 5    0  0.5503691E-005  0.4335514E+03  0.7546771E-02  0.1032744E+00
         21   -1    0    0  502  501  0.00000000000E+00  0.00000000000E+00  0.21494895377E+03  0.21494895377E+03  0.00000000000E+00 0.  1.
         21   -1    0    0  501  502 -0.00000000000E+00 -0.00000000000E+00 -0.87447174547E+03  0.87447174547E+03  0.00000000000E+00 0.  1.
         25    1    1    2    0    0 -0.11062970998E+03  0.13387186175E+02 -0.73673503640E+03  0.75552740741E+03  0.12500000000E+03 0.  0.
         25    1    1    2    0    0  0.16548406946E+02  0.72393864921E+02  0.47877913267E+02  0.15307519730E+03  0.12500000000E+03 0.  0.
         25    1    1    2    0    0  0.94081303031E+02 -0.85781051097E+02  0.29334331445E+02  0.18081809453E+03  0.12500000000E+03 0.  0.
</event>
<event>
 5    0  0.5503691E-005  0.3162699E+03  0.7546771E-02  0.1077379E+00
         21   -1    0    0  502  501  0.00000000000E+00  0.00000000000E+00  0.15356935836E+03  0.15356935836E+03  0.00000000000E+00 0.  1.
         21   -1    0    0  501  502 -0.00000000000E+00 -0.00000000000E+00 -0.65134526311E+03  0.65134526311E+03  0.00000000000E+00 0.  1.
         25    1    1    2    0    0  0.31666892616E+02  0.52685991560E+02 -0.14891020842E+03  0.20390648829E+03  0.12500000000E+03 0.  0.
         25    1    1    2    0    0  0.15528986055E+03 -0.16721167248E+02 -0.31150818057E+03  0.37021194576E+03  0.12500000000E+03 0.  0.
         25    1    1    2    0    0 -0.18695675317E+03 -0.35964824312E+02 -0.37357515772E+02  0.23079618742E+03  0.12500000000E+03 0.  0.
</event>
<event>
 5    0  0.5503691E-005  0.3302841E+03  0.7546771E-02  0.1071011E+00
         21   -1    0    0  502  501  0.00000000000E+00  0.00000000000E+00  0.81469955565E+02  0.81469955565E+02  0.00000000000E+00 0.  1.
         21   -1    0    0  501  502 -0.00000000000E+00 -0.00000000000E+00 -0.13389912318E+04  0.13389912318E+04  0.00000000000E+00 0.  1.
         25    1    1    2    0    0  0.45202104655E+02  0.24327239594E+03 -0.65312556017E+03  0.70952285815E+03  0.12500000000E+03 0.  0.
         25    1    1    2    0    0  0.29796061064E+01 -0.80593436799E+02 -0.35192002032E+03  0.38206920945E+03  0.12500000000E+03 0.  0.
         25    1    1    2    0    0 -0.48181710762E+02 -0.16267895914E+03 -0.25247569579E+03  0.32886911981E+03  0.12500000000E+03 0.  0.
</event>
<event>
 5    0  0.5503691E-005  0.3155752E+03  0.7546771E-02  0.1077704E+00
         21   -1    0    0  502  501  0.00000000000E+00  0.00000000000E+00  0.63165758055E+03  0.63165758055E+03  0.00000000000E+00 0.  1.
         21   -1    0    0  501  502 -0.00000000000E+00 -0.00000000000E+00 -0.15766091289E+03  0.15766091289E+03  0.00000000000E+00 0.  1.
         25    1    1    2    0    0  0.68235539765E+01 -0.17887339270E+03  0.25249836026E+03  0.33380034967E+03  0.12500000000E+03 0.  0.
         25    1    1    2    0    0  0.11861174446E+03  0.11438521816E+03  0.89125830131E+02  0.22521353790E+03  0.12500000000E+03 0.  0.
         25    1    1    2    0    0 -0.12543529843E+03  0.64488174546E+02  0.13237247727E+03  0.23030460588E+03  0.12500000000E+03 0.  0.
</event>
<event>
 5    0  0.5503691E-005  0.2473660E+03  0.7546771E-02  0.1114981E+00
         21   -1    0    0  502  501  0.00000000000E+00  0.00000000000E+00  0.12052188680E+03  0.12052188680E+03  0.00000000000E+00 0.  1.
         21   -1    0    0  501  502 -0.00000000000E+00 -0.00000000000E+00 -0.50770816310E+03  0.50770816310E+03  0.00000000000E+00 0.  1.
         25    1    1    2    0    0 -0.39086603974E+02 -0.61732623784E+02 -0.17641382346E+03  0.22822251545E+03  0.12500000000E+03 0.  0.
         25    1    1    2    0    0 -0.69955757283E+02  0.65155477415E+02 -0.16475006884E+03  0.22783026445E+03  0.12500000000E+03 0.  0.
         25    1    1    2    0    0  0.10904236126E+03 -0.34228536307E+01 -0.46022383998E+02  0.17217727000E+03  0.12500000000E+03 0.  0.
</event>
<event>
 5    0  0.5503691E-005  0.3408426E+03  0.7546771E-02  0.1066438E+00
         21   -1    0    0  502  501  0.00000000000E+00  0.00000000000E+00  0.44056969252E+03  0.44056969252E+03  0.00000000000E+00 0. -1.
         21   -1    0    0  501  502 -0.00000000000E+00 -0.00000000000E+00 -0.26368966770E+03  0.26368966770E+03  0.00000000000E+00 0. -1.
         25    1    1    2    0    0 -0.78567965000E+02 -0.87963515838E+02 -0.12233078588E+03  0.21095100478E+03  0.12500000000E+03 0.  0.
         25    1    1    2    0    0  0.14911373853E+03  0.13597587380E+03  0.15016143462E+03  0.28088752504E+03  0.12500000000E+03 0.  0.
         25    1    1    2    0    0 -0.70545773528E+02 -0.48012357964E+02  0.14904937607E+03  0.21242083040E+03  0.12500000000E+03 0.  0.
</event>
<event>
 5    0  0.5503691E-005  0.3618355E+03  0.7546771E-02  0.1057859E+00
         21   -1    0    0  502  501  0.00000000000E+00  0.00000000000E+00  0.22835974384E+03  0.22835974384E+03  0.00000000000E+00 0.  1.
         21   -1    0    0  501  502 -0.00000000000E+00 -0.00000000000E+00 -0.57332745228E+03  0.57332745228E+03  0.00000000000E+00 0.  1.
         25    1    1    2    0    0  0.15965126396E+03  0.22321373142E+03 -0.10462818122E+03  0.31919422345E+03  0.12500000000E+03 0.  0.
         25    1    1    2    0    0 -0.10609506088E+03 -0.21190436339E+03 -0.21539445859E+03  0.34377229958E+03  0.12500000000E+03 0.  0.
         25    1    1    2    0    0 -0.53556203077E+02 -0.11309368029E+02 -0.24945068633E+02  0.13872067309E+03  0.12500000000E+03 0.  0.
</event>
<event>
 5    0  0.5503691E-005  0.2701995E+03  0.7546771E-02  0.1101166E+00
         21   -1    0    0  502  501  0.00000000000E+00  0.00000000000E+00  0.12234440315E+03  0.12234440315E+03  0.00000000000E+00 0.  1.
         21   -1    0    0  501  502 -0.00000000000E+00 -0.00000000000E+00 -0.59673960946E+03  0.59673960946E+03  0.00000000000E+00 0.  1.
         25    1    1    2    0    0  0.73355858943E+01  0.22491601657E+02  0.30414356669E+02  0.13080411330E+03  0.12500000000E+03 0.  0.
         25    1    1    2    0    0  0.62927355944E+02 -0.69143488393E+01 -0.14994640871E+03  0.20522325851E+03  0.12500000000E+03 0.  0.
         25    1    1    2    0    0 -0.70262941838E+02 -0.15577252817E+02 -0.35486315427E+03  0.38305664080E+03  0.12500000000E+03 0.  0.
</event>
<event>
 5    0  0.5503691E-005  0.2211671E+03  0.7546771E-02  0.1133016E+00
         21   -1    0    0  502  501  0.00000000000E+00  0.00000000000E+00  0.29286253100E+03  0.29286253100E+03  0.00000000000E+00 0.  1.
         21   -1    0    0  501  502 -0.00000000000E+00 -0.00000000000E+00 -0.16702338609E+03  0.16702338609E+03  0.00000000000E+00 0.  1.
         25    1    1    2    0    0  0.24358041709E+02 -0.79368179434E+02  0.63048229192E+02  0.16276578666E+03  0.12500000000E+03 0.  0.
         25    1    1    2    0    0  0.48526995334E+02  0.31468131336E+02  0.23554418158E+02  0.13973161124E+03  0.12500000000E+03 0.  0.
         25    1    1    2    0    0 -0.72885037043E+02  0.47900048098E+02  0.39236497560E+02  0.15738851919E+03  0.12500000000E+03 0.  0.
</event>
<event>
 5    0  0.5503691E-005  0.6425462E+03  0.7546771E-02  0.9820867E-01
         21   -1    0    0  502  501  0.00000000000E+00  0.00000000000E+00  0.41637603465E+03  0.41637603465E+03  0.00000000000E+00 0.  1.
         21   -1    0    0  501  502 -0.00000000000E+00 -0.00000000000E+00 -0.99156901306E+03  0.99156901306E+03  0.00000000000E+00 0.  1.
         25    1    1    2    0    0  0.19495014060E+03  0.88795442607E+02 -0.96221939335E+02  0.26603354968E+03  0.12500000000E+03 0.  0.
         25    1    1    2    0    0  0.23796617010E+03 -0.82986276178E+02 -0.61072916257E+03  0.67240592662E+03  0.12500000000E+03 0.  0.
         25    1    1    2    0    0 -0.43291631070E+03 -0.58091664286E+01  0.13175812349E+03  0.46950557141E+03  0.12500000000E+03 0.  0.
</event>
<event>
 5    0  0.5503691E-005  0.2746688E+03  0.7546771E-02  0.1098637E+00
         21   -1    0    0  502  501  0.00000000000E+00  0.00000000000E+00  0.17395074150E+04  0.17395074150E+04  0.00000000000E+00 0.  1.
         21   -1    0    0  501  502 -0.00000000000E+00 -0.00000000000E+00 -0.43370310711E+02  0.43370310711E+02  0.00000000000E+00 0.  1.
         25    1    1    2    0    0 -0.71803330175E+02 -0.83711302909E+01  0.26154199584E+03  0.29875576920E+03  0.12500000000E+03 0.  0.
         25    1    1    2    0    0 -0.34144163816E+02  0.11831562288E+03  0.53133216010E+03  0.55955631968E+03  0.12500000000E+03 0.  0.
         25    1    1    2    0    0  0.10594749399E+03 -0.10994449259E+03  0.90326294837E+03  0.92456563684E+03  0.12500000000E+03 0.  0.
</event>
<event>
 5    0  0.5503691E-005  0.4213184E+03  0.7546771E-02  0.1036638E+00
         21   -1    0    0  502  501  0.00000000000E+00  0.00000000000E+00  0.89685698988E+03  0.89685698988E+03  0.00000000000E+00 0. -1.
         21   -1    0    0  501  502 -0.00000000000E+00 -0.00000000000E+00 -0.19792360920E+03  0.19792360920E+03  0.00000000000E+00 0. -1.
         25    1    1    2    0    0  0.17893391767E+03  0.12880630379E+03 -0.51715174725E+02  0.25866555643E+03  0.12500000000E+03 0.  0.
         25    1    1    2    0    0 -0.14596180675E+03 -0.16983553930E+02  0.33307451411E+03  0.38491157697E+03  0.12500000000E+03 0.  0.
         25    1    1    2    0    0 -0.32972110911E+02 -0.11182274986E+03  0.41757404130E+03  0.45120346569E+03  0.12500000000E+03 0.  0.
</event>
<event>
 5    0  0.5503691E-005  0.1999665E+03  0.7546771E-02  0.1149767E+00
         21   -1    0    0  502  501  0.00000000000E+00  0.00000000000E+00  0.66869519024E+02  0.66869519024E+02  0.00000000000E+00 0.  1.
         21   -1    0    0  501  502 -0.00000000000E+00 -0.00000000000E+00 -0.59797971090E+03  0.59797971090E+03  0.00000000000E+00 0.  1.
         25    1    1    2    0    0 -0.10047671659E+02  0.41978151812E+02 -0.19341104212E+03  0.23429885222E+03  0.12500000000E+03 0.  0.
         25    1    1    2    0    0 -0.27077139924E+02 -0.43436456173E+02 -0.19533692932E+03  0.23748981702E+03  0.12500000000E+03 0.  0.
         25    1    1    2    0    0  0.37124811584E+02  0.14583043619E+01 -0.14236222044E+03  0.19306056069E+03  0.12500000000E+03 0.  0.
</event>
<event>
 5    0  0.5503691E-005  0.2332986E+03  0.7546771E-02  0.1124339E+00
         21   -1    0    0  502  501  0.00000000000E+00  0.00000000000E+00  0.33398749267E+03  0.33398749267E+03  0.00000000000E+00 0.  1.
         21   -1    0    0  501  502 -0.00000000000E+00 -0.00000000000E+00 -0.16296488558E+03  0.16296488558E+03  0.00000000000E+00 0.  1.
         25    1    1    2    0    0  0.33894915720E+02 -0.90458670183E+02  0.12970464577E+03  0.20440139788E+03  0.12500000000E+03 0.  0.
         25    1    1    2    0    0  0.16101051744E+02 -0.24093348427E+01  0.16697476710E+02  0.12715681063E+03  0.12500000000E+03 0.  0.
         25    1    1    2    0    0 -0.49995967464E+02  0.92868005026E+02  0.24620484618E+02  0.16539416974E+03  0.12500000000E+03 0.  0.
</event>
<event>
 5    0  0.5503691E-005  0.4897320E+03  0.7546771E-02  0.1016494E+00
         21   -1    0    0  502  501  0.00000000000E+00  0.00000000000E+00  0.26537356775E+03  0.26537356775E+03  0.00000000000E+00 0. -1.
         21   -1    0    0  501  502 -0.00000000000E+00 -0.00000000000E+00 -0.90377289129E+03  0.90377289129E+03  0.00000000000E+00 0. -1.
         25    1    1    2    0    0  0.13443979242E+03  0.33445072572E+02 -0.28660161382E+03  0.34199139713E+03  0.12500000000E+03 0.  0.
         25    1    1    2    0    0  0.56697798891E+02 -0.19955423464E+03 -0.46389666309E+03  0.52331792153E+03  0.12500000000E+03 0.  0.
         25    1    1    2    0    0 -0.19113759131E+03  0.16610916207E+03  0.11209895337E+03  0.30383714039E+03  0.12500000000E+03 0.  0.
</event>
<event>
 5    0  0.5503691E-005  0.3881343E+03  0.7546771E-02  0.1047968E+00
         21   -1    0    0  502  501  0.00000000000E+00  0.00000000000E+00  0.53771679212E+03  0.53771679212E+03  0.00000000000E+00 0.  1.
         21   -1    0    0  501  502 -0.00000000000E+00 -0.00000000000E+00 -0.28016283793E+03  0.28016283793E+03  0.00000000000E+00 0.  1.
         25    1    1    2    0    0 -0.14875106536E+03 -0.43675497987E+02  0.42278931604E+02  0.20358520729E+03  0.12500000000E+03 0.  0.
         25    1    1    2    0    0  0.30125962997E+03  0.82665005481E+02  0.24822964480E+02  0.33739005224E+03  0.12500000000E+03 0.  0.
         25    1    1    2    0    0 -0.15250856462E+03 -0.38989507494E+02  0.19045205811E+03  0.27690437052E+03  0.12500000000E+03 0.  0.
</event>
<event>
 5    0  0.5503691E-005  0.3898700E+03  0.7546771E-02  0.1047345E+00
         21   -1    0    0  502  501  0.00000000000E+00  0.00000000000E+00  0.35881419009E+03  0.35881419009E+03  0.00000000000E+00 0. -1.
         21   -1    0    0  501  502 -0.00000000000E+00 -0.00000000000E+00 -0.42361380542E+03  0.42361380542E+03  0.00000000000E+00 0. -1.
         25    1    1    2    0    0  0.21520226886E+03  0.94634472435E+02  0.83988860893E+02  0.27918959266E+03  0.12500000000E+03 0.  0.
         25    1    1    2    0    0 -0.13960565431E+03 -0.11767680964E+02  0.92457862769E+02  0.20928849328E+03  0.12500000000E+03 0.  0.
         25    1    1    2    0    0 -0.75596614550E+02 -0.82866791471E+02 -0.24124633899E+03  0.29394990957E+03  0.12500000000E+03 0.  0.
</event>
<event>
 5    0  0.5503691E-005  0.2424286E+03  0.7546771E-02  0.1118185E+00
         21   -1    0    0  502  501  0.00000000000E+00  0.00000000000E+00  0.18045967814E+03  0.18045967814E+03  0.00000000000E+00 0.  1.
         21   -1    0    0  501  502 -0.00000000000E+00 -0.00000000000E+00 -0.32567736086E+03  0.32567736086E+03  0.00000000000E+00 0.  1.
         25    1    1    2    0    0 -0.51039045921E+02 -0.85031014312E+02 -0.42466813464E+02  0.16511719429E+03  0.12500000000E+03 0.  0.
         25    1    1    2    0    0  0.66742627755E+02  0.95461502695E+02  0.10658619712E+02  0.17119019549E+03  0.12500000000E+03 0.  0.
         25    1    1    2    0    0 -0.15703581834E+02 -0.10430488383E+02 -0.11340948896E+03  0.16982964923E+03  0.12500000000E+03 0.  0.
</event>
<event>
 5    0  0.5503691E-005  0.3961315E+03  0.7546771E-02  0.1045127E+00
         21   -1    0    0  502  501  0.00000000000E+00  0.00000000000E+00  0.10993822079E+04  0.10993822079E+04  0.00000000000E+00 0. -1.
         21   -1    0    0  501  502 -0.00000000000E+00 -0.00000000000E+00 -0.14273486779E+03  0.14273486779E+03  0.00000000000E+00 0. -1.
         25    1    1    2    0    0 -0.90778159087E+02  0.28733423026E+03  0.31087875262E+03  0.45063536577E+03  0.12500000000E+03 0.  0.
         25    1    1    2    0    0 -0.54257668423E+02 -0.13169323844E+03  0.40298725554E+03  0.44532093119E+03  0.12500000000E+03 0.  0.
         25    1    1    2    0    0  0.14503582751E+03 -0.15564099182E+03  0.24278133197E+03  0.34616077876E+03  0.12500000000E+03 0.  0.
</event>
<event>
 5    0  0.5503691E-005  0.3789298E+03  0.7546771E-02  0.1051330E+00
         21   -1    0    0  502  501  0.00000000000E+00  0.00000000000E+00  0.47435962750E+03  0.47435962750E+03  0.00000000000E+00 0. -1.
         21   -1    0    0  501  502 -0.00000000000E+00 -0.00000000000E+00 -0.30269825231E+03  0.30269825231E+03  0.00000000000E+00 0. -1.
         25    1    1    2    0    0  0.65018946021E+02  0.69809195461E+02 -0.13035024378E+03  0.20424733332E+03  0.12500000000E+03 0.  0.
         25    1    1    2    0    0  0.10241436494E+03  0.11521575380E+03  0.18101925806E+03  0.26861932890E+03  0.12500000000E+03 0.  0.
         25    1    1    2    0    0 -0.16743331096E+03 -0.18502494926E+03  0.12099236090E+03  0.30419121760E+03  0.12500000000E+03 0.  0.
</event>
<event>
 5    0  0.5503691E-005  0.2430503E+03  0.7546771E-02  0.1117777E+00
         21   -1    0    0  502  501  0.00000000000E+00  0.00000000000E+00  0.28885197969E+04  0.28885197969E+04  0.00000000000E+00 0. -1.
         21   -1    0    0  501  502 -0.00000000000E+00 -0.00000000000E+00 -0.20451115882E+02  0.20451115882E+02  0.00000000000E+00 0. -1.
         25    1    1    2    0    0 -0.24748342396E+02 -0.74077248527E+02  0.12247484280E+04  0.12335856805E+04  0.12500000000E+03 0.  0.
         25    1    1    2    0    0 -0.35204563943E+02  0.47516248187E+02  0.12476573145E+04  0.12552971480E+04  0.12500000000E+03 0.  0.
         25    1    1    2    0    0  0.59952906338E+02  0.26561000340E+02  0.39566293850E+03  0.42008808436E+03  0.12500000000E+03 0.  0.
</event>
<event>
 5    0  0.5503691E-005  0.3828486E+03  0.7546771E-02  0.1049886E+00
         21   -1    0    0  502  501  0.00000000000E+00  0.00000000000E+00  0.72752924062E+03  0.72752924062E+03  0.00000000000E+00 0.  1.
         21   -1    0    0  501  502 -0.00000000000E+00 -0.00000000000E+00 -0.20146687509E+03  0.20146687509E+03  0.00000000000E+00 0.  1.
         25    1    1    2    0    0  0.10597305832E+02  0.10995109050E+03  0.20180943026E+03  0.26182740753E+03  0.12500000000E+03 0.  0.
         25    1    1    2    0    0 -0.63657838144E+02  0.46454566613E+02  0.41537822524E+03  0.44087914117E+03  0.12500000000E+03 0.  0.
         25    1    1    2    0    0  0.53060532312E+02 -0.15640565711E+03 -0.91125289961E+02  0.22628956701E+03  0.12500000000E+03 0.  0.
</event>
<event>
 5    0  0.5503691E-005  0.4102289E+03  0.7546771E-02  0.1040294E+00
         21   -1    0    0  502  501  0.00000000000E+00  0.00000000000E+00  0.91951374526E+02  0.91951374526E+02  0.00000000000E+00 0. -1.
         21   -1    0    0  501  502 -0.00000000000E+00 -0.00000000000E+00 -0.18301818805E+04  0.18301818805E+04  0.00000000000E+00 0. -1.
         25    1    1    2    0    0  0.66911101873E+02  0.17456113883E+03 -0.52294234351E+03  0.56924720586E+03  0.12500000000E+03 0.  0.
         25    1    1    2    0    0  0.20628836066E+03 -0.15173954759E+03 -0.70300161958E+03  0.75856183345E+03  0.12500000000E+03 0.  0.
         25    1    1    2    0    0 -0.27319946253E+03 -0.22821591240E+02 -0.51228654285E+03  0.59432421568E+03  0.12500000000E+03 0.  0.
</event>
<event>
 5    0  0.5503691E-005  0.6981765E+03  0.7546771E-02  0.9720356E-01
         21   -1    0    0  502  501  0.00000000000E+00  0.00000000000E+00  0.19306721613E+04  0.19306721613E+04  0.00000000000E+00 0. -1.
         21   -1    0    0  501  502 -0.00000000000E+00 -0.00000000000E+00 -0.25247709099E+03  0.25247709099E+03  0.00000000000E+00 0. -1.
         25    1    1    2    0    0  0.48211040963E+02  0.11970900817E+03  0.52483192437E+01  0.17974174797E+03  0.12500000000E+03 0.  0.
         25    1    1    2    0    0  0.30578544777E+03  0.30951098170E+03  0.11246302684E+04  0.12123201015E+04  0.12500000000E+03 0.  0.
         25    1    1    2    0    0 -0.35399648874E+03 -0.42921998987E+03  0.54831648263E+03  0.79108740280E+03  0.12500000000E+03 0.  0.
</event>
<event>
 5    0  0.5503691E-005  0.4367274E+03  0.7546771E-02  0.1031756E+00
         21   -1    0    0  502  501  0.00000000000E+00  0.00000000000E+00  0.29244115042E+03  0.29244115042E+03  0.00000000000E+00 0. -1.
         21   -1    0    0  501  502 -0.00000000000E+00 -0.00000000000E+00 -0.65220251336E+03  0.65220251336E+03  0.00000000000E+00 0. -1.
         25    1    1    2    0    0 -0.12020042638E+03  0.93319005440E+02 -0.85982364806E+02  0.21488263386E+03  0.12500000000E+03 0.  0.
         25    1    1    2    0    0 -0.20961959630E+03  0.10448900431E+03 -0.59373965782E+02  0.27204520762E+03  0.12500000000E+03 0.  0.
         25    1    1    2    0    0  0.32982002269E+03 -0.19780800975E+03 -0.21440503235E+03  0.45771582230E+03  0.12500000000E+03 0.  0.
</event>
<event>
 5    0  0.5503691E-005  0.2668651E+03  0.7546771E-02  0.1103087E+00
         21   -1    0    0  502  501  0.00000000000E+00  0.00000000000E+00  0.23508594611E+03  0.23508594611E+03  0.00000000000E+00 0.  1.
         21   -1    0    0  501  502 -0.00000000000E+00 -0.00000000000E+00 -0.30294023279E+03  0.30294023279E+03  0.00000000000E+00 0.  1.
         25    1    1    2    0    0  0.55300719945E+02  0.93658082271E+02 -0.76630426024E+02  0.18255746546E+03  0.12500000000E+03 0.  0.
         25    1    1    2    0    0 -0.10679150746E+03  0.29867065011E+02  0.34277257632E+02  0.17057666320E+03  0.12500000000E+03 0.  0.
         25    1    1    2    0    0  0.51490787515E+02 -0.12352514728E+03 -0.25501118289E+02  0.18489205025E+03  0.12500000000E+03 0.  0.
</event>
<event>
 5    0  0.5503691E-005  0.4662079E+03  0.7546771E-02  0.1022996E+00
         21   -1    0    0  502  501  0.00000000000E+00  0.00000000000E+00  0.29330898724E+03  0.29330898724E+03  0.00000000000E+00 0.  1.
         21   -1    0    0  501  502 -0.00000000000E+00 -0.00000000000E+00 -0.74102670647E+03  0.74102670647E+03  0.00000000000E+00 0.  1.
         25    1    1    2    0    0  0.38866247060E+02 -0.88203042955E+02 -0.15123516606E+03  0.21860337921E+03  0.12500000000E+03 0.  0.
         25    1    1    2    0    0  0.26336440410E+03  0.25068578008E+03 -0.21873555170E+03  0.44235100458E+03  0.12500000000E+03 0.  0.
         25    1    1    2    0    0 -0.30223065116E+03 -0.16248273712E+03 -0.77747001455E+02  0.37338130992E+03  0.12500000000E+03 0.  0.
</event>
<event>
 5    0  0.5503691E-005  0.2812634E+03  0.7546771E-02  0.1095001E+00
         21   -1    0    0  502  501  0.00000000000E+00  0.00000000000E+00  0.69574746387E+03  0.69574746387E+03  0.00000000000E+00 0. -1.
         21   -1    0    0  501  502 -0.00000000000E+00 -0.00000000000E+00 -0.11370376579E+03  0.11370376579E+03  0.00000000000E+00 0. -1.
         25    1    1    2    0    0 -0.29761552095E+01  0.94582407382E+01  0.26088754849E+02  0.12807786283E+03  0.12500000000E+03 0.  0.
         25    1    1    2    0    0  0.29587618436E+02 -0.70981133425E+02  0.51239197590E+03  0.53299557731E+03  0.12500000000E+03 0.  0.
         25    1    1    2    0    0 -0.26611463226E+02  0.61522892687E+02  0.43562967338E+02  0.14837778952E+03  0.12500000000E+03 0.  0.
</event>
<event>
 5    0  0.5503691E-005  0.2211306E+03  0.7546771E-02  0.1133043E+00
         21   -1    0    0  502  501  0.00000000000E+00  0.00000000000E+00  0.27410385543E+03  0.27410385543E+03  0.00000000000E+00 0. -1.
         21   -1    0    0  501  502 -0.00000000000E+00 -0.00000000000E+00 -0.17839496865E+03  0.17839496865E+03  0.00000000000E+00 0. -1.
         25    1    1    2    0    0 -0.14502234440E+02  0.30781686952E+02  0.93799600529E+02  0.15994121456E+03  0.12500000000E+03 0.  0.
         25    1    1    2    0    0  0.26190436209E+01 -0.82491263038E+02  0.32699339925E+02  0.15331638757E+03  0.12500000000E+03 0.  0.
         25    1    1    2    0    0  0.11883190819E+02  0.51709576086E+02 -0.30790053672E+02  0.13924122194E+03  0.12500000000E+03 0.  0.
</event>
<event>
 5    0  0.5503691E-005  0.4272077E+03  0.7546771E-02  0.1034746E+00
         21   -1    0    0  502  501  0.00000000000E+00  0.00000000000E+00  0.39419199733E+03  0.39419199733E+03  0.00000000000E+00 0.  1.
         21   -1    0    0  501  502 -0.00000000000E+00 -0.00000000000E+00 -0.46298875068E+03  0.46298875068E+03  0.00000000000E+00 0.  1.
         25    1    1    2    0    0 -0.16008787054E+03  0.35903749613E+02  0.21847001809E+03  0.30045191684E+03  0.12500000000E+03 0.  0.
         25    1    1    2    0    0  0.31036403577E+02 -0.12513575472E+03  0.29304270779E+02  0.18195042111E+03  0.12500000000E+03 0.  0.
         25    1    1    2    0    0  0.12905146696E+03  0.89232005111E+02 -0.31657104223E+03  0.37477841005E+03  0.12500000000E+03 0.  0.
</event>
<event>
 5    0  0.5503691E-005  0.3038533E+03  0.7546771E-02  0.1083330E+00
         21   -1    0    0  502  501  0.00000000000E+00  0.00000000000E+00  0.21479079867E+04  0.21479079867E+04  0.00000000000E+00 0.  1.
         21   -1    0    0  501  502 -0.00000000000E+00 -0.00000000000E+00 -0.42984530829E+02  0.42984530829E+02  0.00000000000E+00 0.  1.
         25    1    1    2    0    0 -0.45992536036E+02  0.87749850085E+02  0.17779590299E+03  0.23885504533E+03  0.12500000000E+03 0.  0.
         25    1    1    2    0    0 -0.41768985940E+01 -0.62972675573E+02  0.52903175927E+03  0.54725004035E+03  0.12500000000E+03 0.  0.
         25    1    1    2    0    0  0.50169434630E+02 -0.24777174512E+02  0.13980957936E+04  0.14047874318E+04  0.12500000000E+03 0.  0.
</event>
<event>
 5    0  0.5503691E-005  0.4016843E+03  0.7546771E-02  0.1043198E+00
         21   -1    0    0  502  501  0.00000000000E+00  0.00000000000E+00  0.13908491417E+03  0.13908491417E+03  0.00000000000E+00 0. -1.
         21   -1    0    0  501  502 -0.00000000000E+00 -0.00000000000E+00 -0.11600844017E+04  0.11600844017E+04  0.00000000000E+00 0. -1.
         25    1    1    2    0    0 -0.18145165664E+03 -0.12699007751E+03 -0.29818585314E+03  0.39190685946E+03  0.12500000000E+03 0.  0.
         25    1    1    2    0    0  0.25093375720E+02 -0.59566583715E+02 -0.58345232907E+03  0.60018286855E+03  0.12500000000E+03 0.  0.
         25    1    1    2    0    0  0.15635828092E+03  0.18655666122E+03 -0.13936130531E+03  0.30707958785E+03  0.12500000000E+03 0.  0.
</event>
<event>
 5    0  0.6688355E-005  0.4099032E+03  0.7546771E-02  0.1040404E+00
         21   -1    0    0  502  501  0.00000000000E+00  0.00000000000E+00  0.31775382428E+03  0.31775382428E+03  0.00000000000E+00 0.  1.
         21   -1    0    0  501  502 -0.00000000000E+00 -0.00000000000E+00 -0.52877603303E+03  0.52877603303E+03  0.00000000000E+00 0.  1.
         25    1    1    2    0    0  0.64031984680E+02  0.42323562603E+02  0.15564633617E+03  0.21387417090E+03  0.12500000000E+03 0.  0.
         25    1    1    2    0    0 -0.24169276043E+03 -0.70940534532E+02 -0.12892385673E+03  0.30934497041E+03  0.12500000000E+03 0.  0.
         25    1    1    2    0    0  0.17766077575E+03  0.28616971929E+02 -0.23774468819E+03  0.32331071601E+03  0.12500000000E+03 0.  0.
</event>
<event>
 5    0  0.5503691E-005  0.5227909E+03  0.7546771E-02  0.1007996E+00
         21   -1    0    0  502  501  0.00000000000E+00  0.00000000000E+00  0.16157843246E+04  0.16157843246E+04  0.00000000000E+00 0. -1.
         21   -1    0    0  501  502 -0.00000000000E+00 -0.00000000000E+00 -0.16915026766E+03  0.16915026766E+03  0.00000000000E+00 0. -1.
         25    1    1    2    0    0 -0.23449463352E+03 -0.17482903183E+03  0.84550059488E+03  0.90335440413E+03  0.12500000000E+03 0.  0.
         25    1    1    2    0    0 -0.13863067724E+03  0.51156236684E+02  0.62991715894E+02  0.20353963126E+03  0.12500000000E+03 0.  0.
         25    1    1    2    0    0  0.37312531075E+03  0.12367279514E+03  0.53814174613E+03  0.67804055684E+03  0.12500000000E+03 0.  0.
</event>
<event>
 5    0  0.5503691E-005  0.2635735E+03  0.7546771E-02  0.1105015E+00
         21   -1    0    0  502  501  0.00000000000E+00  0.00000000000E+00  0.12369220711E+04  0.12369220711E+04  0.00000000000E+00 0.  1.
         21   -1    0    0  501  502 -0.00000000000E+00 -0.00000000000E+00 -0.56164415861E+02  0.56164415861E+02  0.00000000000E+00 0.  1.
         25    1    1    2    0    0 -0.48641948825E+02 -0.20214211771E+01  0.12610075450E+03  0.18411009102E+03  0.12500000000E+03 0.  0.
         25    1    1    2    0    0 -0.17168720403E+02 -0.55691241525E+02  0.21407665177E+03  0.25465681255E+03  0.12500000000E+03 0.  0.
         25    1    1    2    0    0  0.65810669227E+02  0.57712662702E+02  0.84058024895E+03  0.85431958338E+03  0.12500000000E+03 0.  0.
</event>
<event>
 5    0  0.5503691E-005  0.3965242E+03  0.7546771E-02  0.1044990E+00
         21   -1    0    0  502  501  0.00000000000E+00  0.00000000000E+00  0.16564399687E+03  0.16564399687E+03  0.00000000000E+00 0.  1.
         21   -1    0    0  501  502 -0.00000000000E+00 -0.00000000000E+00 -0.94921324357E+03  0.94921324357E+03  0.00000000000E+00 0.  1.
         25    1    1    2    0    0 -0.21161101343E+03  0.18644820130E+03 -0.53821368020E+03  0.62035563858E+03  0.12500000000E+03 0.  0.
         25    1    1    2    0    0  0.12155950557E+03 -0.75466930242E+02 -0.23793784117E+03  0.30448544664E+03  0.12500000000E+03 0.  0.
         25    1    1    2    0    0  0.90051507856E+02 -0.11098127106E+03 -0.74177253333E+01  0.19001615521E+03  0.12500000000E+03 0.  0.
</event>
<event>
 5    0  0.5503691E-005  0.4343208E+03  0.7546771E-02  0.1032504E+00
         21   -1    0    0  502  501  0.00000000000E+00  0.00000000000E+00  0.85411777655E+03  0.85411777655E+03  0.00000000000E+00 0.  1.
         21   -1    0    0  501  502 -0.00000000000E+00 -0.00000000000E+00 -0.22085314051E+03  0.22085314051E+03  0.00000000000E+00 0.  1.
         25    1    1    2    0    0  0.14249213992E+03 -0.16405891682E+03 -0.41196701572E+02  0.25405020438E+03  0.12500000000E+03 0.  0.
         25    1    1    2    0    0  0.91592425805E+02  0.91308123718E+02  0.36439048639E+03  0.40636408858E+03  0.12500000000E+03 0.  0.
         25    1    1    2    0    0 -0.23408456572E+03  0.72750793099E+02  0.31007085123E+03  0.41455662410E+03  0.12500000000E+03 0.  0.
</event>
<event>
 5    0  0.5503691E-005  0.3835148E+03  0.7546771E-02  0.1049642E+00
         21   -1    0    0  502  501  0.00000000000E+00  0.00000000000E+00  0.90189507658E+03  0.90189507658E+03  0.00000000000E+00 0. -1.
         21   -1    0    0  501  502 -0.00000000000E+00 -0.00000000000E+00 -0.16308286343E+03  0.16308286343E+03  0.00000000000E+00 0.  1.
         25    1    1    2    0    0 -0.87629262872E+02  0.16162028838E+03  0.20390388275E+03  0.30166504393E+03  0.12500000000E+03 0.  0.
         25    1    1    2    0    0 -0.13210593035E+03 -0.12571441606E+01  0.39082299260E+03  0.43106979573E+03  0.12500000000E+03 0.  0.
         25    1    1    2    0    0  0.21973519322E+03 -0.16036314422E+03  0.14408533780E+03  0.33224310035E+03  0.12500000000E+03 0.  0.
</event>
<event>
 5    0  0.5503691E-005  0.3416301E+03  0.7546771E-02  0.1066104E+00
         21   -1    0    0  502  501  0.00000000000E+00  0.00000000000E+00  0.20943260363E+03  0.20943260363E+03  0.00000000000E+00 0. -1.
         21   -1    0    0  501  502 -0.00000000000E+00 -0.00000000000E+00 -0.55727300428E+03  0.55727300428E+03  0.00000000000E+00 0. -1.
         25    1    1    2    0    0 -0.18752629351E+03 -0.28460584999E+01 -0.30561240441E+03  0.37973431836E+03  0.12500000000E+03 0.  0.
         25    1    1    2    0    0  0.11630538265E+03  0.11186120945E+03 -0.25070952419E+02  0.20565365270E+03  0.12500000000E+03 0.  0.
         25    1    1    2    0    0  0.71220910861E+02 -0.10901515095E+03 -0.17157043821E+02  0.18131763685E+03  0.12500000000E+03 0.  0.
</event>
<event>
 5    0  0.5503691E-005  0.3499081E+03  0.7546771E-02  0.1062653E+00
         21   -1    0    0  502  501  0.00000000000E+00  0.00000000000E+00  0.90828449034E+02  0.90828449034E+02  0.00000000000E+00 0.  1.
         21   -1    0    0  501  502 -0.00000000000E+00 -0.00000000000E+00 -0.13479884730E+04  0.13479884730E+04  0.00000000000E+00 0.  1.
         25    1    1    2    0    0 -0.28366691033E+01  0.16419491769E+03 -0.10485555998E+03  0.23149018585E+03  0.12500000000E+03 0.  0.
         25    1    1    2    0    0  0.93182655629E+02 -0.10254137328E+03 -0.73151249098E+03  0.75493924590E+03  0.12500000000E+03 0.  0.
         25    1    1    2    0    0 -0.90345986526E+02 -0.61653544408E+02 -0.42079197303E+03  0.45238749031E+03  0.12500000000E+03 0.  0.
</event>
<event>
 5    0  0.5503691E-005  0.2148196E+03  0.7546771E-02  0.1137805E+00
         21   -1    0    0  502  501  0.00000000000E+00  0.00000000000E+00  0.13284051156E+03  0.13284051156E+03  0.00000000000E+00 0. -1.
         21   -1    0    0  501  502 -0.00000000000E+00 -0.00000000000E+00 -0.34738992669E+03  0.34738992669E+03  0.00000000000E+00 0. -1.
         25    1    1    2    0    0  0.38801571416E+02  0.43528229664E+01 -0.11130855565E+03  0.17186943758E+03  0.12500000000E+03 0.  0.
         25    1    1    2    0    0  0.47291794918E+02 -0.10607356681E+02 -0.21259001256E+02  0.13574231108E+03  0.12500000000E+03 0.  0.
         25    1    1    2    0    0 -0.86093366334E+02  0.62545337148E+01 -0.81981858229E+02  0.17261868959E+03  0.12500000000E+03 0.  0.
</event>
<event>
 5    0  0.5503691E-005  0.2196783E+03  0.7546771E-02  0.1134123E+00
         21   -1    0    0  502  501  0.00000000000E+00  0.00000000000E+00  0.73805254286E+02  0.73805254286E+02  0.00000000000E+00 0.  1.
         21   -1    0    0  501  502 -0.00000000000E+00 -0.00000000000E+00 -0.65386342643E+03  0.65386342643E+03  0.00000000000E+00 0.  1.
         25    1    1    2    0    0  0.68647598630E+02 -0.43660806055E+02 -0.12768410982E+03  0.19633387554E+03  0.12500000000E+03 0.  0.
         25    1    1    2    0    0 -0.45741282861E+02  0.82946927700E+01 -0.30877230646E+03  0.33634268852E+03  0.12500000000E+03 0.  0.
         25    1    1    2    0    0 -0.22906315769E+02  0.35366113285E+02 -0.14360175586E+03  0.19499211666E+03  0.12500000000E+03 0.  0.
</event>
<event>
 5    0  0.5503691E-005  0.2105320E+03  0.7546771E-02  0.1141145E+00
         21   -1    0    0  502  501  0.00000000000E+00  0.00000000000E+00  0.29652081764E+03  0.29652081764E+03  0.00000000000E+00 0.  1.
         21   -1    0    0  501  502 -0.00000000000E+00 -0.00000000000E+00 -0.14947931889E+03  0.14947931889E+03  0.00000000000E+00 0.  1.
         25    1    1    2    0    0 -0.65581734342E+01  0.27944974242E+02  0.30275661525E+02  0.13177840075E+03  0.12500000000E+03 0.  0.
         25    1    1    2    0    0 -0.55013084267E+02 -0.42007716938E+02  0.97201331156E+02  0.17281257622E+03  0.12500000000E+03 0.  0.
         25    1    1    2    0    0  0.61571257701E+02  0.14062742696E+02  0.19564506077E+02  0.14140915955E+03  0.12500000000E+03 0.  0.
</event>
<event>
 5    0  0.5503691E-005  0.2953256E+03  0.7546771E-02  0.1087601E+00
         21   -1    0    0  502  501  0.00000000000E+00  0.00000000000E+00  0.89184661883E+02  0.89184661883E+02  0.00000000000E+00 0.  1.
         21   -1    0    0  501  502 -0.00000000000E+00 -0.00000000000E+00 -0.97793930542E+03  0.97793930542E+03  0.00000000000E+00 0.  1.
         25    1    1    2    0    0 -0.22951773989E+02  0.36419183634E+02 -0.54123571399E+03  0.55714830967E+03  0.12500000000E+03 0.  0.
         25    1    1    2    0    0  0.30820962718E+02 -0.85122850051E+02 -0.19587968272E+02  0.15557801851E+03  0.12500000000E+03 0.  0.
         25    1    1    2    0    0 -0.78691887284E+01  0.48703666417E+02 -0.32793096127E+03  0.35439763912E+03  0.12500000000E+03 0.  0.
</event>
<event>
 5    0  0.7789429E-005  0.3488256E+03  0.7546771E-02  0.1063098E+00
         21   -1    0    0  502  501  0.00000000000E+00  0.00000000000E+00  0.15898828977E+03  0.15898828977E+03  0.00000000000E+00 0. -1.
         21   -1    0    0  501  502 -0.00000000000E+00 -0.00000000000E+00 -0.76533504272E+03  0.76533504272E+03  0.00000000000E+00 0. -1.
         25    1    1    2    0    0 -0.17330037183E+03 -0.73883203613E+02 -0.22997876811E+03  0.32250113246E+03  0.12500000000E+03 0.  0.
         25    1    1    2    0    0  0.20990578420E+03  0.39279944171E+01 -0.38246400982E+03  0.45384973966E+03  0.12500000000E+03 0.  0.
         25    1    1    2    0    0 -0.36605412373E+02  0.69955209196E+02  0.60960249841E+01  0.14797246037E+03  0.12500000000E+03 0.  0.
</event>
<event>
 5    0  0.6046531E-005  0.2879683E+03  0.7546771E-02  0.1091415E+00
         21   -1    0    0  502  501  0.00000000000E+00  0.00000000000E+00  0.16076984404E+03  0.16076984404E+03  0.00000000000E+00 0. -1.
         21   -1    0    0  501  502 -0.00000000000E+00 -0.00000000000E+00 -0.51580412892E+03  0.51580412892E+03  0.00000000000E+00 0. -1.
         25    1    1    2    0    0 -0.64591661007E+02  0.24589729333E+02 -0.46992206307E+02  0.15036623595E+03  0.12500000000E+03 0.  0.
         25    1    1    2    0    0 -0.89982806780E+02  0.41976109138E+02 -0.75522659070E+01  0.15981531834E+03  0.12500000000E+03 0.  0.
         25    1    1    2    0    0  0.15457446779E+03 -0.66565838471E+02 -0.30048981267E+03  0.36639241867E+03  0.12500000000E+03 0.  0.
</event>
<event>
 5    0  0.5503691E-005  0.2911279E+03  0.7546771E-02  0.1089762E+00
         21   -1    0    0  502  501  0.00000000000E+00  0.00000000000E+00  0.57035099134E+03  0.57035099134E+03  0.00000000000E+00 0.  1.
         21   -1    0    0  501  502 -0.00000000000E+00 -0.00000000000E+00 -0.14860224139E+03  0.14860224139E+03  0.00000000000E+00 0.  1.
         25    1    1    2    0    0 -0.69214530601E+02  0.91818734099E+02  0.24508319119E+03  0.29818132367E+03  0.12500000000E+03 0.  0.
         25    1    1    2    0    0  0.10717653540E+03 -0.13046877496E+03  0.19081628010E+03  0.28380409393E+03  0.12500000000E+03 0.  0.
         25    1    1    2    0    0 -0.37962004804E+02  0.38650040857E+02 -0.14150721340E+02  0.13696781513E+03  0.12500000000E+03 0.  0.
</event>
<event>
 5    0  0.5503691E-005  0.3444901E+03  0.7546771E-02  0.1064900E+00
         21   -1    0    0  502  501  0.00000000000E+00  0.00000000000E+00  0.21069617123E+04  0.21069617123E+04  0.00000000000E+00 0.  1.
         21   -1    0    0  501  502 -0.00000000000E+00 -0.00000000000E+00 -0.56324423278E+02  0.56324423278E+02  0.00000000000E+00 0.  1.
         25    1    1    2    0    0 -0.12098242051E+03  0.92397761668E+02  0.69848288347E+03  0.72572545148E+03  0.12500000000E+03 0.  0.
         25    1    1    2    0    0 -0.16629497223E+02  0.13174957609E+03  0.69953135372E+03  0.72291327682E+03  0.12500000000E+03 0.  0.
         25    1    1    2    0    0  0.13761191773E+03 -0.22414733775E+03  0.65262305181E+03  0.71464740724E+03  0.12500000000E+03 0.  0.
</event>
<event>
 5    0  0.5503691E-005  0.2747881E+03  0.7546771E-02  0.1098570E+00
         21   -1    0    0  502  501  0.00000000000E+00  0.00000000000E+00  0.10553022623E+04  0.10553022623E+04  0.00000000000E+00 0.  1.
         21   -1    0    0  501  502 -0.00000000000E+00 -0.00000000000E+00 -0.71551547348E+02  0.71551547348E+02  0.00000000000E+00 0.  1.
         25    1    1    2    0    0  0.43525887996E+02  0.85453558887E+02  0.69150374500E+03  0.70922439538E+03  0.12500000000E+03 0.  0.
         25    1    1    2    0    0 -0.67468464885E+02 -0.65401376516E+02  0.21999441852E+03  0.26991087045E+03  0.12500000000E+03 0.  0.
         25    1    1    2    0    0  0.23942576889E+02 -0.20052182371E+02  0.72252551465E+02  0.14771854386E+03  0.12500000000E+03 0.  0.
</event>
<event>
 5    0  0.5503691E-005  0.3094481E+03  0.7546771E-02  0.1080611E+00
         21   -1    0    0  502  501  0.00000000000E+00  0.00000000000E+00  0.13354751949E+03  0.13354751949E+03  0.00000000000E+00 0. -1.
         21   -1    0    0  501  502 -0.00000000000E+00 -0.00000000000E+00 -0.71703403260E+03  0.71703403260E+03  0.00000000000E+00 0. -1.
         25    1    1    2    0    0 -0.16791669224E+02 -0.10134432580E+03 -0.32208074442E+03  0.36043534573E+03  0.12500000000E+03 0.  0.
         25    1    1    2    0    0 -0.12932144980E+02  0.77637420501E+02  0.47158566324E+02  0.15506043923E+03  0.12500000000E+03 0.  0.
         25    1    1    2    0    0  0.29723814204E+02  0.23706905304E+02 -0.30856433501E+03  0.33508576713E+03  0.12500000000E+03 0.  0.
</event>
<event>
 5    0  0.5503691E-005  0.3395541E+03  0.7546771E-02  0.1066986E+00
         21   -1    0    0  502  501  0.00000000000E+00  0.00000000000E+00  0.23511575180E+03  0.23511575180E+03  0.00000000000E+00 0.  1.
         21   -1    0    0  501  502 -0.00000000000E+00 -0.00000000000E+00 -0.49038383969E+03  0.49038383969E+03  0.00000000000E+00 0.  1.
         25    1    1    2    0    0  0.87433891703E+02 -0.63948743601E+02 -0.89855202101E+02  0.18823677794E+03  0.12500000000E+03 0.  0.
         25    1    1    2    0    0  0.72694954714E+02 -0.12181681655E+03 -0.18073928007E+03  0.26156372187E+03  0.12500000000E+03 0.  0.
         25    1    1    2    0    0 -0.16012884642E+03  0.18576556015E+03  0.15326394284E+02  0.27569909169E+03  0.12500000000E+03 0.  0.
</event>
<event>
 5    0  0.5503691E-005  0.4931824E+03  0.7546771E-02  0.1015574E+00
         21   -1    0    0  502  501  0.00000000000E+00  0.00000000000E+00  0.14462403112E+04  0.14462403112E+04  0.00000000000E+00 0. -1.
         21   -1    0    0  501  502 -0.00000000000E+00 -0.00000000000E+00 -0.16818012146E+03  0.16818012146E+03  0.00000000000E+00 0. -1.
         25    1    1    2    0    0 -0.39548777227E+03  0.47089787279E+02  0.55399789191E+03  0.69366179823E+03  0.12500000000E+03 0.  0.
         25    1    1    2    0    0  0.26326192814E+03  0.12205208974E+03  0.34786296595E+03  0.46993318514E+03  0.12500000000E+03 0.  0.
         25    1    1    2    0    0  0.13222584412E+03 -0.16914187702E+03  0.37619933184E+03  0.45082544925E+03  0.12500000000E+03 0.  0.
</event>
<event>
 5    0  0.5503691E-005  0.2285216E+03  0.7546771E-02  0.1127685E+00
         21   -1    0    0  502  501  0.00000000000E+00  0.00000000000E+00  0.17570502947E+03  0.17570502947E+03  0.00000000000E+00 0.  1.
         21   -1    0    0  501  502 -0.00000000000E+00 -0.00000000000E+00 -0.29721465515E+03  0.29721465515E+03  0.00000000000E+00 0.  1.
         25    1    1    2    0    0 -0.27806619456E+02  0.67588737032E+02 -0.60501722806E+01  0.14492429073E+03  0.12500000000E+03 0.  0.
         25    1    1    2    0    0  0.43478822151E+02 -0.50857790659E+02 -0.13922264256E+03  0.19870799442E+03  0.12500000000E+03 0.  0.
         25    1    1    2    0    0 -0.15672202696E+02 -0.16730946373E+02  0.23763189159E+02  0.12928739947E+03  0.12500000000E+03 0.  0.
</event>
<event>
 5    0  0.8086529E-005  0.9670093E+03  0.7546771E-02  0.9345487E-01
         21   -1    0    0  502  501  0.00000000000E+00  0.00000000000E+00  0.90641999666E+03  0.90641999666E+03  0.00000000000E+00 0. -1.
         21   -1    0    0  501  502 -0.00000000000E+00 -0.00000000000E+00 -0.10316486596E+04  0.10316486596E+04  0.00000000000E+00 0. -1.
         25    1    1    2    0    0 -0.38802526695E+02  0.10642307698E+03 -0.35930584106E+03  0.39693474881E+03  0.12500000000E+03 0.  0.
         25    1    1    2    0    0  0.38863217997E+03  0.56285422718E+03  0.33005225166E+03  0.76967482821E+03  0.12500000000E+03 0.  0.
         25    1    1    2    0    0 -0.34982965327E+03 -0.66927730415E+03 -0.95975073504E+02  0.77145907921E+03  0.12500000000E+03 0.  0.
</event>
<event>
 5    0  0.5503691E-005  0.2822474E+03  0.7546771E-02  0.1094468E+00
         21   -1    0    0  502  501  0.00000000000E+00  0.00000000000E+00  0.87123951090E+02  0.87123951090E+02  0.00000000000E+00 0.  1.
         21   -1    0    0  501  502 -0.00000000000E+00 -0.00000000000E+00 -0.91437080166E+03  0.91437080166E+03  0.00000000000E+00 0.  1.
         25    1    1    2    0    0  0.10294996781E+03 -0.87814124814E+02 -0.46888391983E+03  0.50377291180E+03  0.12500000000E+03 0.  0.
         25    1    1    2    0    0 -0.11003608566E+03  0.32281775814E+02 -0.80131888152E+02  0.18760643032E+03  0.12500000000E+03 0.  0.
         25    1    1    2    0    0  0.70861178482E+01  0.55532349000E+02 -0.27823104258E+03  0.31011541062E+03  0.12500000000E+03 0.  0.
</event>
<event>
 5    0  0.5503691E-005  0.3031363E+03  0.7546771E-02  0.1083683E+00
         21   -1    0    0  502  501  0.00000000000E+00  0.00000000000E+00  0.10346860300E+04  0.10346860300E+04  0.00000000000E+00 0. -1.
         21   -1    0    0  501  502 -0.00000000000E+00 -0.00000000000E+00 -0.88811086808E+02  0.88811086808E+02  0.00000000000E+00 0. -1.
         25    1    1    2    0    0 -0.61738248610E+02  0.14886819053E+03  0.15494356663E+03  0.25613640571E+03  0.12500000000E+03 0.  0.
         25    1    1    2    0    0  0.41821191954E+02 -0.17755593315E+03  0.56609818528E+03  0.60775593528E+03  0.12500000000E+03 0.  0.
         25    1    1    2    0    0  0.19917056656E+02  0.28687742624E+02  0.22483319132E+03  0.25960477585E+03  0.12500000000E+03 0.  0.
</event>
<event>
 5    0  0.5503691E-005  0.4749004E+03  0.7546771E-02  0.1020546E+00
         21   -1    0    0  502  501  0.00000000000E+00  0.00000000000E+00  0.63244420963E+03  0.63244420963E+03  0.00000000000E+00 0.  1.
         21   -1    0    0  501  502 -0.00000000000E+00 -0.00000000000E+00 -0.35660127744E+03  0.35660127744E+03  0.00000000000E+00 0.  1.
         25    1    1    2    0    0 -0.80121334171E+01  0.19417746008E+03 -0.15577860723E+02  0.23159609243E+03  0.12500000000E+03 0.  0.
         25    1    1    2    0    0  0.48748519974E+02  0.22375840052E+03  0.10206400115E+03  0.28015406535E+03  0.12500000000E+03 0.  0.
         25    1    1    2    0    0 -0.40736386557E+02 -0.41793586060E+03  0.18935679177E+03  0.47729532928E+03  0.12500000000E+03 0.  0.
</event>
<event>
 5    0  0.5503691E-005  0.3555763E+03  0.7546771E-02  0.1060349E+00
         21   -1    0    0  502  501  0.00000000000E+00  0.00000000000E+00  0.28084821142E+04  0.28084821142E+04  0.00000000000E+00 0.  1.
         21   -1    0    0  501  502 -0.00000000000E+00 -0.00000000000E+00 -0.45018795055E+02  0.45018795055E+02  0.00000000000E+00 0.  1.
         25    1    1    2    0    0 -0.85112600215E+02 -0.69336891105E+02  0.36863085298E+03  0.40443227487E+03  0.12500000000E+03 0.  0.
         25    1    1    2    0    0  0.21646639527E+03  0.15582228749E+03  0.11004853233E+04  0.11392239605E+04  0.12500000000E+03 0.  0.
         25    1    1    2    0    0 -0.13135379506E+03 -0.86485396383E+02  0.12943471429E+04  0.13098446739E+04  0.12500000000E+03 0.  0.
</event>
<event>
 5    0  0.5503691E-005  0.2595812E+03  0.7546771E-02  0.1107395E+00
         21   -1    0    0  502  501  0.00000000000E+00  0.00000000000E+00  0.94615273560E+02  0.94615273560E+02  0.00000000000E+00 0.  1.
         21   -1    0    0  501  502 -0.00000000000E+00 -0.00000000000E+00 -0.71217258946E+03  0.71217258946E+03  0.00000000000E+00 0.  1.
         25    1    1    2    0    0 -0.20268527366E+02 -0.63872989561E+02 -0.12515002415E+03  0.18915099932E+03  0.12500000000E+03 0.  0.
         25    1    1    2    0    0  0.12555758402E+02 -0.16577507719E+02 -0.44305041206E+03  0.46081572071E+03  0.12500000000E+03 0.  0.
         25    1    1    2    0    0  0.77127689641E+01  0.80450497279E+02 -0.49356879698E+02  0.15682114300E+03  0.12500000000E+03 0.  0.
</event>
<event>
 5    0  0.6383291E-005  0.2837453E+03  0.7546771E-02  0.1093661E+00
         21   -1    0    0  502  501  0.00000000000E+00  0.00000000000E+00  0.58790411091E+03  0.58790411091E+03  0.00000000000E+00 0.  1.
         21   -1    0    0  501  502 -0.00000000000E+00 -0.00000000000E+00 -0.13694649540E+03  0.13694649540E+03  0.00000000000E+00 0.  1.
         25    1    1    2    0    0  0.10741515833E+03  0.29448337546E+02 -0.20647069582E+01  0.16743501377E+03  0.12500000000E+03 0.  0.
         25    1    1    2    0    0 -0.10377345122E+03  0.39105360264E+02  0.15913067423E+03  0.23075036264E+03  0.12500000000E+03 0.  0.
         25    1    1    2    0    0 -0.36417071055E+01 -0.68553697810E+02  0.29389164825E+03  0.32666522990E+03  0.12500000000E+03 0.  0.
</event>
<event>
 5    0  0.5503691E-005  0.5387665E+03  0.7546771E-02  0.1004128E+00
         21   -1    0    0  502  501  0.00000000000E+00  0.00000000000E+00  0.36255559310E+03  0.36255559310E+03  0.00000000000E+00 0.  1.
         21   -1    0    0  501  502 -0.00000000000E+00 -0.00000000000E+00 -0.80062026977E+03  0.80062026977E+03  0.00000000000E+00 0.  1.
         25    1    1    2    0    0  0.25874595536E+03  0.12737100803E+03  0.15633423930E+03  0.35105304084E+03  0.12500000000E+03 0.  0.
         25    1    1    2    0    0 -0.59226909816E+02 -0.15939223049E+03 -0.52306731070E+03  0.56403734052E+03  0.12500000000E+03 0.  0.
         25    1    1    2    0    0 -0.19951904555E+03  0.32021222456E+02 -0.71331605273E+02  0.24808548151E+03  0.12500000000E+03 0.  0.
</event>
<event>
 5    0  0.5503691E-005  0.3115746E+03  0.7546771E-02  0.1079594E+00
         21   -1    0    0  502  501  0.00000000000E+00  0.00000000000E+00  0.60961889116E+02  0.60961889116E+02  0.00000000000E+00 0.  1.
         21   -1    0    0  501  502 -0.00000000000E+00 -0.00000000000E+00 -0.15924495583E+04  0.15924495583E+04  0.00000000000E+00 0.  1.
         25    1    1    2    0    0  0.30462671050E+02  0.69696478955E+02 -0.13305912597E+03  0.19777589467E+03  0.12500000000E+03 0.  0.
         25    1    1    2    0    0 -0.63598100908E+02  0.11017551540E+03 -0.52134588222E+03  0.55100806849E+03  0.12500000000E+03 0.  0.
         25    1    1    2    0    0  0.33135429858E+02 -0.17987199436E+03 -0.87708266098E+03  0.90462748424E+03  0.12500000000E+03 0.  0.
</event>
<event>
 5    0  0.5570032E-005  0.3887362E+03  0.7546771E-02  0.1047751E+00
         21   -1    0    0  502  501  0.00000000000E+00  0.00000000000E+00  0.66856763779E+03  0.66856763779E+03  0.00000000000E+00 0. -1.
         21   -1    0    0  501  502 -0.00000000000E+00 -0.00000000000E+00 -0.22602925673E+03  0.22602925673E+03  0.00000000000E+00 0. -1.
         25    1    1    2    0    0 -0.16816699579E+02 -0.38717997732E+02  0.45848792730E+03  0.47709334958E+03  0.12500000000E+03 0.  0.
         25    1    1    2    0    0  0.16320654869E+03 -0.39234061600E+02 -0.10542528930E+01  0.20928879706E+03  0.12500000000E+03 0.  0.
         25    1    1    2    0    0 -0.14638984911E+03  0.77952059332E+02 -0.14895293347E+02  0.20821474789E+03  0.12500000000E+03 0.  0.
</event>
<event>
 5    0  0.5503691E-005  0.3559205E+03  0.7546771E-02  0.1060211E+00
         21   -1    0    0  502  501  0.00000000000E+00  0.00000000000E+00  0.53599414787E+02  0.53599414787E+02  0.00000000000E+00 0.  1.
         21   -1    0    0  501  502 -0.00000000000E+00 -0.00000000000E+00 -0.23634480950E+04  0.23634480950E+04  0.00000000000E+00 0.  1.
         25    1    1    2    0    0  0.10239102149E+03  0.17947409849E+03 -0.67481358721E+03  0.71672397113E+03  0.12500000000E+03 0.  0.
         25    1    1    2    0    0 -0.77606970896E+02 -0.38244583157E+02 -0.19244560799E+03  0.24524641099E+03  0.12500000000E+03 0.  0.
         25    1    1    2    0    0 -0.24784050589E+02 -0.14122951533E+03 -0.14425894850E+04  0.14550771276E+04  0.12500000000E+03 0.  0.
</event>
<event>
 5    0  0.5503691E-005  0.2232265E+03  0.7546771E-02  0.1131500E+00
         21   -1    0    0  502  501  0.00000000000E+00  0.00000000000E+00  0.19172444062E+04  0.19172444062E+04  0.00000000000E+00 0. -1.
         21   -1    0    0  501  502 -0.00000000000E+00 -0.00000000000E+00 -0.25990469824E+02  0.25990469824E+02  0.00000000000E+00 0. -1.
         25    1    1    2    0    0 -0.51683902652E+02  0.67483065248E+02  0.51130984766E+03  0.53318659980E+03  0.12500000000E+03 0.  0.
         25    1    1    2    0    0  0.70274242961E+02  0.56846672848E+01  0.65351067538E+03  0.66908294515E+03  0.12500000000E+03 0.  0.
         25    1    1    2    0    0 -0.18590340308E+02 -0.73167732533E+02  0.72643341337E+03  0.74096533111E+03  0.12500000000E+03 0.  0.
</event>
<event>
 5    0  0.5503691E-005  0.3994350E+03  0.7546771E-02  0.1043975E+00
         21   -1    0    0  502  501  0.00000000000E+00  0.00000000000E+00  0.25066844276E+03  0.25066844276E+03  0.00000000000E+00 0.  1.
         21   -1    0    0  501  502 -0.00000000000E+00 -0.00000000000E+00 -0.63649141936E+03  0.63649141936E+03  0.00000000000E+00 0.  1.
         25    1    1    2    0    0 -0.28771309835E+03 -0.16563309177E+03 -0.17804178148E+03  0.39690933978E+03  0.12500000000E+03 0.  0.
         25    1    1    2    0    0  0.10525050781E+03  0.43317968604E+02 -0.10051077435E+02  0.16935211825E+03  0.12500000000E+03 0.  0.
         25    1    1    2    0    0  0.18246259055E+03  0.12231512317E+03 -0.19773011768E+03  0.32089840408E+03  0.12500000000E+03 0.  0.
</event>
<event>
 5    0  0.5503691E-005  0.2288272E+03  0.7546771E-02  0.1127468E+00
         21   -1    0    0  502  501  0.00000000000E+00  0.00000000000E+00  0.44194230815E+02  0.44194230815E+02  0.00000000000E+00 0. -1.
         21   -1    0    0  501  502 -0.00000000000E+00 -0.00000000000E+00 -0.11848127266E+04  0.11848127266E+04  0.00000000000E+00 0. -1.
         25    1    1    2    0    0  0.77741111246E+01 -0.41116729926E+02 -0.47529635572E+03  0.49323690864E+03  0.12500000000E+03 0.  0.
         25    1    1    2    0    0 -0.26899964336E+02 -0.66438900024E+02 -0.36863653790E+03  0.39579746411E+03  0.12500000000E+03 0.  0.
         25    1    1    2    0    0  0.19125853211E+02  0.10755562995E+03 -0.29668560216E+03  0.33997258466E+03  0.12500000000E+03 0.  0.
</event>
<event>
 5    0  0.5503691E-005  0.2734818E+03  0.7546771E-02  0.1099303E+00
         21   -1    0    0  502  501  0.00000000000E+00  0.00000000000E+00  0.31312357756E+03  0.31312357756E+03  0.00000000000E+00 0.  1.
         21   -1    0    0  501  502 -0.00000000000E+00 -0.00000000000E+00 -0.23885870924E+03  0.23885870924E+03  0.00000000000E+00 0.  1.
         25    1    1    2    0    0  0.99915550764E+02  0.78975965012E+01  0.61066469653E+02  0.17146312441E+03  0.12500000000E+03 0.  0.
         25    1    1    2    0    0  0.74746151197E+02 -0.49334305171E+02  0.43206800296E+02  0.15972691814E+03  0.12500000000E+03 0.  0.
         25    1    1    2    0    0 -0.17466170196E+03  0.41436708670E+02 -0.30008401621E+02  0.22079224426E+03  0.12500000000E+03 0.  0.
</event>
<event>
 5    0  0.5503691E-005  0.2216676E+03  0.7546771E-02  0.1132646E+00
         21   -1    0    0  502  501  0.00000000000E+00  0.00000000000E+00  0.39370534819E+03  0.39370534819E+03  0.00000000000E+00 0. -1.
         21   -1    0    0  501  502 -0.00000000000E+00 -0.00000000000E+00 -0.12480534103E+03  0.12480534103E+03  0.00000000000E+00 0. -1.
         25    1    1    2    0    0  0.16636891036E+02  0.10107857519E+03  0.57288637848E+02  0.17146618481E+03  0.12500000000E+03 0.  0.
         25    1    1    2    0    0 -0.25649402193E+02 -0.35596681535E+02  0.11848639244E+03  0.17773306041E+03  0.12500000000E+03 0.  0.
         25    1    1    2    0    0  0.90125111576E+01 -0.65481893658E+02  0.93124976867E+02  0.16931144400E+03  0.12500000000E+03 0.  0.
</event>
<event>
 5    0  0.5503691E-005  0.4154626E+03  0.7546771E-02  0.1038553E+00
         21   -1    0    0  502  501  0.00000000000E+00  0.00000000000E+00  0.72993166109E+03  0.72993166109E+03  0.00000000000E+00 0.  1.
         21   -1    0    0  501  502 -0.00000000000E+00 -0.00000000000E+00 -0.23647310571E+03  0.23647310571E+03  0.00000000000E+00 0.  1.
         25    1    1    2    0    0  0.25846213887E+03  0.75105472454E+02  0.40722133299E+02  0.29954432287E+03  0.12500000000E+03 0.  0.
         25    1    1    2    0    0 -0.87747836236E+02 -0.12485406314E+03  0.39570288577E+03  0.44214702720E+03  0.12500000000E+03 0.  0.
         25    1    1    2    0    0 -0.17071430263E+03  0.49748590688E+02  0.57033536310E+02  0.22471341674E+03  0.12500000000E+03 0.  0.
</event>
<event>
 5    0  0.5503691E-005  0.5674586E+03  0.7546771E-02  0.9975318E-01
         21   -1    0    0  502  501  0.00000000000E+00  0.00000000000E+00  0.24267006432E+04  0.24267006432E+04  0.00000000000E+00 0.  1.
         21   -1    0    0  501  502 -0.00000000000E+00 -0.00000000000E+00 -0.13269425375E+03  0.13269425375E+03  0.00000000000E+00 0.  1.
         25    1    1    2    0    0 -0.14662449010E+03  0.30550451312E+02  0.10849671084E+03  0.22322322333E+03  0.12500000000E+03 0.  0.
         25    1    1    2    0    0  0.27278596498E+03  0.28963228521E+03  0.15246924270E+04  0.15806995414E+04  0.12500000000E+03 0.  0.
         25    1    1    2    0    0 -0.12616147488E+03 -0.32018273653E+03  0.66081725170E+03  0.75547213228E+03  0.12500000000E+03 0.  0.
</event>
<event>
 5    0  0.5503691E-005  0.3072606E+03  0.7546771E-02  0.1081666E+00
         21   -1    0    0  502  501  0.00000000000E+00  0.00000000000E+00  0.53919674240E+03  0.53919674240E+03  0.00000000000E+00 0.  1.
         21   -1    0    0  501  502 -0.00000000000E+00 -0.00000000000E+00 -0.17509204217E+03  0.17509204217E+03  0.00000000000E+00 0.  1.
         25    1    1    2    0    0  0.18992891166E+02  0.34708127203E+02  0.38121830517E+03  0.40313494044E+03  0.12500000000E+03 0.  0.
         25    1    1    2    0    0  0.76662418233E+02 -0.12805543591E+02  0.18333196632E+02  0.14833143434E+03  0.12500000000E+03 0.  0.
         25    1    1    2    0    0 -0.95655309399E+02 -0.21902583612E+02 -0.35446801569E+02  0.16282240978E+03  0.12500000000E+03 0.  0.
</event>
<event>
 5    0  0.5503691E-005  0.3184124E+03  0.7546771E-02  0.1076382E+00
         21   -1    0    0  502  501  0.00000000000E+00  0.00000000000E+00  0.50233513481E+03  0.50233513481E+03  0.00000000000E+00 0. -1.
         21   -1    0    0  501  502 -0.00000000000E+00 -0.00000000000E+00 -0.20183025902E+03  0.20183025902E+03  0.00000000000E+00 0. -1.
         25    1    1    2    0    0 -0.15846416756E+03  0.82331617662E+02  0.26025541233E+02  0.21952611795E+03  0.12500000000E+03 0.  0.
         25    1    1    2    0    0 -0.52192110817E+01  0.63710321048E+02  0.14129031596E+03  0.19918383106E+03  0.12500000000E+03 0.  0.
         25    1    1    2    0    0  0.16368337864E+03 -0.14604193871E+03  0.13318901860E+03  0.28545544482E+03  0.12500000000E+03 0.  0.
</event>
<event>
 5    0  0.5503691E-005  0.3924581E+03  0.7546771E-02  0.1046423E+00
         21   -1    0    0  502  501  0.00000000000E+00  0.00000000000E+00  0.15211957482E+03  0.15211957482E+03  0.00000000000E+00 0.  1.
         21   -1    0    0  501  502 -0.00000000000E+00 -0.00000000000E+00 -0.10125152712E+04  0.10125152712E+04  0.00000000000E+00 0.  1.
         25    1    1    2    0    0  0.71985792016E+02 -0.14539901756E+03 -0.26914095950E+03  0.33820804935E+03  0.12500000000E+03 0.  0.
         25    1    1    2    0    0  0.14915686681E+03  0.12023382840E+03 -0.59180110852E+02  0.23628633039E+03  0.12500000000E+03 0.  0.
         25    1    1    2    0    0 -0.22114265883E+03  0.25165189170E+02 -0.53207462606E+03  0.59014046633E+03  0.12500000000E+03 0.  0.
</event>
<event>
 5    0  0.5503691E-005  0.3606182E+03  0.7546771E-02  0.1058339E+00
         21   -1    0    0  502  501  0.00000000000E+00  0.00000000000E+00  0.58113271175E+03  0.58113271175E+03  0.00000000000E+00 0. -1.
         21   -1    0    0  501  502 -0.00000000000E+00 -0.00000000000E+00 -0.22377931907E+03  0.22377931907E+03  0.00000000000E+00 0. -1.
         25    1    1    2    0    0 -0.17755619642E+03 -0.63344199799E+02  0.18886610551E+02  0.22698104457E+03  0.12500000000E+03 0.  0.
         25    1    1    2    0    0  0.48534674123E+02  0.16828852378E+03  0.47707104350E+02  0.22040328862E+03  0.12500000000E+03 0.  0.
         25    1    1    2    0    0  0.12902152229E+03 -0.10494432398E+03  0.29075967778E+03  0.35752769763E+03  0.12500000000E+03 0.  0.
</event>
<event>
 5    0  0.5503691E-005  0.3243979E+03  0.7546771E-02  0.1073643E+00
         21   -1    0    0  502  501  0.00000000000E+00  0.00000000000E+00  0.19928569630E+03  0.19928569630E+03  0.00000000000E+00 0. -1.
         21   -1    0    0  501  502 -0.00000000000E+00 -0.00000000000E+00 -0.52805589231E+03  0.52805589231E+03  0.00000000000E+00 0. -1.
         25    1    1    2    0    0  0.27102774084E+02  0.29570590133E+02 -0.11409875045E+02  0.13177315892E+03  0.12500000000E+03 0.  0.
         25    1    1    2    0    0 -0.19913089648E+03 -0.12295653300E+03 -0.21615235619E+03  0.34222545789E+03  0.12500000000E+03 0.  0.
         25    1    1    2    0    0  0.17202812240E+03  0.93385942868E+02 -0.10120796477E+03  0.25334297179E+03  0.12500000000E+03 0.  0.
</event>
<event>
 5    0  0.5503691E-005  0.4690542E+03  0.7546771E-02  0.1022188E+00
         21   -1    0    0  502  501  0.00000000000E+00  0.00000000000E+00  0.47493125636E+03  0.47493125636E+03  0.00000000000E+00 0. -1.
         21   -1    0    0  501  502 -0.00000000000E+00 -0.00000000000E+00 -0.46324979593E+03  0.46324979593E+03  0.00000000000E+00 0. -1.
         25    1    1    2    0    0  0.24279466292E+03 -0.14127928180E+03  0.11790573232E+02  0.30768994366E+03  0.12500000000E+03 0.  0.
         25    1    1    2    0    0 -0.19927235355E+03  0.76226923749E+02  0.24264919275E+03  0.34644428922E+03  0.12500000000E+03 0.  0.
         25    1    1    2    0    0 -0.43522309373E+02  0.65052358049E+02 -0.24275830555E+03  0.28404681941E+03  0.12500000000E+03 0.  0.
</event>
<event>
 5    0  0.5503691E-005  0.4603835E+03  0.7546771E-02  0.1024670E+00
         21   -1    0    0  502  501  0.00000000000E+00  0.00000000000E+00  0.17754260143E+03  0.17754260143E+03  0.00000000000E+00 0. -1.
         21   -1    0    0  501  502 -0.00000000000E+00 -0.00000000000E+00 -0.11938148788E+04  0.11938148788E+04  0.00000000000E+00 0. -1.
         25    1    1    2    0    0  0.59071475462E+01  0.22862225319E+03 -0.88245250251E+03  0.92013610310E+03  0.12500000000E+03 0.  0.
         25    1    1    2    0    0 -0.73051804338E+02 -0.24834865682E+03 -0.95685027897E+02  0.30297565252E+03  0.12500000000E+03 0.  0.
         25    1    1    2    0    0  0.67144656791E+02  0.19726403628E+02 -0.38134746957E+02  0.14824572460E+03  0.12500000000E+03 0.  0.
</event>
<event>
 5    0  0.5503691E-005  0.2169395E+03  0.7546771E-02  0.1136186E+00
         21   -1    0    0  502  501  0.00000000000E+00  0.00000000000E+00  0.10588158759E+04  0.10588158759E+04  0.00000000000E+00 0.  1.
         21   -1    0    0  501  502 -0.00000000000E+00 -0.00000000000E+00 -0.44448465946E+02  0.44448465946E+02  0.00000000000E+00 0.  1.
         25    1    1    2    0    0  0.70699102396E+02 -0.12497861987E+02  0.50153214132E+03  0.52183718573E+03  0.12500000000E+03 0.  0.
         25    1    1    2    0    0 -0.29079978126E+02  0.71724697572E+01  0.16310200490E+03  0.20766403986E+03  0.12500000000E+03 0.  0.
         25    1    1    2    0    0 -0.41619124270E+02  0.53253922300E+01  0.34973326370E+03  0.37376311622E+03  0.12500000000E+03 0.  0.
</event>
<event>
 5    0  0.5503691E-005  0.4599378E+03  0.7546771E-02  0.1024799E+00
         21   -1    0    0  502  501  0.00000000000E+00  0.00000000000E+00  0.13263130130E+04  0.13263130130E+04  0.00000000000E+00 0.  1.
         21   -1    0    0  501  502 -0.00000000000E+00 -0.00000000000E+00 -0.15949687979E+03  0.15949687979E+03  0.00000000000E+00 0.  1.
         25    1    1    2    0    0 -0.15264950576E+03  0.38310232328E+02  0.62694141624E+03  0.65836926182E+03  0.12500000000E+03 0.  0.
         25    1    1    2    0    0 -0.49402727127E+02 -0.17241612464E+03  0.50764424530E+03  0.55271659037E+03  0.12500000000E+03 0.  0.
         25    1    1    2    0    0  0.20205223289E+03  0.13410589231E+03  0.32230471644E+02  0.27472404058E+03  0.12500000000E+03 0.  0.
</event>
<event>
 5    0  0.5503691E-005  0.3237390E+03  0.7546771E-02  0.1073941E+00
         21   -1    0    0  502  501  0.00000000000E+00  0.00000000000E+00  0.68558035531E+03  0.68558035531E+03  0.00000000000E+00 0. -1.
         21   -1    0    0  501  502 -0.00000000000E+00 -0.00000000000E+00 -0.15287328930E+03  0.15287328930E+03  0.00000000000E+00 0. -1.
         25    1    1    2    0    0 -0.12433227883E+03  0.10483509133E+03  0.34073829054E+03  0.39771408646E+03  0.12500000000E+03 0.  0.
         25    1    1    2    0    0  0.10868448725E+03 -0.58130347570E+01 -0.28516648740E+02  0.16817939350E+03  0.12500000000E+03 0.  0.
         25    1    1    2    0    0  0.15647791582E+02 -0.99022056570E+02  0.22048542421E+03  0.27256016466E+03  0.12500000000E+03 0.  0.
</event>
<event>
 5    0  0.5503691E-005  0.4981487E+03  0.7546771E-02  0.1014263E+00
         21   -1    0    0  502  501  0.00000000000E+00  0.00000000000E+00  0.17600470135E+04  0.17600470135E+04  0.00000000000E+00 0.  1.
         21   -1    0    0  501  502 -0.00000000000E+00 -0.00000000000E+00 -0.14099175697E+03  0.14099175697E+03  0.00000000000E+00 0.  1.
         25    1    1    2    0    0 -0.37970452581E+02 -0.45058888706E+02  0.31926022209E+03  0.34788525138E+03  0.12500000000E+03 0.  0.
         25    1    1    2    0    0  0.14872397805E+03  0.11877552903E+02 -0.43225420644E+02  0.19938238362E+03  0.12500000000E+03 0.  0.
         25    1    1    2    0    0 -0.11075352547E+03  0.33181335803E+02  0.13430204551E+04  0.13537711355E+04  0.12500000000E+03 0.  0.
</event>
<event>
 5    0  0.5503691E-005  0.4411484E+03  0.7546771E-02  0.1030395E+00
         21   -1    0    0  502  501  0.00000000000E+00  0.00000000000E+00  0.10782244985E+04  0.10782244985E+04  0.00000000000E+00 0. -1.
         21   -1    0    0  501  502 -0.00000000000E+00 -0.00000000000E+00 -0.18049296941E+03  0.18049296941E+03  0.00000000000E+00 0. -1.
         25    1    1    2    0    0 -0.72365681674E+02  0.25886163407E+03  0.76173775434E+03  0.81738335184E+03  0.12500000000E+03 0.  0.
         25    1    1    2    0    0  0.10774485875E+03 -0.20936298553E+03  0.33638586853E+02  0.26869754153E+03  0.12500000000E+03 0.  0.
         25    1    1    2    0    0 -0.35379177077E+02 -0.49498648541E+02  0.10235518790E+03  0.17263657454E+03  0.12500000000E+03 0.  0.
</event>
<event>
 5    0  0.5503691E-005  0.2917707E+03  0.7546771E-02  0.1089428E+00
         21   -1    0    0  502  501  0.00000000000E+00  0.00000000000E+00  0.62869858100E+03  0.62869858100E+03  0.00000000000E+00 0.  1.
         21   -1    0    0  501  502 -0.00000000000E+00 -0.00000000000E+00 -0.13540693970E+03  0.13540693970E+03  0.00000000000E+00 0.  1.
         25    1    1    2    0    0  0.12635758852E+02 -0.45714652672E+02  0.43799182665E+02  0.14068710059E+03  0.12500000000E+03 0.  0.
         25    1    1    2    0    0 -0.23097401808E+02  0.10540731201E+03  0.13333317357E+02  0.16567126711E+03  0.12500000000E+03 0.  0.
         25    1    1    2    0    0  0.10461642955E+02 -0.59692659333E+02  0.43615914128E+03  0.45774715299E+03  0.12500000000E+03 0.  0.
</event>
<event>
 5    0  0.5503691E-005  0.2167565E+03  0.7546771E-02  0.1136325E+00
         21   -1    0    0  502  501  0.00000000000E+00  0.00000000000E+00  0.39981891195E+03  0.39981891195E+03  0.00000000000E+00 0.  1.
         21   -1    0    0  501  502 -0.00000000000E+00 -0.00000000000E+00 -0.11751169874E+03  0.11751169874E+03  0.00000000000E+00 0.  1.
         25    1    1    2    0    0  0.65500464722E+02 -0.43280016912E+02  0.12346772836E+03  0.19243895315E+03  0.12500000000E+03 0.  0.
         25    1    1    2    0    0 -0.32887322808E+01  0.38636027327E+02  0.12537081200E+03  0.18123575494E+03  0.12500000000E+03 0.  0.
         25    1    1    2    0    0 -0.62211732441E+02  0.46439895849E+01  0.33468672857E+02  0.14365590261E+03  0.12500000000E+03 0.  0.
</event>
<event>
 5    0  0.5503691E-005  0.4404361E+03  0.7546771E-02  0.1030613E+00
         21   -1    0    0  502  501  0.00000000000E+00  0.00000000000E+00  0.98750064016E+02  0.98750064016E+02  0.00000000000E+00 0.  1.
         21   -1    0    0  501  502 -0.00000000000E+00 -0.00000000000E+00 -0.19643931603E+04  0.19643931603E+04  0.00000000000E+00 0.  1.
         25    1    1    2    0    0  0.17167481384E+02 -0.17079631096E+03 -0.68220020919E+03  0.71448458882E+03  0.12500000000E+03 0.  0.
         25    1    1    2    0    0  0.13391791172E+03  0.14756875360E+03 -0.11448349243E+03  0.26161424685E+03  0.12500000000E+03 0.  0.
         25    1    1    2    0    0 -0.15108539310E+03  0.23227557358E+02 -0.10689593947E+04  0.10870443886E+04  0.12500000000E+03 0.  0.
</event>
<event>
 5    0  0.5503691E-005  0.3059180E+03  0.7546771E-02  0.1082319E+00
         21   -1    0    0  502  501  0.00000000000E+00  0.00000000000E+00  0.72195682100E+03  0.72195682100E+03  0.00000000000E+00 0.  1.
         21   -1    0    0  501  502 -0.00000000000E+00 -0.00000000000E+00 -0.12962797065E+03  0.12962797065E+03  0.00000000000E+00 0.  1.
         25    1    1    2    0    0  0.16331229417E+03 -0.20469622233E+02  0.10639692699E+03  0.23245476320E+03  0.12500000000E+03 0.  0.
         25    1    1    2    0    0 -0.10301100568E+03  0.32302215531E+01  0.63257998874E+02  0.17392031521E+03  0.12500000000E+03 0.  0.
         25    1    1    2    0    0 -0.60301288492E+02  0.17239400680E+02  0.42267392448E+03  0.44520971324E+03  0.12500000000E+03 0.  0.
</event>
<event>
 5    0  0.5503691E-005  0.3005439E+03  0.7546771E-02  0.1084969E+00
         21   -1    0    0  502  501  0.00000000000E+00  0.00000000000E+00  0.36203710683E+03  0.36203710683E+03  0.00000000000E+00 0. -1.
         21   -1    0    0  501  502 -0.00000000000E+00 -0.00000000000E+00 -0.24949553075E+03  0.24949553075E+03  0.00000000000E+00 0. -1.
         25    1    1    2    0    0 -0.11599333023E+03 -0.17858660240E+03  0.78213093149E+02  0.25901721015E+03  0.12500000000E+03 0.  0.
         25    1    1    2    0    0  0.95030160175E+02  0.15084047958E+03  0.44977481104E+02  0.22233208367E+03  0.12500000000E+03 0.  0.
         25    1    1    2    0    0  0.20963170054E+02  0.27746122813E+02 -0.10648998171E+02  0.13018334376E+03  0.12500000000E+03 0.  0.
</event>
<event>
 5    0  0.5503691E-005  0.2605983E+03  0.7546771E-02  0.1106784E+00
         21   -1    0    0  502  501  0.00000000000E+00  0.00000000000E+00  0.70365349380E+02  0.70365349380E+02  0.00000000000E+00 0.  1.
         21   -1    0    0  501  502 -0.00000000000E+00 -0.00000000000E+00 -0.96512633696E+03  0.96512633696E+03  0.00000000000E+00 0.  1.
         25    1    1    2    0    0  0.14437021718E+03  0.46824661974E+02 -0.44849824322E+03  0.48970499564E+03  0.12500000000E+03 0.  0.
         25    1    1    2    0    0 -0.79751602093E+02 -0.46792867134E+02 -0.14203086371E+03  0.21058883327E+03  0.12500000000E+03 0.  0.
         25    1    1    2    0    0 -0.64618615090E+02 -0.31794839533E-01 -0.30423188065E+03  0.33519785744E+03  0.12500000000E+03 0.  0.
</event>
<event>
 5    0  0.5503691E-005  0.2373377E+03  0.7546771E-02  0.1121579E+00
         21   -1    0    0  502  501  0.00000000000E+00  0.00000000000E+00  0.26508440467E+03  0.26508440467E+03  0.00000000000E+00 0. -1.
         21   -1    0    0  501  502 -0.00000000000E+00 -0.00000000000E+00 -0.21249531891E+03  0.21249531891E+03  0.00000000000E+00 0. -1.
         25    1    1    2    0    0 -0.87909319299E+02  0.51491987110E+02  0.26220172494E+02  0.16337677498E+03  0.12500000000E+03 0.  0.
         25    1    1    2    0    0  0.54901521819E+02  0.48315164244E+02  0.40177971181E+02  0.15029238691E+03  0.12500000000E+03 0.  0.
         25    1    1    2    0    0  0.33007797479E+02 -0.99807151354E+02 -0.13809057920E+02  0.16391056170E+03  0.12500000000E+03 0.  0.
</event>
<event>
 5    0  0.5503691E-005  0.2534880E+03  0.7546771E-02  0.1111120E+00
         21   -1    0    0  502  501  0.00000000000E+00  0.00000000000E+00  0.10005052219E+03  0.10005052219E+03  0.00000000000E+00 0.  1.
         21   -1    0    0  501  502 -0.00000000000E+00 -0.00000000000E+00 -0.64223722863E+03  0.64223722863E+03  0.00000000000E+00 0.  1.
         25    1    1    2    0    0 -0.28341304591E+02 -0.69936727131E+02 -0.12357290002E+03  0.19128417856E+03  0.12500000000E+03 0.  0.
         25    1    1    2    0    0 -0.18428895250E+02  0.14532154696E+03 -0.30297443489E+03  0.35899371079E+03  0.12500000000E+03 0.  0.
         25    1    1    2    0    0  0.46770199842E+02 -0.75384819825E+02 -0.11563937153E+03  0.19200986147E+03  0.12500000000E+03 0.  0.
</event>
<event>
 5    0  0.5503691E-005  0.3377701E+03  0.7546771E-02  0.1067750E+00
         21   -1    0    0  502  501  0.00000000000E+00  0.00000000000E+00  0.10371463383E+04  0.10371463383E+04  0.00000000000E+00 0. -1.
         21   -1    0    0  501  502 -0.00000000000E+00 -0.00000000000E+00 -0.11000247417E+03  0.11000247417E+03  0.00000000000E+00 0. -1.
         25    1    1    2    0    0 -0.20019987671E+03  0.99970019082E+02  0.47556419059E+03  0.54024095987E+03  0.12500000000E+03 0.  0.
         25    1    1    2    0    0  0.18322269167E+03 -0.12599783113E+03  0.19954167545E+03  0.32386399682E+03  0.12500000000E+03 0.  0.
         25    1    1    2    0    0  0.16977185041E+02  0.26027812053E+02  0.25203799807E+03  0.28304385576E+03  0.12500000000E+03 0.  0.
</event>
<event>
 5    0  0.5503691E-005  0.3725483E+03  0.7546771E-02  0.1053723E+00
         21   -1    0    0  502  501  0.00000000000E+00  0.00000000000E+00  0.24513671850E+03  0.24513671850E+03  0.00000000000E+00 0. -1.
         21   -1    0    0  501  502 -0.00000000000E+00 -0.00000000000E+00 -0.56618300740E+03  0.56618300740E+03  0.00000000000E+00 0. -1.
         25    1    1    2    0    0 -0.11219308791E+03  0.27404960965E+02  0.18365879943E+02  0.17117425743E+03  0.12500000000E+03 0.  0.
         25    1    1    2    0    0 -0.15313736215E+03 -0.12435218829E+03 -0.13539586402E+03  0.26994732526E+03  0.12500000000E+03 0.  0.
         25    1    1    2    0    0  0.26533045005E+03  0.96947227326E+02 -0.20401630482E+03  0.37019814322E+03  0.12500000000E+03 0.  0.
</event>
<event>
 5    0  0.5503691E-005  0.6061141E+03  0.7546771E-02  0.9892802E-01
         21   -1    0    0  502  501  0.00000000000E+00  0.00000000000E+00  0.31255932082E+03  0.31255932082E+03  0.00000000000E+00 0. -1.
         21   -1    0    0  501  502 -0.00000000000E+00 -0.00000000000E+00 -0.11753745414E+04  0.11753745414E+04  0.00000000000E+00 0. -1.
         25    1    1    2    0    0 -0.40639024281E+03 -0.88989464813E+02 -0.42919804076E+03  0.61066202804E+03  0.12500000000E+03 0.  0.
         25    1    1    2    0    0  0.36564445631E+03  0.30785635004E+03 -0.36077844478E+03  0.61176587589E+03  0.12500000000E+03 0.  0.
         25    1    1    2    0    0  0.40745786498E+02 -0.21886688522E+03 -0.72838735047E+02  0.26550595829E+03  0.12500000000E+03 0.  0.
</event>
<event>
 5    0  0.5503691E-005  0.4292116E+03  0.7546771E-02  0.1034109E+00
         21   -1    0    0  502  501  0.00000000000E+00  0.00000000000E+00  0.96865776188E+03  0.96865776188E+03  0.00000000000E+00 0.  1.
         21   -1    0    0  501  502 -0.00000000000E+00 -0.00000000000E+00 -0.19018337456E+03  0.19018337456E+03  0.00000000000E+00 0.  1.
         25    1    1    2    0    0  0.45964042785E+02  0.26198846492E+03  0.25716968567E+03  0.39052771503E+03  0.12500000000E+03 0.  0.
         25    1    1    2    0    0  0.11630761266E+03 -0.29040946060E+03  0.41888092612E+03  0.53754194798E+03  0.12500000000E+03 0.  0.
         25    1    1    2    0    0 -0.16227165544E+03  0.28420995678E+02  0.10242377554E+03  0.23077147343E+03  0.12500000000E+03 0.  0.
</event>
<event>
 5    0  0.5503691E-005  0.2479580E+03  0.7546771E-02  0.1114602E+00
         21   -1    0    0  502  501  0.00000000000E+00  0.00000000000E+00  0.14106522436E+04  0.14106522436E+04  0.00000000000E+00 0. -1.
         21   -1    0    0  501  502 -0.00000000000E+00 -0.00000000000E+00 -0.43584919100E+02  0.43584919100E+02  0.00000000000E+00 0. -1.
         25    1    1    2    0    0  0.69740912011E+02 -0.46613607398E+02  0.43385455406E+03  0.45922913374E+03  0.12500000000E+03 0.  0.
         25    1    1    2    0    0 -0.10255431269E+03 -0.25993476855E+02  0.27293131540E+03  0.31829161286E+03  0.12500000000E+03 0.  0.
         25    1    1    2    0    0  0.32813400675E+02  0.72607084253E+02  0.66028145507E+03  0.67671641613E+03  0.12500000000E+03 0.  0.
</event>
<event>
 5    0  0.5657530E-005  0.2735835E+03  0.7546771E-02  0.1099246E+00
         21   -1    0    0  502  501  0.00000000000E+00  0.00000000000E+00  0.21936941108E+03  0.21936941108E+03  0.00000000000E+00 0. -1.
         21   -1    0    0  501  502 -0.00000000000E+00 -0.00000000000E+00 -0.34119582599E+03  0.34119582599E+03  0.00000000000E+00 0. -1.
         25    1    1    2    0    0  0.86904346412E+02  0.64197415066E+02 -0.14723835151E+03  0.22130929868E+03  0.12500000000E+03 0.  0.
         25    1    1    2    0    0  0.45266556977E+02 -0.28963597899E+02  0.63392172102E+02  0.15010502546E+03  0.12500000000E+03 0.  0.
         25    1    1    2    0    0 -0.13217090339E+03 -0.35233817166E+02 -0.37980235507E+02  0.18915091293E+03  0.12500000000E+03 0.  0.
</event>
<event>
 5    0  0.5503691E-005  0.4699511E+03  0.7546771E-02  0.1021934E+00
         21   -1    0    0  502  501  0.00000000000E+00  0.00000000000E+00  0.19287233551E+03  0.19287233551E+03  0.00000000000E+00 0. -1.
         21   -1    0    0  501  502 -0.00000000000E+00 -0.00000000000E+00 -0.11450789938E+04  0.11450789938E+04  0.00000000000E+00 0. -1.
         25    1    1    2    0    0  0.87968329872E+01  0.77758133022E+01  0.32214668657E+02  0.12961725356E+03  0.12500000000E+03 0.  0.
         25    1    1    2    0    0 -0.68945586885E+02  0.29082422300E+02  0.57463687154E+02  0.15660892880E+03  0.12500000000E+03 0.  0.
         25    1    1    2    0    0  0.60148753898E+02 -0.36858235602E+02 -0.10418850141E+04  0.10517251469E+04  0.12500000000E+03 0.  0.
</event>
<event>
 5    0  0.5503691E-005  0.3255578E+03  0.7546771E-02  0.1073119E+00
         21   -1    0    0  502  501  0.00000000000E+00  0.00000000000E+00  0.29369898545E+03  0.29369898545E+03  0.00000000000E+00 0.  1.
         21   -1    0    0  501  502 -0.00000000000E+00 -0.00000000000E+00 -0.36087248916E+03  0.36087248916E+03  0.00000000000E+00 0.  1.
         25    1    1    2    0    0 -0.56718851846E+02 -0.16911951166E+02  0.43719226670E+02  0.14504969158E+03  0.12500000000E+03 0.  0.
         25    1    1    2    0    0  0.23966728880E+03 -0.19250838314E+02 -0.38981207976E+02  0.27378009181E+03  0.12500000000E+03 0.  0.
         25    1    1    2    0    0 -0.18294843695E+03  0.36162789480E+02 -0.71911522405E+02  0.23574169122E+03  0.12500000000E+03 0.  0.
</event>
<event>
 5    0  0.5503691E-005  0.4330086E+03  0.7546771E-02  0.1032914E+00
         21   -1    0    0  502  501  0.00000000000E+00  0.00000000000E+00  0.32198731031E+03  0.32198731031E+03  0.00000000000E+00 0.  1.
         21   -1    0    0  501  502 -0.00000000000E+00 -0.00000000000E+00 -0.58230997627E+03  0.58230997627E+03  0.00000000000E+00 0.  1.
         25    1    1    2    0    0  0.63381077281E+02 -0.17273628326E+03 -0.47662707605E+02  0.22749003980E+03  0.12500000000E+03 0.  0.
         25    1    1    2    0    0 -0.94694684000E+02 -0.25840278153E+02  0.16626992481E+03  0.23001193676E+03  0.12500000000E+03 0.  0.
         25    1    1    2    0    0  0.31313606719E+02  0.19857656141E+03 -0.37892988317E+03  0.44679531003E+03  0.12500000000E+03 0.  0.
</event>
<event>
 5    0  0.5503691E-005  0.4532448E+03  0.7546771E-02  0.1026759E+00
         21   -1    0    0  502  501  0.00000000000E+00  0.00000000000E+00  0.62050297382E+03  0.62050297382E+03  0.00000000000E+00 0.  1.
         21   -1    0    0  501  502 -0.00000000000E+00 -0.00000000000E+00 -0.33107148977E+03  0.33107148977E+03  0.00000000000E+00 0.  1.
         25    1    1    2    0    0  0.17836068960E+03  0.12540972757E+03 -0.21597315528E+03  0.33137522413E+03  0.12500000000E+03 0.  0.
         25    1    1    2    0    0 -0.51264518328E+02 -0.92718087114E+02  0.15428430056E+03  0.22506296878E+03  0.12500000000E+03 0.  0.
         25    1    1    2    0    0 -0.12709617127E+03 -0.32691640459E+02  0.35112033878E+03  0.39513627068E+03  0.12500000000E+03 0.  0.
</event>
<event>
 5    0  0.5503691E-005  0.2640097E+03  0.7546771E-02  0.1104758E+00
         21   -1    0    0  502  501  0.00000000000E+00  0.00000000000E+00  0.17795714542E+03  0.17795714542E+03  0.00000000000E+00 0. -1.
         21   -1    0    0  501  502 -0.00000000000E+00 -0.00000000000E+00 -0.39167377128E+03  0.39167377128E+03  0.00000000000E+00 0. -1.
         25    1    1    2    0    0  0.30674156258E+01  0.54099602806E+02 -0.95459894050E+02  0.16635434300E+03  0.12500000000E+03 0.  0.
         25    1    1    2    0    0  0.11666615834E+03 -0.98100706455E+01 -0.14272342406E+03  0.22293991514E+03  0.12500000000E+03 0.  0.
         25    1    1    2    0    0 -0.11973357396E+03 -0.44289532160E+02  0.24466692248E+02  0.18033665857E+03  0.12500000000E+03 0.  0.
</event>
<event>
 5    0  0.5503691E-005  0.3401876E+03  0.7546771E-02  0.1066716E+00
         21   -1    0    0  502  501  0.00000000000E+00  0.00000000000E+00  0.91274252639E+02  0.91274252639E+02  0.00000000000E+00 0.  1.
         21   -1    0    0  501  502 -0.00000000000E+00 -0.00000000000E+00 -0.12679106436E+04  0.12679106436E+04  0.00000000000E+00 0.  1.
         25    1    1    2    0    0 -0.27002355853E+02  0.32682424311E+02 -0.59733179662E+03  0.61174140233E+03  0.12500000000E+03 0.  0.
         25    1    1    2    0    0 -0.24420022078E+02  0.17843726989E+03 -0.30802138272E+03  0.37807190979E+03  0.12500000000E+03 0.  0.
         25    1    1    2    0    0  0.51422377931E+02 -0.21111969420E+03 -0.27128321158E+03  0.36937158407E+03  0.12500000000E+03 0.  0.
</event>
<event>
 5    0  0.5503691E-005  0.5618705E+03  0.7546771E-02  0.9987831E-01
         21   -1    0    0  502  501  0.00000000000E+00  0.00000000000E+00  0.39781585186E+03  0.39781585186E+03  0.00000000000E+00 0.  1.
         21   -1    0    0  501  502 -0.00000000000E+00 -0.00000000000E+00 -0.79357942479E+03  0.79357942479E+03  0.00000000000E+00 0.  1.
         25    1    1    2    0    0 -0.39097053683E+02 -0.14249165586E+03 -0.16786808637E+03  0.25619747465E+03  0.12500000000E+03 0.  0.
         25    1    1    2    0    0  0.44150584562E+03  0.89664551540E+02 -0.20325617033E+03  0.50980899786E+03  0.12500000000E+03 0.  0.
         25    1    1    2    0    0 -0.40240879194E+03  0.52827104318E+02 -0.24639316223E+02  0.42538880414E+03  0.12500000000E+03 0.  0.
</event>
<event>
 5    0  0.5503691E-005  0.3054854E+03  0.7546771E-02  0.1082530E+00
         21   -1    0    0  502  501  0.00000000000E+00  0.00000000000E+00  0.62936860834E+03  0.62936860834E+03  0.00000000000E+00 0. -1.
         21   -1    0    0  501  502 -0.00000000000E+00 -0.00000000000E+00 -0.14827769226E+03  0.14827769226E+03  0.00000000000E+00 0. -1.
         25    1    1    2    0    0  0.65283212134E+02  0.21811712961E+03  0.16520924877E+03  0.30782474867E+03  0.12500000000E+03 0.  0.
         25    1    1    2    0    0 -0.22392451063E+02 -0.66355933595E+02  0.16352035156E+03  0.21741305656E+03  0.12500000000E+03 0.  0.
         25    1    1    2    0    0 -0.42890761070E+02 -0.15176119602E+03  0.15236131575E+03  0.25240849538E+03  0.12500000000E+03 0.  0.
</event>
<event>
 5    0  0.5503691E-005  0.3030440E+03  0.7546771E-02  0.1083729E+00
         21   -1    0    0  502  501  0.00000000000E+00  0.00000000000E+00  0.61036779852E+02  0.61036779852E+02  0.00000000000E+00 0.  1.
         21   -1    0    0  501  502 -0.00000000000E+00 -0.00000000000E+00 -0.15045955659E+04  0.15045955659E+04  0.00000000000E+00 0. -1.
         25    1    1    2    0    0 -0.46938873684E+02 -0.92401177694E+02 -0.28222844252E+03  0.32560578814E+03  0.12500000000E+03 0.  0.
         25    1    1    2    0    0  0.10786135370E+03  0.14270740957E+03 -0.98971606116E+03  0.10134901865E+04  0.12500000000E+03 0.  0.
         25    1    1    2    0    0 -0.60922480021E+02 -0.50306231876E+02 -0.17161428239E+03  0.22653637116E+03  0.12500000000E+03 0.  0.
</event>
<event>
 5    0  0.5503691E-005  0.2952910E+03  0.7546771E-02  0.1087619E+00
         21   -1    0    0  502  501  0.00000000000E+00  0.00000000000E+00  0.94272468932E+02  0.94272468932E+02  0.00000000000E+00 0.  1.
         21   -1    0    0  501  502 -0.00000000000E+00 -0.00000000000E+00 -0.92494399737E+03  0.92494399737E+03  0.00000000000E+00 0.  1.
         25    1    1    2    0    0 -0.12561035237E+03 -0.40635066563E+02 -0.16460741140E+03  0.24525449872E+03  0.12500000000E+03 0.  0.
         25    1    1    2    0    0 -0.85311860978E+01 -0.59118018169E+02 -0.10062396963E+03  0.17122471922E+03  0.12500000000E+03 0.  0.
         25    1    1    2    0    0  0.13414153847E+03  0.99753084732E+02 -0.56544014740E+03  0.60273724835E+03  0.12500000000E+03 0.  0.
</event>
<event>
 5    0  0.5503691E-005  0.4364014E+03  0.7546771E-02  0.1031857E+00
         21   -1    0    0  502  501  0.00000000000E+00  0.00000000000E+00  0.18967547739E+04  0.18967547739E+04  0.00000000000E+00 0. -1.
         21   -1    0    0  501  502 -0.00000000000E+00 -0.00000000000E+00 -0.10040632681E+03  0.10040632681E+03  0.00000000000E+00 0. -1.
         25    1    1    2    0    0 -0.95545470967E+02  0.10088523259E+03  0.11373391650E+04  0.11525936593E+04  0.12500000000E+03 0.  0.
         25    1    1    2    0    0  0.21555715070E+03 -0.47057752089E+01  0.13306479189E+03  0.28252127067E+03  0.12500000000E+03 0.  0.
         25    1    1    2    0    0 -0.12001167973E+03 -0.96179457379E+02  0.52594449021E+03  0.56204617077E+03  0.12500000000E+03 0.  0.
</event>
<event>
 5    0  0.5503691E-005  0.3943281E+03  0.7546771E-02  0.1045762E+00
         21   -1    0    0  502  501  0.00000000000E+00  0.00000000000E+00  0.13038580106E+04  0.13038580106E+04  0.00000000000E+00 0. -1.
         21   -1    0    0  501  502 -0.00000000000E+00 -0.00000000000E+00 -0.11925737208E+03  0.11925737208E+03  0.00000000000E+00 0. -1.
         25    1    1    2    0    0  0.65025877081E+02 -0.32898980757E+02  0.43082653518E+03  0.45447465390E+03  0.12500000000E+03 0.  0.
         25    1    1    2    0    0  0.21894152408E+03  0.58782451194E+02  0.17826878141E+03  0.31431755592E+03  0.12500000000E+03 0.  0.
         25    1    1    2    0    0 -0.28396740116E+03 -0.25883470437E+02  0.57550532196E+03  0.65432317288E+03  0.12500000000E+03 0.  0.
</event>
<event>
 5    0  0.5503691E-005  0.2556255E+03  0.7546771E-02  0.1109800E+00
         21   -1    0    0  502  501  0.00000000000E+00  0.00000000000E+00  0.11365079893E+03  0.11365079893E+03  0.00000000000E+00 0. -1.
         21   -1    0    0  501  502 -0.00000000000E+00 -0.00000000000E+00 -0.57495767037E+03  0.57495767037E+03  0.00000000000E+00 0. -1.
         25    1    1    2    0    0 -0.10332428606E+03 -0.46512239558E+02 -0.28518609072E+03  0.33135389369E+03  0.12500000000E+03 0.  0.
         25    1    1    2    0    0  0.31562857868E+01  0.41916728637E+02 -0.14127059350E+03  0.19325981183E+03  0.12500000000E+03 0.  0.
         25    1    1    2    0    0  0.10016800027E+03  0.45955109208E+01 -0.34850187222E+02  0.16399476379E+03  0.12500000000E+03 0.  0.
</event>
<event>
 5    0  0.5503691E-005  0.2472999E+03  0.7546771E-02  0.1115023E+00
         21   -1    0    0  502  501  0.00000000000E+00  0.00000000000E+00  0.49747332553E+03  0.49747332553E+03  0.00000000000E+00 0.  1.
         21   -1    0    0  501  502 -0.00000000000E+00 -0.00000000000E+00 -0.12293574819E+03  0.12293574819E+03  0.00000000000E+00 0.  1.
         25    1    1    2    0    0 -0.34809819424E+02  0.62881893797E+02  0.18835136885E+03  0.23720685961E+03  0.12500000000E+03 0.  0.
         25    1    1    2    0    0  0.57663137506E+02 -0.46578201027E+02  0.20749831440E+03  0.25332808118E+03  0.12500000000E+03 0.  0.
         25    1    1    2    0    0 -0.22853318083E+02 -0.16303692769E+02 -0.21312105917E+02  0.12987413293E+03  0.12500000000E+03 0.  0.
</event>
<event>
 5    0  0.5503691E-005  0.2861548E+03  0.7546771E-02  0.1092374E+00
         21   -1    0    0  502  501  0.00000000000E+00  0.00000000000E+00  0.76678739015E+02  0.76678739015E+02  0.00000000000E+00 0. -1.
         21   -1    0    0  501  502 -0.00000000000E+00 -0.00000000000E+00 -0.10678914273E+04  0.10678914273E+04  0.00000000000E+00 0. -1.
         25    1    1    2    0    0 -0.10244757540E+03  0.10067470919E+03 -0.26749392345E+03  0.32834265921E+03  0.12500000000E+03 0.  0.
         25    1    1    2    0    0 -0.57986543388E+02  0.18975846876E+02 -0.31374549343E+03  0.34319638201E+03  0.12500000000E+03 0.  0.
         25    1    1    2    0    0  0.16043411879E+03 -0.11965055607E+03 -0.40997327144E+03  0.47303112513E+03  0.12500000000E+03 0.  0.
</event>
<event>
 5    0  0.5503691E-005  0.3413855E+03  0.7546771E-02  0.1066207E+00
         21   -1    0    0  502  501  0.00000000000E+00  0.00000000000E+00  0.22123902936E+03  0.22123902936E+03  0.00000000000E+00 0. -1.
         21   -1    0    0  501  502 -0.00000000000E+00 -0.00000000000E+00 -0.52677899589E+03  0.52677899589E+03  0.00000000000E+00 0. -1.
         25    1    1    2    0    0 -0.47157451064E+02 -0.20559126018E+03 -0.79073712056E+02  0.25762228823E+03  0.12500000000E+03 0.  0.
         25    1    1    2    0    0  0.40343285515E+02  0.14953942099E+03  0.28316783822E+02  0.20103845245E+03  0.12500000000E+03 0.  0.
         25    1    1    2    0    0  0.68141655494E+01  0.56051839192E+02 -0.25478303830E+03  0.28935728457E+03  0.12500000000E+03 0.  0.
</event>
<event>
 5    0  0.5503691E-005  0.3122659E+03  0.7546771E-02  0.1079265E+00
         21   -1    0    0  502  501  0.00000000000E+00  0.00000000000E+00  0.28351943018E+03  0.28351943018E+03  0.00000000000E+00 0. -1.
         21   -1    0    0  501  502 -0.00000000000E+00 -0.00000000000E+00 -0.34392691333E+03  0.34392691333E+03  0.00000000000E+00 0. -1.
         25    1    1    2    0    0 -0.75555277238E+02 -0.28090030219E+02  0.81613262066E+02  0.16965663636E+03  0.12500000000E+03 0.  0.
         25    1    1    2    0    0  0.16892170130E+03  0.11565431788E+03 -0.14225601926E+03  0.27887674236E+03  0.12500000000E+03 0.  0.
         25    1    1    2    0    0 -0.93366424064E+02 -0.87564287659E+02  0.23527405123E+00  0.17891296479E+03  0.12500000000E+03 0.  0.
</event>
<event>
 5    0  0.5503691E-005  0.3352864E+03  0.7546771E-02  0.1068821E+00
         21   -1    0    0  502  501  0.00000000000E+00  0.00000000000E+00  0.42430550758E+03  0.42430550758E+03  0.00000000000E+00 0.  1.
         21   -1    0    0  501  502 -0.00000000000E+00 -0.00000000000E+00 -0.26494338283E+03  0.26494338283E+03  0.00000000000E+00 0.  1.
         25    1    1    2    0    0  0.13219555227E+03 -0.11539498094E+03 -0.12491756996E+03  0.24904028780E+03  0.12500000000E+03 0.  0.
         25    1    1    2    0    0 -0.12292095008E+03  0.19828466962E+02  0.17432723572E+03  0.24802764601E+03  0.12500000000E+03 0.  0.
         25    1    1    2    0    0 -0.92746021919E+01  0.95566513982E+02  0.10995245899E+03  0.19218095660E+03  0.12500000000E+03 0.  0.
</event>
<event>
 5    0  0.5503691E-005  0.4158385E+03  0.7546771E-02  0.1038429E+00
         21   -1    0    0  502  501  0.00000000000E+00  0.00000000000E+00  0.12187156968E+04  0.12187156968E+04  0.00000000000E+00 0.  1.
         21   -1    0    0  501  502 -0.00000000000E+00 -0.00000000000E+00 -0.14188845580E+03  0.14188845580E+03  0.00000000000E+00 0.  1.
         25    1    1    2    0    0 -0.42752808547E+02 -0.12157085733E+03  0.92168721272E+02  0.20181018104E+03  0.12500000000E+03 0.  0.
         25    1    1    2    0    0 -0.15692949374E+03 -0.12250827118E+03  0.60818548582E+03  0.65203506629E+03  0.12500000000E+03 0.  0.
         25    1    1    2    0    0  0.19968230229E+03  0.24407912850E+03  0.37647303396E+03  0.50675890532E+03  0.12500000000E+03 0.  0.
</event>
<event>
 5    0  0.5503691E-005  0.2862795E+03  0.7546771E-02  0.1092308E+00
         21   -1    0    0  502  501  0.00000000000E+00  0.00000000000E+00  0.79743286179E+03  0.79743286179E+03  0.00000000000E+00 0.  1.
         21   -1    0    0  501  502 -0.00000000000E+00 -0.00000000000E+00 -0.10277474086E+03  0.10277474086E+03  0.00000000000E+00 0.  1.
         25    1    1    2    0    0 -0.31612244542E+02 -0.49668934690E+02  0.33640961931E+03  0.36367948669E+03  0.12500000000E+03 0.  0.
         25    1    1    2    0    0  0.15171836368E+03  0.25841471362E+02  0.93576897545E+02  0.21924388081E+03  0.12500000000E+03 0.  0.
         25    1    1    2    0    0 -0.12010611914E+03  0.23827463328E+02  0.26467160408E+03  0.31728423514E+03  0.12500000000E+03 0.  0.
</event>
<event>
 5    0  0.5503691E-005  0.4400009E+03  0.7546771E-02  0.1030747E+00
         21   -1    0    0  502  501  0.00000000000E+00  0.00000000000E+00  0.82459977990E+03  0.82459977990E+03  0.00000000000E+00 0. -1.
         21   -1    0    0  501  502 -0.00000000000E+00 -0.00000000000E+00 -0.23478155689E+03  0.23478155689E+03  0.00000000000E+00 0. -1.
         25    1    1    2    0    0  0.68325767204E+02 -0.13416644351E+03  0.68118348710E+03  0.70873477982E+03  0.12500000000E+03 0.  0.
         25    1    1    2    0    0 -0.30250841331E+02  0.15380761614E+03 -0.86675872285E+02  0.21842528018E+03  0.12500000000E+03 0.  0.
         25    1    1    2    0    0 -0.38074925873E+02 -0.19641172630E+02 -0.46893918069E+01  0.13222127680E+03  0.12500000000E+03 0.  0.
</event>
<event>
 5    0  0.5503691E-005  0.3280485E+03  0.7546771E-02  0.1072004E+00
         21   -1    0    0  502  501  0.00000000000E+00  0.00000000000E+00  0.89419455225E+02  0.89419455225E+02  0.00000000000E+00 0. -1.
         21   -1    0    0  501  502 -0.00000000000E+00 -0.00000000000E+00 -0.12034941901E+04  0.12034941901E+04  0.00000000000E+00 0. -1.
         25    1    1    2    0    0 -0.41442262395E+02  0.96679434390E+02 -0.12869181193E+03  0.20796864332E+03  0.12500000000E+03 0.  0.
         25    1    1    2    0    0  0.16791736442E+03 -0.51777856080E+02 -0.26537097980E+03  0.34194143442E+03  0.12500000000E+03 0.  0.
         25    1    1    2    0    0 -0.12647510203E+03 -0.44901578310E+02 -0.72001194310E+03  0.74300356754E+03  0.12500000000E+03 0.  0.
</event>
<event>
 5    0  0.5503691E-005  0.2533628E+03  0.7546771E-02  0.1111198E+00
         21   -1    0    0  502  501  0.00000000000E+00  0.00000000000E+00  0.44771273765E+03  0.44771273765E+03  0.00000000000E+00 0. -1.
         21   -1    0    0  501  502 -0.00000000000E+00 -0.00000000000E+00 -0.14337918455E+03  0.14337918455E+03  0.00000000000E+00 0. -1.
         25    1    1    2    0    0 -0.64939803511E+02 -0.64998597240E+02  0.63856492718E+02  0.16776366527E+03  0.12500000000E+03 0.  0.
         25    1    1    2    0    0  0.20332373090E+02  0.92056853311E+02  0.24157378163E+03  0.28787282194E+03  0.12500000000E+03 0.  0.
         25    1    1    2    0    0  0.44607430421E+02 -0.27058256072E+02 -0.10967212575E+01  0.13545543499E+03  0.12500000000E+03 0.  0.
</event>
<event>
 5    0  0.5539267E-005  0.3402861E+03  0.7546771E-02  0.1066674E+00
         21   -1    0    0  502  501  0.00000000000E+00  0.00000000000E+00  0.13514100722E+03  0.13514100722E+03  0.00000000000E+00 0.  1.
         21   -1    0    0  501  502 -0.00000000000E+00 -0.00000000000E+00 -0.85684294834E+03  0.85684294834E+03  0.00000000000E+00 0.  1.
         25    1    1    2    0    0  0.86614173181E+02 -0.12038330804E+03 -0.41304232404E+03  0.45631471300E+03  0.12500000000E+03 0.  0.
         25    1    1    2    0    0 -0.71769486346E+02  0.22528261947E+03 -0.23497137341E+03  0.35600514621E+03  0.12500000000E+03 0.  0.
         25    1    1    2    0    0 -0.14844686835E+02 -0.10489931143E+03 -0.73688243668E+02  0.17966409636E+03  0.12500000000E+03 0.  0.
</event>
<event>
 5    0  0.5503691E-005  0.2921560E+03  0.7546771E-02  0.1089229E+00
         21   -1    0    0  502  501  0.00000000000E+00  0.00000000000E+00  0.24562215822E+03  0.24562215822E+03  0.00000000000E+00 0.  1.
         21   -1    0    0  501  502 -0.00000000000E+00 -0.00000000000E+00 -0.34750581760E+03  0.34750581760E+03  0.00000000000E+00 0.  1.
         25    1    1    2    0    0  0.27373295552E+02  0.10104467645E+01  0.11990511813E+03  0.17536406606E+03  0.12500000000E+03 0.  0.
         25    1    1    2    0    0  0.43452349389E+02 -0.25654964986E+01 -0.23885210864E+03  0.27307511465E+03  0.12500000000E+03 0.  0.
         25    1    1    2    0    0 -0.70825644941E+02  0.15550497341E+01  0.17063331117E+02  0.14468879511E+03  0.12500000000E+03 0.  0.
</event>
<event>
 5    0  0.5503691E-005  0.3178924E+03  0.7546771E-02  0.1076623E+00
         21   -1    0    0  502  501  0.00000000000E+00  0.00000000000E+00  0.96180775216E+02  0.96180775216E+02  0.00000000000E+00 0.  1.
         21   -1    0    0  501  502 -0.00000000000E+00 -0.00000000000E+00 -0.10506839067E+04  0.10506839067E+04  0.00000000000E+00 0.  1.
         25    1    1    2    0    0 -0.34009375596E+02 -0.76831631227E+02 -0.14340727729E+03  0.20796726753E+03  0.12500000000E+03 0.  0.
         25    1    1    2    0    0  0.18874759030E+03  0.26170618060E+02 -0.61150413037E+03  0.65258934680E+03  0.12500000000E+03 0.  0.
         25    1    1    2    0    0 -0.15473821471E+03  0.50661013167E+02 -0.19959172384E+03  0.28630806759E+03  0.12500000000E+03 0.  0.
</event>
<event>
 5    0  0.5503691E-005  0.3222373E+03  0.7546771E-02  0.1074624E+00
         21   -1    0    0  502  501  0.00000000000E+00  0.00000000000E+00  0.64548189802E+02  0.64548189802E+02  0.00000000000E+00 0. -1.
         21   -1    0    0  501  502 -0.00000000000E+00 -0.00000000000E+00 -0.16086717483E+04  0.16086717483E+04  0.00000000000E+00 0. -1.
         25    1    1    2    0    0  0.12933270593E+03 -0.12842309625E+03 -0.36022852026E+03  0.42262161241E+03  0.12500000000E+03 0.  0.
         25    1    1    2    0    0  0.10558644095E+01  0.17291485924E+03 -0.71474181643E+03  0.74590986556E+03  0.12500000000E+03 0.  0.
         25    1    1    2    0    0 -0.13038857034E+03 -0.44491762991E+02 -0.46915322183E+03  0.50468846014E+03  0.12500000000E+03 0.  0.
</event>
<event>
 5    0  0.5503691E-005  0.2547805E+03  0.7546771E-02  0.1110320E+00
         21   -1    0    0  502  501  0.00000000000E+00  0.00000000000E+00  0.45973029394E+02  0.45973029394E+02  0.00000000000E+00 0. -1.
         21   -1    0    0  501  502 -0.00000000000E+00 -0.00000000000E+00 -0.14119822122E+04  0.14119822122E+04  0.00000000000E+00 0. -1.
         25    1    1    2    0    0  0.12911340905E+03 -0.49335367211E+02 -0.33536779610E+03  0.38366757684E+03  0.12500000000E+03 0.  0.
         25    1    1    2    0    0 -0.11336812499E+03  0.79126918138E+01 -0.63050781025E+03  0.65274806874E+03  0.12500000000E+03 0.  0.
         25    1    1    2    0    0 -0.15745284053E+02  0.41422675397E+02 -0.40013357648E+03  0.42153959604E+03  0.12500000000E+03 0.  0.
</event>
<event>
 5    0  0.5503691E-005  0.2250531E+03  0.7546771E-02  0.1130171E+00
         21   -1    0    0  502  501  0.00000000000E+00  0.00000000000E+00  0.48147886314E+02  0.48147886314E+02  0.00000000000E+00 0.  1.
         21   -1    0    0  501  502 -0.00000000000E+00 -0.00000000000E+00 -0.10519440582E+04  0.10519440582E+04  0.00000000000E+00 0.  1.
         25    1    1    2    0    0 -0.19779115076E+02 -0.30487462081E+02 -0.11416950307E+03  0.17314841660E+03  0.12500000000E+03 0.  0.
         25    1    1    2    0    0  0.26336973364E+02  0.28689492615E+02 -0.53785523224E+03  0.55356117458E+03  0.12500000000E+03 0.  0.
         25    1    1    2    0    0 -0.65578582889E+01  0.17979694657E+01 -0.35177143659E+03  0.37338235336E+03  0.12500000000E+03 0.  0.
</event>
<event>
 5    0  0.5503691E-005  0.6454053E+03  0.7546771E-02  0.9815439E-01
         21   -1    0    0  502  501  0.00000000000E+00  0.00000000000E+00  0.95910208876E+03  0.95910208876E+03  0.00000000000E+00 0.  1.
         21   -1    0    0  501  502 -0.00000000000E+00 -0.00000000000E+00 -0.43431043127E+03  0.43431043127E+03  0.00000000000E+00 0.  1.
         25    1    1    2    0    0  0.46971361790E+03 -0.41870534507E+02  0.96632052879E+02  0.49733970095E+03  0.12500000000E+03 0.  0.
         25    1    1    2    0    0  0.10478381385E+03  0.37355242874E+01  0.21418359994E+03  0.26924564300E+03  0.12500000000E+03 0.  0.
         25    1    1    2    0    0 -0.57449743176E+03  0.38135010219E+02  0.21397600466E+03  0.62682717608E+03  0.12500000000E+03 0.  0.
</event>
<event>
 5    0  0.5503691E-005  0.2704341E+03  0.7546771E-02  0.1101031E+00
         21   -1    0    0  502  501  0.00000000000E+00  0.00000000000E+00  0.23623924371E+04  0.23623924371E+04  0.00000000000E+00 0.  1.
         21   -1    0    0  501  502 -0.00000000000E+00 -0.00000000000E+00 -0.30957860156E+02  0.30957860156E+02  0.00000000000E+00 0.  1.
         25    1    1    2    0    0  0.13780822331E+03  0.11660204680E+03  0.78178792017E+03  0.81203725029E+03  0.12500000000E+03 0.  0.
         25    1    1    2    0    0 -0.53013839719E+02 -0.30204048488E+02  0.77254480292E+03  0.78496702113E+03  0.12500000000E+03 0.  0.
         25    1    1    2    0    0 -0.84794383593E+02 -0.86397998311E+02  0.77710185381E+03  0.79634602580E+03  0.12500000000E+03 0.  0.
</event>
<event>
 5    0  0.5503691E-005  0.1240439E+04  0.7546771E-02  0.9078179E-01
         21   -1    0    0  502  501  0.00000000000E+00  0.00000000000E+00  0.66294074001E+03  0.66294074001E+03  0.00000000000E+00 0. -1.
         21   -1    0    0  501  502 -0.00000000000E+00 -0.00000000000E+00 -0.23210034249E+04  0.23210034249E+04  0.00000000000E+00 0. -1.
         25    1    1    2    0    0 -0.19857185519E+03 -0.13192273595E+03  0.25331693915E+03  0.36963341515E+03  0.12500000000E+03 0.  0.
         25    1    1    2    0    0  0.28179363583E+03  0.53363397241E+03  0.38833561909E+02  0.61749972893E+03  0.12500000000E+03 0.  0.
         25    1    1    2    0    0 -0.83221780636E+02 -0.40171123646E+03 -0.19502131859E+04  0.19968110208E+04  0.12500000000E+03 0.  0.
</event>
<event>
 5    0  0.5503691E-005  0.2796080E+03  0.7546771E-02  0.1095903E+00
         21   -1    0    0  502  501  0.00000000000E+00  0.00000000000E+00  0.92266556527E+02  0.92266556527E+02  0.00000000000E+00 0. -1.
         21   -1    0    0  501  502 -0.00000000000E+00 -0.00000000000E+00 -0.84733460234E+03  0.84733460234E+03  0.00000000000E+00 0. -1.
         25    1    1    2    0    0 -0.59844777738E+02 -0.67592144665E+02 -0.21251568793E+03  0.26256049409E+03  0.12500000000E+03 0.  0.
         25    1    1    2    0    0  0.95749746812E+02 -0.91427929133E+02 -0.35454712841E+03  0.39856711669E+03  0.12500000000E+03 0.  0.
         25    1    1    2    0    0 -0.35904969074E+02  0.15902007380E+03 -0.18800522948E+03  0.27847354809E+03  0.12500000000E+03 0.  0.
</event>
<event>
 5    0  0.5503691E-005  0.3050384E+03  0.7546771E-02  0.1082749E+00
         21   -1    0    0  502  501  0.00000000000E+00  0.00000000000E+00  0.36555184203E+03  0.36555184203E+03  0.00000000000E+00 0.  1.
         21   -1    0    0  501  502 -0.00000000000E+00 -0.00000000000E+00 -0.25454238870E+03  0.25454238870E+03  0.00000000000E+00 0.  1.
         25    1    1    2    0    0  0.80549256638E+02 -0.67998690429E+02  0.43536408562E+02  0.16921118023E+03  0.12500000000E+03 0.  0.
         25    1    1    2    0    0 -0.21387363008E+03  0.18974231163E+02  0.80635588479E+02  0.26120690883E+03  0.12500000000E+03 0.  0.
         25    1    1    2    0    0  0.13332437344E+03  0.49024459266E+02 -0.13162543718E+02  0.18967614167E+03  0.12500000000E+03 0.  0.
</event>
<event>
 5    0  0.5503691E-005  0.2768275E+03  0.7546771E-02  0.1097434E+00
         21   -1    0    0  502  501  0.00000000000E+00  0.00000000000E+00  0.66877327323E+02  0.66877327323E+02  0.00000000000E+00 0. -1.
         21   -1    0    0  501  502 -0.00000000000E+00 -0.00000000000E+00 -0.11458809021E+04  0.11458809021E+04  0.00000000000E+00 0. -1.
         25    1    1    2    0    0 -0.43819647736E+02 -0.11566746912E+03 -0.19743508112E+03  0.26439503815E+03  0.12500000000E+03 0.  0.
         25    1    1    2    0    0 -0.60708697340E+02  0.29679561394E+02 -0.56006745123E+03  0.57781222921E+03  0.12500000000E+03 0.  0.
         25    1    1    2    0    0  0.10452834508E+03  0.85987907731E+02 -0.32150104240E+03  0.37055096203E+03  0.12500000000E+03 0.  0.
</event>
<event>
 5    0  0.5503691E-005  0.4197931E+03  0.7546771E-02  0.1037134E+00
         21   -1    0    0  502  501  0.00000000000E+00  0.00000000000E+00  0.10042295558E+03  0.10042295558E+03  0.00000000000E+00 0. -1.
         21   -1    0    0  501  502 -0.00000000000E+00 -0.00000000000E+00 -0.17548400785E+04  0.17548400785E+04  0.00000000000E+00 0. -1.
         25    1    1    2    0    0 -0.18539906116E+03  0.17475685263E+01 -0.23042416239E+03  0.32108590826E+03  0.12500000000E+03 0.  0.
         25    1    1    2    0    0 -0.99644710251E+02  0.92801510655E+02 -0.22165420528E+03  0.28861180741E+03  0.12500000000E+03 0.  0.
         25    1    1    2    0    0  0.28504377141E+03 -0.94549079181E+02 -0.12023387552E+04  0.12455653184E+04  0.12500000000E+03 0.  0.
</event>
<event>
 5    0  0.5503691E-005  0.2271102E+03  0.7546771E-02  0.1128690E+00
         21   -1    0    0  502  501  0.00000000000E+00  0.00000000000E+00  0.69123102609E+02  0.69123102609E+02  0.00000000000E+00 0. -1.
         21   -1    0    0  501  502 -0.00000000000E+00 -0.00000000000E+00 -0.74619103992E+03  0.74619103992E+03  0.00000000000E+00 0. -1.
         25    1    1    2    0    0 -0.46724201417E+02  0.34140198874E+02 -0.19864533744E+03  0.24173058198E+03  0.12500000000E+03 0.  0.
         25    1    1    2    0    0  0.56229381396E+02  0.52293739338E+02 -0.14137425304E+03  0.20373526432E+03  0.12500000000E+03 0.  0.
         25    1    1    2    0    0 -0.95051799798E+01 -0.86433938213E+02 -0.33704834682E+03  0.36984829622E+03  0.12500000000E+03 0.  0.
</event>
<event>
 5    0  0.5503691E-005  0.4048358E+03  0.7546771E-02  0.1042118E+00
         21   -1    0    0  502  501  0.00000000000E+00  0.00000000000E+00  0.16203873636E+03  0.16203873636E+03  0.00000000000E+00 0.  1.
         21   -1    0    0  501  502 -0.00000000000E+00 -0.00000000000E+00 -0.10114374473E+04  0.10114374473E+04  0.00000000000E+00 0.  1.
         25    1    1    2    0    0  0.16991009990E+03 -0.22946320355E+03 -0.50227712977E+03  0.59112614468E+03  0.12500000000E+03 0.  0.
         25    1    1    2    0    0  0.46017331259E+02  0.13199396670E+03 -0.20962216339E+03  0.28125869481E+03  0.12500000000E+03 0.  0.
         25    1    1    2    0    0 -0.21592743115E+03  0.97469236845E+02 -0.13749941782E+03  0.30109134421E+03  0.12500000000E+03 0.  0.
</event>
<event>
 5    0  0.5503691E-005  0.2728550E+03  0.7546771E-02  0.1099657E+00
         21   -1    0    0  502  501  0.00000000000E+00  0.00000000000E+00  0.16252288941E+03  0.16252288941E+03  0.00000000000E+00 0.  1.
         21   -1    0    0  501  502 -0.00000000000E+00 -0.00000000000E+00 -0.45808844088E+03  0.45808844088E+03  0.00000000000E+00 0.  1.
         25    1    1    2    0    0 -0.21799165513E+02 -0.41104729730E+02 -0.49474676356E+02  0.14225872917E+03  0.12500000000E+03 0.  0.
         25    1    1    2    0    0  0.17147639630E+02  0.14722330358E+03 -0.14337362015E+02  0.19442042745E+03  0.12500000000E+03 0.  0.
         25    1    1    2    0    0  0.46515258832E+01 -0.10611857384E+03 -0.23175351310E+03  0.28393217367E+03  0.12500000000E+03 0.  0.
</event>
<event>
 5    0  0.5503691E-005  0.2690024E+03  0.7546771E-02  0.1101852E+00
         21   -1    0    0  502  501  0.00000000000E+00  0.00000000000E+00  0.55242754016E+03  0.55242754016E+03  0.00000000000E+00 0. -1.
         21   -1    0    0  501  502 -0.00000000000E+00 -0.00000000000E+00 -0.13098968612E+03  0.13098968612E+03  0.00000000000E+00 0. -1.
         25    1    1    2    0    0 -0.56750895443E+01  0.45858420346E+02  0.13381181259E+03  0.18885391854E+03  0.12500000000E+03 0.  0.
         25    1    1    2    0    0  0.97866811386E+02  0.93627125867E+02  0.18791665261E+03  0.26321401900E+03  0.12500000000E+03 0.  0.
         25    1    1    2    0    0 -0.92191721842E+02 -0.13948554621E+03  0.99709388846E+02  0.23134928874E+03  0.12500000000E+03 0.  0.
</event>
<event>
 5    0  0.6930022E-005  0.3100333E+03  0.7546771E-02  0.1080330E+00
         21   -1    0    0  502  501  0.00000000000E+00  0.00000000000E+00  0.40384883056E+03  0.40384883056E+03  0.00000000000E+00 0. -1.
         21   -1    0    0  501  502 -0.00000000000E+00 -0.00000000000E+00 -0.23801145491E+03  0.23801145491E+03  0.00000000000E+00 0. -1.
         25    1    1    2    0    0 -0.11713042085E+03  0.10211335638E+03 -0.84386865023E+02  0.21654749139E+03  0.12500000000E+03 0.  0.
         25    1    1    2    0    0  0.73882780351E+02 -0.12950812794E+03  0.86140461915E+02  0.21278204721E+03  0.12500000000E+03 0.  0.
         25    1    1    2    0    0  0.43247640494E+02  0.27394771562E+02  0.16408377876E+03  0.21253074688E+03  0.12500000000E+03 0.  0.
</event>
<event>
 5    0  0.5503691E-005  0.4405698E+03  0.7546771E-02  0.1030572E+00
         21   -1    0    0  502  501  0.00000000000E+00  0.00000000000E+00  0.96359190959E+02  0.96359190959E+02  0.00000000000E+00 0. -1.
         21   -1    0    0  501  502 -0.00000000000E+00 -0.00000000000E+00 -0.20143560496E+04  0.20143560496E+04  0.00000000000E+00 0.  1.
         25    1    1    2    0    0 -0.45592437499E+02  0.41769107489E+02 -0.41564659311E+03  0.43841808706E+03  0.12500000000E+03 0.  0.
         25    1    1    2    0    0 -0.94042949388E+02 -0.33845862621E+03 -0.91567157278E+03  0.98867474287E+03  0.12500000000E+03 0.  0.
         25    1    1    2    0    0  0.13963538689E+03  0.29668951872E+03 -0.58667869276E+03  0.68362241064E+03  0.12500000000E+03 0.  0.
</event>
<event>
 5    0  0.5879290E-005  0.3372666E+03  0.7546771E-02  0.1067966E+00
         21   -1    0    0  502  501  0.00000000000E+00  0.00000000000E+00  0.75041022918E+03  0.75041022918E+03  0.00000000000E+00 0. -1.
         21   -1    0    0  501  502 -0.00000000000E+00 -0.00000000000E+00 -0.15158211444E+03  0.15158211444E+03  0.00000000000E+00 0. -1.
         25    1    1    2    0    0 -0.12556639951E+03  0.15146403287E+03  0.33748395528E+03  0.41015691389E+03  0.12500000000E+03 0.  0.
         25    1    1    2    0    0 -0.21199137487E+01 -0.14070626600E+03  0.17074837874E+02  0.18899549575E+03  0.12500000000E+03 0.  0.
         25    1    1    2    0    0  0.12768631326E+03 -0.10757766874E+02  0.24426932159E+03  0.30283993398E+03  0.12500000000E+03 0.  0.
</event>
<event>
 5    0  0.5503691E-005  0.3353186E+03  0.7546771E-02  0.1068807E+00
         21   -1    0    0  502  501  0.00000000000E+00  0.00000000000E+00  0.16750287340E+03  0.16750287340E+03  0.00000000000E+00 0.  1.
         21   -1    0    0  501  502 -0.00000000000E+00 -0.00000000000E+00 -0.67126361161E+03  0.67126361161E+03  0.00000000000E+00 0.  1.
         25    1    1    2    0    0 -0.17427826572E+03 -0.92481929407E+02 -0.19398015527E+03  0.30361014773E+03  0.12500000000E+03 0.  0.
         25    1    1    2    0    0 -0.16341737876E+02 -0.51652628683E+02 -0.20432036221E+03  0.24557454441E+03  0.12500000000E+03 0.  0.
         25    1    1    2    0    0  0.19062000359E+03  0.14413455809E+03 -0.10546022073E+03  0.28958179287E+03  0.12500000000E+03 0.  0.
</event>
<event>
 5    0  0.5503691E-005  0.2749017E+03  0.7546771E-02  0.1098507E+00
         21   -1    0    0  502  501  0.00000000000E+00  0.00000000000E+00  0.39059139931E+03  0.39059139931E+03  0.00000000000E+00 0. -1.
         21   -1    0    0  501  502 -0.00000000000E+00 -0.00000000000E+00 -0.19347823357E+03  0.19347823357E+03  0.00000000000E+00 0. -1.
         25    1    1    2    0    0  0.59384348024E+01  0.10918401689E+03  0.17131909412E+02  0.16695782963E+03  0.12500000000E+03 0.  0.
         25    1    1    2    0    0 -0.30733186676E+02 -0.18604898329E+03  0.12488566497E+03  0.25841861825E+03  0.12500000000E+03 0.  0.
         25    1    1    2    0    0  0.24794751873E+02  0.76864966392E+02  0.55095591366E+02  0.15869318500E+03  0.12500000000E+03 0.  0.
</event>
<event>
 5    0  0.5503691E-005  0.2918634E+03  0.7546771E-02  0.1089380E+00
         21   -1    0    0  502  501  0.00000000000E+00  0.00000000000E+00  0.26974680375E+03  0.26974680375E+03  0.00000000000E+00 0. -1.
         21   -1    0    0  501  502 -0.00000000000E+00 -0.00000000000E+00 -0.31579337311E+03  0.31579337311E+03  0.00000000000E+00 0. -1.
         25    1    1    2    0    0 -0.26053766639E+02  0.18981879676E+02 -0.17844960642E+02  0.13031712525E+03  0.12500000000E+03 0.  0.
         25    1    1    2    0    0  0.12181209811E+03 -0.16317028164E+03  0.59398150988E+01  0.23900420385E+03  0.12500000000E+03 0.  0.
         25    1    1    2    0    0 -0.95758331467E+02  0.14418840197E+03 -0.34141423821E+02  0.21621884776E+03  0.12500000000E+03 0.  0.
</event>
<event>
 5    0  0.5503691E-005  0.3899831E+03  0.7546771E-02  0.1047304E+00
         21   -1    0    0  502  501  0.00000000000E+00  0.00000000000E+00  0.25740334483E+04  0.25740334483E+04  0.00000000000E+00 0. -1.
         21   -1    0    0  501  502 -0.00000000000E+00 -0.00000000000E+00 -0.59085018019E+02  0.59085018019E+02  0.00000000000E+00 0. -1.
         25    1    1    2    0    0 -0.12920398997E+03 -0.10826190864E+03  0.50239082357E+03  0.54445922850E+03  0.12500000000E+03 0.  0.
         25    1    1    2    0    0  0.55067755226E+02 -0.78036469373E+02  0.17236654528E+03  0.23336103820E+03  0.12500000000E+03 0.  0.
         25    1    1    2    0    0  0.74136234743E+02  0.18629837802E+03  0.18401910614E+04  0.18552981996E+04  0.12500000000E+03 0.  0.
</event>
<event>
 5    0  0.5731604E-005  0.2968985E+03  0.7546771E-02  0.1086801E+00
         21   -1    0    0  502  501  0.00000000000E+00  0.00000000000E+00  0.64969918293E+03  0.64969918293E+03  0.00000000000E+00 0. -1.
         21   -1    0    0  501  502 -0.00000000000E+00 -0.00000000000E+00 -0.13567623502E+03  0.13567623502E+03  0.00000000000E+00 0. -1.
         25    1    1    2    0    0 -0.36069844456E+02 -0.55888574619E+02  0.18189994682E+03  0.23051498239E+03  0.12500000000E+03 0.  0.
         25    1    1    2    0    0 -0.16315210482E+02 -0.14379846695E+03  0.21123717084E+03  0.28493916462E+03  0.12500000000E+03 0.  0.
         25    1    1    2    0    0  0.52385054938E+02  0.19968704157E+03  0.12088583025E+03  0.26992127094E+03  0.12500000000E+03 0.  0.
</event>
<event>
 5    0  0.5503691E-005  0.3094118E+03  0.7546771E-02  0.1080628E+00
         21   -1    0    0  502  501  0.00000000000E+00  0.00000000000E+00  0.14993796800E+04  0.14993796800E+04  0.00000000000E+00 0.  1.
         21   -1    0    0  501  502 -0.00000000000E+00 -0.00000000000E+00 -0.63850171524E+02  0.63850171524E+02  0.00000000000E+00 0.  1.
         25    1    1    2    0    0  0.14467075216E+03  0.11019427654E+03  0.51254648264E+03  0.55803342372E+03  0.12500000000E+03 0.  0.
         25    1    1    2    0    0 -0.16742071467E+03  0.26778186925E+02  0.51828177137E+03  0.55945309145E+03  0.12500000000E+03 0.  0.
         25    1    1    2    0    0  0.22749962512E+02 -0.13697246347E+03  0.40470125441E+03  0.44574333631E+03  0.12500000000E+03 0.  0.
</event>
<event>
 5    0  0.5503691E-005  0.2815901E+03  0.7546771E-02  0.1094824E+00
         21   -1    0    0  502  501  0.00000000000E+00  0.00000000000E+00  0.62403816036E+02  0.62403816036E+02  0.00000000000E+00 0.  1.
         21   -1    0    0  501  502 -0.00000000000E+00 -0.00000000000E+00 -0.12706433111E+04  0.12706433111E+04  0.00000000000E+00 0.  1.
         25    1    1    2    0    0 -0.30477745977E+01 -0.14242274083E+03 -0.83415494084E+03  0.85541392984E+03  0.12500000000E+03 0.  0.
         25    1    1    2    0    0 -0.27413290704E+02  0.87100440082E+02 -0.22476539502E+03  0.27291474487E+03  0.12500000000E+03 0.  0.
         25    1    1    2    0    0  0.30461065301E+02  0.55322300745E+02 -0.14931915921E+03  0.20471845244E+03  0.12500000000E+03 0.  0.
</event>
<event>
 5    0  0.5503691E-005  0.2555431E+03  0.7546771E-02  0.1109851E+00
         21   -1    0    0  502  501  0.00000000000E+00  0.00000000000E+00  0.49413840917E+03  0.49413840917E+03  0.00000000000E+00 0.  1.
         21   -1    0    0  501  502 -0.00000000000E+00 -0.00000000000E+00 -0.13215382401E+03  0.13215382401E+03  0.00000000000E+00 0.  1.
         25    1    1    2    0    0  0.87166244607E+02 -0.42019235383E+02  0.18388291590E+01  0.15808842979E+03  0.12500000000E+03 0.  0.
         25    1    1    2    0    0 -0.60913157197E+02  0.35404701070E+02  0.28698986279E+03  0.32086147622E+03  0.12500000000E+03 0.  0.
         25    1    1    2    0    0 -0.26253087410E+02  0.66145343129E+01  0.73155893205E+02  0.14734232716E+03  0.12500000000E+03 0.  0.
</event>
<event>
 5    0  0.5503691E-005  0.3139752E+03  0.7546771E-02  0.1078456E+00
         21   -1    0    0  502  501  0.00000000000E+00  0.00000000000E+00  0.16520667265E+04  0.16520667265E+04  0.00000000000E+00 0. -1.
         21   -1    0    0  501  502 -0.00000000000E+00 -0.00000000000E+00 -0.59670953718E+02  0.59670953718E+02  0.00000000000E+00 0. -1.
         25    1    1    2    0    0  0.88574796599E+02 -0.44460350862E+02  0.43973803367E+03  0.46777853269E+03  0.12500000000E+03 0.  0.
         25    1    1    2    0    0 -0.48258342375E+02  0.20093233967E+03  0.43222990559E+03  0.49512661413E+03  0.12500000000E+03 0.  0.
         25    1    1    2    0    0 -0.40316454224E+02 -0.15647198880E+03  0.72042783354E+03  0.74883253341E+03  0.12500000000E+03 0.  0.
</event>
<event>
 5    0  0.5503691E-005  0.2896216E+03  0.7546771E-02  0.1090547E+00
         21   -1    0    0  502  501  0.00000000000E+00  0.00000000000E+00  0.68375961801E+02  0.68375961801E+02  0.00000000000E+00 0. -1.
         21   -1    0    0  501  502 -0.00000000000E+00 -0.00000000000E+00 -0.12267570915E+04  0.12267570915E+04  0.00000000000E+00 0. -1.
         25    1    1    2    0    0 -0.97590174741E+02  0.70624558596E+02 -0.20701712243E+03  0.27017172217E+03  0.12500000000E+03 0.  0.
         25    1    1    2    0    0  0.13523132080E+03  0.49369541634E+02 -0.35711221146E+03  0.40481970473E+03  0.12500000000E+03 0.  0.
         25    1    1    2    0    0 -0.37641146060E+02 -0.11999410023E+03 -0.59425179584E+03  0.62014162643E+03  0.12500000000E+03 0.  0.
</event>
<event>
 5    0  0.5896115E-005  0.5291544E+03  0.7546771E-02  0.1006437E+00
         21   -1    0    0  502  501  0.00000000000E+00  0.00000000000E+00  0.45196144317E+03  0.45196144317E+03  0.00000000000E+00 0.  1.
         21   -1    0    0  501  502 -0.00000000000E+00 -0.00000000000E+00 -0.61953152366E+03  0.61953152366E+03  0.00000000000E+00 0.  1.
         25    1    1    2    0    0 -0.22585058019E+03  0.14357047814E+03 -0.15393171254E+03  0.33307797719E+03  0.12500000000E+03 0.  0.
         25    1    1    2    0    0  0.20044956219E+02 -0.28279547212E+03 -0.23012544241E+03  0.38595051311E+03  0.12500000000E+03 0.  0.
         25    1    1    2    0    0  0.20580562397E+03  0.13922499398E+03  0.21648707446E+03  0.35246447653E+03  0.12500000000E+03 0.  0.
</event>
<event>
 5    0  0.5503691E-005  0.5142922E+03  0.7546771E-02  0.1010114E+00
         21   -1    0    0  502  501  0.00000000000E+00  0.00000000000E+00  0.47828674681E+03  0.47828674681E+03  0.00000000000E+00 0. -1.
         21   -1    0    0  501  502 -0.00000000000E+00 -0.00000000000E+00 -0.55300812647E+03  0.55300812647E+03  0.00000000000E+00 0. -1.
         25    1    1    2    0    0 -0.37692412873E+03 -0.40108310562E+02 -0.23009525456E+03  0.46070522199E+03  0.12500000000E+03 0.  0.
         25    1    1    2    0    0  0.19207521799E+03  0.18201112618E+02 -0.81986545495E+02  0.24407163602E+03  0.12500000000E+03 0.  0.
         25    1    1    2    0    0  0.18484891074E+03  0.21907197945E+02  0.23736042040E+03  0.32651801527E+03  0.12500000000E+03 0.  0.
</event>
<event>
 5    0  0.5503691E-005  0.3399707E+03  0.7546771E-02  0.1066808E+00
         21   -1    0    0  502  501  0.00000000000E+00  0.00000000000E+00  0.27777440879E+03  0.27777440879E+03  0.00000000000E+00 0.  1.
         21   -1    0    0  501  502 -0.00000000000E+00 -0.00000000000E+00 -0.41609333069E+03  0.41609333069E+03  0.00000000000E+00 0.  1.
         25    1    1    2    0    0  0.19298724496E+03  0.17809717226E+02 -0.25987631346E+02  0.23208106284E+03  0.12500000000E+03 0.  0.
         25    1    1    2    0    0 -0.31996908373E+02  0.83309648659E+02 -0.16792232078E+03  0.22756802394E+03  0.12500000000E+03 0.  0.
         25    1    1    2    0    0 -0.16099033659E+03 -0.10111936588E+03  0.55591030225E+02  0.23421865270E+03  0.12500000000E+03 0.  0.
</event>
<event>
 5    0  0.5503691E-005  0.2749391E+03  0.7546771E-02  0.1098486E+00
         21   -1    0    0  502  501  0.00000000000E+00  0.00000000000E+00  0.73611742388E+02  0.73611742388E+02  0.00000000000E+00 0. -1.
         21   -1    0    0  501  502 -0.00000000000E+00 -0.00000000000E+00 -0.10268946231E+04  0.10268946231E+04  0.00000000000E+00 0. -1.
         25    1    1    2    0    0  0.12641122090E+01  0.86414002557E+02 -0.46786412270E+03  0.49192561951E+03  0.12500000000E+03 0.  0.
         25    1    1    2    0    0 -0.11404729638E+02 -0.16642714933E+03 -0.35021646073E+03  0.40755936163E+03  0.12500000000E+03 0.  0.
         25    1    1    2    0    0  0.10140617429E+02  0.80013146777E+02 -0.13520229733E+03  0.20102138439E+03  0.12500000000E+03 0.  0.
</event>
<event>
 5    0  0.5503691E-005  0.3224414E+03  0.7546771E-02  0.1074531E+00
         21   -1    0    0  502  501  0.00000000000E+00  0.00000000000E+00  0.20692640047E+04  0.20692640047E+04  0.00000000000E+00 0.  1.
         21   -1    0    0  501  502 -0.00000000000E+00 -0.00000000000E+00 -0.50244178543E+02  0.50244178543E+02  0.00000000000E+00 0.  1.
         25    1    1    2    0    0 -0.57853653493E+02 -0.41594788128E+02  0.67754210464E+03  0.69265104864E+03  0.12500000000E+03 0.  0.
         25    1    1    2    0    0  0.94672610129E+02  0.18544718789E+03  0.41999349925E+03  0.48515265847E+03  0.12500000000E+03 0.  0.
         25    1    1    2    0    0 -0.36818956635E+02 -0.14385239976E+03  0.92148422222E+03  0.94170447609E+03  0.12500000000E+03 0.  0.
</event>
<event>
 5    0  0.5503691E-005  0.3505837E+03  0.7546771E-02  0.1062376E+00
         21   -1    0    0  502  501  0.00000000000E+00  0.00000000000E+00  0.19111646870E+04  0.19111646870E+04  0.00000000000E+00 0.  1.
         21   -1    0    0  501  502 -0.00000000000E+00 -0.00000000000E+00 -0.64310993261E+02  0.64310993261E+02  0.00000000000E+00 0.  1.
         25    1    1    2    0    0  0.23468787779E+02  0.16049553369E+02  0.49225594863E+03  0.50867405195E+03  0.12500000000E+03 0.  0.
         25    1    1    2    0    0  0.20585376881E+03  0.87967636401E+02  0.43236294973E+03  0.50266967234E+03  0.12500000000E+03 0.  0.
         25    1    1    2    0    0 -0.22932255659E+03 -0.10401718977E+03  0.92223479539E+03  0.96413195599E+03  0.12500000000E+03 0.  0.
</event>
<event>
 5    0  0.5503691E-005  0.2827901E+03  0.7546771E-02  0.1094175E+00
         21   -1    0    0  502  501  0.00000000000E+00  0.00000000000E+00  0.16722478994E+03  0.16722478994E+03  0.00000000000E+00 0. -1.
         21   -1    0    0  501  502 -0.00000000000E+00 -0.00000000000E+00 -0.47822017533E+03  0.47822017533E+03  0.00000000000E+00 0. -1.
         25    1    1    2    0    0 -0.24863709003E+01 -0.16827800307E+02 -0.22435848952E+03  0.25739286844E+03  0.12500000000E+03 0.  0.
         25    1    1    2    0    0 -0.10380245597E+03 -0.85171848101E+02 -0.24350182835E+02  0.18505978758E+03  0.12500000000E+03 0.  0.
         25    1    1    2    0    0  0.10628882687E+03  0.10199964841E+03 -0.62286713036E+02  0.20299230925E+03  0.12500000000E+03 0.  0.
</event>
<event>
 5    0  0.5503691E-005  0.3086549E+03  0.7546771E-02  0.1080992E+00
         21   -1    0    0  502  501  0.00000000000E+00  0.00000000000E+00  0.24341116330E+03  0.24341116330E+03  0.00000000000E+00 0.  1.
         21   -1    0    0  501  502 -0.00000000000E+00 -0.00000000000E+00 -0.39138663468E+03  0.39138663468E+03  0.00000000000E+00 0.  1.
         25    1    1    2    0    0  0.19211440639E+03 -0.12582590902E+03 -0.57967565982E+02  0.26781587562E+03  0.12500000000E+03 0.  0.
         25    1    1    2    0    0 -0.15584107843E+03  0.88289753039E+02 -0.37057229864E+02  0.22153952357E+03  0.12500000000E+03 0.  0.
         25    1    1    2    0    0 -0.36273327966E+02  0.37536155985E+02 -0.52950675531E+02  0.14544239879E+03  0.12500000000E+03 0.  0.
</event>
<event>
 5    0  0.5503691E-005  0.3031487E+03  0.7546771E-02  0.1083677E+00
         21   -1    0    0  502  501  0.00000000000E+00  0.00000000000E+00  0.22825034028E+03  0.22825034028E+03  0.00000000000E+00 0.  1.
         21   -1    0    0  501  502 -0.00000000000E+00 -0.00000000000E+00 -0.40262422886E+03  0.40262422886E+03  0.00000000000E+00 0.  1.
         25    1    1    2    0    0  0.71574803557E+02 -0.96045664428E+02 -0.17139050706E+03  0.24361327565E+03  0.12500000000E+03 0.  0.
         25    1    1    2    0    0 -0.51940391266E+02 -0.40318739882E+02 -0.10416758255E+03  0.17549726574E+03  0.12500000000E+03 0.  0.
         25    1    1    2    0    0 -0.19634412291E+02  0.13636440431E+03  0.10118420103E+03  0.21176402774E+03  0.12500000000E+03 0.  0.
</event>
<event>
 5    0  0.5503691E-005  0.4292528E+03  0.7546771E-02  0.1034096E+00
         21   -1    0    0  502  501  0.00000000000E+00  0.00000000000E+00  0.33376270737E+03  0.33376270737E+03  0.00000000000E+00 0.  1.
         21   -1    0    0  501  502 -0.00000000000E+00 -0.00000000000E+00 -0.55206280688E+03  0.55206280688E+03  0.00000000000E+00 0.  1.
         25    1    1    2    0    0 -0.47123884413E+02 -0.37774441589E+02 -0.13345627938E+03  0.19256985077E+03  0.12500000000E+03 0.  0.
         25    1    1    2    0    0 -0.18576855211E+03 -0.22326968026E+03 -0.49988901004E+02  0.32012996626E+03  0.12500000000E+03 0.  0.
         25    1    1    2    0    0  0.23289243652E+03  0.26104412185E+03 -0.34854919136E+02  0.37312569722E+03  0.12500000000E+03 0.  0.
</event>
<event>
 5    0  0.5503691E-005  0.3015117E+03  0.7546771E-02  0.1084487E+00
         21   -1    0    0  502  501  0.00000000000E+00  0.00000000000E+00  0.91096594722E+03  0.91096594722E+03  0.00000000000E+00 0. -1.
         21   -1    0    0  501  502 -0.00000000000E+00 -0.00000000000E+00 -0.99794379800E+02  0.99794379800E+02  0.00000000000E+00 0. -1.
         25    1    1    2    0    0 -0.16230870194E+03  0.67007860310E+02  0.34681696190E+03  0.40833953168E+03  0.12500000000E+03 0.  0.
         25    1    1    2    0    0 -0.43837593971E+02 -0.38670704000E+02  0.13289860961E+03  0.19158339810E+03  0.12500000000E+03 0.  0.
         25    1    1    2    0    0  0.20614629591E+03 -0.28337156309E+02  0.33145599592E+03  0.41083739724E+03  0.12500000000E+03 0.  0.
</event>
<event>
 5    0  0.5503691E-005  0.2173670E+03  0.7546771E-02  0.1135861E+00
         21   -1    0    0  502  501  0.00000000000E+00  0.00000000000E+00  0.30934888674E+03  0.30934888674E+03  0.00000000000E+00 0. -1.
         21   -1    0    0  501  502 -0.00000000000E+00 -0.00000000000E+00 -0.15273507886E+03  0.15273507886E+03  0.00000000000E+00 0. -1.
         25    1    1    2    0    0 -0.72124035649E+00  0.63428714109E+02  0.37011548425E+02  0.14497784892E+03  0.12500000000E+03 0.  0.
         25    1    1    2    0    0  0.43520137560E+02  0.24078575955E+02  0.44192261048E+02  0.14160415294E+03  0.12500000000E+03 0.  0.
         25    1    1    2    0    0 -0.42798897203E+02 -0.87507290064E+02  0.75409998410E+02  0.17550196374E+03  0.12500000000E+03 0.  0.
</event>
<event>
 5    0  0.5503691E-005  0.2536317E+03  0.7546771E-02  0.1111031E+00
         21   -1    0    0  502  501  0.00000000000E+00  0.00000000000E+00  0.35507515340E+03  0.35507515340E+03  0.00000000000E+00 0. -1.
         21   -1    0    0  501  502 -0.00000000000E+00 -0.00000000000E+00 -0.18117022547E+03  0.18117022547E+03  0.00000000000E+00 0. -1.
         25    1    1    2    0    0  0.92112270348E+02 -0.93525507982E+02  0.13795502985E+03  0.22778999375E+03  0.12500000000E+03 0.  0.
         25    1    1    2    0    0 -0.21870610314E+02  0.99849542856E+02  0.45427213736E+01  0.16153603660E+03  0.12500000000E+03 0.  0.
         25    1    1    2    0    0 -0.70241660035E+02 -0.63240348730E+01  0.31407176706E+02  0.14691934852E+03  0.12500000000E+03 0.  0.
</event>
<event>
 5    0  0.5503691E-005  0.2834491E+03  0.7546771E-02  0.1093820E+00
         21   -1    0    0  502  501  0.00000000000E+00  0.00000000000E+00  0.13353081956E+03  0.13353081956E+03  0.00000000000E+00 0.  1.
         21   -1    0    0  501  502 -0.00000000000E+00 -0.00000000000E+00 -0.60168428047E+03  0.60168428047E+03  0.00000000000E+00 0.  1.
         25    1    1    2    0    0 -0.36043315338E+01  0.34367712648E+02 -0.35465697604E+03  0.37762508065E+03  0.12500000000E+03 0.  0.
         25    1    1    2    0    0 -0.30620861237E+02 -0.10775957757E+03 -0.12338511954E+03  0.20832342985E+03  0.12500000000E+03 0.  0.
         25    1    1    2    0    0  0.34225192771E+02  0.73391864919E+02  0.98886346682E+01  0.14926658954E+03  0.12500000000E+03 0.  0.
</event>
<event>
 5    0  0.5693629E-005  0.3233802E+03  0.7546771E-02  0.1074104E+00
         21   -1    0    0  502  501  0.00000000000E+00  0.00000000000E+00  0.19813168276E+03  0.19813168276E+03  0.00000000000E+00 0. -1.
         21   -1    0    0  501  502 -0.00000000000E+00 -0.00000000000E+00 -0.52780417024E+03  0.52780417024E+03  0.00000000000E+00 0. -1.
         25    1    1    2    0    0  0.49640560380E+02  0.14275007755E+03 -0.17056840011E+03  0.25992373688E+03  0.12500000000E+03 0.  0.
         25    1    1    2    0    0 -0.11664468477E+03 -0.15734801490E+03 -0.21141568928E+03  0.31414323796E+03  0.12500000000E+03 0.  0.
         25    1    1    2    0    0  0.67004124392E+02  0.14597937352E+02  0.52311601918E+02  0.15186887817E+03  0.12500000000E+03 0.  0.
</event>
<event>
 5    0  0.5503691E-005  0.3989187E+03  0.7546771E-02  0.1044155E+00
         21   -1    0    0  502  501  0.00000000000E+00  0.00000000000E+00  0.14949016463E+03  0.14949016463E+03  0.00000000000E+00 0.  1.
         21   -1    0    0  501  502 -0.00000000000E+00 -0.00000000000E+00 -0.10645257099E+04  0.10645257099E+04  0.00000000000E+00 0.  1.
         25    1    1    2    0    0  0.59686735475E+02 -0.77012323756E+02 -0.29901739745E+02  0.16128396833E+03  0.12500000000E+03 0.  0.
         25    1    1    2    0    0 -0.20770363956E+03 -0.13530116510E+03 -0.50358265548E+03  0.57503712755E+03  0.12500000000E+03 0.  0.
         25    1    1    2    0    0  0.14801690408E+03  0.21231348885E+03 -0.38155115005E+03  0.47769477865E+03  0.12500000000E+03 0.  0.
</event>
<event>
 5    0  0.5503691E-005  0.2638226E+03  0.7546771E-02  0.1104868E+00
         21   -1    0    0  502  501  0.00000000000E+00  0.00000000000E+00  0.35146368226E+03  0.35146368226E+03  0.00000000000E+00 0. -1.
         21   -1    0    0  501  502 -0.00000000000E+00 -0.00000000000E+00 -0.19803566623E+03  0.19803566623E+03  0.00000000000E+00 0. -1.
         25    1    1    2    0    0  0.31255110446E+02  0.22751285305E+02  0.16634508549E+03  0.21163693057E+03  0.12500000000E+03 0.  0.
         25    1    1    2    0    0  0.32761672014E+02 -0.71233344747E+02  0.74692823758E+02  0.16538299332E+03  0.12500000000E+03 0.  0.
         25    1    1    2    0    0 -0.64016782460E+02  0.48482059442E+02 -0.87609893220E+02  0.17247942461E+03  0.12500000000E+03 0.  0.
</event>
<event>
 5    0  0.5503691E-005  0.2461499E+03  0.7546771E-02  0.1115762E+00
         21   -1    0    0  502  501  0.00000000000E+00  0.00000000000E+00  0.47918163345E+02  0.47918163345E+02  0.00000000000E+00 0. -1.
         21   -1    0    0  501  502 -0.00000000000E+00 -0.00000000000E+00 -0.12644430444E+04  0.12644430444E+04  0.00000000000E+00 0. -1.
         25    1    1    2    0    0  0.95428200475E+02 -0.21049565450E+02 -0.55139888551E+03  0.57377291379E+03  0.12500000000E+03 0.  0.
         25    1    1    2    0    0 -0.87883771647E+02 -0.66361059913E+02 -0.30767108444E+03  0.34987689805E+03  0.12500000000E+03 0.  0.
         25    1    1    2    0    0 -0.75444288286E+01  0.87410625362E+02 -0.35745491109E+03  0.38871139589E+03  0.12500000000E+03 0.  0.
</event>
<event>
 5    0  0.5503691E-005  0.3020736E+03  0.7546771E-02  0.1084209E+00
         21   -1    0    0  502  501  0.00000000000E+00  0.00000000000E+00  0.76264307328E+02  0.76264307328E+02  0.00000000000E+00 0.  1.
         21   -1    0    0  501  502 -0.00000000000E+00 -0.00000000000E+00 -0.11964766149E+04  0.11964766149E+04  0.00000000000E+00 0.  1.
         25    1    1    2    0    0 -0.25113519814E+02  0.22343655161E+02 -0.14110094333E+03  0.19147951329E+03  0.12500000000E+03 0.  0.
         25    1    1    2    0    0 -0.28465796324E+02  0.63877066118E+02 -0.72641490218E+02  0.16060002253E+03  0.12500000000E+03 0.  0.
         25    1    1    2    0    0  0.53579316138E+02 -0.86220721278E+02 -0.90646987407E+03  0.92066138644E+03  0.12500000000E+03 0.  0.
</event>
<event>
 5    0  0.5503691E-005  0.3415153E+03  0.7546771E-02  0.1066152E+00
         21   -1    0    0  502  501  0.00000000000E+00  0.00000000000E+00  0.99097950427E+03  0.99097950427E+03  0.00000000000E+00 0. -1.
         21   -1    0    0  501  502 -0.00000000000E+00 -0.00000000000E+00 -0.11769434015E+03  0.11769434015E+03  0.00000000000E+00 0. -1.
         25    1    1    2    0    0 -0.14898268973E+03 -0.99205715663E+02  0.72639370696E+03  0.75849221049E+03  0.12500000000E+03 0.  0.
         25    1    1    2    0    0  0.46581341160E+02  0.14490242107E+02  0.46989976207E+02  0.14217189006E+03  0.12500000000E+03 0.  0.
         25    1    1    2    0    0  0.10240134857E+03  0.84715473556E+02  0.99901480940E+02  0.20800974386E+03  0.12500000000E+03 0.  0.
</event>
<event>
 5    0  0.5586720E-005  0.2707079E+03  0.7546771E-02  0.1100875E+00
         21   -1    0    0  502  501  0.00000000000E+00  0.00000000000E+00  0.64444574609E+03  0.64444574609E+03  0.00000000000E+00 0. -1.
         21   -1    0    0  501  502 -0.00000000000E+00 -0.00000000000E+00 -0.11371442402E+03  0.11371442402E+03  0.00000000000E+00 0. -1.
         25    1    1    2    0    0  0.63045956624E+02  0.38331033428E+01  0.20716928335E+03  0.25006718556E+03  0.12500000000E+03 0.  0.
         25    1    1    2    0    0  0.85438705023E+02 -0.71397530139E+02  0.22424332468E+03  0.27983468028E+03  0.12500000000E+03 0.  0.
         25    1    1    2    0    0 -0.14848466165E+03  0.67564426797E+02  0.99318714034E+02  0.22825830427E+03  0.12500000000E+03 0.  0.
</event>
<event>
 5    0  0.5503691E-005  0.3257505E+03  0.7546771E-02  0.1073033E+00
         21   -1    0    0  502  501  0.00000000000E+00  0.00000000000E+00  0.29338505535E+03  0.29338505535E+03  0.00000000000E+00 0. -1.
         21   -1    0    0  501  502 -0.00000000000E+00 -0.00000000000E+00 -0.36168642410E+03  0.36168642410E+03  0.00000000000E+00 0. -1.
         25    1    1    2    0    0  0.22454613012E+02 -0.29677258311E+02 -0.93966946197E+02  0.16074743010E+03  0.12500000000E+03 0.  0.
         25    1    1    2    0    0 -0.12396123095E+03  0.67648676133E+02  0.18532271860E+03  0.26440922864E+03  0.12500000000E+03 0.  0.
         25    1    1    2    0    0  0.10150661794E+03 -0.37971417822E+02 -0.15965714115E+03  0.22991482070E+03  0.12500000000E+03 0.  0.
</event>
<event>
 5    0  0.5503691E-005  0.2722011E+03  0.7546771E-02  0.1100026E+00
         21   -1    0    0  502  501  0.00000000000E+00  0.00000000000E+00  0.15925710848E+03  0.15925710848E+03  0.00000000000E+00 0. -1.
         21   -1    0    0  501  502 -0.00000000000E+00 -0.00000000000E+00 -0.46524425234E+03  0.46524425234E+03  0.00000000000E+00 0. -1.
         25    1    1    2    0    0  0.82205756456E+02  0.36831843580E+02 -0.16656499643E+03  0.22689924886E+03  0.12500000000E+03 0.  0.
         25    1    1    2    0    0 -0.17067721535E+03 -0.53667227654E+02 -0.84439604227E+02  0.23402121683E+03  0.12500000000E+03 0.  0.
         25    1    1    2    0    0  0.88471458898E+02  0.16835384073E+02 -0.54982543205E+02  0.16358089514E+03  0.12500000000E+03 0.  0.
</event>
<event>
 5    0  0.5503691E-005  0.3446802E+03  0.7546771E-02  0.1064820E+00
         21   -1    0    0  502  501  0.00000000000E+00  0.00000000000E+00  0.15718534556E+04  0.15718534556E+04  0.00000000000E+00 0.  1.
         21   -1    0    0  501  502 -0.00000000000E+00 -0.00000000000E+00 -0.75582393825E+02  0.75582393825E+02  0.00000000000E+00 0.  1.
         25    1    1    2    0    0 -0.69852562363E+02  0.13477614206E+03  0.10180761287E+03  0.22143572200E+03  0.12500000000E+03 0.  0.
         25    1    1    2    0    0  0.55500526628E+01 -0.69585343926E+02  0.64948295527E+03  0.66507595985E+03  0.12500000000E+03 0.  0.
         25    1    1    2    0    0  0.64302509700E+02 -0.65190798137E+02  0.74498049359E+03  0.76092416754E+03  0.12500000000E+03 0.  0.
</event>
<event>
 5    0  0.5503691E-005  0.3420053E+03  0.7546771E-02  0.1065945E+00
         21   -1    0    0  502  501  0.00000000000E+00  0.00000000000E+00  0.39741660790E+03  0.39741660790E+03  0.00000000000E+00 0.  1.
         21   -1    0    0  501  502 -0.00000000000E+00 -0.00000000000E+00 -0.29431996154E+03  0.29431996154E+03  0.00000000000E+00 0.  1.
         25    1    1    2    0    0 -0.20752550230E+03  0.12926572969E+03  0.89003251774E+02  0.28865730860E+03  0.12500000000E+03 0.  0.
         25    1    1    2    0    0  0.10256012768E+02 -0.55221266308E+02  0.66839589849E+02  0.15247001286E+03  0.12500000000E+03 0.  0.
         25    1    1    2    0    0  0.19726948954E+03 -0.74044463385E+02 -0.52746195267E+02  0.25060924798E+03  0.12500000000E+03 0.  0.
</event>
<event>
 5    0  0.5503691E-005  0.3232147E+03  0.7546771E-02  0.1074179E+00
         21   -1    0    0  502  501  0.00000000000E+00  0.00000000000E+00  0.12408141302E+03  0.12408141302E+03  0.00000000000E+00 0. -1.
         21   -1    0    0  501  502 -0.00000000000E+00 -0.00000000000E+00 -0.84192898336E+03  0.84192898336E+03  0.00000000000E+00 0. -1.
         25    1    1    2    0    0  0.63307633845E+02 -0.22383926527E+02 -0.14836652651E+03  0.20529618325E+03  0.12500000000E+03 0.  0.
         25    1    1    2    0    0 -0.21387488438E+03 -0.44090057208E+02 -0.14961738776E+03  0.29274009298E+03  0.12500000000E+03 0.  0.
         25    1    1    2    0    0  0.15056725054E+03  0.66473983735E+02 -0.41986365607E+03  0.46797412016E+03  0.12500000000E+03 0.  0.
</event>
<event>
 5    0  0.5503691E-005  0.3428970E+03  0.7546771E-02  0.1065569E+00
         21   -1    0    0  502  501  0.00000000000E+00  0.00000000000E+00  0.16024714593E+03  0.16024714593E+03  0.00000000000E+00 0. -1.
         21   -1    0    0  501  502 -0.00000000000E+00 -0.00000000000E+00 -0.73373147480E+03  0.73373147480E+03  0.00000000000E+00 0. -1.
         25    1    1    2    0    0 -0.11322327313E+03 -0.36843940025E+02 -0.21619624155E+02  0.17398101518E+03  0.12500000000E+03 0.  0.
         25    1    1    2    0    0 -0.44219681243E+02  0.13977328715E+03 -0.10526717289E+03  0.21954072446E+03  0.12500000000E+03 0.  0.
         25    1    1    2    0    0  0.15744295437E+03 -0.10292934713E+03 -0.44659753184E+03  0.50045688108E+03  0.12500000000E+03 0.  0.
</event>
<event>
 5    0  0.5503691E-005  0.2713332E+03  0.7546771E-02  0.1100519E+00
         21   -1    0    0  502  501  0.00000000000E+00  0.00000000000E+00  0.62442082773E+02  0.62442082773E+02  0.00000000000E+00 0.  1.
         21   -1    0    0  501  502 -0.00000000000E+00 -0.00000000000E+00 -0.11790394982E+04  0.11790394982E+04  0.00000000000E+00 0.  1.
         25    1    1    2    0    0  0.12891264821E+03  0.42276242805E+01 -0.34704246711E+03  0.39076824033E+03  0.12500000000E+03 0.  0.
         25    1    1    2    0    0 -0.25431859108E+02  0.73315044213E+02 -0.53663242244E+03  0.55643618860E+03  0.12500000000E+03 0.  0.
         25    1    1    2    0    0 -0.10348078910E+03 -0.77542668494E+02 -0.23292252585E+03  0.29427715202E+03  0.12500000000E+03 0.  0.
</event>
<event>
 5    0  0.5685538E-005  0.2843319E+03  0.7546771E-02  0.1093346E+00
         21   -1    0    0  502  501  0.00000000000E+00  0.00000000000E+00  0.99577885952E+03  0.99577885952E+03  0.00000000000E+00 0.  1.
         21   -1    0    0  501  502 -0.00000000000E+00 -0.00000000000E+00 -0.81187341320E+02  0.81187341320E+02  0.00000000000E+00 0.  1.
         25    1    1    2    0    0 -0.12464204254E+03 -0.10326077156E+03  0.60970129188E+03  0.64308560164E+03  0.12500000000E+03 0.  0.
         25    1    1    2    0    0  0.48976928452E+02  0.31700221543E+02  0.91466366514E+02  0.16551356370E+03  0.12500000000E+03 0.  0.
         25    1    1    2    0    0  0.75665114086E+02  0.71560550021E+02  0.21342385980E+03  0.26836703550E+03  0.12500000000E+03 0.  0.
</event>
<event>
 5    0  0.5503691E-005  0.3896619E+03  0.7546771E-02  0.1047419E+00
         21   -1    0    0  502  501  0.00000000000E+00  0.00000000000E+00  0.33346457318E+03  0.33346457318E+03  0.00000000000E+00 0. -1.
         21   -1    0    0  501  502 -0.00000000000E+00 -0.00000000000E+00 -0.45532996346E+03  0.45532996346E+03  0.00000000000E+00 0. -1.
         25    1    1    2    0    0 -0.13136171252E+03  0.17238571886E+03 -0.30051743371E+03  0.39103511805E+03  0.12500000000E+03 0.  0.
         25    1    1    2    0    0  0.27329301026E+02 -0.54695098234E+02  0.17333772917E+02  0.14022804338E+03  0.12500000000E+03 0.  0.
         25    1    1    2    0    0  0.10403241149E+03 -0.11769062063E+03  0.16131827051E+03  0.25753137522E+03  0.12500000000E+03 0.  0.
</event>
<event>
 5    0  0.5503691E-005  0.6364396E+03  0.7546771E-02  0.9832562E-01
         21   -1    0    0  502  501  0.00000000000E+00  0.00000000000E+00  0.20418074480E+03  0.20418074480E+03  0.00000000000E+00 0. -1.
         21   -1    0    0  501  502 -0.00000000000E+00 -0.00000000000E+00 -0.19838076421E+04  0.19838076421E+04  0.00000000000E+00 0. -1.
         25    1    1    2    0    0  0.42481385407E+01 -0.18060770335E+03 -0.37897793479E+03  0.43804847249E+03  0.12500000000E+03 0.  0.
         25    1    1    2    0    0  0.13069942093E+03 -0.64532343499E+02  0.10125730198E+03  0.21708248016E+03  0.12500000000E+03 0.  0.
         25    1    1    2    0    0 -0.13494755947E+03  0.24514004685E+03 -0.15019062645E+04  0.15328574343E+04  0.12500000000E+03 0.  0.
</event>
<event>
 5    0  0.5503691E-005  0.3319142E+03  0.7546771E-02  0.1070293E+00
         21   -1    0    0  502  501  0.00000000000E+00  0.00000000000E+00  0.38689195007E+02  0.38689195007E+02  0.00000000000E+00 0.  1.
         21   -1    0    0  501  502 -0.00000000000E+00 -0.00000000000E+00 -0.28474885331E+04  0.28474885331E+04  0.00000000000E+00 0.  1.
         25    1    1    2    0    0 -0.53296606180E+02 -0.17738628129E+03 -0.15056179865E+04  0.15221093727E+04  0.12500000000E+03 0.  0.
         25    1    1    2    0    0  0.10316783716E+03  0.19092070443E+03 -0.64043217318E+03  0.68765739031E+03  0.12500000000E+03 0.  0.
         25    1    1    2    0    0 -0.49871230983E+02 -0.13534423142E+02 -0.66274917837E+03  0.67641096510E+03  0.12500000000E+03 0.  0.
</event>
<event>
 5    0  0.5503691E-005  0.2814340E+03  0.7546771E-02  0.1094908E+00
         21   -1    0    0  502  501  0.00000000000E+00  0.00000000000E+00  0.31038485666E+02  0.31038485666E+02  0.00000000000E+00 0.  1.
         21   -1    0    0  501  502 -0.00000000000E+00 -0.00000000000E+00 -0.25518347781E+04  0.25518347781E+04  0.00000000000E+00 0.  1.
         25    1    1    2    0    0 -0.34709039406E+02 -0.51321967482E+02 -0.67369830765E+03  0.68799205772E+03  0.12500000000E+03 0.  0.
         25    1    1    2    0    0  0.15086753465E+02 -0.11536098014E+03 -0.12616818122E+04  0.12731856742E+04  0.12500000000E+03 0.  0.
         25    1    1    2    0    0  0.19622285941E+02  0.16668294762E+03 -0.58541617260E+03  0.62169553181E+03  0.12500000000E+03 0.  0.
</event>
<event>
 5    0  0.5503691E-005  0.3509464E+03  0.7546771E-02  0.1062227E+00
         21   -1    0    0  502  501  0.00000000000E+00  0.00000000000E+00  0.45318873739E+03  0.45318873739E+03  0.00000000000E+00 0.  1.
         21   -1    0    0  501  502 -0.00000000000E+00 -0.00000000000E+00 -0.27177063458E+03  0.27177063458E+03  0.00000000000E+00 0.  1.
         25    1    1    2    0    0 -0.20374732663E+02  0.74248058851E+01 -0.42827481907E+02  0.13390089873E+03  0.12500000000E+03 0.  0.
         25    1    1    2    0    0  0.37337934928E+01 -0.23851382233E+03  0.18047015026E+03  0.32418707530E+03  0.12500000000E+03 0.  0.
         25    1    1    2    0    0  0.16640939171E+02  0.23108901645E+03  0.43775434450E+02  0.26687139794E+03  0.12500000000E+03 0.  0.
</event>
<event>
 5    0  0.5503691E-005  0.3892071E+03  0.7546771E-02  0.1047582E+00
         21   -1    0    0  502  501  0.00000000000E+00  0.00000000000E+00  0.91391638710E+02  0.91391638710E+02  0.00000000000E+00 0. -1.
         21   -1    0    0  501  502 -0.00000000000E+00 -0.00000000000E+00 -0.16575060329E+04  0.16575060329E+04  0.00000000000E+00 0. -1.
         25    1    1    2    0    0 -0.15858370836E+03 -0.16300610189E+03 -0.38056236226E+03  0.46062185508E+03  0.12500000000E+03 0.  0.
         25    1    1    2    0    0  0.21017429988E+03  0.19098556472E+03 -0.49617344227E+03  0.58520236421E+03  0.12500000000E+03 0.  0.
         25    1    1    2    0    0 -0.51590591518E+02 -0.27979462831E+02 -0.68937858967E+03  0.70307345233E+03  0.12500000000E+03 0.  0.
</event>
<event>
 5    0  0.5503691E-005  0.2981979E+03  0.7546771E-02  0.1086145E+00
         21   -1    0    0  502  501  0.00000000000E+00  0.00000000000E+00  0.51772536350E+03  0.51772536350E+03  0.00000000000E+00 0. -1.
         21   -1    0    0  501  502 -0.00000000000E+00 -0.00000000000E+00 -0.17175514170E+03  0.17175514170E+03  0.00000000000E+00 0. -1.
         25    1    1    2    0    0  0.54536867354E+02  0.11992395759E+03  0.82007377037E+02  0.19926423511E+03  0.12500000000E+03 0.  0.
         25    1    1    2    0    0 -0.16717365959E+03 -0.96981757043E+01  0.10514932741E+03  0.23392833973E+03  0.12500000000E+03 0.  0.
         25    1    1    2    0    0  0.11263679224E+03 -0.11022578188E+03  0.15881351735E+03  0.25628793036E+03  0.12500000000E+03 0.  0.
</event>
<event>
 5    0  0.5503691E-005  0.4384227E+03  0.7546771E-02  0.1031232E+00
         21   -1    0    0  502  501  0.00000000000E+00  0.00000000000E+00  0.90892734427E+03  0.90892734427E+03  0.00000000000E+00 0.  1.
         21   -1    0    0  501  502 -0.00000000000E+00 -0.00000000000E+00 -0.21147396399E+03  0.21147396399E+03  0.00000000000E+00 0.  1.
         25    1    1    2    0    0  0.27813916367E+03  0.71412521064E+02  0.37206424096E+03  0.48633110320E+03  0.12500000000E+03 0.  0.
         25    1    1    2    0    0 -0.29658953126E+03 -0.24567951877E+02  0.37103261234E+03  0.49179175850E+03  0.12500000000E+03 0.  0.
         25    1    1    2    0    0  0.18450367586E+02 -0.46844569186E+02 -0.45643473030E+02  0.14227844656E+03  0.12500000000E+03 0.  0.
</event>
<event>
 5    0  0.5503691E-005  0.2547076E+03  0.7546771E-02  0.1110365E+00
         21   -1    0    0  502  501  0.00000000000E+00  0.00000000000E+00  0.44963537352E+03  0.44963537352E+03  0.00000000000E+00 0.  1.
         21   -1    0    0  501  502 -0.00000000000E+00 -0.00000000000E+00 -0.14428569749E+03  0.14428569749E+03  0.00000000000E+00 0.  1.
         25    1    1    2    0    0 -0.90022173172E+02  0.53442381328E+02  0.18668286590E+03  0.24786200234E+03  0.12500000000E+03 0.  0.
         25    1    1    2    0    0  0.52623558536E+02  0.57841836438E+02  0.21634800356E+02  0.14902342615E+03  0.12500000000E+03 0.  0.
         25    1    1    2    0    0  0.37398614635E+02 -0.11128421777E+03  0.97032009776E+02  0.19703564252E+03  0.12500000000E+03 0.  0.
</event>
<event>
 5    0  0.5503691E-005  0.2781115E+03  0.7546771E-02  0.1096725E+00
         21   -1    0    0  502  501  0.00000000000E+00  0.00000000000E+00  0.98359591232E+03  0.98359591232E+03  0.00000000000E+00 0. -1.
         21   -1    0    0  501  502 -0.00000000000E+00 -0.00000000000E+00 -0.78635948496E+02  0.78635948496E+02  0.00000000000E+00 0. -1.
         25    1    1    2    0    0 -0.30745485357E+02  0.11934326422E+03  0.48636544082E+03  0.51707295579E+03  0.12500000000E+03 0.  0.
         25    1    1    2    0    0 -0.57390323855E+02 -0.12977034771E+03  0.17689552463E+03  0.25894211525E+03  0.12500000000E+03 0.  0.
         25    1    1    2    0    0  0.88135809212E+02  0.10427083491E+02  0.24169899837E+03  0.28621678977E+03  0.12500000000E+03 0.  0.
</event>
<event>
 5    0  0.5503691E-005  0.3247779E+03  0.7546771E-02  0.1073471E+00
         21   -1    0    0  502  501  0.00000000000E+00  0.00000000000E+00  0.71349869689E+02  0.71349869689E+02  0.00000000000E+00 0. -1.
         21   -1    0    0  501  502 -0.00000000000E+00 -0.00000000000E+00 -0.14783587214E+04  0.14783587214E+04  0.00000000000E+00 0. -1.
         25    1    1    2    0    0  0.35956616555E+02 -0.84481432215E+02 -0.32628117789E+03  0.36126776456E+03  0.12500000000E+03 0.  0.
         25    1    1    2    0    0  0.46489364196E+02  0.20675475041E+03 -0.86246975549E+03  0.89687672896E+03  0.12500000000E+03 0.  0.
         25    1    1    2    0    0 -0.82445980751E+02 -0.12227331820E+03 -0.21825791835E+03  0.29156409759E+03  0.12500000000E+03 0.  0.
</event>
<event>
 5    0  0.5503691E-005  0.3958594E+03  0.7546771E-02  0.1045223E+00
         21   -1    0    0  502  501  0.00000000000E+00  0.00000000000E+00  0.14161191659E+03  0.14161191659E+03  0.00000000000E+00 0.  1.
         21   -1    0    0  501  502 -0.00000000000E+00 -0.00000000000E+00 -0.11065781823E+04  0.11065781823E+04  0.00000000000E+00 0.  1.
         25    1    1    2    0    0  0.17667791116E+02  0.77958748472E+02 -0.13081468603E+03  0.19780596399E+03  0.12500000000E+03 0.  0.
         25    1    1    2    0    0 -0.20196089708E+03  0.16247830993E+03 -0.25287612010E+03  0.38309103000E+03  0.12500000000E+03 0.  0.
         25    1    1    2    0    0  0.18429310597E+03 -0.24043705840E+03 -0.58127545961E+03  0.66729310495E+03  0.12500000000E+03 0.  0.
</event>
<event>
 5    0  0.5503691E-005  0.2392425E+03  0.7546771E-02  0.1120298E+00
         21   -1    0    0  502  501  0.00000000000E+00  0.00000000000E+00  0.48333230095E+02  0.48333230095E+02  0.00000000000E+00 0.  1.
         21   -1    0    0  501  502 -0.00000000000E+00 -0.00000000000E+00 -0.11842161630E+04  0.11842161630E+04  0.00000000000E+00 0.  1.
         25    1    1    2    0    0 -0.92047590585E+02 -0.24321647649E+02 -0.19172271630E+03  0.24788485517E+03  0.12500000000E+03 0.  0.
         25    1    1    2    0    0  0.23188929040E+02 -0.13038508784E+02 -0.52398491510E+03  0.53934489929E+03  0.12500000000E+03 0.  0.
         25    1    1    2    0    0  0.68858661545E+02  0.37360156433E+02 -0.42017530154E+03  0.44531963867E+03  0.12500000000E+03 0.  0.
</event>
<event>
 5    0  0.5503691E-005  0.2346653E+03  0.7546771E-02  0.1123399E+00
         21   -1    0    0  502  501  0.00000000000E+00  0.00000000000E+00  0.34360079593E+03  0.34360079593E+03  0.00000000000E+00 0. -1.
         21   -1    0    0  501  502 -0.00000000000E+00 -0.00000000000E+00 -0.16026679292E+03  0.16026679292E+03  0.00000000000E+00 0. -1.
         25    1    1    2    0    0 -0.23583388083E+02  0.69420754287E+02  0.15311474341E+02  0.14572185343E+03  0.12500000000E+03 0.  0.
         25    1    1    2    0    0  0.37859634102E+02  0.40524567047E+02  0.12579507129E+03  0.18580902128E+03  0.12500000000E+03 0.  0.
         25    1    1    2    0    0 -0.14276246019E+02 -0.10994532133E+03  0.42227457380E+02  0.17233671414E+03  0.12500000000E+03 0.  0.
</event>
<event>
 5    0  0.5503691E-005  0.2810881E+03  0.7546771E-02  0.1095096E+00
         21   -1    0    0  502  501  0.00000000000E+00  0.00000000000E+00  0.30953713011E+03  0.30953713011E+03  0.00000000000E+00 0. -1.
         21   -1    0    0  501  502 -0.00000000000E+00 -0.00000000000E+00 -0.25525376977E+03  0.25525376977E+03  0.00000000000E+00 0. -1.
         25    1    1    2    0    0 -0.83509287874E+02 -0.10977296685E+03 -0.81052494093E+00  0.18614392916E+03  0.12500000000E+03 0.  0.
         25    1    1    2    0    0  0.13399439536E+03 -0.17639378571E+02  0.58366605557E+02  0.19312510533E+03  0.12500000000E+03 0.  0.
         25    1    1    2    0    0 -0.50485107486E+02  0.12741234542E+03 -0.32727202753E+01  0.18552186540E+03  0.12500000000E+03 0.  0.
</event>
<event>
 5    0  0.5503691E-005  0.4765861E+03  0.7546771E-02  0.1020078E+00
         21   -1    0    0  502  501  0.00000000000E+00  0.00000000000E+00  0.12597178189E+04  0.12597178189E+04  0.00000000000E+00 0.  1.
         21   -1    0    0  501  502 -0.00000000000E+00 -0.00000000000E+00 -0.18030567043E+03  0.18030567043E+03  0.00000000000E+00 0.  1.
         25    1    1    2    0    0 -0.17170324440E+03 -0.34972960435E+03  0.34282357885E+03  0.53380315334E+03  0.12500000000E+03 0.  0.
         25    1    1    2    0    0  0.66060948286E+02  0.26237691225E+03  0.26262525721E+03  0.39724390328E+03  0.12500000000E+03 0.  0.
         25    1    1    2    0    0  0.10564229611E+03  0.87352692105E+02  0.47396331238E+03  0.50897643269E+03  0.12500000000E+03 0.  0.
</event>
<event>
 5    0  0.5503691E-005  0.2737567E+03  0.7546771E-02  0.1099149E+00
         21   -1    0    0  502  501  0.00000000000E+00  0.00000000000E+00  0.76052362559E+03  0.76052362559E+03  0.00000000000E+00 0. -1.
         21   -1    0    0  501  502 -0.00000000000E+00 -0.00000000000E+00 -0.98540928275E+02  0.98540928275E+02  0.00000000000E+00 0. -1.
         25    1    1    2    0    0 -0.14916164413E+03 -0.99111902803E+02  0.26302063222E+03  0.34187310267E+03  0.12500000000E+03 0.  0.
         25    1    1    2    0    0  0.45904404561E+02  0.90138733223E+02  0.14966686096E+03  0.21967561279E+03  0.12500000000E+03 0.  0.
         25    1    1    2    0    0  0.10325723957E+03  0.89731695808E+01  0.24929520414E+03  0.29751583841E+03  0.12500000000E+03 0.  0.
</event>
<event>
 5    0  0.5503691E-005  0.2956644E+03  0.7546771E-02  0.1087428E+00
         21   -1    0    0  502  501  0.00000000000E+00  0.00000000000E+00  0.84215150187E+02  0.84215150187E+02  0.00000000000E+00 0.  1.
         21   -1    0    0  501  502 -0.00000000000E+00 -0.00000000000E+00 -0.10380248082E+04  0.10380248082E+04  0.00000000000E+00 0.  1.
         25    1    1    2    0    0 -0.65175729247E+02 -0.11779964628E+03 -0.73325159930E+03  0.75591503505E+03  0.12500000000E+03 0.  0.
         25    1    1    2    0    0  0.54624995668E+02  0.55422746194E+02 -0.78730124807E+02  0.16697006768E+03  0.12500000000E+03 0.  0.
         25    1    1    2    0    0  0.10550733579E+02  0.62376900088E+02 -0.14182793396E+03  0.19935485571E+03  0.12500000000E+03 0.  0.
</event>
<event>
 5    0  0.5503691E-005  0.3360590E+03  0.7546771E-02  0.1068487E+00
         21   -1    0    0  502  501  0.00000000000E+00  0.00000000000E+00  0.25272899723E+03  0.25272899723E+03  0.00000000000E+00 0. -1.
         21   -1    0    0  501  502 -0.00000000000E+00 -0.00000000000E+00 -0.44686470653E+03  0.44686470653E+03  0.00000000000E+00 0. -1.
         25    1    1    2    0    0  0.10513592294E+03  0.18683736085E+03 -0.90250355146E+02  0.26406796153E+03  0.12500000000E+03 0.  0.
         25    1    1    2    0    0 -0.98961617975E+02 -0.15220945277E+03  0.58066815904E+02  0.22794269994E+03  0.12500000000E+03 0.  0.
         25    1    1    2    0    0 -0.61743049650E+01 -0.34627908078E+02 -0.16195217006E+03  0.20758304229E+03  0.12500000000E+03 0.  0.
</event>
<event>
 5    0  0.5503691E-005  0.3075902E+03  0.7546771E-02  0.1081507E+00
         21   -1    0    0  502  501  0.00000000000E+00  0.00000000000E+00  0.10883869214E+03  0.10883869214E+03  0.00000000000E+00 0.  1.
         21   -1    0    0  501  502 -0.00000000000E+00 -0.00000000000E+00 -0.86928386254E+03  0.86928386254E+03  0.00000000000E+00 0.  1.
         25    1    1    2    0    0 -0.88904458209E+01 -0.10640281078E+03 -0.20880823507E+03  0.26575642458E+03  0.12500000000E+03 0.  0.
         25    1    1    2    0    0  0.63506341565E+02 -0.11590795725E+03 -0.29414619006E+03  0.34585356887E+03  0.12500000000E+03 0.  0.
         25    1    1    2    0    0 -0.54615895744E+02  0.22231076803E+03 -0.25749074526E+03  0.36651256124E+03  0.12500000000E+03 0.  0.
</event>
<event>
 5    0  0.5503691E-005  0.2142272E+03  0.7546771E-02  0.1138262E+00
         21   -1    0    0  502  501  0.00000000000E+00  0.00000000000E+00  0.71111341897E+03  0.71111341897E+03  0.00000000000E+00 0. -1.
         21   -1    0    0  501  502 -0.00000000000E+00 -0.00000000000E+00 -0.64537221615E+02  0.64537221615E+02  0.00000000000E+00 0. -1.
         25    1    1    2    0    0 -0.13086082200E+02 -0.78648499447E+02  0.25092158702E+03  0.29145063878E+03  0.12500000000E+03 0.  0.
         25    1    1    2    0    0 -0.13502839496E+02  0.67557030064E+02  0.14990169033E+03  0.20698259770E+03  0.12500000000E+03 0.  0.
         25    1    1    2    0    0  0.26588921696E+02  0.11091469382E+02  0.24575292000E+03  0.27721740410E+03  0.12500000000E+03 0.  0.
</event>
<event>
 5    0  0.5503691E-005  0.4007446E+03  0.7546771E-02  0.1043522E+00
         21   -1    0    0  502  501  0.00000000000E+00  0.00000000000E+00  0.40642181282E+03  0.40642181282E+03  0.00000000000E+00 0. -1.
         21   -1    0    0  501  502 -0.00000000000E+00 -0.00000000000E+00 -0.39514672988E+03  0.39514672988E+03  0.00000000000E+00 0. -1.
         25    1    1    2    0    0  0.17200198194E+03  0.51016070796E+02 -0.48945102521E+01  0.21871506007E+03  0.12500000000E+03 0.  0.
         25    1    1    2    0    0  0.82888006315E+02  0.57890011202E+02  0.17680216074E+03  0.23896794561E+03  0.12500000000E+03 0.  0.
         25    1    1    2    0    0 -0.25488998826E+03 -0.10890608200E+03 -0.16063256755E+03  0.34388553702E+03  0.12500000000E+03 0.  0.
</event>
<event>
 5    0  0.5503691E-005  0.6219387E+03  0.7546771E-02  0.9860907E-01
         21   -1    0    0  502  501  0.00000000000E+00  0.00000000000E+00  0.10158238807E+04  0.10158238807E+04  0.00000000000E+00 0.  1.
         21   -1    0    0  501  502 -0.00000000000E+00 -0.00000000000E+00 -0.38078235262E+03  0.38078235262E+03  0.00000000000E+00 0.  1.
         25    1    1    2    0    0 -0.25217095230E+03 -0.17170800208E+03 -0.36902939575E+02  0.33175390594E+03  0.12500000000E+03 0.  0.
         25    1    1    2    0    0  0.23626005269E+03  0.21416436463E+03  0.80617258685E+03  0.87591348167E+03  0.12500000000E+03 0.  0.
         25    1    1    2    0    0  0.15910899605E+02 -0.42456362554E+02 -0.13422811918E+03  0.18893884573E+03  0.12500000000E+03 0.  0.
</event>
<event>
 5    0  0.5503691E-005  0.2749566E+03  0.7546771E-02  0.1098476E+00
         21   -1    0    0  502  501  0.00000000000E+00  0.00000000000E+00  0.10426703567E+03  0.10426703567E+03  0.00000000000E+00 0.  1.
         21   -1    0    0  501  502 -0.00000000000E+00 -0.00000000000E+00 -0.72507199851E+03  0.72507199851E+03  0.00000000000E+00 0.  1.
         25    1    1    2    0    0  0.37896027324E+02 -0.15197397368E+03 -0.26934181200E+03  0.33571149705E+03  0.12500000000E+03 0.  0.
         25    1    1    2    0    0  0.61208026012E+02  0.49736608919E+02 -0.98668170174E+02  0.17770920213E+03  0.12500000000E+03 0.  0.
         25    1    1    2    0    0 -0.99104053336E+02  0.10223736476E+03 -0.25279498067E+03  0.31591833501E+03  0.12500000000E+03 0.  0.
</event>
<event>
 5    0  0.5503691E-005  0.3386087E+03  0.7546771E-02  0.1067390E+00
         21   -1    0    0  502  501  0.00000000000E+00  0.00000000000E+00  0.10303619723E+03  0.10303619723E+03  0.00000000000E+00 0.  1.
         21   -1    0    0  501  502 -0.00000000000E+00 -0.00000000000E+00 -0.11127722716E+04  0.11127722716E+04  0.00000000000E+00 0.  1.
         25    1    1    2    0    0  0.48877818958E+02 -0.19896315072E+03 -0.39033778587E+03  0.45821824888E+03  0.12500000000E+03 0.  0.
         25    1    1    2    0    0  0.73915699894E+02 -0.25894316139E+02 -0.16649448898E+03  0.22243979221E+03  0.12500000000E+03 0.  0.
         25    1    1    2    0    0 -0.12279351885E+03  0.22485746686E+03 -0.45290379948E+03  0.53515042769E+03  0.12500000000E+03 0.  0.
</event>
<event>
 5    0  0.5503691E-005  0.2754198E+03  0.7546771E-02  0.1098217E+00
         21   -1    0    0  502  501  0.00000000000E+00  0.00000000000E+00  0.46645436338E+02  0.46645436338E+02  0.00000000000E+00 0.  1.
         21   -1    0    0  501  502 -0.00000000000E+00 -0.00000000000E+00 -0.16262274934E+04  0.16262274934E+04  0.00000000000E+00 0.  1.
         25    1    1    2    0    0  0.52749338331E+02  0.13887867583E+03 -0.31849814204E+03  0.37300917653E+03  0.12500000000E+03 0.  0.
         25    1    1    2    0    0 -0.85291920804E+02 -0.68096478356E+02 -0.59634698457E+03  0.61900449766E+03  0.12500000000E+03 0.  0.
         25    1    1    2    0    0  0.32542582473E+02 -0.70782197472E+02 -0.66473693043E+03  0.68085925553E+03  0.12500000000E+03 0.  0.
</event>
<event>
 5    0  0.5503691E-005  0.2823490E+03  0.7546771E-02  0.1094413E+00
         21   -1    0    0  502  501  0.00000000000E+00  0.00000000000E+00  0.19884775137E+04  0.19884775137E+04  0.00000000000E+00 0.  1.
         21   -1    0    0  501  502 -0.00000000000E+00 -0.00000000000E+00 -0.40091464699E+02  0.40091464699E+02  0.00000000000E+00 0.  1.
         25    1    1    2    0    0 -0.82695951101E+02 -0.39602200876E+02  0.53614169640E+03  0.55810381943E+03  0.12500000000E+03 0.  0.
         25    1    1    2    0    0  0.85034107892E+02  0.92151144564E+02  0.28799830351E+03  0.33806901037E+03  0.12500000000E+03 0.  0.
         25    1    1    2    0    0 -0.23381567904E+01 -0.52548943688E+02  0.11242460491E+04  0.11323961486E+04  0.12500000000E+03 0.  0.
</event>
<event>
 5    0  0.5503691E-005  0.5126424E+03  0.7546771E-02  0.1010531E+00
         21   -1    0    0  502  501  0.00000000000E+00  0.00000000000E+00  0.65916961892E+03  0.65916961892E+03  0.00000000000E+00 0.  1.
         21   -1    0    0  501  502 -0.00000000000E+00 -0.00000000000E+00 -0.39868684963E+03  0.39868684963E+03  0.00000000000E+00 0.  1.
         25    1    1    2    0    0 -0.33076597996E+03  0.85727124679E+02  0.44098897447E+03  0.57170932213E+03  0.12500000000E+03 0.  0.
         25    1    1    2    0    0  0.10461306370E+03 -0.34622861644E+02  0.33962013408E+00  0.16663658358E+03  0.12500000000E+03 0.  0.
         25    1    1    2    0    0  0.22615291626E+03 -0.51104263035E+02 -0.18084582531E+03  0.31951056284E+03  0.12500000000E+03 0.  0.
</event>
<event>
 5    0  0.5503691E-005  0.5579340E+03  0.7546771E-02  0.9996740E-01
         21   -1    0    0  502  501  0.00000000000E+00  0.00000000000E+00  0.10828830786E+04  0.10828830786E+04  0.00000000000E+00 0.  1.
         21   -1    0    0  501  502 -0.00000000000E+00 -0.00000000000E+00 -0.28746438521E+03  0.28746438521E+03  0.00000000000E+00 0.  1.
         25    1    1    2    0    0 -0.19809861344E+03 -0.28403923849E+03  0.10512689648E+03  0.38288120091E+03  0.12500000000E+03 0.  0.
         25    1    1    2    0    0  0.32280575327E+02  0.39234285225E+03  0.61620147753E+03  0.74182491881E+03  0.12500000000E+03 0.  0.
         25    1    1    2    0    0  0.16581803812E+03 -0.10830361376E+03  0.74090319432E+02  0.24564134414E+03  0.12500000000E+03 0.  0.
</event>
<event>
 5    0  0.5503691E-005  0.2903106E+03  0.7546771E-02  0.1090187E+00
         21   -1    0    0  502  501  0.00000000000E+00  0.00000000000E+00  0.72273955067E+02  0.72273955067E+02  0.00000000000E+00 0. -1.
         21   -1    0    0  501  502 -0.00000000000E+00 -0.00000000000E+00 -0.11661217023E+04  0.11661217023E+04  0.00000000000E+00 0. -1.
         25    1    1    2    0    0  0.14644293031E+03  0.77815887099E+02 -0.39637888063E+03  0.44748414623E+03  0.12500000000E+03 0.  0.
         25    1    1    2    0    0 -0.16248316774E+03  0.29818217307E+02 -0.38172147340E+03  0.43431116626E+03  0.12500000000E+03 0.  0.
         25    1    1    2    0    0  0.16040237435E+02 -0.10763410441E+03 -0.31574739320E+03  0.35660034487E+03  0.12500000000E+03 0.  0.
</event>
<event>
 5    0  0.5503691E-005  0.2510330E+03  0.7546771E-02  0.1112654E+00
         21   -1    0    0  502  501  0.00000000000E+00  0.00000000000E+00  0.31969696981E+02  0.31969696981E+02  0.00000000000E+00 0. -1.
         21   -1    0    0  501  502 -0.00000000000E+00 -0.00000000000E+00 -0.19711658383E+04  0.19711658383E+04  0.00000000000E+00 0. -1.
         25    1    1    2    0    0  0.78220811191E+02  0.46494776627E+01 -0.77791382200E+03  0.79177965837E+03  0.12500000000E+03 0.  0.
         25    1    1    2    0    0 -0.48375843048E+02 -0.48437972061E+02 -0.94712940959E+03  0.95779203267E+03  0.12500000000E+03 0.  0.
         25    1    1    2    0    0 -0.29844968143E+02  0.43788494398E+02 -0.21415290975E+03  0.25356384426E+03  0.12500000000E+03 0.  0.
</event>
<event>
 5    0  0.5503691E-005  0.2489320E+03  0.7546771E-02  0.1113982E+00
         21   -1    0    0  502  501  0.00000000000E+00  0.00000000000E+00  0.21283770448E+03  0.21283770448E+03  0.00000000000E+00 0.  1.
         21   -1    0    0  501  502 -0.00000000000E+00 -0.00000000000E+00 -0.29114748853E+03  0.29114748853E+03  0.00000000000E+00 0.  1.
         25    1    1    2    0    0 -0.49643856723E+02  0.29578227183E+02  0.46095572552E+02  0.14522116183E+03  0.12500000000E+03 0.  0.
         25    1    1    2    0    0  0.11441854180E+02 -0.41296841591E+02  0.49318358563E+02  0.14104483558E+03  0.12500000000E+03 0.  0.
         25    1    1    2    0    0  0.38202002543E+02  0.11718614408E+02 -0.17372371517E+03  0.21771919560E+03  0.12500000000E+03 0.  0.
</event>
<event>
 5    0  0.5503691E-005  0.3356896E+03  0.7546771E-02  0.1068647E+00
         21   -1    0    0  502  501  0.00000000000E+00  0.00000000000E+00  0.35191070745E+03  0.35191070745E+03  0.00000000000E+00 0.  1.
         21   -1    0    0  501  502 -0.00000000000E+00 -0.00000000000E+00 -0.32021610594E+03  0.32021610594E+03  0.00000000000E+00 0.  1.
         25    1    1    2    0    0 -0.14332627244E+03  0.10267360724E+02  0.12837844527E+03  0.22968209394E+03  0.12500000000E+03 0.  0.
         25    1    1    2    0    0 -0.92078668897E+02 -0.33447996778E+02 -0.70063622938E+02  0.17358329705E+03  0.12500000000E+03 0.  0.
         25    1    1    2    0    0  0.23540494134E+03  0.23180636054E+02 -0.26620220823E+02  0.26886142239E+03  0.12500000000E+03 0.  0.
</event>
<event>
 5    0  0.5503691E-005  0.2891623E+03  0.7546771E-02  0.1090787E+00
         21   -1    0    0  502  501  0.00000000000E+00  0.00000000000E+00  0.37603940322E+03  0.37603940322E+03  0.00000000000E+00 0. -1.
         21   -1    0    0  501  502 -0.00000000000E+00 -0.00000000000E+00 -0.22235655981E+03  0.22235655981E+03  0.00000000000E+00 0. -1.
         25    1    1    2    0    0 -0.59827711301E+02 -0.13363094007E+03 -0.34596416550E+02  0.19559778941E+03  0.12500000000E+03 0.  0.
         25    1    1    2    0    0  0.27143082184E+02  0.42439662340E+02  0.20333256746E+03  0.24394057645E+03  0.12500000000E+03 0.  0.
         25    1    1    2    0    0  0.32684629117E+02  0.91191277727E+02 -0.15053307503E+02  0.15885759718E+03  0.12500000000E+03 0.  0.
</event>
<event>
 5    0  0.5503691E-005  0.2384137E+03  0.7546771E-02  0.1120854E+00
         21   -1    0    0  502  501  0.00000000000E+00  0.00000000000E+00  0.13042897217E+03  0.13042897217E+03  0.00000000000E+00 0. -1.
         21   -1    0    0  501  502 -0.00000000000E+00 -0.00000000000E+00 -0.43580102839E+03  0.43580102839E+03  0.00000000000E+00 0. -1.
         25    1    1    2    0    0 -0.11390244285E+03 -0.50375942833E+01 -0.60980411372E+02  0.17984091419E+03  0.12500000000E+03 0.  0.
         25    1    1    2    0    0  0.95829833553E+02  0.21670419494E+02 -0.19033864608E+03  0.24800557307E+03  0.12500000000E+03 0.  0.
         25    1    1    2    0    0  0.18072609299E+02 -0.16632825211E+02 -0.54052998760E+02  0.13838351331E+03  0.12500000000E+03 0.  0.
</event>
<event>
 5    0  0.5503691E-005  0.2390068E+03  0.7546771E-02  0.1120456E+00
         21   -1    0    0  502  501  0.00000000000E+00  0.00000000000E+00  0.37483813632E+03  0.37483813632E+03  0.00000000000E+00 0.  1.
         21   -1    0    0  501  502 -0.00000000000E+00 -0.00000000000E+00 -0.15239710723E+03  0.15239710723E+03  0.00000000000E+00 0.  1.
         25    1    1    2    0    0  0.30117930786E+02 -0.20779822050E+02  0.11168154054E+03  0.17157114342E+03  0.12500000000E+03 0.  0.
         25    1    1    2    0    0 -0.37458322794E+02 -0.26029262193E+02  0.16450708354E+03  0.21158503957E+03  0.12500000000E+03 0.  0.
         25    1    1    2    0    0  0.73403920083E+01  0.46809084243E+02 -0.53747594990E+02  0.14407906055E+03  0.12500000000E+03 0.  0.
</event>
<event>
 5    0  0.5503691E-005  0.2499369E+03  0.7546771E-02  0.1113345E+00
         21   -1    0    0  502  501  0.00000000000E+00  0.00000000000E+00  0.44621180214E+03  0.44621180214E+03  0.00000000000E+00 0. -1.
         21   -1    0    0  501  502 -0.00000000000E+00 -0.00000000000E+00 -0.13999733278E+03  0.13999733278E+03  0.00000000000E+00 0. -1.
         25    1    1    2    0    0  0.17831623195E+02 -0.43493717263E+02 -0.38310973366E+02  0.13893308068E+03  0.12500000000E+03 0.  0.
         25    1    1    2    0    0  0.10775904142E+02  0.25068510341E+02  0.26759096364E+03  0.29660491254E+03  0.12500000000E+03 0.  0.
         25    1    1    2    0    0 -0.28607527337E+02  0.18425206922E+02  0.76934479079E+02  0.15067114170E+03  0.12500000000E+03 0.  0.
</event>
<event>
 5    0  0.5503691E-005  0.2463833E+03  0.7546771E-02  0.1115612E+00
         21   -1    0    0  502  501  0.00000000000E+00  0.00000000000E+00  0.49173529865E+03  0.49173529865E+03  0.00000000000E+00 0. -1.
         21   -1    0    0  501  502 -0.00000000000E+00 -0.00000000000E+00 -0.12344997791E+03  0.12344997791E+03  0.00000000000E+00 0. -1.
         25    1    1    2    0    0 -0.25221443251E+02 -0.57046626702E+02  0.18040419342E+02  0.14085771384E+03  0.12500000000E+03 0.  0.
         25    1    1    2    0    0  0.32449549178E+02 -0.65336556080E+02  0.15425807230E+03  0.21152397423E+03  0.12500000000E+03 0.  0.
         25    1    1    2    0    0 -0.72281059270E+01  0.12238318278E+03  0.19598682910E+03  0.26280358849E+03  0.12500000000E+03 0.  0.
</event>
<event>
 5    0  0.5503691E-005  0.2213810E+03  0.7546771E-02  0.1132858E+00
         21   -1    0    0  502  501  0.00000000000E+00  0.00000000000E+00  0.59194572325E+02  0.59194572325E+02  0.00000000000E+00 0.  1.
         21   -1    0    0  501  502 -0.00000000000E+00 -0.00000000000E+00 -0.82793971071E+03  0.82793971071E+03  0.00000000000E+00 0.  1.
         25    1    1    2    0    0 -0.77910421478E+01 -0.71134372588E+02 -0.18382646097E+03  0.23353365293E+03  0.12500000000E+03 0.  0.
         25    1    1    2    0    0 -0.26470324543E+02  0.52728322274E+02 -0.17334015040E+03  0.22170422141E+03  0.12500000000E+03 0.  0.
         25    1    1    2    0    0  0.34261366691E+02  0.18406050313E+02 -0.41157852703E+03  0.43189640870E+03  0.12500000000E+03 0.  0.
</event>
<event>
 5    0  0.5503691E-005  0.3993628E+03  0.7546771E-02  0.1044001E+00
         21   -1    0    0  502  501  0.00000000000E+00  0.00000000000E+00  0.10263461139E+04  0.10263461139E+04  0.00000000000E+00 0.  1.
         21   -1    0    0  501  502 -0.00000000000E+00 -0.00000000000E+00 -0.15539653611E+03  0.15539653611E+03  0.00000000000E+00 0.  1.
         25    1    1    2    0    0 -0.18947865991E+03  0.19114822123E+03  0.19942115975E+03  0.35753825529E+03  0.12500000000E+03 0.  0.
         25    1    1    2    0    0 -0.46252299270E+02 -0.76902510655E+01  0.98114734785E+02  0.16568016276E+03  0.12500000000E+03 0.  0.
         25    1    1    2    0    0  0.23573095918E+03 -0.18345797017E+03  0.57341368323E+03  0.65852423194E+03  0.12500000000E+03 0.  0.
</event>
<event>
 5    0  0.5503691E-005  0.4411976E+03  0.7546771E-02  0.1030380E+00
         21   -1    0    0  502  501  0.00000000000E+00  0.00000000000E+00  0.56748388181E+03  0.56748388181E+03  0.00000000000E+00 0.  1.
         21   -1    0    0  501  502 -0.00000000000E+00 -0.00000000000E+00 -0.34301472440E+03  0.34301472440E+03  0.00000000000E+00 0.  1.
         25    1    1    2    0    0  0.17156494039E+03  0.65692207731E+02 -0.24764128150E+03  0.33271789737E+03  0.12500000000E+03 0.  0.
         25    1    1    2    0    0 -0.54675350831E+02 -0.83437284762E+02  0.20405361282E+03  0.25925672871E+03  0.12500000000E+03 0.  0.
         25    1    1    2    0    0 -0.11688958956E+03  0.17745077031E+02  0.26805682609E+03  0.31852398013E+03  0.12500000000E+03 0.  0.
</event>
<event>
 5    0  0.5503691E-005  0.2122366E+03  0.7546771E-02  0.1139807E+00
         21   -1    0    0  502  501  0.00000000000E+00  0.00000000000E+00  0.13085130677E+03  0.13085130677E+03  0.00000000000E+00 0. -1.
         21   -1    0    0  501  502 -0.00000000000E+00 -0.00000000000E+00 -0.34424085712E+03  0.34424085712E+03  0.00000000000E+00 0. -1.
         25    1    1    2    0    0 -0.45774118272E+02 -0.35502956406E+02 -0.79385488186E+02  0.15900561484E+03  0.12500000000E+03 0.  0.
         25    1    1    2    0    0  0.76140828999E+02 -0.33417953887E+01 -0.38958592268E+02  0.15149708033E+03  0.12500000000E+03 0.  0.
         25    1    1    2    0    0 -0.30366710727E+02  0.38844751795E+02 -0.95045469901E+02  0.16458946871E+03  0.12500000000E+03 0.  0.
</event>
<event>
 5    0  0.5503691E-005  0.4628257E+03  0.7546771E-02  0.1023965E+00
         21   -1    0    0  502  501  0.00000000000E+00  0.00000000000E+00  0.59442033386E+03  0.59442033386E+03  0.00000000000E+00 0. -1.
         21   -1    0    0  501  502 -0.00000000000E+00 -0.00000000000E+00 -0.36036389187E+03  0.36036389187E+03  0.00000000000E+00 0. -1.
         25    1    1    2    0    0  0.16342665910E+03 -0.39767271849E+02  0.45989288618E+02  0.21454538793E+03  0.12500000000E+03 0.  0.
         25    1    1    2    0    0 -0.30829630489E+03 -0.19966209545E+03  0.19378262865E+03  0.43369144692E+03  0.12500000000E+03 0.  0.
         25    1    1    2    0    0  0.14486964579E+03  0.23942936730E+03 -0.57154752811E+01  0.30654739088E+03  0.12500000000E+03 0.  0.
</event>
<event>
 5    0  0.5503691E-005  0.2890896E+03  0.7546771E-02  0.1090825E+00
         21   -1    0    0  502  501  0.00000000000E+00  0.00000000000E+00  0.11191325951E+03  0.11191325951E+03  0.00000000000E+00 0. -1.
         21   -1    0    0  501  502 -0.00000000000E+00 -0.00000000000E+00 -0.74676414147E+03  0.74676414147E+03  0.00000000000E+00 0. -1.
         25    1    1    2    0    0 -0.97479577976E+02 -0.10543578430E+03 -0.15923031111E+03  0.24818997706E+03  0.12500000000E+03 0.  0.
         25    1    1    2    0    0  0.35359236751E+02  0.10399168805E+03 -0.68233631352E+02  0.17984820059E+03  0.12500000000E+03 0.  0.
         25    1    1    2    0    0  0.62120341225E+02  0.14440962482E+01 -0.40738693949E+03  0.43063922333E+03  0.12500000000E+03 0.  0.
</event>
<event>
 5    0  0.5503691E-005  0.3159922E+03  0.7546771E-02  0.1077509E+00
         21   -1    0    0  502  501  0.00000000000E+00  0.00000000000E+00  0.11246623414E+03  0.11246623414E+03  0.00000000000E+00 0.  1.
         21   -1    0    0  501  502 -0.00000000000E+00 -0.00000000000E+00 -0.88783162491E+03  0.88783162491E+03  0.00000000000E+00 0.  1.
         25    1    1    2    0    0  0.10254048927E+03  0.92558374902E+02 -0.23180043495E+03  0.29738534992E+03  0.12500000000E+03 0.  0.
         25    1    1    2    0    0 -0.22164975285E+03 -0.61401229459E+02 -0.25659634684E+03  0.36655887539E+03  0.12500000000E+03 0.  0.
         25    1    1    2    0    0  0.11910926359E+03 -0.31157145443E+02 -0.28696860898E+03  0.33635363373E+03  0.12500000000E+03 0.  0.
</event>
<event>
 5    0  0.5503691E-005  0.3460183E+03  0.7546771E-02  0.1064261E+00
         21   -1    0    0  502  501  0.00000000000E+00  0.00000000000E+00  0.44848927828E+03  0.44848927828E+03  0.00000000000E+00 0.  1.
         21   -1    0    0  501  502 -0.00000000000E+00 -0.00000000000E+00 -0.26695991567E+03  0.26695991567E+03  0.00000000000E+00 0.  1.
         25    1    1    2    0    0  0.44589672089E+01  0.15955428763E+02 -0.43629572857E+02  0.13342787461E+03  0.12500000000E+03 0.  0.
         25    1    1    2    0    0  0.23298114703E+03  0.11635083201E+02  0.84574173184E+02  0.27783696803E+03  0.12500000000E+03 0.  0.
         25    1    1    2    0    0 -0.23744011424E+03 -0.27590511964E+02  0.14058476228E+03  0.30418435131E+03  0.12500000000E+03 0.  0.
</event>
<event>
 5    0  0.5503691E-005  0.2914557E+03  0.7546771E-02  0.1089592E+00
         21   -1    0    0  502  501  0.00000000000E+00  0.00000000000E+00  0.71717706916E+03  0.71717706916E+03  0.00000000000E+00 0. -1.
         21   -1    0    0  501  502 -0.00000000000E+00 -0.00000000000E+00 -0.11844556117E+03  0.11844556117E+03  0.00000000000E+00 0. -1.
         25    1    1    2    0    0 -0.67537606778E+02  0.70745546889E+02  0.14516998176E+03  0.21509436147E+03  0.12500000000E+03 0.  0.
         25    1    1    2    0    0  0.19559954962E+03 -0.27562129520E+02  0.20294709768E+03  0.30956643754E+03  0.12500000000E+03 0.  0.
         25    1    1    2    0    0 -0.12806194284E+03 -0.43183417368E+02  0.25061442855E+03  0.31096183132E+03  0.12500000000E+03 0.  0.
</event>
<event>
 5    0  0.5672489E-005  0.2486614E+03  0.7546771E-02  0.1114154E+00
         21   -1    0    0  502  501  0.00000000000E+00  0.00000000000E+00  0.14534428452E+03  0.14534428452E+03  0.00000000000E+00 0. -1.
         21   -1    0    0  501  502 -0.00000000000E+00 -0.00000000000E+00 -0.42542094742E+03  0.42542094742E+03  0.00000000000E+00 0. -1.
         25    1    1    2    0    0  0.34771361440E+02 -0.30908127669E+02 -0.23130823993E+02  0.13536762889E+03  0.12500000000E+03 0.  0.
         25    1    1    2    0    0  0.32992434232E+02 -0.91958806792E+02 -0.81724657587E+02  0.17846244008E+03  0.12500000000E+03 0.  0.
         25    1    1    2    0    0 -0.67763795672E+02  0.12286693446E+03 -0.17522118132E+03  0.25693516297E+03  0.12500000000E+03 0.  0.
</event>
<event>
 5    0  0.5503691E-005  0.2318449E+03  0.7546771E-02  0.1125348E+00
         21   -1    0    0  502  501  0.00000000000E+00  0.00000000000E+00  0.16390141015E+03  0.16390141015E+03  0.00000000000E+00 0. -1.
         21   -1    0    0  501  502 -0.00000000000E+00 -0.00000000000E+00 -0.32795355298E+03  0.32795355298E+03  0.00000000000E+00 0. -1.
         25    1    1    2    0    0  0.44396664549E+01  0.91446434229E+02  0.28170954167E+01  0.15496805154E+03  0.12500000000E+03 0.  0.
         25    1    1    2    0    0  0.33975774134E+02 -0.68251632688E+02 -0.36750337011E+02  0.15095769561E+03  0.12500000000E+03 0.  0.
         25    1    1    2    0    0 -0.38415440589E+02 -0.23194801542E+02 -0.13011890124E+03  0.18592921598E+03  0.12500000000E+03 0.  0.
</event>
<event>
 5    0  0.5503691E-005  0.5075841E+03  0.7546771E-02  0.1011818E+00
         21   -1    0    0  502  501  0.00000000000E+00  0.00000000000E+00  0.10680326899E+04  0.10680326899E+04  0.00000000000E+00 0. -1.
         21   -1    0    0  501  502 -0.00000000000E+00 -0.00000000000E+00 -0.24123009721E+03  0.24123009721E+03  0.00000000000E+00 0. -1.
         25    1    1    2    0    0  0.24514945550E+03 -0.11152938347E+03  0.86909755896E+02  0.30937899829E+03  0.12500000000E+03 0.  0.
         25    1    1    2    0    0 -0.23773470217E+03  0.31997492290E+03  0.55369530363E+03  0.69361749485E+03  0.12500000000E+03 0.  0.
         25    1    1    2    0    0 -0.74147533381E+01 -0.20844553942E+03  0.18619753318E+03  0.30626629399E+03  0.12500000000E+03 0.  0.
</event>
<event>
 5    0  0.5503691E-005  0.2673636E+03  0.7546771E-02  0.1102798E+00
         21   -1    0    0  502  501  0.00000000000E+00  0.00000000000E+00  0.13417316486E+03  0.13417316486E+03  0.00000000000E+00 0. -1.
         21   -1    0    0  501  502 -0.00000000000E+00 -0.00000000000E+00 -0.53276902229E+03  0.53276902229E+03  0.00000000000E+00 0. -1.
         25    1    1    2    0    0  0.40940382332E+02  0.13732505678E+03 -0.37392592631E+02  0.19379755444E+03  0.12500000000E+03 0.  0.
         25    1    1    2    0    0  0.21383386839E+02 -0.93194210840E+02 -0.16171740015E+03  0.22565444307E+03  0.12500000000E+03 0.  0.
         25    1    1    2    0    0 -0.62323769171E+02 -0.44130845938E+02 -0.19948586465E+03  0.24749018963E+03  0.12500000000E+03 0.  0.
</event>
<event>
 5    0  0.5503691E-005  0.3657726E+03  0.7546771E-02  0.1056321E+00
         21   -1    0    0  502  501  0.00000000000E+00  0.00000000000E+00  0.81842183351E+03  0.81842183351E+03  0.00000000000E+00 0.  1.
         21   -1    0    0  501  502 -0.00000000000E+00 -0.00000000000E+00 -0.16347268314E+03  0.16347268314E+03  0.00000000000E+00 0.  1.
         25    1    1    2    0    0 -0.15832964720E+03  0.47874990671E+02  0.27401237335E+03  0.34361035005E+03  0.12500000000E+03 0.  0.
         25    1    1    2    0    0  0.24218517518E+03  0.56513362019E+02  0.35830858230E+03  0.45371517422E+03  0.12500000000E+03 0.  0.
         25    1    1    2    0    0 -0.83855527985E+02 -0.10438835269E+03  0.22628194716E+02  0.18456899238E+03  0.12500000000E+03 0.  0.
</event>
<event>
 5    0  0.5503691E-005  0.2218693E+03  0.7546771E-02  0.1132497E+00
         21   -1    0    0  502  501  0.00000000000E+00  0.00000000000E+00  0.38869363390E+03  0.38869363390E+03  0.00000000000E+00 0. -1.
         21   -1    0    0  501  502 -0.00000000000E+00 -0.00000000000E+00 -0.12664468609E+03  0.12664468609E+03  0.00000000000E+00 0. -1.
         25    1    1    2    0    0 -0.41553041916E+01  0.38260460858E+02  0.10071738006E+03  0.16507610386E+03  0.12500000000E+03 0.  0.
         25    1    1    2    0    0  0.29736310322E+02 -0.63204396454E+02  0.15988215770E+00  0.14319242105E+03  0.12500000000E+03 0.  0.
         25    1    1    2    0    0 -0.25581006130E+02  0.24943935596E+02  0.16117168559E+03  0.20706979508E+03  0.12500000000E+03 0.  0.
</event>
<event>
 5    0  0.5503691E-005  0.3538856E+03  0.7546771E-02  0.1061031E+00
         21   -1    0    0  502  501  0.00000000000E+00  0.00000000000E+00  0.66298086906E+02  0.66298086906E+02  0.00000000000E+00 0. -1.
         21   -1    0    0  501  502 -0.00000000000E+00 -0.00000000000E+00 -0.18889692993E+04  0.18889692993E+04  0.00000000000E+00 0. -1.
         25    1    1    2    0    0  0.49404712731E+02 -0.12720413541E+03 -0.29450803474E+03  0.34782423756E+03  0.12500000000E+03 0.  0.
         25    1    1    2    0    0  0.16536819016E+03  0.32984993959E+02 -0.92179454887E+03  0.94539136789E+03  0.12500000000E+03 0.  0.
         25    1    1    2    0    0 -0.21477290290E+03  0.94219141454E+02 -0.60636862873E+03  0.66205178071E+03  0.12500000000E+03 0.  0.
</event>
<event>
 5    0  0.5503691E-005  0.2637560E+03  0.7546771E-02  0.1104907E+00
         21   -1    0    0  502  501  0.00000000000E+00  0.00000000000E+00  0.49183350776E+03  0.49183350776E+03  0.00000000000E+00 0. -1.
         21   -1    0    0  501  502 -0.00000000000E+00 -0.00000000000E+00 -0.14144471226E+03  0.14144471226E+03  0.00000000000E+00 0. -1.
         25    1    1    2    0    0  0.12241689427E+03  0.81866901074E+02  0.47192620607E+02  0.19884725026E+03  0.12500000000E+03 0.  0.
         25    1    1    2    0    0 -0.39614825065E+02 -0.15376286920E+02  0.70301113297E+02  0.14957610469E+03  0.12500000000E+03 0.  0.
         25    1    1    2    0    0 -0.82802069209E+02 -0.66490614154E+02  0.23289506159E+03  0.28485486506E+03  0.12500000000E+03 0.  0.
</event>
<event>
 5    0  0.5503691E-005  0.3746719E+03  0.7546771E-02  0.1052921E+00
         21   -1    0    0  502  501  0.00000000000E+00  0.00000000000E+00  0.61826571064E+03  0.61826571064E+03  0.00000000000E+00 0. -1.
         21   -1    0    0  501  502 -0.00000000000E+00 -0.00000000000E+00 -0.22705294079E+03  0.22705294079E+03  0.00000000000E+00 0. -1.
         25    1    1    2    0    0  0.41901003330E+02  0.87310731713E+02  0.13355025306E+03  0.20697711962E+03  0.12500000000E+03 0.  0.
         25    1    1    2    0    0 -0.24254090461E+02 -0.27688392639E+03  0.27423610875E+03  0.40997977138E+03  0.12500000000E+03 0.  0.
         25    1    1    2    0    0 -0.17646912869E+02  0.18957319468E+03 -0.16573591969E+02  0.22836176043E+03  0.12500000000E+03 0.  0.
</event>
<event>
 5    0  0.5503691E-005  0.4401696E+03  0.7546771E-02  0.1030695E+00
         21   -1    0    0  502  501  0.00000000000E+00  0.00000000000E+00  0.60995593590E+03  0.60995593590E+03  0.00000000000E+00 0. -1.
         21   -1    0    0  501  502 -0.00000000000E+00 -0.00000000000E+00 -0.31764464706E+03  0.31764464706E+03  0.00000000000E+00 0. -1.
         25    1    1    2    0    0  0.90789527794E+02  0.14292455394E+03 -0.11174909558E+02  0.21076063456E+03  0.12500000000E+03 0.  0.
         25    1    1    2    0    0 -0.33512152700E+03 -0.76783564058E+02  0.19365665465E+03  0.41392034676E+03  0.12500000000E+03 0.  0.
         25    1    1    2    0    0  0.24433199921E+03 -0.66140989881E+02  0.10982954375E+03  0.30291960164E+03  0.12500000000E+03 0.  0.
</event>
<event>
 5    0  0.5503691E-005  0.2419641E+03  0.7546771E-02  0.1118491E+00
         21   -1    0    0  502  501  0.00000000000E+00  0.00000000000E+00  0.36795118072E+03  0.36795118072E+03  0.00000000000E+00 0. -1.
         21   -1    0    0  501  502 -0.00000000000E+00 -0.00000000000E+00 -0.15911521244E+03  0.15911521244E+03  0.00000000000E+00 0. -1.
         25    1    1    2    0    0  0.96983670162E+02  0.35285428015E+02  0.30470588815E+02  0.16493741386E+03  0.12500000000E+03 0.  0.
         25    1    1    2    0    0 -0.11371187679E+03 -0.45891258360E+02  0.50545237558E+02  0.18225317434E+03  0.12500000000E+03 0.  0.
         25    1    1    2    0    0  0.16728206631E+02  0.10605830344E+02  0.12782014191E+03  0.17987580496E+03  0.12500000000E+03 0.  0.
</event>
<event>
 5    0  0.5503691E-005  0.2779078E+03  0.7546771E-02  0.1096837E+00
         21   -1    0    0  502  501  0.00000000000E+00  0.00000000000E+00  0.16783088077E+03  0.16783088077E+03  0.00000000000E+00 0.  1.
         21   -1    0    0  501  502 -0.00000000000E+00 -0.00000000000E+00 -0.46018208403E+03  0.46018208403E+03  0.00000000000E+00 0.  1.
         25    1    1    2    0    0  0.39285921529E+01 -0.10420425200E+03 -0.15006955715E+03  0.22140422749E+03  0.12500000000E+03 0.  0.
         25    1    1    2    0    0  0.68192593695E+02  0.48153489068E+01  0.45700341053E+02  0.14962265401E+03  0.12500000000E+03 0.  0.
         25    1    1    2    0    0 -0.72121185848E+02  0.99388903089E+02 -0.18798198717E+03  0.25698608329E+03  0.12500000000E+03 0.  0.
</event>
<event>
 5    0  0.5750278E-005  0.4919175E+03  0.7546771E-02  0.1015910E+00
         21   -1    0    0  502  501  0.00000000000E+00  0.00000000000E+00  0.12649502118E+04  0.12649502118E+04  0.00000000000E+00 0. -1.
         21   -1    0    0  501  502 -0.00000000000E+00 -0.00000000000E+00 -0.19129829729E+03  0.19129829729E+03  0.00000000000E+00 0. -1.
         25    1    1    2    0    0  0.43228707427E+02 -0.12826130334E+03  0.80244155716E+03  0.82332079759E+03  0.12500000000E+03 0.  0.
         25    1    1    2    0    0 -0.18247022430E+03 -0.89301677446E+02  0.64741258485E+00  0.23852796795E+03  0.12500000000E+03 0.  0.
         25    1    1    2    0    0  0.13924151687E+03  0.21756298079E+03  0.27056294474E+03  0.39439974353E+03  0.12500000000E+03 0.  0.
</event>
<event>
 5    0  0.5503691E-005  0.4732592E+03  0.7546771E-02  0.1021004E+00
         21   -1    0    0  502  501  0.00000000000E+00  0.00000000000E+00  0.92317193548E+03  0.92317193548E+03  0.00000000000E+00 0.  1.
         21   -1    0    0  501  502 -0.00000000000E+00 -0.00000000000E+00 -0.24261381123E+03  0.24261381123E+03  0.00000000000E+00 0.  1.
         25    1    1    2    0    0  0.16263713689E+03  0.77205771624E+02  0.23375768828E+03  0.32043599407E+03  0.12500000000E+03 0.  0.
         25    1    1    2    0    0 -0.13516772141E+03 -0.11390007124E+03 -0.13057618582E+03  0.25282143787E+03  0.12500000000E+03 0.  0.
         25    1    1    2    0    0 -0.27469415477E+02  0.36694299620E+02  0.57737662180E+03  0.59252831478E+03  0.12500000000E+03 0.  0.
</event>
<event>
 5    0  0.6051374E-005  0.2929546E+03  0.7546771E-02  0.1088817E+00
         21   -1    0    0  502  501  0.00000000000E+00  0.00000000000E+00  0.34758556301E+03  0.34758556301E+03  0.00000000000E+00 0. -1.
         21   -1    0    0  501  502 -0.00000000000E+00 -0.00000000000E+00 -0.24691019083E+03  0.24691019083E+03  0.00000000000E+00 0. -1.
         25    1    1    2    0    0  0.18608483294E+03  0.24884284164E+02  0.56098847997E+02  0.23241960631E+03  0.12500000000E+03 0.  0.
         25    1    1    2    0    0 -0.76905182987E+02 -0.32271936824E+02 -0.64297637937E+02  0.16344745737E+03  0.12500000000E+03 0.  0.
         25    1    1    2    0    0 -0.10917964996E+03  0.73876526600E+01  0.10887416212E+03  0.19862869016E+03  0.12500000000E+03 0.  0.
</event>
<event>
 5    0  0.5503691E-005  0.4479119E+03  0.7546771E-02  0.1028347E+00
         21   -1    0    0  502  501  0.00000000000E+00  0.00000000000E+00  0.50039931557E+03  0.50039931557E+03  0.00000000000E+00 0. -1.
         21   -1    0    0  501  502 -0.00000000000E+00 -0.00000000000E+00 -0.40092994054E+03  0.40092994054E+03  0.00000000000E+00 0. -1.
         25    1    1    2    0    0  0.85574422998E+02  0.26512228708E+03  0.33705185613E+02  0.30720326905E+03  0.12500000000E+03 0.  0.
         25    1    1    2    0    0 -0.15501738299E+03 -0.36505049616E+03  0.53220928462E+02  0.41922514357E+03  0.12500000000E+03 0.  0.
         25    1    1    2    0    0  0.69442959988E+02  0.99928209080E+02  0.12543260952E+02  0.17490084350E+03  0.12500000000E+03 0.  0.
</event>
<event>
 5    0  0.5503691E-005  0.3598832E+03  0.7546771E-02  0.1058630E+00
         21   -1    0    0  502  501  0.00000000000E+00  0.00000000000E+00  0.74436027162E+02  0.74436027162E+02  0.00000000000E+00 0.  1.
         21   -1    0    0  501  502 -0.00000000000E+00 -0.00000000000E+00 -0.17399625746E+04  0.17399625746E+04  0.00000000000E+00 0.  1.
         25    1    1    2    0    0  0.14852831862E+01  0.11954592026E+03 -0.52939777688E+03  0.55693845197E+03  0.12500000000E+03 0.  0.
         25    1    1    2    0    0 -0.14862377406E+03 -0.14775138232E+03 -0.97300961919E+03  0.10031411746E+04  0.12500000000E+03 0.  0.
         25    1    1    2    0    0  0.14713849087E+03  0.28205462058E+02 -0.16311915136E+03  0.25431897516E+03  0.12500000000E+03 0.  0.
</event>
<event>
 5    0  0.5503691E-005  0.3729165E+03  0.7546771E-02  0.1053583E+00
         21   -1    0    0  502  501  0.00000000000E+00  0.00000000000E+00  0.51549781245E+03  0.51549781245E+03  0.00000000000E+00 0. -1.
         21   -1    0    0  501  502 -0.00000000000E+00 -0.00000000000E+00 -0.26977171270E+03  0.26977171270E+03  0.00000000000E+00 0. -1.
         25    1    1    2    0    0  0.12092945260E+03  0.11586521263E+03  0.88413805928E+02  0.22691558140E+03  0.12500000000E+03 0.  0.
         25    1    1    2    0    0 -0.19198484914E+03  0.11949837993E+03  0.54951541066E+02  0.26416418563E+03  0.12500000000E+03 0.  0.
         25    1    1    2    0    0  0.71055396535E+02 -0.23536359256E+03  0.10236075275E+03  0.29418975812E+03  0.12500000000E+03 0.  0.
</event>
<event>
 5    0  0.5503691E-005  0.2514254E+03  0.7546771E-02  0.1112407E+00
         21   -1    0    0  502  501  0.00000000000E+00  0.00000000000E+00  0.20972415714E+04  0.20972415714E+04  0.00000000000E+00 0.  1.
         21   -1    0    0  501  502 -0.00000000000E+00 -0.00000000000E+00 -0.30141843790E+02  0.30141843790E+02  0.00000000000E+00 0.  1.
         25    1    1    2    0    0  0.48318028233E+02  0.10001562617E+03  0.42721499662E+03  0.45877599181E+03  0.12500000000E+03 0.  0.
         25    1    1    2    0    0 -0.52490331025E+02 -0.10706443217E+03  0.11528271716E+04  0.11656987240E+04  0.12500000000E+03 0.  0.
         25    1    1    2    0    0  0.41723027917E+01  0.70488060023E+01  0.48705755941E+03  0.50290869942E+03  0.12500000000E+03 0.  0.
</event>
<event>
 5    0  0.5503691E-005  0.3232488E+03  0.7546771E-02  0.1074164E+00
         21   -1    0    0  502  501  0.00000000000E+00  0.00000000000E+00  0.81848260022E+02  0.81848260022E+02  0.00000000000E+00 0.  1.
         21   -1    0    0  501  502 -0.00000000000E+00 -0.00000000000E+00 -0.12766284637E+04  0.12766284637E+04  0.00000000000E+00 0.  1.
         25    1    1    2    0    0  0.16030676978E+03 -0.76916578129E+02 -0.16204825407E+03  0.27110709522E+03  0.12500000000E+03 0.  0.
         25    1    1    2    0    0 -0.32091693278E+01  0.35415741961E+02 -0.49826580258E+03  0.51493531979E+03  0.12500000000E+03 0.  0.
         25    1    1    2    0    0 -0.15709760046E+03  0.41500836168E+02 -0.53446614701E+03  0.57243430869E+03  0.12500000000E+03 0.  0.
</event>
<event>
 5    0  0.5503691E-005  0.2994085E+03  0.7546771E-02  0.1085537E+00
         21   -1    0    0  502  501  0.00000000000E+00  0.00000000000E+00  0.20632841468E+03  0.20632841468E+03  0.00000000000E+00 0. -1.
         21   -1    0    0  501  502 -0.00000000000E+00 -0.00000000000E+00 -0.43447947341E+03  0.43447947341E+03  0.00000000000E+00 0. -1.
         25    1    1    2    0    0  0.97911510292E+02  0.10865288002E+03  0.11458047834E+02  0.19273919955E+03  0.12500000000E+03 0.  0.
         25    1    1    2    0    0  0.35036393077E+01 -0.15238385418E+03 -0.19063804781E+03  0.27422797045E+03  0.12500000000E+03 0.  0.
         25    1    1    2    0    0 -0.10141514960E+03  0.43730974166E+02 -0.48971058758E+02  0.17384071809E+03  0.12500000000E+03 0.  0.
</event>
<event>
 5    0  0.5503691E-005  0.2429690E+03  0.7546771E-02  0.1117831E+00
         21   -1    0    0  502  501  0.00000000000E+00  0.00000000000E+00  0.52544213230E+02  0.52544213230E+02  0.00000000000E+00 0. -1.
         21   -1    0    0  501  502 -0.00000000000E+00 -0.00000000000E+00 -0.11235094179E+04  0.11235094179E+04  0.00000000000E+00 0. -1.
         25    1    1    2    0    0  0.10340273059E+02  0.99621714941E+02 -0.55053719761E+03  0.57336516575E+03  0.12500000000E+03 0.  0.
         25    1    1    2    0    0  0.32811926700E+01  0.19793136234E+02 -0.26848253732E+03  0.29683397264E+03  0.12500000000E+03 0.  0.
         25    1    1    2    0    0 -0.13621465729E+02 -0.11941485117E+03 -0.25194546972E+03  0.30585449273E+03  0.12500000000E+03 0.  0.
</event>
<event>
 5    0  0.5503691E-005  0.3939822E+03  0.7546771E-02  0.1045884E+00
         21   -1    0    0  502  501  0.00000000000E+00  0.00000000000E+00  0.36867050029E+03  0.36867050029E+03  0.00000000000E+00 0. -1.
         21   -1    0    0  501  502 -0.00000000000E+00 -0.00000000000E+00 -0.42103172586E+03  0.42103172586E+03  0.00000000000E+00 0. -1.
         25    1    1    2    0    0  0.10599636674E+03 -0.10603766120E+03 -0.12914374786E+03  0.23405623890E+03  0.12500000000E+03 0.  0.
         25    1    1    2    0    0  0.10993456560E+03 -0.71666100894E+02 -0.94815092994E+02  0.20453982642E+03  0.12500000000E+03 0.  0.
         25    1    1    2    0    0 -0.21593093235E+03  0.17770376209E+03  0.17159761529E+03  0.35110616084E+03  0.12500000000E+03 0.  0.
</event>
<event>
 5    0  0.5503691E-005  0.3195284E+03  0.7546771E-02  0.1075867E+00
         21   -1    0    0  502  501  0.00000000000E+00  0.00000000000E+00  0.64113095684E+03  0.64113095684E+03  0.00000000000E+00 0. -1.
         21   -1    0    0  501  502 -0.00000000000E+00 -0.00000000000E+00 -0.15924730697E+03  0.15924730697E+03  0.00000000000E+00 0. -1.
         25    1    1    2    0    0 -0.11225462747E+02 -0.53411715108E+02 -0.60071041332E+02  0.14903809020E+03  0.12500000000E+03 0.  0.
         25    1    1    2    0    0  0.91921780061E+02  0.19400918148E+02  0.10462030052E+03  0.18813935408E+03  0.12500000000E+03 0.  0.
         25    1    1    2    0    0 -0.80696317313E+02  0.34010796960E+02  0.43733439068E+03  0.46320081952E+03  0.12500000000E+03 0.  0.
</event>
<event>
 5    0  0.5503691E-005  0.2094532E+03  0.7546771E-02  0.1142000E+00
         21   -1    0    0  502  501  0.00000000000E+00  0.00000000000E+00  0.86775683510E+03  0.86775683510E+03  0.00000000000E+00 0.  1.
         21   -1    0    0  501  502 -0.00000000000E+00 -0.00000000000E+00 -0.50556367476E+02  0.50556367476E+02  0.00000000000E+00 0.  1.
         25    1    1    2    0    0  0.41776308785E+01 -0.37928468876E+02  0.12792980991E+03  0.18288536742E+03  0.12500000000E+03 0.  0.
         25    1    1    2    0    0  0.15816919852E+02  0.30392034987E+02  0.35219457492E+03  0.37528638311E+03  0.12500000000E+03 0.  0.
         25    1    1    2    0    0 -0.19994550730E+02  0.75364338890E+01  0.33707608279E+03  0.36014145205E+03  0.12500000000E+03 0.  0.
</event>
<event>
 5    0  0.5503691E-005  0.2961862E+03  0.7546771E-02  0.1087163E+00
         21   -1    0    0  502  501  0.00000000000E+00  0.00000000000E+00  0.49432182235E+03  0.49432182235E+03  0.00000000000E+00 0.  1.
         21   -1    0    0  501  502 -0.00000000000E+00 -0.00000000000E+00 -0.17746787411E+03  0.17746787411E+03  0.00000000000E+00 0.  1.
         25    1    1    2    0    0  0.23091572920E+02  0.30734050150E+02  0.30841922372E+03  0.33500032856E+03  0.12500000000E+03 0.  0.
         25    1    1    2    0    0 -0.64250202265E+02 -0.47087184452E+02 -0.88400961917E+02  0.17258337550E+03  0.12500000000E+03 0.  0.
         25    1    1    2    0    0  0.41158629345E+02  0.16353134301E+02  0.96835686442E+02  0.16420599240E+03  0.12500000000E+03 0.  0.
</event>
<event>
 5    0  0.5503691E-005  0.2383990E+03  0.7546771E-02  0.1120864E+00
         21   -1    0    0  502  501  0.00000000000E+00  0.00000000000E+00  0.18220592046E+04  0.18220592046E+04  0.00000000000E+00 0. -1.
         21   -1    0    0  501  502 -0.00000000000E+00 -0.00000000000E+00 -0.31192219259E+02  0.31192219259E+02  0.00000000000E+00 0. -1.
         25    1    1    2    0    0  0.46526758939E+01 -0.75810915378E+02  0.40951578467E+03  0.43485298686E+03  0.12500000000E+03 0.  0.
         25    1    1    2    0    0  0.88180210037E+02  0.59559507345E+02  0.77188768455E+03  0.78915060788E+03  0.12500000000E+03 0.  0.
         25    1    1    2    0    0 -0.92832885931E+02  0.16251408033E+02  0.60946351609E+03  0.62924782910E+03  0.12500000000E+03 0.  0.
</event>
<event>
 5    0  0.5503691E-005  0.3039856E+03  0.7546771E-02  0.1083265E+00
         21   -1    0    0  502  501  0.00000000000E+00  0.00000000000E+00  0.41306680204E+03  0.41306680204E+03  0.00000000000E+00 0.  1.
         21   -1    0    0  501  502 -0.00000000000E+00 -0.00000000000E+00 -0.22371010636E+03  0.22371010636E+03  0.00000000000E+00 0.  1.
         25    1    1    2    0    0  0.22786095516E+02 -0.44017186421E+02  0.13745234292E+03  0.19228849529E+03  0.12500000000E+03 0.  0.
         25    1    1    2    0    0  0.52690470740E+02  0.84165199527E+02  0.18395284195E+03  0.24356460042E+03  0.12500000000E+03 0.  0.
         25    1    1    2    0    0 -0.75476566257E+02 -0.40148013106E+02 -0.13204848918E+03  0.20092381269E+03  0.12500000000E+03 0.  0.
</event>
<event>
 5    0  0.5572828E-005  0.3209129E+03  0.7546771E-02  0.1075230E+00
         21   -1    0    0  502  501  0.00000000000E+00  0.00000000000E+00  0.29874453998E+03  0.29874453998E+03  0.00000000000E+00 0.  1.
         21   -1    0    0  501  502 -0.00000000000E+00 -0.00000000000E+00 -0.34472616119E+03  0.34472616119E+03  0.00000000000E+00 0.  1.
         25    1    1    2    0    0  0.15204337326E+02  0.66259707147E+02  0.13047489062E+03  0.19305496043E+03  0.12500000000E+03 0.  0.
         25    1    1    2    0    0 -0.52395374466E+02 -0.16162409249E+03  0.31863113525E+00  0.21093298477E+03  0.12500000000E+03 0.  0.
         25    1    1    2    0    0  0.37191037140E+02  0.95364385338E+02 -0.17677514297E+03  0.23948275597E+03  0.12500000000E+03 0.  0.
</event>
<event>
 5    0  0.5503691E-005  0.4600764E+03  0.7546771E-02  0.1024759E+00
         21   -1    0    0  502  501  0.00000000000E+00  0.00000000000E+00  0.78057092052E+03  0.78057092052E+03  0.00000000000E+00 0. -1.
         21   -1    0    0  501  502 -0.00000000000E+00 -0.00000000000E+00 -0.27117368188E+03  0.27117368188E+03  0.00000000000E+00 0. -1.
         25    1    1    2    0    0 -0.29397802974E+03 -0.84153501024E+02  0.22737788745E+02  0.33112973400E+03  0.12500000000E+03 0.  0.
         25    1    1    2    0    0  0.31894515271E+03  0.67867330161E+02  0.47778038418E+03  0.59180324471E+03  0.12500000000E+03 0.  0.
         25    1    1    2    0    0 -0.24967122976E+02  0.16286170863E+02  0.88790657241E+01  0.12881162370E+03  0.12500000000E+03 0.  0.
</event>
<event>
 5    0  0.5503691E-005  0.2432987E+03  0.7546771E-02  0.1117615E+00
         21   -1    0    0  502  501  0.00000000000E+00  0.00000000000E+00  0.25848881994E+02  0.25848881994E+02  0.00000000000E+00 0.  1.
         21   -1    0    0  501  502 -0.00000000000E+00 -0.00000000000E+00 -0.22900122554E+04  0.22900122554E+04  0.00000000000E+00 0.  1.
         25    1    1    2    0    0 -0.95012635688E+01  0.10805621565E+03 -0.67040073180E+03  0.69052774089E+03  0.12500000000E+03 0.  0.
         25    1    1    2    0    0 -0.18942488106E+02 -0.13798236170E+03 -0.93020782758E+03  0.94884643251E+03  0.12500000000E+03 0.  0.
         25    1    1    2    0    0  0.28443751675E+02  0.29926146054E+02 -0.66355481399E+03  0.67648696395E+03  0.12500000000E+03 0.  0.
</event>
<event>
 5    0  0.5503691E-005  0.3621281E+03  0.7546771E-02  0.1057744E+00
         21   -1    0    0  502  501  0.00000000000E+00  0.00000000000E+00  0.68720043221E+03  0.68720043221E+03  0.00000000000E+00 0. -1.
         21   -1    0    0  501  502 -0.00000000000E+00 -0.00000000000E+00 -0.19082748039E+03  0.19082748039E+03  0.00000000000E+00 0. -1.
         25    1    1    2    0    0 -0.95325906816E+02 -0.13826532670E+03  0.96128442309E+02  0.23036928289E+03  0.12500000000E+03 0.  0.
         25    1    1    2    0    0  0.71034356805E+02 -0.13932352373E+03  0.12158935469E+03  0.23423470128E+03  0.12500000000E+03 0.  0.
         25    1    1    2    0    0  0.24291550011E+02  0.27758885043E+03  0.27865515482E+03  0.41342392842E+03  0.12500000000E+03 0.  0.
</event>
<event>
 5    0  0.5503691E-005  0.2675724E+03  0.7546771E-02  0.1102677E+00
         21   -1    0    0  502  501  0.00000000000E+00  0.00000000000E+00  0.15517082539E+04  0.15517082539E+04  0.00000000000E+00 0.  1.
         21   -1    0    0  501  502 -0.00000000000E+00 -0.00000000000E+00 -0.46139461032E+02  0.46139461032E+02  0.00000000000E+00 0.  1.
         25    1    1    2    0    0 -0.82205789241E+02 -0.14584965416E+03  0.66582971649E+03  0.69784247848E+03  0.12500000000E+03 0.  0.
         25    1    1    2    0    0  0.51291505724E+02  0.10190483221E+03  0.31125615605E+03  0.35428915883E+03  0.12500000000E+03 0.  0.
         25    1    1    2    0    0  0.30914283517E+02  0.43944821947E+02  0.52848292034E+03  0.54571607764E+03  0.12500000000E+03 0.  0.
</event>
<event>
 5    0  0.5503691E-005  0.4666798E+03  0.7546771E-02  0.1022862E+00
         21   -1    0    0  502  501  0.00000000000E+00  0.00000000000E+00  0.38670030458E+03  0.38670030458E+03  0.00000000000E+00 0. -1.
         21   -1    0    0  501  502 -0.00000000000E+00 -0.00000000000E+00 -0.56320103635E+03  0.56320103635E+03  0.00000000000E+00 0. -1.
         25    1    1    2    0    0  0.33141083407E+03 -0.18463757218E+02 -0.24435871961E+03  0.43070899122E+03  0.12500000000E+03 0.  0.
         25    1    1    2    0    0 -0.28205668625E+03 -0.79447005502E+02 -0.39877455248E+02  0.32106543317E+03  0.12500000000E+03 0.  0.
         25    1    1    2    0    0 -0.49354147824E+02  0.97910762720E+02  0.10773544308E+03  0.19812691655E+03  0.12500000000E+03 0.  0.
</event>
<event>
 5    0  0.5503691E-005  0.2548601E+03  0.7546771E-02  0.1110271E+00
         21   -1    0    0  502  501  0.00000000000E+00  0.00000000000E+00  0.10735432956E+04  0.10735432956E+04  0.00000000000E+00 0. -1.
         21   -1    0    0  501  502 -0.00000000000E+00 -0.00000000000E+00 -0.60503998722E+02  0.60503998722E+02  0.00000000000E+00 0. -1.
         25    1    1    2    0    0  0.12009180721E+03  0.69263067053E+02  0.48271178084E+03  0.51754717464E+03  0.12500000000E+03 0.  0.
         25    1    1    2    0    0 -0.16736393130E+02  0.12875312413E+02  0.27755404154E+03  0.30513460390E+03  0.12500000000E+03 0.  0.
         25    1    1    2    0    0 -0.10335541408E+03 -0.82138379466E+02  0.25277347446E+03  0.31136551574E+03  0.12500000000E+03 0.  0.
</event>
<event>
 5    0  0.5503691E-005  0.3028878E+03  0.7546771E-02  0.1083806E+00
         21   -1    0    0  502  501  0.00000000000E+00  0.00000000000E+00  0.65778978281E+03  0.65778978281E+03  0.00000000000E+00 0. -1.
         21   -1    0    0  501  502 -0.00000000000E+00 -0.00000000000E+00 -0.13946858870E+03  0.13946858870E+03  0.00000000000E+00 0. -1.
         25    1    1    2    0    0 -0.58229115738E+02 -0.15354530358E+03  0.34043550868E+03  0.39810567158E+03  0.12500000000E+03 0.  0.
         25    1    1    2    0    0  0.38384231699E+02  0.18396191449E+03  0.95293593381E+02  0.24499225328E+03  0.12500000000E+03 0.  0.
         25    1    1    2    0    0  0.19844884039E+02 -0.30416610911E+02  0.82592092046E+02  0.15416044665E+03  0.12500000000E+03 0.  0.
</event>
<event>
 5    0  0.5503691E-005  0.5799340E+03  0.7546771E-02  0.9947934E-01
         21   -1    0    0  502  501  0.00000000000E+00  0.00000000000E+00  0.17487157079E+03  0.17487157079E+03  0.00000000000E+00 0.  1.
         21   -1    0    0  501  502 -0.00000000000E+00 -0.00000000000E+00 -0.19232597005E+04  0.19232597005E+04  0.00000000000E+00 0.  1.
         25    1    1    2    0    0  0.26437778877E+03 -0.26324268114E+02 -0.36465620695E+03  0.46817489420E+03  0.12500000000E+03 0.  0.
         25    1    1    2    0    0 -0.22854542964E+03 -0.29927730492E+03 -0.11286962250E+04  0.11964029785E+04  0.12500000000E+03 0.  0.
         25    1    1    2    0    0 -0.35832359135E+02  0.32560157303E+03 -0.25503569784E+03  0.43355339867E+03  0.12500000000E+03 0.  0.
</event>
<event>
 5    0  0.5503691E-005  0.3253515E+03  0.7546771E-02  0.1073212E+00
         21   -1    0    0  502  501  0.00000000000E+00  0.00000000000E+00  0.11201166638E+03  0.11201166638E+03  0.00000000000E+00 0. -1.
         21   -1    0    0  501  502 -0.00000000000E+00 -0.00000000000E+00 -0.94502320365E+03  0.94502320365E+03  0.00000000000E+00 0. -1.
         25    1    1    2    0    0 -0.12628088759E+03 -0.22222333655E+03 -0.32313786404E+03  0.43054982645E+03  0.12500000000E+03 0.  0.
         25    1    1    2    0    0  0.52793428182E+02  0.66671943382E+02 -0.20213931802E+03  0.25242344975E+03  0.12500000000E+03 0.  0.
         25    1    1    2    0    0  0.73487459408E+02  0.15555139317E+03 -0.30773435521E+03  0.37406159383E+03  0.12500000000E+03 0.  0.
</event>
<event>
 5    0  0.5503691E-005  0.4038791E+03  0.7546771E-02  0.1042445E+00
         21   -1    0    0  502  501  0.00000000000E+00  0.00000000000E+00  0.16899673273E+03  0.16899673273E+03  0.00000000000E+00 0. -1.
         21   -1    0    0  501  502 -0.00000000000E+00 -0.00000000000E+00 -0.96521567244E+03  0.96521567244E+03  0.00000000000E+00 0. -1.
         25    1    1    2    0    0 -0.19281108071E+03  0.32220652025E+00 -0.14323333008E+03  0.27077112753E+03  0.12500000000E+03 0.  0.
         25    1    1    2    0    0 -0.10442483680E+03 -0.11383835320E+03 -0.12602311140E+03  0.23530945966E+03  0.12500000000E+03 0.  0.
         25    1    1    2    0    0  0.29723591751E+03  0.11351614668E+03 -0.52696249823E+03  0.62813181798E+03  0.12500000000E+03 0.  0.
</event>
<event>
 5    0  0.5503691E-005  0.3217494E+03  0.7546771E-02  0.1074847E+00
         21   -1    0    0  502  501  0.00000000000E+00  0.00000000000E+00  0.51431469456E+03  0.51431469456E+03  0.00000000000E+00 0. -1.
         21   -1    0    0  501  502 -0.00000000000E+00 -0.00000000000E+00 -0.20128275573E+03  0.20128275573E+03  0.00000000000E+00 0. -1.
         25    1    1    2    0    0  0.44859878543E+02 -0.19966648956E+02  0.18603092305E+03  0.22944188830E+03  0.12500000000E+03 0.  0.
         25    1    1    2    0    0  0.99671018635E+02  0.13666664941E+03  0.15393150358E+03  0.26063766576E+03  0.12500000000E+03 0.  0.
         25    1    1    2    0    0 -0.14453089718E+03 -0.11670000046E+03 -0.26930487806E+02  0.22551789623E+03  0.12500000000E+03 0.  0.
</event>
<event>
 5    0  0.5503691E-005  0.2405662E+03  0.7546771E-02  0.1119416E+00
         21   -1    0    0  502  501  0.00000000000E+00  0.00000000000E+00  0.14115605912E+03  0.14115605912E+03  0.00000000000E+00 0. -1.
         21   -1    0    0  501  502 -0.00000000000E+00 -0.00000000000E+00 -0.40998659718E+03  0.40998659718E+03  0.00000000000E+00 0. -1.
         25    1    1    2    0    0 -0.38225267729E+02  0.36340976065E+02 -0.18971881325E+03  0.23323821672E+03  0.12500000000E+03 0.  0.
         25    1    1    2    0    0 -0.18918446599E+02 -0.90722992354E+02 -0.13516146346E+02  0.15619300617E+03  0.12500000000E+03 0.  0.
         25    1    1    2    0    0  0.57143714328E+02  0.54382016289E+02 -0.65595578468E+02  0.16171143342E+03  0.12500000000E+03 0.  0.
</event>
<event>
 5    0  0.5503691E-005  0.3192432E+03  0.7546771E-02  0.1075998E+00
         21   -1    0    0  502  501  0.00000000000E+00  0.00000000000E+00  0.19231608075E+03  0.19231608075E+03  0.00000000000E+00 0.  1.
         21   -1    0    0  501  502 -0.00000000000E+00 -0.00000000000E+00 -0.52994109880E+03  0.52994109880E+03  0.00000000000E+00 0.  1.
         25    1    1    2    0    0  0.37070008373E+02 -0.17409116204E+03 -0.27719542684E+02  0.21926078370E+03  0.12500000000E+03 0.  0.
         25    1    1    2    0    0  0.10320541306E+03  0.52772773152E+02 -0.10887640316E+03  0.20227553989E+03  0.12500000000E+03 0.  0.
         25    1    1    2    0    0 -0.14027542143E+03  0.12131838889E+03 -0.20102907221E+03  0.30072085596E+03  0.12500000000E+03 0.  0.
</event>
<event>
 5    0  0.5503691E-005  0.3655293E+03  0.7546771E-02  0.1056416E+00
         21   -1    0    0  502  501  0.00000000000E+00  0.00000000000E+00  0.13508964100E+03  0.13508964100E+03  0.00000000000E+00 0. -1.
         21   -1    0    0  501  502 -0.00000000000E+00 -0.00000000000E+00 -0.98905915080E+03  0.98905915080E+03  0.00000000000E+00 0. -1.
         25    1    1    2    0    0 -0.78902132617E+02  0.17606969772E+03 -0.11306337923E+03  0.25619214022E+03  0.12500000000E+03 0.  0.
         25    1    1    2    0    0  0.30806154249E+02  0.61502316718E+02 -0.10848281341E+03  0.17923469225E+03  0.12500000000E+03 0.  0.
         25    1    1    2    0    0  0.48095978368E+02 -0.23757201443E+03 -0.63242331717E+03  0.68872195934E+03  0.12500000000E+03 0.  0.
</event>
<event>
 5    0  0.5503691E-005  0.4517236E+03  0.7546771E-02  0.1027209E+00
         21   -1    0    0  502  501  0.00000000000E+00  0.00000000000E+00  0.59288852155E+03  0.59288852155E+03  0.00000000000E+00 0.  1.
         21   -1    0    0  501  502 -0.00000000000E+00 -0.00000000000E+00 -0.34416960459E+03  0.34416960459E+03  0.00000000000E+00 0.  1.
         25    1    1    2    0    0  0.28942451434E+03 -0.16196411991E+03  0.10987049187E+03  0.37107337634E+03  0.12500000000E+03 0.  0.
         25    1    1    2    0    0  0.27488134562E+02 -0.58058791876E+02  0.11948508513E+02  0.14104675718E+03  0.12500000000E+03 0.  0.
         25    1    1    2    0    0 -0.31691264891E+03  0.22002291179E+03  0.12689991657E+03  0.42493799263E+03  0.12500000000E+03 0.  0.
</event>
<event>
 5    0  0.5503691E-005  0.2363452E+03  0.7546771E-02  0.1122252E+00
         21   -1    0    0  502  501  0.00000000000E+00  0.00000000000E+00  0.13069185043E+03  0.13069185043E+03  0.00000000000E+00 0.  1.
         21   -1    0    0  501  502 -0.00000000000E+00 -0.00000000000E+00 -0.42741052109E+03  0.42741052109E+03  0.00000000000E+00 0.  1.
         25    1    1    2    0    0 -0.44068448053E+01  0.76366080961E+02 -0.24300405553E+03  0.28377309528E+03  0.12500000000E+03 0.  0.
         25    1    1    2    0    0 -0.22408502263E+02 -0.32286964678E+02 -0.46026551763E+02  0.13888136134E+03  0.12500000000E+03 0.  0.
         25    1    1    2    0    0  0.26815347068E+02 -0.44079116283E+02 -0.76880633602E+01  0.13544791489E+03  0.12500000000E+03 0.  0.
</event>
<event>
 5    0  0.5503691E-005  0.2355682E+03  0.7546771E-02  0.1122781E+00
         21   -1    0    0  502  501  0.00000000000E+00  0.00000000000E+00  0.59854625560E+03  0.59854625560E+03  0.00000000000E+00 0.  1.
         21   -1    0    0  501  502 -0.00000000000E+00 -0.00000000000E+00 -0.92711948798E+02  0.92711948798E+02  0.00000000000E+00 0.  1.
         25    1    1    2    0    0  0.45944929843E+02 -0.40445321025E+02  0.33600888917E+03  0.36369456165E+03  0.12500000000E+03 0.  0.
         25    1    1    2    0    0 -0.72999215173E+02  0.23210809565E+02  0.61133512539E+02  0.15883933219E+03  0.12500000000E+03 0.  0.
         25    1    1    2    0    0  0.27054285329E+02  0.17234511461E+02  0.10869190509E+03  0.16872431056E+03  0.12500000000E+03 0.  0.
</event>
<event>
 5    0  0.5503691E-005  0.1949549E+03  0.7546771E-02  0.1154067E+00
         21   -1    0    0  502  501  0.00000000000E+00  0.00000000000E+00  0.60100042641E+02  0.60100042641E+02  0.00000000000E+00 0. -1.
         21   -1    0    0  501  502 -0.00000000000E+00 -0.00000000000E+00 -0.63240271992E+03  0.63240271992E+03  0.00000000000E+00 0. -1.
         25    1    1    2    0    0 -0.18168794162E+02 -0.94209314988E+00 -0.21187405576E+03  0.24667105246E+03  0.12500000000E+03 0.  0.
         25    1    1    2    0    0  0.30041811220E+01  0.23266696329E+02 -0.12738038333E+03  0.18000312864E+03  0.12500000000E+03 0.  0.
         25    1    1    2    0    0  0.15164613040E+02 -0.22324603179E+02 -0.23304823819E+03  0.26582858146E+03  0.12500000000E+03 0.  0.
</event>
<event>
 5    0  0.5503691E-005  0.2940151E+03  0.7546771E-02  0.1088271E+00
         21   -1    0    0  502  501  0.00000000000E+00  0.00000000000E+00  0.37705950217E+03  0.37705950217E+03  0.00000000000E+00 0.  1.
         21   -1    0    0  501  502 -0.00000000000E+00 -0.00000000000E+00 -0.22926055356E+03  0.22926055356E+03  0.00000000000E+00 0.  1.
         25    1    1    2    0    0  0.17447615341E+03 -0.34828113698E+02  0.10122126768E+03  0.23984509719E+03  0.12500000000E+03 0.  0.
         25    1    1    2    0    0 -0.67060350206E+02  0.10129689546E+03  0.68770593759E+02  0.18738342020E+03  0.12500000000E+03 0.  0.
         25    1    1    2    0    0 -0.10741580321E+03 -0.66468781759E+02 -0.22192912835E+02  0.17909153835E+03  0.12500000000E+03 0.  0.
</event>
<event>
 5    0  0.5503691E-005  0.3840053E+03  0.7546771E-02  0.1049463E+00
         21   -1    0    0  502  501  0.00000000000E+00  0.00000000000E+00  0.25036866186E+03  0.25036866186E+03  0.00000000000E+00 0. -1.
         21   -1    0    0  501  502 -0.00000000000E+00 -0.00000000000E+00 -0.58897188506E+03  0.58897188506E+03  0.00000000000E+00 0. -1.
         25    1    1    2    0    0  0.49800881175E+02 -0.11067965246E+03 -0.17429221470E+03  0.24644043772E+03  0.12500000000E+03 0.  0.
         25    1    1    2    0    0 -0.88055459912E+02  0.17635781254E+03 -0.30892779667E+03  0.38719145861E+03  0.12500000000E+03 0.  0.
         25    1    1    2    0    0  0.38254578737E+02 -0.65678160082E+02  0.14461678818E+03  0.20570865059E+03  0.12500000000E+03 0.  0.
</event>
<event>
 5    0  0.5503691E-005  0.3066881E+03  0.7546771E-02  0.1081944E+00
         21   -1    0    0  502  501  0.00000000000E+00  0.00000000000E+00  0.66914595616E+02  0.66914595616E+02  0.00000000000E+00 0.  1.
         21   -1    0    0  501  502 -0.00000000000E+00 -0.00000000000E+00 -0.14056360195E+04  0.14056360195E+04  0.00000000000E+00 0.  1.
         25    1    1    2    0    0 -0.75016111604E+02  0.11388779021E+03 -0.97260128013E+03  0.99003843151E+03  0.12500000000E+03 0.  0.
         25    1    1    2    0    0  0.56636532662E+02 -0.10431377174E+03 -0.28170823866E+03  0.33026291274E+03  0.12500000000E+03 0.  0.
         25    1    1    2    0    0  0.18379578943E+02 -0.95740184744E+01 -0.84411905067E+02  0.15224927083E+03  0.12500000000E+03 0.  0.
</event>
<event>
 5    0  0.5503691E-005  0.2138343E+03  0.7546771E-02  0.1138565E+00
         21   -1    0    0  502  501  0.00000000000E+00  0.00000000000E+00  0.25624898097E+02  0.25624898097E+02  0.00000000000E+00 0.  1.
         21   -1    0    0  501  502 -0.00000000000E+00 -0.00000000000E+00 -0.17844020736E+04  0.17844020736E+04  0.00000000000E+00 0.  1.
         25    1    1    2    0    0  0.87423075471E+02 -0.26474226471E+02 -0.58495666924E+03  0.60509749932E+03  0.12500000000E+03 0.  0.
         25    1    1    2    0    0 -0.36329096668E+02  0.22821749663E+02 -0.46821375280E+03  0.48650771200E+03  0.12500000000E+03 0.  0.
         25    1    1    2    0    0 -0.51093978803E+02  0.36524768073E+01 -0.70560675348E+03  0.71842176039E+03  0.12500000000E+03 0.  0.
</event>
<event>
 5    0  0.5503691E-005  0.2531431E+03  0.7546771E-02  0.1111334E+00
         21   -1    0    0  502  501  0.00000000000E+00  0.00000000000E+00  0.31117220326E+03  0.31117220326E+03  0.00000000000E+00 0.  1.
         21   -1    0    0  501  502 -0.00000000000E+00 -0.00000000000E+00 -0.20593561403E+03  0.20593561403E+03  0.00000000000E+00 0.  1.
         25    1    1    2    0    0 -0.85736751391E+02 -0.45430857182E+02  0.12954792238E+02  0.15876895152E+03  0.12500000000E+03 0.  0.
         25    1    1    2    0    0  0.75575268198E+02  0.12672218467E+03  0.76854105491E+02  0.20809057350E+03  0.12500000000E+03 0.  0.
         25    1    1    2    0    0  0.10161483193E+02 -0.81291327486E+02  0.15427691510E+02  0.15024829227E+03  0.12500000000E+03 0.  0.
</event>
<event>
 5    0  0.5503691E-005  0.2657458E+03  0.7546771E-02  0.1103739E+00
         21   -1    0    0  502  501  0.00000000000E+00  0.00000000000E+00  0.76202536841E+02  0.76202536841E+02  0.00000000000E+00 0. -1.
         21   -1    0    0  501  502 -0.00000000000E+00 -0.00000000000E+00 -0.92675193372E+03  0.92675193372E+03  0.00000000000E+00 0. -1.
         25    1    1    2    0    0 -0.10579009436E+03 -0.67624846770E+02 -0.42252793777E+03  0.45816975256E+03  0.12500000000E+03 0.  0.
         25    1    1    2    0    0 -0.24246451336E+02  0.75179790644E+02 -0.13284546679E+03  0.19877829200E+03  0.12500000000E+03 0.  0.
         25    1    1    2    0    0  0.13003654570E+03 -0.75549438745E+01 -0.29517599232E+03  0.34600642600E+03  0.12500000000E+03 0.  0.
</event>
<event>
 5    0  0.5503691E-005  0.2973259E+03  0.7546771E-02  0.1086585E+00
         21   -1    0    0  502  501  0.00000000000E+00  0.00000000000E+00  0.16431807511E+03  0.16431807511E+03  0.00000000000E+00 0.  1.
         21   -1    0    0  501  502 -0.00000000000E+00 -0.00000000000E+00 -0.53799740057E+03  0.53799740057E+03  0.00000000000E+00 0.  1.
         25    1    1    2    0    0 -0.17192460571E+02  0.84170964983E+02 -0.71029700282E+02  0.16748298531E+03  0.12500000000E+03 0.  0.
         25    1    1    2    0    0 -0.16538836601E+03 -0.43932313038E+02 -0.18348820010E+03  0.28031460775E+03  0.12500000000E+03 0.  0.
         25    1    1    2    0    0  0.18258082658E+03 -0.40238651944E+02 -0.11916142508E+03  0.25451788262E+03  0.12500000000E+03 0.  0.
</event>
<event>
 5    0  0.5503691E-005  0.3180598E+03  0.7546771E-02  0.1076546E+00
         21   -1    0    0  502  501  0.00000000000E+00  0.00000000000E+00  0.10348888119E+03  0.10348888119E+03  0.00000000000E+00 0. -1.
         21   -1    0    0  501  502 -0.00000000000E+00 -0.00000000000E+00 -0.97751609889E+03  0.97751609889E+03  0.00000000000E+00 0. -1.
         25    1    1    2    0    0  0.87118606457E+02  0.54623991518E+02 -0.87797727945E+02  0.18413819015E+03  0.12500000000E+03 0.  0.
         25    1    1    2    0    0 -0.14420226961E+03  0.95271988345E+02 -0.51855068660E+03  0.56070568117E+03  0.12500000000E+03 0.  0.
         25    1    1    2    0    0  0.57083663154E+02 -0.14989597986E+03 -0.26767880316E+03  0.33616110875E+03  0.12500000000E+03 0.  0.
</event>
<event>
 5    0  0.5503691E-005  0.3042290E+03  0.7546771E-02  0.1083145E+00
         21   -1    0    0  502  501  0.00000000000E+00  0.00000000000E+00  0.69011827637E+02  0.69011827637E+02  0.00000000000E+00 0. -1.
         21   -1    0    0  501  502 -0.00000000000E+00 -0.00000000000E+00 -0.13411514210E+04  0.13411514210E+04  0.00000000000E+00 0. -1.
         25    1    1    2    0    0  0.24205412265E+02  0.13988572322E+03 -0.17619145635E+03  0.25850018730E+03  0.12500000000E+03 0.  0.
         25    1    1    2    0    0  0.14293785688E+02 -0.10235431344E+03 -0.27302931242E+03  0.31757002886E+03  0.12500000000E+03 0.  0.
         25    1    1    2    0    0 -0.38499197954E+02 -0.37531409781E+02 -0.82291882464E+03  0.83409303252E+03  0.12500000000E+03 0.  0.
</event>
<event>
 5    0  0.5503691E-005  0.4040559E+03  0.7546771E-02  0.1042384E+00
         21   -1    0    0  502  501  0.00000000000E+00  0.00000000000E+00  0.53777375615E+03  0.53777375615E+03  0.00000000000E+00 0.  1.
         21   -1    0    0  501  502 -0.00000000000E+00 -0.00000000000E+00 -0.30358715952E+03  0.30358715952E+03  0.00000000000E+00 0.  1.
         25    1    1    2    0    0 -0.21483263688E+03 -0.50587602198E+01  0.20814899480E+02  0.24947327104E+03  0.12500000000E+03 0.  0.
         25    1    1    2    0    0  0.31130366923E+03  0.30501840467E+02  0.15145373799E+02  0.33718647525E+03  0.12500000000E+03 0.  0.
         25    1    1    2    0    0 -0.96471032351E+02 -0.25443080247E+02  0.19822632335E+03  0.25470116938E+03  0.12500000000E+03 0.  0.
</event>
<event>
 5    0  0.5503691E-005  0.3478205E+03  0.7546771E-02  0.1063513E+00
         21   -1    0    0  502  501  0.00000000000E+00  0.00000000000E+00  0.95642114217E+03  0.95642114217E+03  0.00000000000E+00 0. -1.
         21   -1    0    0  501  502 -0.00000000000E+00 -0.00000000000E+00 -0.12649148543E+03  0.12649148543E+03  0.00000000000E+00 0. -1.
         25    1    1    2    0    0  0.10974209362E+03  0.10106847039E+03  0.68065551297E+02  0.20619428240E+03  0.12500000000E+03 0.  0.
         25    1    1    2    0    0 -0.14495256551E+03 -0.63367518221E+02  0.69917890133E+03  0.72766944740E+03  0.12500000000E+03 0.  0.
         25    1    1    2    0    0  0.35210471892E+02 -0.37700952171E+02  0.62685204117E+02  0.14904889782E+03  0.12500000000E+03 0.  0.
</event>
<event>
 5    0  0.5503691E-005  0.2116672E+03  0.7546771E-02  0.1140253E+00
         21   -1    0    0  502  501  0.00000000000E+00  0.00000000000E+00  0.49647105631E+03  0.49647105631E+03  0.00000000000E+00 0. -1.
         21   -1    0    0  501  502 -0.00000000000E+00 -0.00000000000E+00 -0.90242934719E+02  0.90242934719E+02  0.00000000000E+00 0. -1.
         25    1    1    2    0    0  0.65952883677E+02 -0.41605991455E+02  0.19364582616E+03  0.24331984584E+03  0.12500000000E+03 0.  0.
         25    1    1    2    0    0 -0.20574360121E+02  0.13109554080E+02  0.66023306016E+02  0.14345466754E+03  0.12500000000E+03 0.  0.
         25    1    1    2    0    0 -0.45378523555E+02  0.28496437375E+02  0.14655898941E+03  0.19993947764E+03  0.12500000000E+03 0.  0.
</event>
<event>
 5    0  0.5503691E-005  0.4881994E+03  0.7546771E-02  0.1016906E+00
         21   -1    0    0  502  501  0.00000000000E+00  0.00000000000E+00  0.43699523815E+03  0.43699523815E+03  0.00000000000E+00 0. -1.
         21   -1    0    0  501  502 -0.00000000000E+00 -0.00000000000E+00 -0.54540324899E+03  0.54540324899E+03  0.00000000000E+00 0. -1.
         25    1    1    2    0    0  0.14456600703E+03 -0.15946456965E+02 -0.34928387667E+03  0.39846937948E+03  0.12500000000E+03 0.  0.
         25    1    1    2    0    0 -0.10225934927E+03  0.16219612747E+03  0.30084377331E+03  0.37801657929E+03  0.12500000000E+03 0.  0.
         25    1    1    2    0    0 -0.42306657760E+02 -0.14624967051E+03 -0.59967907483E+02  0.20591252838E+03  0.12500000000E+03 0.  0.
</event>
<event>
 5    0  0.5503691E-005  0.2392568E+03  0.7546771E-02  0.1120289E+00
         21   -1    0    0  502  501  0.00000000000E+00  0.00000000000E+00  0.26267105219E+03  0.26267105219E+03  0.00000000000E+00 0.  1.
         21   -1    0    0  501  502 -0.00000000000E+00 -0.00000000000E+00 -0.21792973615E+03  0.21792973615E+03  0.00000000000E+00 0.  1.
         25    1    1    2    0    0  0.56105249635E+02 -0.27980615310E+02  0.94987306625E+02  0.16905118246E+03  0.12500000000E+03 0.  0.
         25    1    1    2    0    0  0.18581790307E+02 -0.47429590389E+02  0.13412147872E+02  0.13564562170E+03  0.12500000000E+03 0.  0.
         25    1    1    2    0    0 -0.74687039943E+02  0.75410205699E+02 -0.63658138462E+02  0.17590398418E+03  0.12500000000E+03 0.  0.
</event>
<event>
 5    0  0.5503691E-005  0.2823025E+03  0.7546771E-02  0.1094438E+00
         21   -1    0    0  502  501  0.00000000000E+00  0.00000000000E+00  0.45786080349E+03  0.45786080349E+03  0.00000000000E+00 0. -1.
         21   -1    0    0  501  502 -0.00000000000E+00 -0.00000000000E+00 -0.17405876572E+03  0.17405876572E+03  0.00000000000E+00 0. -1.
         25    1    1    2    0    0 -0.12195749280E+03 -0.56336296314E+02  0.52758835575E+02  0.19093428991E+03  0.12500000000E+03 0.  0.
         25    1    1    2    0    0 -0.58849614542E+01 -0.79221102488E+02  0.12008752771E+03  0.19067414655E+03  0.12500000000E+03 0.  0.
         25    1    1    2    0    0  0.12784245425E+03  0.13555739880E+03  0.11095567449E+03  0.25031113276E+03  0.12500000000E+03 0.  0.
</event>
<event>
 5    0  0.5503691E-005  0.4245639E+03  0.7546771E-02  0.1035591E+00
         21   -1    0    0  502  501  0.00000000000E+00  0.00000000000E+00  0.11765808039E+04  0.11765808039E+04  0.00000000000E+00 0.  1.
         21   -1    0    0  501  502 -0.00000000000E+00 -0.00000000000E+00 -0.15320200595E+03  0.15320200595E+03  0.00000000000E+00 0.  1.
         25    1    1    2    0    0  0.20347821770E+02  0.31026366683E+03  0.67396015719E+03  0.75267846408E+03  0.12500000000E+03 0.  0.
         25    1    1    2    0    0 -0.87437440020E+02 -0.21534784356E+03  0.29967884659E+03  0.39931492676E+03  0.12500000000E+03 0.  0.
         25    1    1    2    0    0  0.67089618250E+02 -0.94915823274E+02  0.49739794142E+02  0.17778941899E+03  0.12500000000E+03 0.  0.
</event>
<event>
 5    0  0.5503691E-005  0.3187200E+03  0.7546771E-02  0.1076240E+00
         21   -1    0    0  502  501  0.00000000000E+00  0.00000000000E+00  0.11394522085E+04  0.11394522085E+04  0.00000000000E+00 0.  1.
         21   -1    0    0  501  502 -0.00000000000E+00 -0.00000000000E+00 -0.89150229484E+02  0.89150229484E+02  0.00000000000E+00 0.  1.
         25    1    1    2    0    0 -0.19492623813E+03 -0.20545874787E+02  0.24237591331E+03  0.33584141292E+03  0.12500000000E+03 0.  0.
         25    1    1    2    0    0  0.78167124655E+02 -0.59066524892E+02  0.55462899129E+03  0.57692050728E+03  0.12500000000E+03 0.  0.
         25    1    1    2    0    0  0.11675911347E+03  0.79612399679E+02  0.25329707440E+03  0.31584051776E+03  0.12500000000E+03 0.  0.
</event>
<event>
 5    0  0.5503691E-005  0.2932461E+03  0.7546771E-02  0.1088666E+00
         21   -1    0    0  502  501  0.00000000000E+00  0.00000000000E+00  0.19717263552E+03  0.19717263552E+03  0.00000000000E+00 0. -1.
         21   -1    0    0  501  502 -0.00000000000E+00 -0.00000000000E+00 -0.43613198196E+03  0.43613198196E+03  0.00000000000E+00 0. -1.
         25    1    1    2    0    0 -0.59453500973E+02 -0.82036209293E+02  0.25419519476E+02  0.16289815955E+03  0.12500000000E+03 0.  0.
         25    1    1    2    0    0 -0.30208606090E+02  0.10365916133E+03 -0.16444013158E+01  0.16518318820E+03  0.12500000000E+03 0.  0.
         25    1    1    2    0    0  0.89662107062E+02 -0.21622952033E+02 -0.26273446460E+03  0.30522326974E+03  0.12500000000E+03 0.  0.
</event>
<event>
 5    0  0.5503691E-005  0.3590710E+03  0.7546771E-02  0.1058952E+00
         21   -1    0    0  502  501  0.00000000000E+00  0.00000000000E+00  0.20293001303E+03  0.20293001303E+03  0.00000000000E+00 0. -1.
         21   -1    0    0  501  502 -0.00000000000E+00 -0.00000000000E+00 -0.63535181181E+03  0.63535181181E+03  0.00000000000E+00 0. -1.
         25    1    1    2    0    0 -0.63266420743E+02 -0.15860456154E+03 -0.56075425202E+02  0.21892350318E+03  0.12500000000E+03 0.  0.
         25    1    1    2    0    0 -0.21176698087E+02 -0.10916399186E+03 -0.58527662856E+02  0.17724479394E+03  0.12500000000E+03 0.  0.
         25    1    1    2    0    0  0.84443118829E+02  0.26776855340E+03 -0.31781871072E+03  0.44211352772E+03  0.12500000000E+03 0.  0.
</event>
<event>
 5    0  0.5503691E-005  0.4973544E+03  0.7546771E-02  0.1014472E+00
         21   -1    0    0  502  501  0.00000000000E+00  0.00000000000E+00  0.11869541190E+03  0.11869541190E+03  0.00000000000E+00 0. -1.
         21   -1    0    0  501  502 -0.00000000000E+00 -0.00000000000E+00 -0.20840012954E+04  0.20840012954E+04  0.00000000000E+00 0. -1.
         25    1    1    2    0    0  0.18574784871E+03  0.25499734988E+03 -0.27845388501E+03  0.43896181818E+03  0.12500000000E+03 0.  0.
         25    1    1    2    0    0 -0.10697902771E+03 -0.31338565872E+03 -0.12376511011E+04  0.12872685545E+04  0.12500000000E+03 0.  0.
         25    1    1    2    0    0 -0.78768821007E+02  0.58388308839E+02 -0.44920089741E+03  0.47646633460E+03  0.12500000000E+03 0.  0.
</event>
<event>
 5    0  0.5503691E-005  0.3015203E+03  0.7546771E-02  0.1084483E+00
         21   -1    0    0  502  501  0.00000000000E+00  0.00000000000E+00  0.12509412212E+03  0.12509412212E+03  0.00000000000E+00 0.  1.
         21   -1    0    0  501  502 -0.00000000000E+00 -0.00000000000E+00 -0.72676865677E+03  0.72676865677E+03  0.00000000000E+00 0.  1.
         25    1    1    2    0    0  0.11066275185E+03 -0.95106691488E+02 -0.22230765579E+03  0.29383196088E+03  0.12500000000E+03 0.  0.
         25    1    1    2    0    0  0.39698430142E+02  0.73574644694E+01 -0.30345015540E+03  0.33066160112E+03  0.12500000000E+03 0.  0.
         25    1    1    2    0    0 -0.15036118199E+03  0.87749227018E+02 -0.75916723452E+02  0.22736921689E+03  0.12500000000E+03 0.  0.
</event>
<event>
 5    0  0.5503691E-005  0.2841606E+03  0.7546771E-02  0.1093438E+00
         21   -1    0    0  502  501  0.00000000000E+00  0.00000000000E+00  0.12909297368E+04  0.12909297368E+04  0.00000000000E+00 0. -1.
         21   -1    0    0  501  502 -0.00000000000E+00 -0.00000000000E+00 -0.62549685495E+02  0.62549685495E+02  0.00000000000E+00 0. -1.
         25    1    1    2    0    0  0.75085157088E+00  0.10958896527E+03  0.32512052459E+03  0.36515566625E+03  0.12500000000E+03 0.  0.
         25    1    1    2    0    0 -0.10671679519E+03 -0.15928685871E+03  0.55104297977E+03  0.59668596706E+03  0.12500000000E+03 0.  0.
         25    1    1    2    0    0  0.10596594362E+03  0.49697893438E+02  0.35221654696E+03  0.39163778900E+03  0.12500000000E+03 0.  0.
</event>
<event>
 5    0  0.5503691E-005  0.7980388E+03  0.7546771E-02  0.9562860E-01
         21   -1    0    0  502  501  0.00000000000E+00  0.00000000000E+00  0.24959827015E+04  0.24959827015E+04  0.00000000000E+00 0. -1.
         21   -1    0    0  501  502 -0.00000000000E+00 -0.00000000000E+00 -0.25515640984E+03  0.25515640984E+03  0.00000000000E+00 0. -1.
         25    1    1    2    0    0  0.32882467418E+03 -0.52094290676E+03  0.81237343276E+03  0.10271722215E+04  0.12500000000E+03 0.  0.
         25    1    1    2    0    0  0.12167899923E+03 -0.88331285015E+02  0.25051399392E+03  0.31778995566E+03  0.12500000000E+03 0.  0.
         25    1    1    2    0    0 -0.45050367340E+03  0.60927419177E+03  0.11779388650E+04  0.14061769341E+04  0.12500000000E+03 0.  0.
</event>
<event>
 5    0  0.5503691E-005  0.2853658E+03  0.7546771E-02  0.1092794E+00
         21   -1    0    0  502  501  0.00000000000E+00  0.00000000000E+00  0.10662002822E+04  0.10662002822E+04  0.00000000000E+00 0. -1.
         21   -1    0    0  501  502 -0.00000000000E+00 -0.00000000000E+00 -0.76377416737E+02  0.76377416737E+02  0.00000000000E+00 0. -1.
         25    1    1    2    0    0 -0.11995519287E+03  0.14554390977E+03  0.43178491370E+03  0.48747870688E+03  0.12500000000E+03 0.  0.
         25    1    1    2    0    0  0.41411668691E+02 -0.12362601856E+03  0.21368053241E+03  0.27979043712E+03  0.12500000000E+03 0.  0.
         25    1    1    2    0    0  0.78543524184E+02 -0.21917891208E+02  0.34435741939E+03  0.37530855497E+03  0.12500000000E+03 0.  0.
</event>
<event>
 5    0  0.5503691E-005  0.2940328E+03  0.7546771E-02  0.1088262E+00
         21   -1    0    0  502  501  0.00000000000E+00  0.00000000000E+00  0.69703401757E+03  0.69703401757E+03  0.00000000000E+00 0.  1.
         21   -1    0    0  501  502 -0.00000000000E+00 -0.00000000000E+00 -0.12403312664E+03  0.12403312664E+03  0.00000000000E+00 0.  1.
         25    1    1    2    0    0  0.18950920912E+03  0.60378793898E+02  0.16082808682E+03  0.28469283905E+03  0.12500000000E+03 0.  0.
         25    1    1    2    0    0 -0.40974882142E+02  0.15113472945E+02  0.19256965364E+03  0.23369944273E+03  0.12500000000E+03 0.  0.
         25    1    1    2    0    0 -0.14853432698E+03 -0.75492266842E+02  0.21960315047E+03  0.30267486242E+03  0.12500000000E+03 0.  0.
</event>
<event>
 5    0  0.5503691E-005  0.4103540E+03  0.7546771E-02  0.1040252E+00
         21   -1    0    0  502  501  0.00000000000E+00  0.00000000000E+00  0.61548115823E+03  0.61548115823E+03  0.00000000000E+00 0.  1.
         21   -1    0    0  501  502 -0.00000000000E+00 -0.00000000000E+00 -0.27359151410E+03  0.27359151410E+03  0.00000000000E+00 0.  1.
         25    1    1    2    0    0  0.19644539074E+03  0.15937599348E+03  0.35228301100E+03  0.45135331912E+03  0.12500000000E+03 0.  0.
         25    1    1    2    0    0 -0.66653619325E+01 -0.16067482873E+03 -0.42915433443E+02  0.20815273735E+03  0.12500000000E+03 0.  0.
         25    1    1    2    0    0 -0.18978002881E+03  0.12988352457E+01  0.32522066577E+02  0.22956661587E+03  0.12500000000E+03 0.  0.
</event>
<event>
 5    0  0.5503691E-005  0.5338785E+03  0.7546771E-02  0.1005296E+00
         21   -1    0    0  502  501  0.00000000000E+00  0.00000000000E+00  0.13567781420E+03  0.13567781420E+03  0.00000000000E+00 0. -1.
         21   -1    0    0  501  502 -0.00000000000E+00 -0.00000000000E+00 -0.21007578844E+04  0.21007578844E+04  0.00000000000E+00 0. -1.
         25    1    1    2    0    0  0.47270794441E+02  0.28217782552E+03 -0.13693407809E+03  0.34093224395E+03  0.12500000000E+03 0.  0.
         25    1    1    2    0    0 -0.14711200852E+03 -0.27942528561E+03 -0.13020093268E+04  0.13455756093E+04  0.12500000000E+03 0.  0.
         25    1    1    2    0    0  0.99841214084E+02 -0.27525399105E+01 -0.52613666531E+03  0.54992784535E+03  0.12500000000E+03 0.  0.
</event>
<event>
 5    0  0.5503691E-005  0.2958701E+03  0.7546771E-02  0.1087323E+00
         21   -1    0    0  502  501  0.00000000000E+00  0.00000000000E+00  0.69475266696E+03  0.69475266696E+03  0.00000000000E+00 0. -1.
         21   -1    0    0  501  502 -0.00000000000E+00 -0.00000000000E+00 -0.12600043074E+03  0.12600043074E+03  0.00000000000E+00 0. -1.
         25    1    1    2    0    0 -0.10085351206E+03 -0.66641698753E+02  0.25848258210E+03  0.31152976127E+03  0.12500000000E+03 0.  0.
         25    1    1    2    0    0 -0.25575162691E+02  0.80502968875E+02 -0.56730098997E+00  0.15086463726E+03  0.12500000000E+03 0.  0.
         25    1    1    2    0    0  0.12642867475E+03 -0.13861270122E+02  0.31083695512E+03  0.35835869918E+03  0.12500000000E+03 0.  0.
</event>
<event>
 5    0  0.5877634E-005  0.2759539E+03  0.7546771E-02  0.1097920E+00
         21   -1    0    0  502  501  0.00000000000E+00  0.00000000000E+00  0.27112089994E+03  0.27112089994E+03  0.00000000000E+00 0. -1.
         21   -1    0    0  501  502 -0.00000000000E+00 -0.00000000000E+00 -0.28087310213E+03  0.28087310213E+03  0.00000000000E+00 0. -1.
         25    1    1    2    0    0 -0.59836318773E+02  0.11218787038E+02 -0.10169824906E+03  0.17226079092E+03  0.12500000000E+03 0.  0.
         25    1    1    2    0    0  0.41573180067E+02  0.63434084226E+02  0.16106757288E+03  0.21753155030E+03  0.12500000000E+03 0.  0.
         25    1    1    2    0    0  0.18263138706E+02 -0.74652871264E+02 -0.69121526007E+02  0.16220166085E+03  0.12500000000E+03 0.  0.
</event>
<event>
 5    0  0.5503691E-005  0.5061742E+03  0.7546771E-02  0.1012180E+00
         21   -1    0    0  502  501  0.00000000000E+00  0.00000000000E+00  0.22491407168E+04  0.22491407168E+04  0.00000000000E+00 0.  1.
         21   -1    0    0  501  502 -0.00000000000E+00 -0.00000000000E+00 -0.11391565262E+03  0.11391565262E+03  0.00000000000E+00 0.  1.
         25    1    1    2    0    0 -0.67473118878E+02 -0.30049350088E+03  0.91641859108E+03  0.97483178032E+03  0.12500000000E+03 0.  0.
         25    1    1    2    0    0 -0.85434717460E+02  0.40854573415E+03  0.73141947849E+03  0.85135665931E+03  0.12500000000E+03 0.  0.
         25    1    1    2    0    0  0.15290783634E+03 -0.10805223326E+03  0.48738699466E+03  0.53686792984E+03  0.12500000000E+03 0.  0.
</event>
<event>
 5    0  0.5503691E-005  0.2719883E+03  0.7546771E-02  0.1100147E+00
         21   -1    0    0  502  501  0.00000000000E+00  0.00000000000E+00  0.90508036974E+03  0.90508036974E+03  0.00000000000E+00 0. -1.
         21   -1    0    0  501  502 -0.00000000000E+00 -0.00000000000E+00 -0.81735956201E+02  0.81735956201E+02  0.00000000000E+00 0. -1.
         25    1    1    2    0    0  0.12537658732E+03 -0.36938505943E+02  0.20182851358E+03  0.27100459547E+03  0.12500000000E+03 0.  0.
         25    1    1    2    0    0 -0.33741606843E+02  0.11127588763E+03  0.21566177847E+03  0.27505603410E+03  0.12500000000E+03 0.  0.
         25    1    1    2    0    0 -0.91634980477E+02 -0.74337381683E+02  0.40585412148E+03  0.44075569638E+03  0.12500000000E+03 0.  0.
</event>
<event>
 5    0  0.5503691E-005  0.2562196E+03  0.7546771E-02  0.1109436E+00
         21   -1    0    0  502  501  0.00000000000E+00  0.00000000000E+00  0.37537943369E+03  0.37537943369E+03  0.00000000000E+00 0.  1.
         21   -1    0    0  501  502 -0.00000000000E+00 -0.00000000000E+00 -0.17488564357E+03  0.17488564357E+03  0.00000000000E+00 0.  1.
         25    1    1    2    0    0  0.58235001334E+02 -0.43130457204E+02  0.10858517856E+03  0.18074095474E+03  0.12500000000E+03 0.  0.
         25    1    1    2    0    0 -0.14833316551E+03  0.34296975767E+02  0.86356322766E+02  0.21508469266E+03  0.12500000000E+03 0.  0.
         25    1    1    2    0    0  0.90098164175E+02  0.88334814373E+01  0.55522887960E+01  0.15443942985E+03  0.12500000000E+03 0.  0.
</event>
<event>
 5    0  0.5503691E-005  0.2718196E+03  0.7546771E-02  0.1100243E+00
         21   -1    0    0  502  501  0.00000000000E+00  0.00000000000E+00  0.95821252138E+03  0.95821252138E+03  0.00000000000E+00 0. -1.
         21   -1    0    0  501  502 -0.00000000000E+00 -0.00000000000E+00 -0.77108048794E+02  0.77108048794E+02  0.00000000000E+00 0. -1.
         25    1    1    2    0    0  0.11338832536E+03  0.63971761197E+01  0.36503808329E+03  0.40221342400E+03  0.12500000000E+03 0.  0.
         25    1    1    2    0    0 -0.79833019910E+02 -0.89672129268E+02  0.41296909472E+03  0.44786479547E+03  0.12500000000E+03 0.  0.
         25    1    1    2    0    0 -0.33555305446E+02  0.83274953148E+02  0.10309729458E+03  0.18524235071E+03  0.12500000000E+03 0.  0.
</event>
<event>
 5    0  0.5503691E-005  0.2863238E+03  0.7546771E-02  0.1092284E+00
         21   -1    0    0  502  501  0.00000000000E+00  0.00000000000E+00  0.13269065275E+04  0.13269065275E+04  0.00000000000E+00 0.  1.
         21   -1    0    0  501  502 -0.00000000000E+00 -0.00000000000E+00 -0.61783778251E+02  0.61783778251E+02  0.00000000000E+00 0.  1.
         25    1    1    2    0    0  0.33357785044E+02  0.82887092272E+02  0.11352511926E+03  0.19103917031E+03  0.12500000000E+03 0.  0.
         25    1    1    2    0    0 -0.49633403217E+02  0.44052869502E+02  0.64648213515E+03  0.66179172033E+03  0.12500000000E+03 0.  0.
         25    1    1    2    0    0  0.16275618173E+02 -0.12693996177E+03  0.50511549483E+03  0.53585941511E+03  0.12500000000E+03 0.  0.
</event>
<event>
 5    0  0.5589103E-005  0.3474278E+03  0.7546771E-02  0.1063676E+00
         21   -1    0    0  502  501  0.00000000000E+00  0.00000000000E+00  0.51723785107E+03  0.51723785107E+03  0.00000000000E+00 0. -1.
         21   -1    0    0  501  502 -0.00000000000E+00 -0.00000000000E+00 -0.23336668196E+03  0.23336668196E+03  0.00000000000E+00 0. -1.
         25    1    1    2    0    0  0.38369254932E+02 -0.73371495451E+01  0.30255774634E+03  0.32968503660E+03  0.12500000000E+03 0.  0.
         25    1    1    2    0    0 -0.12298712450E+03  0.10433088438E+02 -0.14207681826E+03  0.22593252181E+03  0.12500000000E+03 0.  0.
         25    1    1    2    0    0  0.84617869568E+02 -0.30959388926E+01  0.12339024103E+03  0.19498697462E+03  0.12500000000E+03 0.  0.
</event>
<event>
 5    0  0.5503691E-005  0.5923255E+03  0.7546771E-02  0.9921457E-01
         21   -1    0    0  502  501  0.00000000000E+00  0.00000000000E+00  0.44747325489E+03  0.44747325489E+03  0.00000000000E+00 0.  1.
         21   -1    0    0  501  502 -0.00000000000E+00 -0.00000000000E+00 -0.78406804469E+03  0.78406804469E+03  0.00000000000E+00 0.  1.
         25    1    1    2    0    0  0.12964291453E+03 -0.30164698380E+03 -0.23162417592E+03  0.42080036478E+03  0.12500000000E+03 0.  0.
         25    1    1    2    0    0 -0.38128194121E+02  0.48698628209E+03  0.74658589247E+02  0.50971394240E+03  0.12500000000E+03 0.  0.
         25    1    1    2    0    0 -0.91514720412E+02 -0.18533929829E+03 -0.17962920312E+03  0.30102699240E+03  0.12500000000E+03 0.  0.
</event>
<event>
 5    0  0.5503691E-005  0.2173549E+03  0.7546771E-02  0.1135871E+00
         21   -1    0    0  502  501  0.00000000000E+00  0.00000000000E+00  0.72763636724E+02  0.72763636724E+02  0.00000000000E+00 0. -1.
         21   -1    0    0  501  502 -0.00000000000E+00 -0.00000000000E+00 -0.64926882233E+03  0.64926882233E+03  0.00000000000E+00 0. -1.
         25    1    1    2    0    0  0.21108979150E+02 -0.40166416834E+01 -0.80274398977E+02  0.15010230359E+03  0.12500000000E+03 0.  0.
         25    1    1    2    0    0 -0.50700809540E+02 -0.20813760757E+02 -0.15527598083E+03  0.20673513235E+03  0.12500000000E+03 0.  0.
         25    1    1    2    0    0  0.29591830390E+02  0.24830402441E+02 -0.34095480580E+03  0.36519502311E+03  0.12500000000E+03 0.  0.
</event>
<event>
 5    0  0.5503691E-005  0.2803998E+03  0.7546771E-02  0.1095471E+00
         21   -1    0    0  502  501  0.00000000000E+00  0.00000000000E+00  0.59800200767E+03  0.59800200767E+03  0.00000000000E+00 0. -1.
         21   -1    0    0  501  502 -0.00000000000E+00 -0.00000000000E+00 -0.13147789693E+03  0.13147789693E+03  0.00000000000E+00 0. -1.
         25    1    1    2    0    0  0.13541867886E+03 -0.85018852719E+02  0.25578402747E+03  0.32652242283E+03  0.12500000000E+03 0.  0.
         25    1    1    2    0    0  0.22316736500E+02  0.52333494818E+02  0.62630287269E+02  0.15094497107E+03  0.12500000000E+03 0.  0.
         25    1    1    2    0    0 -0.15773541536E+03  0.32685357901E+02  0.14810979600E+03  0.25201251070E+03  0.12500000000E+03 0.  0.
</event>
<event>
 5    0  0.5503691E-005  0.2478301E+03  0.7546771E-02  0.1114684E+00
         21   -1    0    0  502  501  0.00000000000E+00  0.00000000000E+00  0.43453865914E+03  0.43453865914E+03  0.00000000000E+00 0. -1.
         21   -1    0    0  501  502 -0.00000000000E+00 -0.00000000000E+00 -0.14134470084E+03  0.14134470084E+03  0.00000000000E+00 0. -1.
         25    1    1    2    0    0 -0.11967623478E+03  0.16014962969E+02  0.12128414452E+03  0.21192858213E+03  0.12500000000E+03 0.  0.
         25    1    1    2    0    0  0.39752647270E+02  0.37717986640E+02  0.15299894616E+03  0.20502828343E+03  0.12500000000E+03 0.  0.
         25    1    1    2    0    0  0.79923587509E+02 -0.53732949609E+02  0.18910867620E+02  0.15892649442E+03  0.12500000000E+03 0.  0.
</event>
<event>
 5    0  0.5503691E-005  0.3951323E+03  0.7546771E-02  0.1045478E+00
         21   -1    0    0  502  501  0.00000000000E+00  0.00000000000E+00  0.96988097693E+03  0.96988097693E+03  0.00000000000E+00 0. -1.
         21   -1    0    0  501  502 -0.00000000000E+00 -0.00000000000E+00 -0.16097806726E+03  0.16097806726E+03  0.00000000000E+00 0. -1.
         25    1    1    2    0    0  0.23130440933E+02  0.19784495054E+03  0.74682510990E+03  0.78297534222E+03  0.12500000000E+03 0.  0.
         25    1    1    2    0    0  0.43832571843E+02 -0.11466446938E+03  0.53805106279E+02  0.18327363246E+03  0.12500000000E+03 0.  0.
         25    1    1    2    0    0 -0.66963012775E+02 -0.83180481156E+02  0.82726934843E+01  0.16461006951E+03  0.12500000000E+03 0.  0.
</event>
<event>
 5    0  0.5503691E-005  0.5221265E+03  0.7546771E-02  0.1008160E+00
         21   -1    0    0  502  501  0.00000000000E+00  0.00000000000E+00  0.36287308825E+04  0.36287308825E+04  0.00000000000E+00 0. -1.
         21   -1    0    0  501  502 -0.00000000000E+00 -0.00000000000E+00 -0.75127126621E+02  0.75127126621E+02  0.00000000000E+00 0. -1.
         25    1    1    2    0    0 -0.25909766460E+03  0.15264813715E+03  0.86344347416E+03  0.92281779710E+03  0.12500000000E+03 0.  0.
         25    1    1    2    0    0 -0.18529557309E+03 -0.81728389176E+02  0.88649868785E+03  0.91788828436E+03  0.12500000000E+03 0.  0.
         25    1    1    2    0    0  0.44439323769E+03 -0.70919747975E+02  0.18036615939E+04  0.18631519277E+04  0.12500000000E+03 0.  0.
</event>
<event>
 5    0  0.5503691E-005  0.2600613E+03  0.7546771E-02  0.1107106E+00
         21   -1    0    0  502  501  0.00000000000E+00  0.00000000000E+00  0.25587711075E+02  0.25587711075E+02  0.00000000000E+00 0. -1.
         21   -1    0    0  501  502 -0.00000000000E+00 -0.00000000000E+00 -0.26431383002E+04  0.26431383002E+04  0.00000000000E+00 0. -1.
         25    1    1    2    0    0  0.59794433882E+02 -0.18115069032E+02 -0.91097948513E+03  0.92163558545E+03  0.12500000000E+03 0.  0.
         25    1    1    2    0    0 -0.87186656869E+02 -0.94089461218E+02 -0.11848724017E+04  0.11983329872E+04  0.12500000000E+03 0.  0.
         25    1    1    2    0    0  0.27392222986E+02  0.11220453025E+03 -0.52169870230E+03  0.54875743865E+03  0.12500000000E+03 0.  0.
</event>
<event>
 5    0  0.5503691E-005  0.5515602E+03  0.7546771E-02  0.1001133E+00
         21   -1    0    0  502  501  0.00000000000E+00  0.00000000000E+00  0.20154147015E+03  0.20154147015E+03  0.00000000000E+00 0.  1.
         21   -1    0    0  501  502 -0.00000000000E+00 -0.00000000000E+00 -0.15094595229E+04  0.15094595229E+04  0.00000000000E+00 0.  1.
         25    1    1    2    0    0 -0.26422584943E+03  0.23115054245E+03 -0.65957199767E+03  0.75756590003E+03  0.12500000000E+03 0.  0.
         25    1    1    2    0    0  0.42999846451E+03 -0.19204128634E+03 -0.43467974893E+03  0.65295483708E+03  0.12500000000E+03 0.  0.
         25    1    1    2    0    0 -0.16577261508E+03 -0.39109256105E+02 -0.21366630615E+03  0.30048025594E+03  0.12500000000E+03 0.  0.
</event>
<event>
 5    0  0.6154442E-005  0.2870150E+03  0.7546771E-02  0.1091918E+00
         21   -1    0    0  502  501  0.00000000000E+00  0.00000000000E+00  0.11756563541E+03  0.11756563541E+03  0.00000000000E+00 0.  1.
         21   -1    0    0  501  502 -0.00000000000E+00 -0.00000000000E+00 -0.70069462895E+03  0.70069462895E+03  0.00000000000E+00 0.  1.
         25    1    1    2    0    0  0.87186630255E+02 -0.83736758821E+02 -0.22777517805E+03  0.28656567311E+03  0.12500000000E+03 0.  0.
         25    1    1    2    0    0 -0.34862714778E+02 -0.10222247219E+03 -0.13995150256E+03  0.21650927410E+03  0.12500000000E+03 0.  0.
         25    1    1    2    0    0 -0.52323915476E+02  0.18595923101E+03 -0.21540231294E+03  0.31518531715E+03  0.12500000000E+03 0.  0.
</event>
<event>
 5    0  0.5503691E-005  0.2722936E+03  0.7546771E-02  0.1099974E+00
         21   -1    0    0  502  501  0.00000000000E+00  0.00000000000E+00  0.14864776321E+03  0.14864776321E+03  0.00000000000E+00 0.  1.
         21   -1    0    0  501  502 -0.00000000000E+00 -0.00000000000E+00 -0.49878871965E+03  0.49878871965E+03  0.00000000000E+00 0.  1.
         25    1    1    2    0    0  0.13646620423E+02  0.66110797268E+02 -0.17209197793E+02  0.14310144742E+03  0.12500000000E+03 0.  0.
         25    1    1    2    0    0 -0.87857207309E+02  0.43738465519E+02 -0.26670772100E+03  0.31046731017E+03  0.12500000000E+03 0.  0.
         25    1    1    2    0    0  0.74210586886E+02 -0.10984926279E+03 -0.66224037645E+02  0.19386772527E+03  0.12500000000E+03 0.  0.
</event>
<event>
 5    0  0.5503691E-005  0.4106817E+03  0.7546771E-02  0.1040142E+00
         21   -1    0    0  502  501  0.00000000000E+00  0.00000000000E+00  0.29269792307E+03  0.29269792307E+03  0.00000000000E+00 0. -1.
         21   -1    0    0  501  502 -0.00000000000E+00 -0.00000000000E+00 -0.57622374568E+03  0.57622374568E+03  0.00000000000E+00 0. -1.
         25    1    1    2    0    0 -0.93877713002E+02  0.75063586187E+02  0.44721627010E+02  0.17908822098E+03  0.12500000000E+03 0.  0.
         25    1    1    2    0    0  0.15002573241E+03 -0.28463819666E+03 -0.25430711332E+03  0.42874669826E+03  0.12500000000E+03 0.  0.
         25    1    1    2    0    0 -0.56148019408E+02  0.20957461047E+03 -0.73940336304E+02  0.26108674951E+03  0.12500000000E+03 0.  0.
</event>
<event>
 5    0  0.6282535E-005  0.2761879E+03  0.7546771E-02  0.1097789E+00
         21   -1    0    0  502  501  0.00000000000E+00  0.00000000000E+00  0.39563395583E+03  0.39563395583E+03  0.00000000000E+00 0.  1.
         21   -1    0    0  501  502 -0.00000000000E+00 -0.00000000000E+00 -0.19280386124E+03  0.19280386124E+03  0.00000000000E+00 0.  1.
         25    1    1    2    0    0 -0.12419891247E+03 -0.13457769199E+03  0.60985835596E+02  0.22995825096E+03  0.12500000000E+03 0.  0.
         25    1    1    2    0    0  0.99346084108E+02  0.27505695490E+02  0.57908206106E+02  0.17205978044E+03  0.12500000000E+03 0.  0.
         25    1    1    2    0    0  0.24852828362E+02  0.10707199650E+03  0.83936052892E+02  0.18641978567E+03  0.12500000000E+03 0.  0.
</event>
<event>
 5    0  0.5503691E-005  0.2097987E+03  0.7546771E-02  0.1141725E+00
         21   -1    0    0  502  501  0.00000000000E+00  0.00000000000E+00  0.26388451763E+03  0.26388451763E+03  0.00000000000E+00 0. -1.
         21   -1    0    0  501  502 -0.00000000000E+00 -0.00000000000E+00 -0.16679833512E+03  0.16679833512E+03  0.00000000000E+00 0. -1.
         25    1    1    2    0    0 -0.25002037580E+02  0.37684703824E+02  0.86280652251E+02  0.15847583329E+03  0.12500000000E+03 0.  0.
         25    1    1    2    0    0  0.51105864517E+02  0.41069232488E+01 -0.13084955388E+02  0.13573832275E+03  0.12500000000E+03 0.  0.
         25    1    1    2    0    0 -0.26103826936E+02 -0.41791627073E+02  0.23890485647E+02  0.13646869670E+03  0.12500000000E+03 0.  0.
</event>
<event>
 5    0  0.5503691E-005  0.4131521E+03  0.7546771E-02  0.1039318E+00
         21   -1    0    0  502  501  0.00000000000E+00  0.00000000000E+00  0.10326242496E+04  0.10326242496E+04  0.00000000000E+00 0.  1.
         21   -1    0    0  501  502 -0.00000000000E+00 -0.00000000000E+00 -0.16530182011E+03  0.16530182011E+03  0.00000000000E+00 0.  1.
         25    1    1    2    0    0  0.21478676369E+03  0.48561129288E+02  0.23732044204E+03  0.34704110613E+03  0.12500000000E+03 0.  0.
         25    1    1    2    0    0 -0.27907867596E+03  0.12395675067E+03  0.26415495679E+03  0.42267366207E+03  0.12500000000E+03 0.  0.
         25    1    1    2    0    0  0.64291912265E+02 -0.17251787996E+03  0.36584703064E+03  0.42821130148E+03  0.12500000000E+03 0.  0.
</event>
<event>
 5    0  0.5503691E-005  0.5917327E+03  0.7546771E-02  0.9922708E-01
         21   -1    0    0  502  501  0.00000000000E+00  0.00000000000E+00  0.12268854628E+04  0.12268854628E+04  0.00000000000E+00 0.  1.
         21   -1    0    0  501  502 -0.00000000000E+00 -0.00000000000E+00 -0.28539551149E+03  0.28539551149E+03  0.00000000000E+00 0.  1.
         25    1    1    2    0    0  0.26801136334E+03  0.41978158571E+02  0.41053818958E+03  0.50769957828E+03  0.12500000000E+03 0.  0.
         25    1    1    2    0    0  0.10183308257E+03 -0.16349691069E+03 -0.10183621810E+03  0.25119082752E+03  0.12500000000E+03 0.  0.
         25    1    1    2    0    0 -0.36984444592E+03  0.12151875212E+03  0.63278797986E+03  0.75339056853E+03  0.12500000000E+03 0.  0.
</event>
<event>
 5    0  0.5503691E-005  0.2715041E+03  0.7546771E-02  0.1100422E+00
         21   -1    0    0  502  501  0.00000000000E+00  0.00000000000E+00  0.12209434144E+04  0.12209434144E+04  0.00000000000E+00 0. -1.
         21   -1    0    0  501  502 -0.00000000000E+00 -0.00000000000E+00 -0.60375017548E+02  0.60375017548E+02  0.00000000000E+00 0. -1.
         25    1    1    2    0    0 -0.70096696710E+02 -0.28725564280E+02  0.63610974683E+03  0.65268623009E+03  0.12500000000E+03 0.  0.
         25    1    1    2    0    0  0.10306751009E+03  0.47319747362E+02  0.12978935225E+03  0.21291394056E+03  0.12500000000E+03 0.  0.
         25    1    1    2    0    0 -0.32970813375E+02 -0.18594183082E+02  0.39466929773E+03  0.41571826126E+03  0.12500000000E+03 0.  0.
</event>
<event>
 5    0  0.5503691E-005  0.3100334E+03  0.7546771E-02  0.1080330E+00
         21   -1    0    0  502  501  0.00000000000E+00  0.00000000000E+00  0.61441714304E+03  0.61441714304E+03  0.00000000000E+00 0. -1.
         21   -1    0    0  501  502 -0.00000000000E+00 -0.00000000000E+00 -0.15644211721E+03  0.15644211721E+03  0.00000000000E+00 0. -1.
         25    1    1    2    0    0 -0.10826938320E+03  0.30562921083E+02  0.33210725066E+03  0.37225875064E+03  0.12500000000E+03 0.  0.
         25    1    1    2    0    0  0.10035850673E+03 -0.88969216576E+02  0.17350594827E+03  0.25242160259E+03  0.12500000000E+03 0.  0.
         25    1    1    2    0    0  0.79108764710E+01  0.58406295493E+02 -0.47638173101E+02  0.14617890702E+03  0.12500000000E+03 0.  0.
</event>
<event>
 5    0  0.5503691E-005  0.2073710E+03  0.7546771E-02  0.1143665E+00
         21   -1    0    0  502  501  0.00000000000E+00  0.00000000000E+00  0.70790942016E+03  0.70790942016E+03  0.00000000000E+00 0.  1.
         21   -1    0    0  501  502 -0.00000000000E+00 -0.00000000000E+00 -0.60746093805E+02  0.60746093805E+02  0.00000000000E+00 0.  1.
         25    1    1    2    0    0 -0.43872264055E+02  0.60190483587E+02  0.16937434075E+03  0.22329428378E+03  0.12500000000E+03 0.  0.
         25    1    1    2    0    0  0.30625468409E+02 -0.42618033388E+02  0.23087029894E+03  0.26773178933E+03  0.12500000000E+03 0.  0.
         25    1    1    2    0    0  0.13246795646E+02 -0.17572450199E+02  0.24691868668E+03  0.27762944086E+03  0.12500000000E+03 0.  0.
</event>
<event>
 5    0  0.5503691E-005  0.2464235E+03  0.7546771E-02  0.1115586E+00
         21   -1    0    0  502  501  0.00000000000E+00  0.00000000000E+00  0.12499994004E+03  0.12499994004E+03  0.00000000000E+00 0.  1.
         21   -1    0    0  501  502 -0.00000000000E+00 -0.00000000000E+00 -0.48579646968E+03  0.48579646968E+03  0.00000000000E+00 0.  1.
         25    1    1    2    0    0 -0.27981013085E+02  0.14220054035E+03 -0.11829462755E+03  0.22499455477E+03  0.12500000000E+03 0.  0.
         25    1    1    2    0    0  0.24894896781E+02 -0.89563825687E+02 -0.83349692344E+02  0.17667372745E+03  0.12500000000E+03 0.  0.
         25    1    1    2    0    0  0.30861163040E+01 -0.52636714667E+02 -0.15915220974E+03  0.20912812750E+03  0.12500000000E+03 0.  0.
</event>
<event>
 5    0  0.6793569E-005  0.3265899E+03  0.7546771E-02  0.1072656E+00
         21   -1    0    0  502  501  0.00000000000E+00  0.00000000000E+00  0.77372067297E+03  0.77372067297E+03  0.00000000000E+00 0. -1.
         21   -1    0    0  501  502 -0.00000000000E+00 -0.00000000000E+00 -0.13785457815E+03  0.13785457815E+03  0.00000000000E+00 0. -1.
         25    1    1    2    0    0 -0.68839365706E+02 -0.13894766508E+03  0.89252394343E+02  0.21825742094E+03  0.12500000000E+03 0.  0.
         25    1    1    2    0    0  0.94046160906E+02  0.14008036100E+03  0.10717693166E+03  0.23575216351E+03  0.12500000000E+03 0.  0.
         25    1    1    2    0    0 -0.25206795200E+02 -0.11326959197E+01  0.43943676882E+03  0.45756566667E+03  0.12500000000E+03 0.  0.
</event>
<event>
 5    0  0.5503691E-005  0.2519714E+03  0.7546771E-02  0.1112065E+00
         21   -1    0    0  502  501  0.00000000000E+00  0.00000000000E+00  0.82847130770E+02  0.82847130770E+02  0.00000000000E+00 0.  1.
         21   -1    0    0  501  502 -0.00000000000E+00 -0.00000000000E+00 -0.76634637427E+03  0.76634637427E+03  0.00000000000E+00 0.  1.
         25    1    1    2    0    0  0.29221356382E+02  0.11728366901E+03 -0.16005092654E+03  0.23632741223E+03  0.12500000000E+03 0.  0.
         25    1    1    2    0    0  0.56983145900E+02 -0.21948402837E+02 -0.24301222597E+03  0.28001563041E+03  0.12500000000E+03 0.  0.
         25    1    1    2    0    0 -0.86204502282E+02 -0.95335266172E+02 -0.28043609100E+03  0.33285046240E+03  0.12500000000E+03 0.  0.
</event>
<event>
 5    0  0.5503691E-005  0.2104186E+03  0.7546771E-02  0.1141235E+00
         21   -1    0    0  502  501  0.00000000000E+00  0.00000000000E+00  0.45565473280E+02  0.45565473280E+02  0.00000000000E+00 0. -1.
         21   -1    0    0  501  502 -0.00000000000E+00 -0.00000000000E+00 -0.97170034333E+03  0.97170034333E+03  0.00000000000E+00 0. -1.
         25    1    1    2    0    0 -0.45894313364E+02 -0.41545468774E+02 -0.45697858055E+03  0.47779361345E+03  0.12500000000E+03 0.  0.
         25    1    1    2    0    0  0.53134987993E+01  0.51988770902E+01 -0.17434276123E+03  0.21465241668E+03  0.12500000000E+03 0.  0.
         25    1    1    2    0    0  0.40580814565E+02  0.36346591684E+02 -0.29481352827E+03  0.32481978648E+03  0.12500000000E+03 0.  0.
</event>
<event>
 5    0  0.5503691E-005  0.2609139E+03  0.7546771E-02  0.1106595E+00
         21   -1    0    0  502  501  0.00000000000E+00  0.00000000000E+00  0.29356590165E+03  0.29356590165E+03  0.00000000000E+00 0.  1.
         21   -1    0    0  501  502 -0.00000000000E+00 -0.00000000000E+00 -0.23189361076E+03  0.23189361076E+03  0.00000000000E+00 0.  1.
         25    1    1    2    0    0  0.39786437905E+02 -0.19208551668E+02  0.10780496623E+03  0.17087668022E+03  0.12500000000E+03 0.  0.
         25    1    1    2    0    0 -0.53926323609E+01 -0.10659878127E+03 -0.56035810376E+02  0.17365883996E+03  0.12500000000E+03 0.  0.
         25    1    1    2    0    0 -0.34393805544E+02  0.12580733294E+03  0.99031350314E+01  0.18092399223E+03  0.12500000000E+03 0.  0.
</event>
<event>
 5    0  0.5503691E-005  0.1174093E+04  0.7546771E-02  0.9135840E-01
         21   -1    0    0  502  501  0.00000000000E+00  0.00000000000E+00  0.15163748430E+04  0.15163748430E+04  0.00000000000E+00 0. -1.
         21   -1    0    0  501  502 -0.00000000000E+00 -0.00000000000E+00 -0.90907273867E+03  0.90907273867E+03  0.00000000000E+00 0. -1.
         25    1    1    2    0    0 -0.51177701381E+03 -0.24475649539E+03 -0.68225891380E+03  0.89606008691E+03  0.12500000000E+03 0.  0.
         25    1    1    2    0    0  0.41873520774E+03 -0.89812597135E+02  0.60540064966E+03  0.75202421731E+03  0.12500000000E+03 0.  0.
         25    1    1    2    0    0  0.93041806071E+02  0.33456909253E+03  0.68416036846E+03  0.77736327744E+03  0.12500000000E+03 0.  0.
</event>
<event>
 5    0  0.5503691E-005  0.2829888E+03  0.7546771E-02  0.1094068E+00
         21   -1    0    0  502  501  0.00000000000E+00  0.00000000000E+00  0.72315497400E+03  0.72315497400E+03  0.00000000000E+00 0. -1.
         21   -1    0    0  501  502 -0.00000000000E+00 -0.00000000000E+00 -0.11074063979E+03  0.11074063979E+03  0.00000000000E+00 0. -1.
         25    1    1    2    0    0  0.71451676732E+02 -0.42056952680E+02  0.44889634257E+02  0.15657013968E+03  0.12500000000E+03 0.  0.
         25    1    1    2    0    0 -0.85955634283E+02  0.11455805886E+03  0.45656314251E+03  0.49455719893E+03  0.12500000000E+03 0.  0.
         25    1    1    2    0    0  0.14503957551E+02 -0.72501106177E+02  0.11096155744E+03  0.18276827518E+03  0.12500000000E+03 0.  0.
</event>
<event>
 5    0  0.5503691E-005  0.3741963E+03  0.7546771E-02  0.1053100E+00
         21   -1    0    0  502  501  0.00000000000E+00  0.00000000000E+00  0.18866576905E+04  0.18866576905E+04  0.00000000000E+00 0.  1.
         21   -1    0    0  501  502 -0.00000000000E+00 -0.00000000000E+00 -0.74217434802E+02  0.74217434802E+02  0.00000000000E+00 0.  1.
         25    1    1    2    0    0  0.16888778344E+02 -0.95234895655E+02  0.29975800048E+03  0.33887280067E+03  0.12500000000E+03 0.  0.
         25    1    1    2    0    0  0.60494062012E+02  0.77205282339E+02  0.73231896490E+02  0.17495170140E+03  0.12500000000E+03 0.  0.
         25    1    1    2    0    0 -0.77382840356E+02  0.18029613316E+02  0.14394503588E+04  0.14470506233E+04  0.12500000000E+03 0.  0.
</event>
<event>
 5    0  0.5503691E-005  0.3048520E+03  0.7546771E-02  0.1082840E+00
         21   -1    0    0  502  501  0.00000000000E+00  0.00000000000E+00  0.20205398538E+03  0.20205398538E+03  0.00000000000E+00 0.  1.
         21   -1    0    0  501  502 -0.00000000000E+00 -0.00000000000E+00 -0.45995012624E+03  0.45995012624E+03  0.00000000000E+00 0.  1.
         25    1    1    2    0    0  0.16907827726E+03 -0.17943182334E+02 -0.65861987312E+00  0.21103283018E+03  0.12500000000E+03 0.  0.
         25    1    1    2    0    0 -0.40450572368E+02  0.79393034066E+02 -0.20158135646E+03  0.25337629316E+03  0.12500000000E+03 0.  0.
         25    1    1    2    0    0 -0.12862770489E+03 -0.61449851732E+02 -0.55656164522E+02  0.19759498828E+03  0.12500000000E+03 0.  0.
</event>
<event>
 5    0  0.5503691E-005  0.2933473E+03  0.7546771E-02  0.1088614E+00
         21   -1    0    0  502  501  0.00000000000E+00  0.00000000000E+00  0.39843479047E+03  0.39843479047E+03  0.00000000000E+00 0. -1.
         21   -1    0    0  501  502 -0.00000000000E+00 -0.00000000000E+00 -0.21597664914E+03  0.21597664914E+03  0.00000000000E+00 0. -1.
         25    1    1    2    0    0 -0.70046455343E+02 -0.13987690425E+03  0.18070676177E+03  0.26972576443E+03  0.12500000000E+03 0.  0.
         25    1    1    2    0    0 -0.58965181500E+01  0.89394342420E+02  0.77721749502E+02  0.17231305153E+03  0.12500000000E+03 0.  0.
         25    1    1    2    0    0  0.75942973493E+02  0.50482561830E+02 -0.75970369941E+02  0.17237262364E+03  0.12500000000E+03 0.  0.
</event>
<event>
 5    0  0.5503691E-005  0.2607363E+03  0.7546771E-02  0.1106702E+00
         21   -1    0    0  502  501  0.00000000000E+00  0.00000000000E+00  0.89308041824E+02  0.89308041824E+02  0.00000000000E+00 0.  1.
         21   -1    0    0  501  502 -0.00000000000E+00 -0.00000000000E+00 -0.76122399970E+03  0.76122399970E+03  0.00000000000E+00 0.  1.
         25    1    1    2    0    0 -0.62310357348E+02 -0.45242113447E+02 -0.16788247474E+03  0.22302231903E+03  0.12500000000E+03 0.  0.
         25    1    1    2    0    0  0.11790423319E+03  0.11891795976E+03 -0.21789555744E+03  0.30190455994E+03  0.12500000000E+03 0.  0.
         25    1    1    2    0    0 -0.55593875843E+02 -0.73675846313E+02 -0.28613792570E+03  0.32560516256E+03  0.12500000000E+03 0.  0.
</event>
<event>
 5    0  0.5503691E-005  0.2924212E+03  0.7546771E-02  0.1089092E+00
         21   -1    0    0  502  501  0.00000000000E+00  0.00000000000E+00  0.37922514765E+03  0.37922514765E+03  0.00000000000E+00 0. -1.
         21   -1    0    0  501  502 -0.00000000000E+00 -0.00000000000E+00 -0.22548653707E+03  0.22548653707E+03  0.00000000000E+00 0. -1.
         25    1    1    2    0    0 -0.14438420827E+03  0.62001336041E+02  0.58878679561E+02  0.20924307438E+03  0.12500000000E+03 0.  0.
         25    1    1    2    0    0  0.85037592546E+02  0.19359394221E+02  0.16113884077E+03  0.22180375176E+03  0.12500000000E+03 0.  0.
         25    1    1    2    0    0  0.59346615725E+02 -0.81360730262E+02 -0.66278909757E+02  0.17366485858E+03  0.12500000000E+03 0.  0.
</event>
<event>
 5    0  0.5503691E-005  0.2941244E+03  0.7546771E-02  0.1088215E+00
         21   -1    0    0  502  501  0.00000000000E+00  0.00000000000E+00  0.77880356703E+02  0.77880356703E+02  0.00000000000E+00 0. -1.
         21   -1    0    0  501  502 -0.00000000000E+00 -0.00000000000E+00 -0.11107959897E+04  0.11107959897E+04  0.00000000000E+00 0. -1.
         25    1    1    2    0    0  0.47035696395E+02 -0.38152631955E+01 -0.18170452317E+02  0.13484093706E+03  0.12500000000E+03 0.  0.
         25    1    1    2    0    0 -0.69671192533E+02  0.46146273803E+02 -0.55064915768E+03  0.57080911740E+03  0.12500000000E+03 0.  0.
         25    1    1    2    0    0  0.22635496137E+02 -0.42331010608E+02 -0.46409602296E+03  0.48302629191E+03  0.12500000000E+03 0.  0.
</event>
<event>
 5    0  0.5503691E-005  0.3155035E+03  0.7546771E-02  0.1077738E+00
         21   -1    0    0  502  501  0.00000000000E+00  0.00000000000E+00  0.66257061276E+02  0.66257061276E+02  0.00000000000E+00 0.  1.
         21   -1    0    0  501  502 -0.00000000000E+00 -0.00000000000E+00 -0.15023670694E+04  0.15023670694E+04  0.00000000000E+00 0.  1.
         25    1    1    2    0    0  0.28016097052E+01 -0.82543287859E+02 -0.35362119909E+03  0.38404973094E+03  0.12500000000E+03 0.  0.
         25    1    1    2    0    0  0.13852861213E+03  0.15423291868E+03 -0.81047383993E+03  0.84585507908E+03  0.12500000000E+03 0.  0.
         25    1    1    2    0    0 -0.14133022184E+03 -0.71689630821E+02 -0.27201496909E+03  0.33871932065E+03  0.12500000000E+03 0.  0.
</event>
<event>
 5    0  0.5503691E-005  0.4041256E+03  0.7546771E-02  0.1042360E+00
         21   -1    0    0  502  501  0.00000000000E+00  0.00000000000E+00  0.39172762997E+03  0.39172762997E+03  0.00000000000E+00 0. -1.
         21   -1    0    0  501  502 -0.00000000000E+00 -0.00000000000E+00 -0.41691586190E+03  0.41691586190E+03  0.00000000000E+00 0. -1.
         25    1    1    2    0    0 -0.90109939541E+02 -0.14851880293E+02  0.17986652514E+03  0.23731276076E+03  0.12500000000E+03 0.  0.
         25    1    1    2    0    0 -0.18531833253E+03  0.48559330974E+02 -0.80698106378E+02  0.24256561456E+03  0.12500000000E+03 0.  0.
         25    1    1    2    0    0  0.27542827207E+03 -0.33707450681E+02 -0.12435665070E+03  0.32876511655E+03  0.12500000000E+03 0.  0.
</event>
<event>
 5    0  0.5503691E-005  0.2416966E+03  0.7546771E-02  0.1118668E+00
         21   -1    0    0  502  501  0.00000000000E+00  0.00000000000E+00  0.17161204489E+03  0.17161204489E+03  0.00000000000E+00 0. -1.
         21   -1    0    0  501  502 -0.00000000000E+00 -0.00000000000E+00 -0.34040293795E+03  0.34040293795E+03  0.00000000000E+00 0. -1.
         25    1    1    2    0    0  0.72541063877E+02  0.72378926075E+02 -0.63725435525E+02  0.17374362153E+03  0.12500000000E+03 0.  0.
         25    1    1    2    0    0 -0.62406108898E+02 -0.25919081391E+01  0.28048324088E+02  0.14252350297E+03  0.12500000000E+03 0.  0.
         25    1    1    2    0    0 -0.10134954978E+02 -0.69787017936E+02 -0.13311378162E+03  0.19574785834E+03  0.12500000000E+03 0.  0.
</event>
<event>
 5    0  0.6447381E-005  0.5495763E+03  0.7546771E-02  0.1001592E+00
         21   -1    0    0  502  501  0.00000000000E+00  0.00000000000E+00  0.65207920659E+03  0.65207920659E+03  0.00000000000E+00 0.  1.
         21   -1    0    0  501  502 -0.00000000000E+00 -0.00000000000E+00 -0.46318631114E+03  0.46318631114E+03  0.00000000000E+00 0.  1.
         25    1    1    2    0    0 -0.24066630728E+03  0.26693110305E+03 -0.97644383196E+02  0.39285100331E+03  0.12500000000E+03 0.  0.
         25    1    1    2    0    0 -0.12426157247E+02 -0.25968344818E+03  0.32823459879E+03  0.43698152648E+03  0.12500000000E+03 0.  0.
         25    1    1    2    0    0  0.25309246452E+03 -0.72476548735E+01 -0.41697320142E+02  0.28543298794E+03  0.12500000000E+03 0.  0.
</event>
<event>
 5    0  0.5503691E-005  0.3269294E+03  0.7546771E-02  0.1072504E+00
         21   -1    0    0  502  501  0.00000000000E+00  0.00000000000E+00  0.89433837573E+02  0.89433837573E+02  0.00000000000E+00 0.  1.
         21   -1    0    0  501  502 -0.00000000000E+00 -0.00000000000E+00 -0.11951049442E+04  0.11951049442E+04  0.00000000000E+00 0.  1.
         25    1    1    2    0    0 -0.19674679155E+03  0.42337383226E+02 -0.32522227174E+03  0.40236336816E+03  0.12500000000E+03 0.  0.
         25    1    1    2    0    0 -0.13380356898E+02 -0.52333445693E+02 -0.45535194101E+03  0.47527698626E+03  0.12500000000E+03 0.  0.
         25    1    1    2    0    0  0.21012714844E+03  0.99960624668E+01 -0.32509689391E+03  0.40689842739E+03  0.12500000000E+03 0.  0.
</event>
<event>
 5    0  0.5503691E-005  0.2962879E+03  0.7546771E-02  0.1087111E+00
         21   -1    0    0  502  501  0.00000000000E+00  0.00000000000E+00  0.19502111328E+03  0.19502111328E+03  0.00000000000E+00 0. -1.
         21   -1    0    0  501  502 -0.00000000000E+00 -0.00000000000E+00 -0.45013842192E+03  0.45013842192E+03  0.00000000000E+00 0. -1.
         25    1    1    2    0    0  0.17651411624E+03 -0.37919004277E+02 -0.14264904808E+03  0.26185651612E+03  0.12500000000E+03 0.  0.
         25    1    1    2    0    0  0.22741950721E+02  0.28448012050E+02 -0.52429524543E+02  0.14035790236E+03  0.12500000000E+03 0.  0.
         25    1    1    2    0    0 -0.19925606696E+03  0.94709922269E+01 -0.60038736015E+02  0.24294511672E+03  0.12500000000E+03 0.  0.
</event>
<event>
 5    0  0.5503691E-005  0.4539838E+03  0.7546771E-02  0.1026541E+00
         21   -1    0    0  502  501  0.00000000000E+00  0.00000000000E+00  0.29919197343E+03  0.29919197343E+03  0.00000000000E+00 0. -1.
         21   -1    0    0  501  502 -0.00000000000E+00 -0.00000000000E+00 -0.68885978349E+03  0.68885978349E+03  0.00000000000E+00 0. -1.
         25    1    1    2    0    0 -0.33891828889E+02 -0.22721942756E+03  0.14427939053E+03  0.29869527424E+03  0.12500000000E+03 0.  0.
         25    1    1    2    0    0  0.14042764205E+03  0.51177614502E+02 -0.25383744373E+03  0.31999612297E+03  0.12500000000E+03 0.  0.
         25    1    1    2    0    0 -0.10653581316E+03  0.17604181305E+03 -0.28010975686E+03  0.36936035970E+03  0.12500000000E+03 0.  0.
</event>
<event>
 5    0  0.5503691E-005  0.2630090E+03  0.7546771E-02  0.1105349E+00
         21   -1    0    0  502  501  0.00000000000E+00  0.00000000000E+00  0.41113164565E+02  0.41113164565E+02  0.00000000000E+00 0.  1.
         21   -1    0    0  501  502 -0.00000000000E+00 -0.00000000000E+00 -0.16825203060E+04  0.16825203060E+04  0.00000000000E+00 0.  1.
         25    1    1    2    0    0  0.84746048617E+02  0.52890318369E+02 -0.21308255325E+03  0.26647411325E+03  0.12500000000E+03 0.  0.
         25    1    1    2    0    0 -0.73851913967E+02  0.67693464430E+01 -0.85319108067E+03  0.86548249513E+03  0.12500000000E+03 0.  0.
         25    1    1    2    0    0 -0.10894134650E+02 -0.59659664812E+02 -0.57513350754E+03  0.59167686221E+03  0.12500000000E+03 0.  0.
</event>
<event>
 5    0  0.5503691E-005  0.2738121E+03  0.7546771E-02  0.1099117E+00
         21   -1    0    0  502  501  0.00000000000E+00  0.00000000000E+00  0.44217485532E+03  0.44217485532E+03  0.00000000000E+00 0.  1.
         21   -1    0    0  501  502 -0.00000000000E+00 -0.00000000000E+00 -0.16955524037E+03  0.16955524037E+03  0.00000000000E+00 0.  1.
         25    1    1    2    0    0  0.30003894768E+02 -0.50867511211E+02  0.82189650646E+02  0.16083493424E+03  0.12500000000E+03 0.  0.
         25    1    1    2    0    0 -0.23155622971E+02 -0.12757271249E+03  0.35747072288E+02  0.18361327029E+03  0.12500000000E+03 0.  0.
         25    1    1    2    0    0 -0.68482717977E+01  0.17844022370E+03  0.15468289201E+03  0.26728189116E+03  0.12500000000E+03 0.  0.
</event>
<event>
 5    0  0.5503691E-005  0.2858270E+03  0.7546771E-02  0.1092548E+00
         21   -1    0    0  502  501  0.00000000000E+00  0.00000000000E+00  0.51683451312E+03  0.51683451312E+03  0.00000000000E+00 0.  1.
         21   -1    0    0  501  502 -0.00000000000E+00 -0.00000000000E+00 -0.15807199776E+03  0.15807199776E+03  0.00000000000E+00 0.  1.
         25    1    1    2    0    0 -0.14776325756E+03  0.69499847210E+02  0.29319782548E+03  0.35812591907E+03  0.12500000000E+03 0.  0.
         25    1    1    2    0    0  0.55239218203E+02 -0.20078888283E+02 -0.67505814150E+01  0.13829354046E+03  0.12500000000E+03 0.  0.
         25    1    1    2    0    0  0.92524039352E+02 -0.49420958927E+02  0.72315271300E+02  0.17848705136E+03  0.12500000000E+03 0.  0.
</event>
<event>
 5    0  0.5503691E-005  0.4068144E+03  0.7546771E-02  0.1041445E+00
         21   -1    0    0  502  501  0.00000000000E+00  0.00000000000E+00  0.15544257498E+03  0.15544257498E+03  0.00000000000E+00 0. -1.
         21   -1    0    0  501  502 -0.00000000000E+00 -0.00000000000E+00 -0.10646888383E+04  0.10646888383E+04  0.00000000000E+00 0. -1.
         25    1    1    2    0    0  0.23921747619E+03  0.20646146022E+02 -0.17419711772E+03  0.32190200385E+03  0.12500000000E+03 0.  0.
         25    1    1    2    0    0 -0.20232407776E+03 -0.14054997753E+03 -0.64036511978E+03  0.69741079376E+03  0.12500000000E+03 0.  0.
         25    1    1    2    0    0 -0.36893398430E+02  0.11990383151E+03 -0.94684025851E+02  0.20081861569E+03  0.12500000000E+03 0.  0.
</event>
<event>
 5    0  0.5503691E-005  0.4857082E+03  0.7546771E-02  0.1017578E+00
         21   -1    0    0  502  501  0.00000000000E+00  0.00000000000E+00  0.24591574059E+03  0.24591574059E+03  0.00000000000E+00 0.  1.
         21   -1    0    0  501  502 -0.00000000000E+00 -0.00000000000E+00 -0.95932231898E+03  0.95932231898E+03  0.00000000000E+00 0.  1.
         25    1    1    2    0    0  0.22726619225E+03 -0.22389963345E+03 -0.25379806464E+03  0.42640289119E+03  0.12500000000E+03 0.  0.
         25    1    1    2    0    0 -0.27254624447E+02  0.13657452024E+02  0.81449297829E+02  0.15227714427E+03  0.12500000000E+03 0.  0.
         25    1    1    2    0    0 -0.20001156781E+03  0.21024218142E+03 -0.54105781159E+03  0.62655802412E+03  0.12500000000E+03 0.  0.
</event>
<event>
 5    0  0.5503691E-005  0.2965765E+03  0.7546771E-02  0.1086965E+00
         21   -1    0    0  502  501  0.00000000000E+00  0.00000000000E+00  0.14844455410E+04  0.14844455410E+04  0.00000000000E+00 0. -1.
         21   -1    0    0  501  502 -0.00000000000E+00 -0.00000000000E+00 -0.59252850437E+02  0.59252850437E+02  0.00000000000E+00 0. -1.
         25    1    1    2    0    0  0.12710900699E+03  0.16207934073E+02  0.92189419856E+03  0.93911304438E+03  0.12500000000E+03 0.  0.
         25    1    1    2    0    0 -0.15330374884E+03  0.16100857991E+02  0.35094986546E+03  0.40317748586E+03  0.12500000000E+03 0.  0.
         25    1    1    2    0    0  0.26194741847E+02 -0.32308792065E+02  0.15234862655E+03  0.20140786121E+03  0.12500000000E+03 0.  0.
</event>
<event>
 5    0  0.5503691E-005  0.1587839E+04  0.7546771E-02  0.8828054E-01
         21   -1    0    0  502  501  0.00000000000E+00  0.00000000000E+00  0.15643213460E+04  0.15643213460E+04  0.00000000000E+00 0.  1.
         21   -1    0    0  501  502 -0.00000000000E+00 -0.00000000000E+00 -0.16117098329E+04  0.16117098329E+04  0.00000000000E+00 0.  1.
         25    1    1    2    0    0 -0.56590375417E+03  0.46145439141E+03  0.12819488554E+04  0.14806096995E+04  0.12500000000E+03 0.  0.
         25    1    1    2    0    0  0.17903739833E+03  0.18268640630E+03 -0.28529799163E+03  0.40304919932E+03  0.12500000000E+03 0.  0.
         25    1    1    2    0    0  0.38686635584E+03 -0.64414079771E+03 -0.10440393507E+04  0.12923722801E+04  0.12500000000E+03 0.  0.
</event>
<event>
 5    0  0.5503691E-005  0.3383266E+03  0.7546771E-02  0.1067511E+00
         21   -1    0    0  502  501  0.00000000000E+00  0.00000000000E+00  0.50398296919E+03  0.50398296919E+03  0.00000000000E+00 0. -1.
         21   -1    0    0  501  502 -0.00000000000E+00 -0.00000000000E+00 -0.22712052419E+03  0.22712052419E+03  0.00000000000E+00 0. -1.
         25    1    1    2    0    0  0.22431486356E+02  0.56769450222E+02  0.25886279932E+03  0.29387223572E+03  0.12500000000E+03 0.  0.
         25    1    1    2    0    0  0.54696978461E+02  0.21061862207E+01  0.16987755019E+03  0.21789808979E+03  0.12500000000E+03 0.  0.
         25    1    1    2    0    0 -0.77128464817E+02 -0.58875636443E+02 -0.15187790450E+03  0.21933316787E+03  0.12500000000E+03 0.  0.
</event>
<event>
 5    0  0.6044159E-005  0.2871247E+03  0.7546771E-02  0.1091860E+00
         21   -1    0    0  502  501  0.00000000000E+00  0.00000000000E+00  0.11504650721E+03  0.11504650721E+03  0.00000000000E+00 0.  1.
         21   -1    0    0  501  502 -0.00000000000E+00 -0.00000000000E+00 -0.71658513388E+03  0.71658513388E+03  0.00000000000E+00 0.  1.
         25    1    1    2    0    0  0.10608686687E+03  0.81504097132E+02 -0.58071960616E+02  0.19207991509E+03  0.12500000000E+03 0.  0.
         25    1    1    2    0    0  0.15884362491E+02 -0.28596600096E+02 -0.35239712578E+03  0.37533826446E+03  0.12500000000E+03 0.  0.
         25    1    1    2    0    0 -0.12197122937E+03 -0.52907497036E+02 -0.19106954028E+03  0.26421346154E+03  0.12500000000E+03 0.  0.
</event>
<event>
 5    0  0.5503691E-005  0.2748268E+03  0.7546771E-02  0.1098548E+00
         21   -1    0    0  502  501  0.00000000000E+00  0.00000000000E+00  0.79963528185E+03  0.79963528185E+03  0.00000000000E+00 0.  1.
         21   -1    0    0  501  502 -0.00000000000E+00 -0.00000000000E+00 -0.94455279485E+02  0.94455279485E+02  0.00000000000E+00 0.  1.
         25    1    1    2    0    0 -0.19340859362E+03 -0.38675502300E+01  0.30788280114E+03  0.38449793402E+03  0.12500000000E+03 0.  0.
         25    1    1    2    0    0  0.10290335987E+03  0.21911124430E+02  0.19147611827E+03  0.25170876567E+03  0.12500000000E+03 0.  0.
         25    1    1    2    0    0  0.90505233754E+02 -0.18043574200E+02  0.20582108296E+03  0.25788386164E+03  0.12500000000E+03 0.  0.
</event>
<event>
 5    0  0.5503691E-005  0.3174230E+03  0.7546771E-02  0.1076841E+00
         21   -1    0    0  502  501  0.00000000000E+00  0.00000000000E+00  0.14571658782E+03  0.14571658782E+03  0.00000000000E+00 0. -1.
         21   -1    0    0  501  502 -0.00000000000E+00 -0.00000000000E+00 -0.69146136543E+03  0.69146136543E+03  0.00000000000E+00 0. -1.
         25    1    1    2    0    0 -0.61532510320E+02 -0.34365150834E+02 -0.16518597554E+03  0.21881183682E+03  0.12500000000E+03 0.  0.
         25    1    1    2    0    0 -0.11835691600E+03  0.32220341602E+02 -0.35749680878E+03  0.39808978669E+03  0.12500000000E+03 0.  0.
         25    1    1    2    0    0  0.17988942632E+03  0.21448092321E+01 -0.23061993294E+02  0.22027632974E+03  0.12500000000E+03 0.  0.
</event>
<event>
 5    0  0.5503691E-005  0.3031050E+03  0.7546771E-02  0.1083699E+00
         21   -1    0    0  502  501  0.00000000000E+00  0.00000000000E+00  0.72346196121E+03  0.72346196121E+03  0.00000000000E+00 0. -1.
         21   -1    0    0  501  502 -0.00000000000E+00 -0.00000000000E+00 -0.12699029540E+03  0.12699029540E+03  0.00000000000E+00 0. -1.
         25    1    1    2    0    0  0.33113024049E+02  0.18295012301E+03  0.95938982980E+02  0.24371398878E+03  0.12500000000E+03 0.  0.
         25    1    1    2    0    0 -0.30998400768E+02 -0.12758451959E+02  0.22532849544E+03  0.25984920590E+03  0.12500000000E+03 0.  0.
         25    1    1    2    0    0 -0.21146232805E+01 -0.17019167105E+03  0.27520418740E+03  0.34688906193E+03  0.12500000000E+03 0.  0.
</event>
<event>
 5    0  0.5503691E-005  0.1976631E+03  0.7546771E-02  0.1151726E+00
         21   -1    0    0  502  501  0.00000000000E+00  0.00000000000E+00  0.27999630951E+03  0.27999630951E+03  0.00000000000E+00 0. -1.
         21   -1    0    0  501  502 -0.00000000000E+00 -0.00000000000E+00 -0.13954008906E+03  0.13954008906E+03  0.00000000000E+00 0. -1.
         25    1    1    2    0    0  0.22810915478E+02 -0.37467077342E+02  0.38335048214E+02  0.13790828717E+03  0.12500000000E+03 0.  0.
         25    1    1    2    0    0  0.91631074190E+01  0.17418304461E+02  0.22014212770E+02  0.12844059106E+03  0.12500000000E+03 0.  0.
         25    1    1    2    0    0 -0.31974022897E+02  0.20048772881E+02  0.80106959463E+02  0.15318752034E+03  0.12500000000E+03 0.  0.
</event>
<event>
 5    0  0.5503691E-005  0.3836571E+03  0.7546771E-02  0.1049590E+00
         21   -1    0    0  502  501  0.00000000000E+00  0.00000000000E+00  0.38420338670E+03  0.38420338670E+03  0.00000000000E+00 0.  1.
         21   -1    0    0  501  502 -0.00000000000E+00 -0.00000000000E+00 -0.38311167399E+03  0.38311167399E+03  0.00000000000E+00 0.  1.
         25    1    1    2    0    0 -0.22309189968E+03  0.38769987795E+02  0.21126075996E+02  0.25950803213E+03  0.12500000000E+03 0.  0.
         25    1    1    2    0    0  0.14087766827E+03 -0.20065473453E+03 -0.65149403059E+02  0.28280432215E+03  0.12500000000E+03 0.  0.
         25    1    1    2    0    0  0.82214231407E+02  0.16188474674E+03  0.45115039769E+02  0.22500270640E+03  0.12500000000E+03 0.  0.
</event>
<event>
 5    0  0.5503691E-005  0.5728040E+03  0.7546771E-02  0.9963493E-01
         21   -1    0    0  502  501  0.00000000000E+00  0.00000000000E+00  0.25578424051E+04  0.25578424051E+04  0.00000000000E+00 0. -1.
         21   -1    0    0  501  502 -0.00000000000E+00 -0.00000000000E+00 -0.12827390242E+03  0.12827390242E+03  0.00000000000E+00 0. -1.
         25    1    1    2    0    0 -0.13616814052E+03  0.29120526943E+03  0.97210666189E+03  0.10314837049E+04  0.12500000000E+03 0.  0.
         25    1    1    2    0    0  0.14544234657E+02  0.20876671416E+03  0.34328195445E+03  0.42102562387E+03  0.12500000000E+03 0.  0.
         25    1    1    2    0    0  0.12162390586E+03 -0.49997198359E+03  0.11141798863E+04  0.12336069787E+04  0.12500000000E+03 0.  0.
</event>
<event>
 5    0  0.5503691E-005  0.2816603E+03  0.7546771E-02  0.1094786E+00
         21   -1    0    0  502  501  0.00000000000E+00  0.00000000000E+00  0.31405330588E+03  0.31405330588E+03  0.00000000000E+00 0. -1.
         21   -1    0    0  501  502 -0.00000000000E+00 -0.00000000000E+00 -0.25260842104E+03  0.25260842104E+03  0.00000000000E+00 0. -1.
         25    1    1    2    0    0 -0.72667620321E+02 -0.44583135700E+02  0.20824444650E+03  0.25740821380E+03  0.12500000000E+03 0.  0.
         25    1    1    2    0    0  0.63800383127E+02  0.17095201315E+02 -0.97859083434E+02  0.17194224323E+03  0.12500000000E+03 0.  0.
         25    1    1    2    0    0  0.88672371949E+01  0.27487934384E+02 -0.48940478226E+02  0.13731126990E+03  0.12500000000E+03 0.  0.
</event>
<event>
 5    0  0.5503691E-005  0.2825448E+03  0.7546771E-02  0.1094307E+00
         21   -1    0    0  502  501  0.00000000000E+00  0.00000000000E+00  0.91422881255E+02  0.91422881255E+02  0.00000000000E+00 0.  1.
         21   -1    0    0  501  502 -0.00000000000E+00 -0.00000000000E+00 -0.87321229332E+03  0.87321229332E+03  0.00000000000E+00 0.  1.
         25    1    1    2    0    0  0.70142002814E+02 -0.65478275298E+00 -0.45526539255E+03  0.47729645605E+03  0.12500000000E+03 0.  0.
         25    1    1    2    0    0 -0.32344917283E+02 -0.11516135179E+03 -0.23022780920E+03  0.28798988654E+03  0.12500000000E+03 0.  0.
         25    1    1    2    0    0 -0.37797085531E+02  0.11581613454E+03 -0.96296210308E+02  0.19934883199E+03  0.12500000000E+03 0.  0.
</event>
<event>
 5    0  0.5503691E-005  0.3194125E+03  0.7546771E-02  0.1075920E+00
         21   -1    0    0  502  501  0.00000000000E+00  0.00000000000E+00  0.40374911533E+03  0.40374911533E+03  0.00000000000E+00 0. -1.
         21   -1    0    0  501  502 -0.00000000000E+00 -0.00000000000E+00 -0.25269248513E+03  0.25269248513E+03  0.00000000000E+00 0. -1.
         25    1    1    2    0    0 -0.93101909211E+02 -0.94671490217E+01  0.49686761563E+02  0.16386386632E+03  0.12500000000E+03 0.  0.
         25    1    1    2    0    0  0.13956449494E+03  0.11790902870E+03  0.19660700709E+03  0.29607448815E+03  0.12500000000E+03 0.  0.
         25    1    1    2    0    0 -0.46462585733E+02 -0.10844187968E+03 -0.95237138459E+02  0.19650324599E+03  0.12500000000E+03 0.  0.
</event>
<event>
 5    0  0.5503691E-005  0.4277383E+03  0.7546771E-02  0.1034577E+00
         21   -1    0    0  502  501  0.00000000000E+00  0.00000000000E+00  0.23020723813E+03  0.23020723813E+03  0.00000000000E+00 0.  1.
         21   -1    0    0  501  502 -0.00000000000E+00 -0.00000000000E+00 -0.79476219815E+03  0.79476219815E+03  0.00000000000E+00 0.  1.
         25    1    1    2    0    0  0.14323535722E+03  0.15165912181E+03 -0.48672624438E+03  0.54409952560E+03  0.12500000000E+03 0.  0.
         25    1    1    2    0    0 -0.11266696876E+03 -0.12289291042E+03  0.12199393475E+03  0.24146228152E+03  0.12500000000E+03 0.  0.
         25    1    1    2    0    0 -0.30568388461E+02 -0.28766211390E+02 -0.19982265039E+03  0.23940762916E+03  0.12500000000E+03 0.  0.
</event>
<event>
 5    0  0.5503691E-005  0.4541315E+03  0.7546771E-02  0.1026497E+00
         21   -1    0    0  502  501  0.00000000000E+00  0.00000000000E+00  0.25130832202E+03  0.25130832202E+03  0.00000000000E+00 0. -1.
         21   -1    0    0  501  502 -0.00000000000E+00 -0.00000000000E+00 -0.82064710925E+03  0.82064710925E+03  0.00000000000E+00 0. -1.
         25    1    1    2    0    0 -0.77565049245E+02 -0.13123610929E+03 -0.39408548005E+03  0.44064454931E+03  0.12500000000E+03 0.  0.
         25    1    1    2    0    0 -0.10326351042E+03  0.15756882246E+03 -0.30118605826E+03  0.37660234743E+03  0.12500000000E+03 0.  0.
         25    1    1    2    0    0  0.18082855966E+03 -0.26332713174E+02  0.12593275108E+03  0.25470853454E+03  0.12500000000E+03 0.  0.
</event>
<event>
 5    0  0.5503691E-005  0.3318430E+03  0.7546771E-02  0.1070324E+00
         21   -1    0    0  502  501  0.00000000000E+00  0.00000000000E+00  0.12204526182E+04  0.12204526182E+04  0.00000000000E+00 0. -1.
         21   -1    0    0  501  502 -0.00000000000E+00 -0.00000000000E+00 -0.90228635157E+02  0.90228635157E+02  0.00000000000E+00 0. -1.
         25    1    1    2    0    0  0.17666995361E+03 -0.98284414308E+02  0.31834331481E+03  0.39729027762E+03  0.12500000000E+03 0.  0.
         25    1    1    2    0    0 -0.66023324376E+02  0.11919149871E+03  0.17473429960E+03  0.25440669838E+03  0.12500000000E+03 0.  0.
         25    1    1    2    0    0 -0.11064662924E+03 -0.20907084399E+02  0.63714636861E+03  0.65898427734E+03  0.12500000000E+03 0.  0.
</event>
<event>
 5    0  0.5503691E-005  0.2241548E+03  0.7546771E-02  0.1130823E+00
         21   -1    0    0  502  501  0.00000000000E+00  0.00000000000E+00  0.38217618091E+03  0.38217618091E+03  0.00000000000E+00 0.  1.
         21   -1    0    0  501  502 -0.00000000000E+00 -0.00000000000E+00 -0.13147173798E+03  0.13147173798E+03  0.00000000000E+00 0.  1.
         25    1    1    2    0    0 -0.56519147205E+02  0.10267158149E+02  0.33185748990E+02  0.14151368299E+03  0.12500000000E+03 0.  0.
         25    1    1    2    0    0  0.10160695891E+03  0.57623597669E+01  0.78976555441E+02  0.17949784176E+03  0.12500000000E+03 0.  0.
         25    1    1    2    0    0 -0.45087811703E+02 -0.16029517916E+02  0.13854213850E+03  0.19263639415E+03  0.12500000000E+03 0.  0.
</event>
<event>
 5    0  0.6400611E-005  0.3331746E+03  0.7546771E-02  0.1069741E+00
         21   -1    0    0  502  501  0.00000000000E+00  0.00000000000E+00  0.37577546732E+03  0.37577546732E+03  0.00000000000E+00 0.  1.
         21   -1    0    0  501  502 -0.00000000000E+00 -0.00000000000E+00 -0.29540326840E+03  0.29540326840E+03  0.00000000000E+00 0.  1.
         25    1    1    2    0    0 -0.10003532268E+03 -0.73382426989E+01 -0.18031830228E+03  0.24124801704E+03  0.12500000000E+03 0.  0.
         25    1    1    2    0    0 -0.28751206099E+02 -0.53628629781E+02  0.17057335985E+03  0.22005211400E+03  0.12500000000E+03 0.  0.
         25    1    1    2    0    0  0.12878652878E+03  0.60966872480E+02  0.90117141346E+02  0.20987860467E+03  0.12500000000E+03 0.  0.
</event>
<event>
 5    0  0.5503691E-005  0.3083814E+03  0.7546771E-02  0.1081124E+00
         21   -1    0    0  502  501  0.00000000000E+00  0.00000000000E+00  0.35044843170E+03  0.35044843170E+03  0.00000000000E+00 0. -1.
         21   -1    0    0  501  502 -0.00000000000E+00 -0.00000000000E+00 -0.27136400160E+03  0.27136400160E+03  0.00000000000E+00 0. -1.
         25    1    1    2    0    0  0.87087109564E+02 -0.10711953297E+03  0.10513470168E+03  0.21386225588E+03  0.12500000000E+03 0.  0.
         25    1    1    2    0    0  0.28107420936E+02  0.18067662330E+03 -0.23272640805E+02  0.22271211267E+03  0.12500000000E+03 0.  0.
         25    1    1    2    0    0 -0.11519453050E+03 -0.73557090333E+02 -0.27776307708E+01  0.18523806474E+03  0.12500000000E+03 0.  0.
</event>
<event>
 5    0  0.5503691E-005  0.2601323E+03  0.7546771E-02  0.1107064E+00
         21   -1    0    0  502  501  0.00000000000E+00  0.00000000000E+00  0.74518519342E+02  0.74518519342E+02  0.00000000000E+00 0. -1.
         21   -1    0    0  501  502 -0.00000000000E+00 -0.00000000000E+00 -0.90808067559E+03  0.90808067559E+03  0.00000000000E+00 0. -1.
         25    1    1    2    0    0 -0.77338800972E+02 -0.15606110078E+02 -0.24720525940E+03  0.28802826438E+03  0.12500000000E+03 0.  0.
         25    1    1    2    0    0 -0.53238639892E+02  0.55633721270E+01 -0.44372474233E+03  0.46409261020E+03  0.12500000000E+03 0.  0.
         25    1    1    2    0    0  0.13057744086E+03  0.10042737951E+02 -0.14263215452E+03  0.23047832035E+03  0.12500000000E+03 0.  0.
</event>
<event>
 5    0  0.5503691E-005  0.3878398E+03  0.7546771E-02  0.1048074E+00
         21   -1    0    0  502  501  0.00000000000E+00  0.00000000000E+00  0.19068044191E+04  0.19068044191E+04  0.00000000000E+00 0. -1.
         21   -1    0    0  501  502 -0.00000000000E+00 -0.00000000000E+00 -0.78885762211E+02  0.78885762211E+02  0.00000000000E+00 0. -1.
         25    1    1    2    0    0 -0.16294114049E+03  0.72545516164E+02  0.82886170647E+03  0.85700023082E+03  0.12500000000E+03 0.  0.
         25    1    1    2    0    0  0.47794331893E+02  0.12342404974E+03  0.13530118145E+03  0.22682416961E+03  0.12500000000E+03 0.  0.
         25    1    1    2    0    0  0.11514680860E+03 -0.19596956591E+03  0.86375576898E+03  0.90186578089E+03  0.12500000000E+03 0.  0.
</event>
<event>
 5    0  0.5503691E-005  0.2507922E+03  0.7546771E-02  0.1112805E+00
         21   -1    0    0  502  501  0.00000000000E+00  0.00000000000E+00  0.95360523054E+02  0.95360523054E+02  0.00000000000E+00 0.  1.
         21   -1    0    0  501  502 -0.00000000000E+00 -0.00000000000E+00 -0.65956774265E+03  0.65956774265E+03  0.00000000000E+00 0.  1.
         25    1    1    2    0    0 -0.33639549462E+01 -0.41473112279E+01 -0.29359227877E+03  0.31913937791E+03  0.12500000000E+03 0.  0.
         25    1    1    2    0    0  0.74331143263E+02 -0.88726040240E+02 -0.14000935523E+03  0.22051088097E+03  0.12500000000E+03 0.  0.
         25    1    1    2    0    0 -0.70967188316E+02  0.92873351468E+02 -0.13060558560E+03  0.21527800682E+03  0.12500000000E+03 0.  0.
</event>
<event>
 5    0  0.5503691E-005  0.3157822E+03  0.7546771E-02  0.1077607E+00
         21   -1    0    0  502  501  0.00000000000E+00  0.00000000000E+00  0.15635574941E+03  0.15635574941E+03  0.00000000000E+00 0. -1.
         21   -1    0    0  501  502 -0.00000000000E+00 -0.00000000000E+00 -0.63776612160E+03  0.63776612160E+03  0.00000000000E+00 0. -1.
         25    1    1    2    0    0  0.16906886658E+03  0.16564851785E+03 -0.20200293682E+03  0.33534146716E+03  0.12500000000E+03 0.  0.
         25    1    1    2    0    0 -0.10326261018E+03 -0.56739760303E+02 -0.19968275055E+03  0.26340229294E+03  0.12500000000E+03 0.  0.
         25    1    1    2    0    0 -0.65806256399E+02 -0.10890875755E+03 -0.79724684820E+02  0.19537811091E+03  0.12500000000E+03 0.  0.
</event>
<event>
 5    0  0.5503691E-005  0.4842126E+03  0.7546771E-02  0.1017984E+00
         21   -1    0    0  502  501  0.00000000000E+00  0.00000000000E+00  0.89540951711E+03  0.89540951711E+03  0.00000000000E+00 0. -1.
         21   -1    0    0  501  502 -0.00000000000E+00 -0.00000000000E+00 -0.26184874390E+03  0.26184874390E+03  0.00000000000E+00 0. -1.
         25    1    1    2    0    0  0.30218353905E+03  0.19486704020E+03  0.29834130140E+03  0.48365337459E+03  0.12500000000E+03 0.  0.
         25    1    1    2    0    0 -0.59735686186E+02  0.94268990917E+02  0.25095182451E+02  0.16943955570E+03  0.12500000000E+03 0.  0.
         25    1    1    2    0    0 -0.24244785287E+03 -0.28913603112E+03  0.31012428936E+03  0.50416533072E+03  0.12500000000E+03 0.  0.
</event>
<event>
 5    0  0.5503691E-005  0.3581196E+03  0.7546771E-02  0.1059331E+00
         21   -1    0    0  502  501  0.00000000000E+00  0.00000000000E+00  0.34150448732E+03  0.34150448732E+03  0.00000000000E+00 0. -1.
         21   -1    0    0  501  502 -0.00000000000E+00 -0.00000000000E+00 -0.37554309655E+03  0.37554309655E+03  0.00000000000E+00 0. -1.
         25    1    1    2    0    0 -0.15704657682E+03 -0.19312288109E+03  0.11078180365E+02  0.27876118914E+03  0.12500000000E+03 0.  0.
         25    1    1    2    0    0  0.56365989634E+02 -0.26226950545E+02 -0.85191255350E+02  0.16354671415E+03  0.12500000000E+03 0.  0.
         25    1    1    2    0    0  0.10068058718E+03  0.21934983164E+03  0.40074465752E+02  0.27473968057E+03  0.12500000000E+03 0.  0.
</event>
<event>
 5    0  0.5503691E-005  0.2743647E+03  0.7546771E-02  0.1098807E+00
         21   -1    0    0  502  501  0.00000000000E+00  0.00000000000E+00  0.35546658942E+02  0.35546658942E+02  0.00000000000E+00 0.  1.
         21   -1    0    0  501  502 -0.00000000000E+00 -0.00000000000E+00 -0.21176676297E+04  0.21176676297E+04  0.00000000000E+00 0.  1.
         25    1    1    2    0    0  0.18197168518E+02 -0.43998546688E+02 -0.10858155305E+04  0.10940234803E+04  0.12500000000E+03 0.  0.
         25    1    1    2    0    0  0.23940534626E+02  0.12140972700E+03 -0.31357655386E+03  0.35953960301E+03  0.12500000000E+03 0.  0.
         25    1    1    2    0    0 -0.42137703144E+02 -0.77411180310E+02 -0.68272888639E+03  0.69965120537E+03  0.12500000000E+03 0.  0.
</event>
<event>
 5    0  0.5503691E-005  0.2298844E+03  0.7546771E-02  0.1126721E+00
         21   -1    0    0  502  501  0.00000000000E+00  0.00000000000E+00  0.22772466081E+04  0.22772466081E+04  0.00000000000E+00 0. -1.
         21   -1    0    0  501  502 -0.00000000000E+00 -0.00000000000E+00 -0.23206453245E+02  0.23206453245E+02  0.00000000000E+00 0. -1.
         25    1    1    2    0    0  0.33961871213E+02 -0.18809656335E+02  0.60218584686E+03  0.61624670874E+03  0.12500000000E+03 0.  0.
         25    1    1    2    0    0 -0.36550623159E+02 -0.92450055222E+02  0.88576758754E+03  0.90005120960E+03  0.12500000000E+03 0.  0.
         25    1    1    2    0    0  0.25887519458E+01  0.11125971156E+03  0.76608672044E+03  0.78415514300E+03  0.12500000000E+03 0.  0.
</event>
<event>
 5    0  0.5503691E-005  0.4638679E+03  0.7546771E-02  0.1023665E+00
         21   -1    0    0  502  501  0.00000000000E+00  0.00000000000E+00  0.10464104396E+03  0.10464104396E+03  0.00000000000E+00 0.  1.
         21   -1    0    0  501  502 -0.00000000000E+00 -0.00000000000E+00 -0.20563002235E+04  0.20563002235E+04  0.00000000000E+00 0.  1.
         25    1    1    2    0    0  0.89321786592E+02  0.10458097167E+03 -0.29213310759E+03  0.34624025437E+03  0.12500000000E+03 0.  0.
         25    1    1    2    0    0  0.27012367559E+03 -0.14774720755E+03 -0.97824305335E+03  0.10331410886E+04  0.12500000000E+03 0.  0.
         25    1    1    2    0    0 -0.35944546218E+03  0.43166235879E+02 -0.68128301858E+03  0.78155992452E+03  0.12500000000E+03 0.  0.
</event>
<event>
 5    0  0.5503691E-005  0.3131239E+03  0.7546771E-02  0.1078858E+00
         21   -1    0    0  502  501  0.00000000000E+00  0.00000000000E+00  0.14574839790E+03  0.14574839790E+03  0.00000000000E+00 0.  1.
         21   -1    0    0  501  502 -0.00000000000E+00 -0.00000000000E+00 -0.67271115237E+03  0.67271115237E+03  0.00000000000E+00 0.  1.
         25    1    1    2    0    0  0.17801952300E+03  0.11589523534E+03 -0.31662305022E+03  0.40124532654E+03  0.12500000000E+03 0.  0.
         25    1    1    2    0    0 -0.99881907017E+02 -0.27549588881E+02 -0.18051266939E+03  0.24278632377E+03  0.12500000000E+03 0.  0.
         25    1    1    2    0    0 -0.78137615982E+02 -0.88345646457E+02 -0.29827034861E+02  0.17442789997E+03  0.12500000000E+03 0.  0.
</event>
<event>
 5    0  0.5503691E-005  0.2581177E+03  0.7546771E-02  0.1108279E+00
         21   -1    0    0  502  501  0.00000000000E+00  0.00000000000E+00  0.10690052408E+03  0.10690052408E+03  0.00000000000E+00 0. -1.
         21   -1    0    0  501  502 -0.00000000000E+00 -0.00000000000E+00 -0.62324078116E+03  0.62324078116E+03  0.00000000000E+00 0. -1.
         25    1    1    2    0    0 -0.10440905032E+03  0.12160778731E+02 -0.84576042613E+02  0.18392183479E+03  0.12500000000E+03 0.  0.
         25    1    1    2    0    0  0.39210143590E+01 -0.61549994766E+01 -0.55125097959E+02  0.13681021452E+03  0.12500000000E+03 0.  0.
         25    1    1    2    0    0  0.10048803596E+03 -0.60057792541E+01 -0.37663911651E+03  0.40940925593E+03  0.12500000000E+03 0.  0.
</event>
<event>
 5    0  0.5503691E-005  0.3205623E+03  0.7546771E-02  0.1075391E+00
         21   -1    0    0  502  501  0.00000000000E+00  0.00000000000E+00  0.10693924750E+03  0.10693924750E+03  0.00000000000E+00 0. -1.
         21   -1    0    0  501  502 -0.00000000000E+00 -0.00000000000E+00 -0.96092098713E+03  0.96092098713E+03  0.00000000000E+00 0. -1.
         25    1    1    2    0    0 -0.10459544737E+03  0.11854028299E+02 -0.41407398484E+03  0.44515501853E+03  0.12500000000E+03 0.  0.
         25    1    1    2    0    0  0.39648623195E+02  0.32386193472E+02  0.22820637340E+02  0.13699146082E+03  0.12500000000E+03 0.  0.
         25    1    1    2    0    0  0.64946824179E+02 -0.44240221771E+02 -0.46272839213E+03  0.48571375529E+03  0.12500000000E+03 0.  0.
</event>
<event>
 5    0  0.5503691E-005  0.3128543E+03  0.7546771E-02  0.1078986E+00
         21   -1    0    0  502  501  0.00000000000E+00  0.00000000000E+00  0.32310638805E+03  0.32310638805E+03  0.00000000000E+00 0. -1.
         21   -1    0    0  501  502 -0.00000000000E+00 -0.00000000000E+00 -0.30292759994E+03  0.30292759994E+03  0.00000000000E+00 0. -1.
         25    1    1    2    0    0  0.30557104584E+01 -0.87552453050E+02 -0.14307538474E+03  0.20921361122E+03  0.12500000000E+03 0.  0.
         25    1    1    2    0    0 -0.57416367352E+02 -0.58355893442E+01  0.20449162990E+03  0.24652083085E+03  0.12500000000E+03 0.  0.
         25    1    1    2    0    0  0.54360656893E+02  0.93388042395E+02 -0.41237457051E+02  0.17029954593E+03  0.12500000000E+03 0.  0.
</event>
<event>
 5    0  0.5503691E-005  0.3086372E+03  0.7546771E-02  0.1081001E+00
         21   -1    0    0  502  501  0.00000000000E+00  0.00000000000E+00  0.20033552256E+03  0.20033552256E+03  0.00000000000E+00 0.  1.
         21   -1    0    0  501  502 -0.00000000000E+00 -0.00000000000E+00 -0.47548696890E+03  0.47548696890E+03  0.00000000000E+00 0.  1.
         25    1    1    2    0    0  0.94601810258E+02 -0.27924828356E+02  0.26346767409E+02  0.16139532427E+03  0.12500000000E+03 0.  0.
         25    1    1    2    0    0 -0.87260875902E+02 -0.10279446714E+03 -0.27598491265E+03  0.33162303139E+03  0.12500000000E+03 0.  0.
         25    1    1    2    0    0 -0.73409343556E+01  0.13071929550E+03 -0.25513301093E+02  0.18280413580E+03  0.12500000000E+03 0.  0.
</event>
<event>
 5    0  0.5503691E-005  0.4100979E+03  0.7546771E-02  0.1040338E+00
         21   -1    0    0  502  501  0.00000000000E+00  0.00000000000E+00  0.11759058068E+04  0.11759058068E+04  0.00000000000E+00 0.  1.
         21   -1    0    0  501  502 -0.00000000000E+00 -0.00000000000E+00 -0.14302189800E+03  0.14302189800E+03  0.00000000000E+00 0.  1.
         25    1    1    2    0    0  0.36881184285E+02  0.16963130348E+03  0.44183242219E+03  0.49089295185E+03  0.12500000000E+03 0.  0.
         25    1    1    2    0    0  0.43146695615E+02  0.16570830538E+03  0.24240519559E+03  0.32203440602E+03  0.12500000000E+03 0.  0.
         25    1    1    2    0    0 -0.80027879901E+02 -0.33533960886E+03  0.34864629099E+03  0.50600034689E+03  0.12500000000E+03 0.  0.
</event>
<event>
 5    0  0.5503691E-005  0.2346106E+03  0.7546771E-02  0.1123436E+00
         21   -1    0    0  502  501  0.00000000000E+00  0.00000000000E+00  0.54218830602E+02  0.54218830602E+02  0.00000000000E+00 0. -1.
         21   -1    0    0  501  502 -0.00000000000E+00 -0.00000000000E+00 -0.10151845114E+04  0.10151845114E+04  0.00000000000E+00 0. -1.
         25    1    1    2    0    0 -0.78290310058E+00 -0.51601084495E+02 -0.33448866662E+03  0.36079211875E+03  0.12500000000E+03 0.  0.
         25    1    1    2    0    0  0.95511512023E+02  0.71946047431E+02 -0.32508518317E+03  0.36824456409E+03  0.12500000000E+03 0.  0.
         25    1    1    2    0    0 -0.94728608922E+02 -0.20344962936E+02 -0.30139183105E+03  0.34036665919E+03  0.12500000000E+03 0.  0.
</event>
<event>
 5    0  0.5503691E-005  0.6582105E+03  0.7546771E-02  0.9791494E-01
         21   -1    0    0  502  501  0.00000000000E+00  0.00000000000E+00  0.77789545168E+03  0.77789545168E+03  0.00000000000E+00 0.  1.
         21   -1    0    0  501  502 -0.00000000000E+00 -0.00000000000E+00 -0.55693998703E+03  0.55693998703E+03  0.00000000000E+00 0.  1.
         25    1    1    2    0    0  0.32935703665E+02  0.39192269016E+02  0.22336767225E+03  0.26103431103E+03  0.12500000000E+03 0.  0.
         25    1    1    2    0    0 -0.19283075737E+03 -0.17372140826E+03 -0.46732632376E+03  0.54898244194E+03  0.12500000000E+03 0.  0.
         25    1    1    2    0    0  0.15989505370E+03  0.13452913925E+03  0.46491411615E+03  0.52481868574E+03  0.12500000000E+03 0.  0.
</event>
<event>
 5    0  0.5503691E-005  0.2546508E+03  0.7546771E-02  0.1110400E+00
         21   -1    0    0  502  501  0.00000000000E+00  0.00000000000E+00  0.36138873344E+02  0.36138873344E+02  0.00000000000E+00 0. -1.
         21   -1    0    0  501  502 -0.00000000000E+00 -0.00000000000E+00 -0.17943840838E+04  0.17943840838E+04  0.00000000000E+00 0. -1.
         25    1    1    2    0    0  0.60411700908E+02  0.59265670144E+02 -0.45699895253E+03  0.48128477628E+03  0.12500000000E+03 0.  0.
         25    1    1    2    0    0  0.86713103275E+02 -0.59844517462E+02 -0.57945505942E+03  0.60207449243E+03  0.12500000000E+03 0.  0.
         25    1    1    2    0    0 -0.14712480418E+03  0.57884731718E+00 -0.72179119848E+03  0.74716368840E+03  0.12500000000E+03 0.  0.
</event>
<event>
 5    0  0.5503691E-005  0.3995781E+03  0.7546771E-02  0.1043926E+00
         21   -1    0    0  502  501  0.00000000000E+00  0.00000000000E+00  0.36738589517E+03  0.36738589517E+03  0.00000000000E+00 0.  1.
         21   -1    0    0  501  502 -0.00000000000E+00 -0.00000000000E+00 -0.43459118725E+03  0.43459118725E+03  0.00000000000E+00 0.  1.
         25    1    1    2    0    0 -0.18217267799E+03 -0.40953347976E+02  0.55912128846E+02  0.23154962205E+03  0.12500000000E+03 0.  0.
         25    1    1    2    0    0  0.14385519888E+03 -0.21732273372E+01 -0.29438064117E+03  0.35069075131E+03  0.12500000000E+03 0.  0.
         25    1    1    2    0    0  0.38317479112E+02  0.43126575314E+02  0.17126322023E+03  0.21973670906E+03  0.12500000000E+03 0.  0.
</event>
<event>
 5    0  0.5503691E-005  0.3512729E+03  0.7546771E-02  0.1062094E+00
         21   -1    0    0  502  501  0.00000000000E+00  0.00000000000E+00  0.53782734085E+03  0.53782734085E+03  0.00000000000E+00 0.  1.
         21   -1    0    0  501  502 -0.00000000000E+00 -0.00000000000E+00 -0.22942801716E+03  0.22942801716E+03  0.00000000000E+00 0.  1.
         25    1    1    2    0    0  0.40263126679E+02  0.21765257054E+03  0.76501559016E+02  0.26546421485E+03  0.12500000000E+03 0.  0.
         25    1    1    2    0    0 -0.67207211300E+02 -0.68783697931E+02  0.25944571475E+03  0.30361996847E+03  0.12500000000E+03 0.  0.
         25    1    1    2    0    0  0.26944084622E+02 -0.14886887261E+03 -0.27547950075E+02  0.19817117470E+03  0.12500000000E+03 0.  0.
</event>
<event>
 5    0  0.5503691E-005  0.3483295E+03  0.7546771E-02  0.1063303E+00
         21   -1    0    0  502  501  0.00000000000E+00  0.00000000000E+00  0.14616911899E+04  0.14616911899E+04  0.00000000000E+00 0. -1.
         21   -1    0    0  501  502 -0.00000000000E+00 -0.00000000000E+00 -0.83008938311E+02  0.83008938311E+02  0.00000000000E+00 0. -1.
         25    1    1    2    0    0  0.32529454012E+02 -0.19415534559E+03  0.99347878307E+03  0.10204800615E+04  0.12500000000E+03 0.  0.
         25    1    1    2    0    0  0.15551737917E+02  0.16201287658E+03  0.15992924209E+03  0.26017761473E+03  0.12500000000E+03 0.  0.
         25    1    1    2    0    0 -0.48081191929E+02  0.32142469015E+02  0.22527422639E+03  0.26404245191E+03  0.12500000000E+03 0.  0.
</event>
<event>
 5    0  0.5503691E-005  0.2808497E+03  0.7546771E-02  0.1095226E+00
         21   -1    0    0  502  501  0.00000000000E+00  0.00000000000E+00  0.28430117339E+03  0.28430117339E+03  0.00000000000E+00 0.  1.
         21   -1    0    0  501  502 -0.00000000000E+00 -0.00000000000E+00 -0.27744007507E+03  0.27744007507E+03  0.00000000000E+00 0.  1.
         25    1    1    2    0    0 -0.40546259788E+02 -0.11281597300E+03 -0.82257430744E+02  0.19173608909E+03  0.12500000000E+03 0.  0.
         25    1    1    2    0    0  0.92579066156E+02  0.86637244871E+02  0.13632299942E+03  0.22424507990E+03  0.12500000000E+03 0.  0.
         25    1    1    2    0    0 -0.52032806368E+02  0.26178728130E+02 -0.47204470350E+02  0.14576007947E+03  0.12500000000E+03 0.  0.
</event>
<event>
 5    0  0.5503691E-005  0.5010410E+03  0.7546771E-02  0.1013508E+00
         21   -1    0    0  502  501  0.00000000000E+00  0.00000000000E+00  0.22624612002E+03  0.22624612002E+03  0.00000000000E+00 0. -1.
         21   -1    0    0  501  502 -0.00000000000E+00 -0.00000000000E+00 -0.11095973080E+04  0.11095973080E+04  0.00000000000E+00 0.  1.
         25    1    1    2    0    0  0.28063997064E+03  0.33615458742E+02 -0.25013436972E+03  0.39759400788E+03  0.12500000000E+03 0.  0.
         25    1    1    2    0    0  0.59790803681E+02 -0.87406065270E+02  0.42703206576E+02  0.16930246396E+03  0.12500000000E+03 0.  0.
         25    1    1    2    0    0 -0.34043077433E+03  0.53790606527E+02 -0.67592002485E+03  0.76894695620E+03  0.12500000000E+03 0.  0.
</event>
<event>
 5    0  0.5503691E-005  0.2405160E+03  0.7546771E-02  0.1119450E+00
         21   -1    0    0  502  501  0.00000000000E+00  0.00000000000E+00  0.38493713602E+03  0.38493713602E+03  0.00000000000E+00 0. -1.
         21   -1    0    0  501  502 -0.00000000000E+00 -0.00000000000E+00 -0.15027891124E+03  0.15027891124E+03  0.00000000000E+00 0. -1.
         25    1    1    2    0    0  0.46619760103E+02 -0.69556950288E+02 -0.22250605255E+02  0.15209096226E+03  0.12500000000E+03 0.  0.
         25    1    1    2    0    0 -0.69241572276E+02  0.36626084749E+02  0.98306648088E+02  0.17727115522E+03  0.12500000000E+03 0.  0.
         25    1    1    2    0    0  0.22621812173E+02  0.32930865539E+02  0.15860218194E+03  0.20585392978E+03  0.12500000000E+03 0.  0.
</event>
<event>
 5    0  0.5503691E-005  0.2305800E+03  0.7546771E-02  0.1126232E+00
         21   -1    0    0  502  501  0.00000000000E+00  0.00000000000E+00  0.12765001405E+04  0.12765001405E+04  0.00000000000E+00 0. -1.
         21   -1    0    0  501  502 -0.00000000000E+00 -0.00000000000E+00 -0.41650727187E+02  0.41650727187E+02  0.00000000000E+00 0. -1.
         25    1    1    2    0    0  0.77977593188E+02 -0.34362516602E+01  0.35938411847E+03  0.38842535637E+03  0.12500000000E+03 0.  0.
         25    1    1    2    0    0 -0.62104917066E+02 -0.63565263736E+02  0.30128200826E+03  0.33807308674E+03  0.12500000000E+03 0.  0.
         25    1    1    2    0    0 -0.15872676122E+02  0.67001515396E+02  0.57418328659E+03  0.59165242458E+03  0.12500000000E+03 0.  0.
</event>
<event>
 5    0  0.5503691E-005  0.2653904E+03  0.7546771E-02  0.1103947E+00
         21   -1    0    0  502  501  0.00000000000E+00  0.00000000000E+00  0.23805937572E+03  0.23805937572E+03  0.00000000000E+00 0.  1.
         21   -1    0    0  501  502 -0.00000000000E+00 -0.00000000000E+00 -0.29585917348E+03  0.29585917348E+03  0.00000000000E+00 0.  1.
         25    1    1    2    0    0  0.70429951079E+02  0.40134457959E+01  0.12926807358E+03  0.19316242027E+03  0.12500000000E+03 0.  0.
         25    1    1    2    0    0 -0.62090936351E+01  0.35249058281E+01 -0.27865401252E+02  0.12826713683E+03  0.12500000000E+03 0.  0.
         25    1    1    2    0    0 -0.64220857444E+02 -0.75383516240E+01 -0.15920247009E+03  0.21248899209E+03  0.12500000000E+03 0.  0.
</event>
<event>
 5    0  0.5503691E-005  0.2560845E+03  0.7546771E-02  0.1109519E+00
         21   -1    0    0  502  501  0.00000000000E+00  0.00000000000E+00  0.11612111542E+04  0.11612111542E+04  0.00000000000E+00 0.  1.
         21   -1    0    0  501  502 -0.00000000000E+00 -0.00000000000E+00 -0.56474894313E+02  0.56474894313E+02  0.00000000000E+00 0.  1.
         25    1    1    2    0    0 -0.15630800355E+02  0.12197626421E+02  0.45879431938E+03  0.47593101549E+03  0.12500000000E+03 0.  0.
         25    1    1    2    0    0 -0.11798697916E+03  0.32823302407E+01  0.39511467254E+03  0.43089709374E+03  0.12500000000E+03 0.  0.
         25    1    1    2    0    0  0.13361777951E+03 -0.15479956662E+02  0.25082726801E+03  0.31085793932E+03  0.12500000000E+03 0.  0.
</event>
<event>
 5    0  0.5503691E-005  0.2617443E+03  0.7546771E-02  0.1106100E+00
         21   -1    0    0  502  501  0.00000000000E+00  0.00000000000E+00  0.57773429516E+03  0.57773429516E+03  0.00000000000E+00 0.  1.
         21   -1    0    0  501  502 -0.00000000000E+00 -0.00000000000E+00 -0.11858409142E+03  0.11858409142E+03  0.00000000000E+00 0.  1.
         25    1    1    2    0    0 -0.62682150178E+02 -0.10183179275E+02  0.16612748585E+01  0.14021593677E+03  0.12500000000E+03 0.  0.
         25    1    1    2    0    0  0.25881159272E+02 -0.78165988217E+02  0.15730030128E+03  0.21713622660E+03  0.12500000000E+03 0.  0.
         25    1    1    2    0    0  0.36800990906E+02  0.88349167491E+02  0.30018862761E+03  0.33896622320E+03  0.12500000000E+03 0.  0.
</event>
<event>
 5    0  0.5503691E-005  0.2651149E+03  0.7546771E-02  0.1104108E+00
         21   -1    0    0  502  501  0.00000000000E+00  0.00000000000E+00  0.23673147665E+03  0.23673147665E+03  0.00000000000E+00 0. -1.
         21   -1    0    0  501  502 -0.00000000000E+00 -0.00000000000E+00 -0.29690131895E+03  0.29690131895E+03  0.00000000000E+00 0. -1.
         25    1    1    2    0    0 -0.86655822917E+02  0.13652769073E+02 -0.48213931022E+02  0.16014122796E+03  0.12500000000E+03 0.  0.
         25    1    1    2    0    0  0.15556769826E+03  0.28656218464E+02 -0.70407478086E+02  0.21355257098E+03  0.12500000000E+03 0.  0.
         25    1    1    2    0    0 -0.68911875347E+02 -0.42308987538E+02  0.58451566803E+02  0.15993899666E+03  0.12500000000E+03 0.  0.
</event>
<event>
 5    0  0.5503691E-005  0.2406729E+03  0.7546771E-02  0.1119345E+00
         21   -1    0    0  502  501  0.00000000000E+00  0.00000000000E+00  0.40725573680E+03  0.40725573680E+03  0.00000000000E+00 0. -1.
         21   -1    0    0  501  502 -0.00000000000E+00 -0.00000000000E+00 -0.14222869683E+03  0.14222869683E+03  0.00000000000E+00 0. -1.
         25    1    1    2    0    0 -0.92219620531E+02  0.27760326408E+01  0.10229946371E+03  0.18601705579E+03  0.12500000000E+03 0.  0.
         25    1    1    2    0    0  0.12405568335E+03  0.50967058199E+02  0.11180849319E+03  0.21474075706E+03  0.12500000000E+03 0.  0.
         25    1    1    2    0    0 -0.31836062818E+02 -0.53743090840E+02  0.50919083074E+02  0.14872662078E+03  0.12500000000E+03 0.  0.
</event>
<event>
 5    0  0.5503691E-005  0.2634884E+03  0.7546771E-02  0.1105065E+00
         21   -1    0    0  502  501  0.00000000000E+00  0.00000000000E+00  0.31827792997E+03  0.31827792997E+03  0.00000000000E+00 0. -1.
         21   -1    0    0  501  502 -0.00000000000E+00 -0.00000000000E+00 -0.21813049914E+03  0.21813049914E+03  0.00000000000E+00 0. -1.
         25    1    1    2    0    0 -0.46362992041E+02  0.79640675408E+02 -0.11338519597E+02  0.15571039219E+03  0.12500000000E+03 0.  0.
         25    1    1    2    0    0 -0.81615140442E+02  0.32432391258E+02  0.52010753734E+02  0.16137846714E+03  0.12500000000E+03 0.  0.
         25    1    1    2    0    0  0.12797813248E+03 -0.11207306667E+03  0.59475196698E+02  0.21931956978E+03  0.12500000000E+03 0.  0.
</event>
<event>
 5    0  0.5503691E-005  0.2521365E+03  0.7546771E-02  0.1111962E+00
         21   -1    0    0  502  501  0.00000000000E+00  0.00000000000E+00  0.10469168708E+04  0.10469168708E+04  0.00000000000E+00 0. -1.
         21   -1    0    0  501  502 -0.00000000000E+00 -0.00000000000E+00 -0.60723865810E+02  0.60723865810E+02  0.00000000000E+00 0. -1.
         25    1    1    2    0    0  0.28614044857E+02  0.53702176968E+00  0.16607170743E+03  0.20981864541E+03  0.12500000000E+03 0.  0.
         25    1    1    2    0    0  0.53295418223E+02 -0.93619212233E+02  0.23764670555E+03  0.28931974554E+03  0.12500000000E+03 0.  0.
         25    1    1    2    0    0 -0.81909463080E+02  0.93082190464E+02  0.58247459203E+03  0.60850234566E+03  0.12500000000E+03 0.  0.
</event>
<event>
 5    0  0.5503691E-005  0.2614047E+03  0.7546771E-02  0.1106302E+00
         21   -1    0    0  502  501  0.00000000000E+00  0.00000000000E+00  0.15512822310E+04  0.15512822310E+04  0.00000000000E+00 0.  1.
         21   -1    0    0  501  502 -0.00000000000E+00 -0.00000000000E+00 -0.44049000239E+02  0.44049000239E+02  0.00000000000E+00 0.  1.
         25    1    1    2    0    0  0.76326558217E+01  0.40558325335E+02  0.20261458942E+03  0.24162141262E+03  0.12500000000E+03 0.  0.
         25    1    1    2    0    0  0.11948973384E+03  0.10936012077E+02  0.55227937071E+03  0.57882199005E+03  0.12500000000E+03 0.  0.
         25    1    1    2    0    0 -0.12712238966E+03 -0.51494337412E+02  0.75233927064E+03  0.77488782859E+03  0.12500000000E+03 0.  0.
</event>
<event>
 5    0  0.5503691E-005  0.2907290E+03  0.7546771E-02  0.1089969E+00
         21   -1    0    0  502  501  0.00000000000E+00  0.00000000000E+00  0.22554923937E+03  0.22554923937E+03  0.00000000000E+00 0. -1.
         21   -1    0    0  501  502 -0.00000000000E+00 -0.00000000000E+00 -0.37474446217E+03  0.37474446217E+03  0.00000000000E+00 0. -1.
         25    1    1    2    0    0 -0.84742566419E+01  0.55466756354E+02  0.85637080271E+02  0.16157686593E+03  0.12500000000E+03 0.  0.
         25    1    1    2    0    0 -0.71966943455E+02 -0.30986205974E+01  0.13174848677E+02  0.14487035251E+03  0.12500000000E+03 0.  0.
         25    1    1    2    0    0  0.80441200097E+02 -0.52368135757E+02 -0.24800715174E+03  0.29384648310E+03  0.12500000000E+03 0.  0.
</event>
<event>
 5    0  0.5503691E-005  0.2334506E+03  0.7546771E-02  0.1124234E+00
         21   -1    0    0  502  501  0.00000000000E+00  0.00000000000E+00  0.83302228554E+03  0.83302228554E+03  0.00000000000E+00 0.  1.
         21   -1    0    0  501  502 -0.00000000000E+00 -0.00000000000E+00 -0.65423437130E+02  0.65423437130E+02  0.00000000000E+00 0.  1.
         25    1    1    2    0    0  0.93239460672E+01 -0.10990235232E+03  0.33627835376E+03  0.37533131260E+03  0.12500000000E+03 0.  0.
         25    1    1    2    0    0  0.97593120155E+01  0.79449938958E+02  0.13983455027E+03  0.20392704190E+03  0.12500000000E+03 0.  0.
         25    1    1    2    0    0 -0.19083258083E+02  0.30452413364E+02  0.29148594439E+03  0.31918736816E+03  0.12500000000E+03 0.  0.
</event>
<event>
 5    0  0.5503691E-005  0.4236599E+03  0.7546771E-02  0.1035882E+00
         21   -1    0    0  502  501  0.00000000000E+00  0.00000000000E+00  0.41194467076E+03  0.41194467076E+03  0.00000000000E+00 0.  1.
         21   -1    0    0  501  502 -0.00000000000E+00 -0.00000000000E+00 -0.43570831006E+03  0.43570831006E+03  0.00000000000E+00 0.  1.
         25    1    1    2    0    0 -0.21854894236E+03 -0.15004687160E+03 -0.42522018786E+02  0.29616013568E+03  0.12500000000E+03 0.  0.
         25    1    1    2    0    0 -0.12547976409E+02  0.10434034052E+03  0.17745508716E+03  0.24116315293E+03  0.12500000000E+03 0.  0.
         25    1    1    2    0    0  0.23109691877E+03  0.45706531087E+02 -0.15869670767E+03  0.31032969222E+03  0.12500000000E+03 0.  0.
</event>
<event>
 5    0  0.5503691E-005  0.2584953E+03  0.7546771E-02  0.1108051E+00
         21   -1    0    0  502  501  0.00000000000E+00  0.00000000000E+00  0.19374034206E+04  0.19374034206E+04  0.00000000000E+00 0.  1.
         21   -1    0    0  501  502 -0.00000000000E+00 -0.00000000000E+00 -0.34489360640E+02  0.34489360640E+02  0.00000000000E+00 0.  1.
         25    1    1    2    0    0 -0.94542246850E+02 -0.66186613727E+02  0.53956806948E+03  0.56575401534E+03  0.12500000000E+03 0.  0.
         25    1    1    2    0    0 -0.16384084528E+02 -0.58810294632E+00  0.26879936466E+03  0.29689540673E+03  0.12500000000E+03 0.  0.
         25    1    1    2    0    0  0.11092633138E+03  0.66774716674E+02  0.10945466259E+04  0.11092433592E+04  0.12500000000E+03 0.  0.
</event>
<event>
 5    0  0.5503691E-005  0.3260835E+03  0.7546771E-02  0.1072883E+00
         21   -1    0    0  502  501  0.00000000000E+00  0.00000000000E+00  0.22911250534E+03  0.22911250534E+03  0.00000000000E+00 0. -1.
         21   -1    0    0  501  502 -0.00000000000E+00 -0.00000000000E+00 -0.46409696497E+03  0.46409696497E+03  0.00000000000E+00 0. -1.
         25    1    1    2    0    0  0.16775962986E+03 -0.42602210403E+02  0.39486620304E+02  0.21712308704E+03  0.12500000000E+03 0.  0.
         25    1    1    2    0    0 -0.19967413442E+03  0.78863306015E+02 -0.13527566303E+03  0.28286690510E+03  0.12500000000E+03 0.  0.
         25    1    1    2    0    0  0.31914504564E+02 -0.36261095612E+02 -0.13919541690E+03  0.19321947817E+03  0.12500000000E+03 0.  0.
</event>
<event>
 5    0  0.5503691E-005  0.2475302E+03  0.7546771E-02  0.1114876E+00
         21   -1    0    0  502  501  0.00000000000E+00  0.00000000000E+00  0.28242833126E+02  0.28242833126E+02  0.00000000000E+00 0. -1.
         21   -1    0    0  501  502 -0.00000000000E+00 -0.00000000000E+00 -0.21694419948E+04  0.21694419948E+04  0.00000000000E+00 0. -1.
         25    1    1    2    0    0  0.86501992315E+01 -0.63562188908E+02 -0.10165919126E+04  0.10262548877E+04  0.12500000000E+03 0.  0.
         25    1    1    2    0    0 -0.45201300660E+02  0.81382899853E+01 -0.86994252234E+03  0.88007634983E+03  0.12500000000E+03 0.  0.
         25    1    1    2    0    0  0.36551101428E+02  0.55423898922E+02 -0.25466472676E+03  0.29135359040E+03  0.12500000000E+03 0.  0.
</event>
<event>
 5    0  0.5503691E-005  0.2862315E+03  0.7546771E-02  0.1092333E+00
         21   -1    0    0  502  501  0.00000000000E+00  0.00000000000E+00  0.29828728819E+03  0.29828728819E+03  0.00000000000E+00 0. -1.
         21   -1    0    0  501  502 -0.00000000000E+00 -0.00000000000E+00 -0.27466300222E+03  0.27466300222E+03  0.00000000000E+00 0. -1.
         25    1    1    2    0    0 -0.33048903693E+02  0.10319170987E+03 -0.10070242334E+03  0.19366656162E+03  0.12500000000E+03 0.  0.
         25    1    1    2    0    0  0.19207197011E+02 -0.27799018735E+02  0.18060200762E+03  0.22222463188E+03  0.12500000000E+03 0.  0.
         25    1    1    2    0    0  0.13841706681E+02 -0.75392691134E+02 -0.56275298304E+02  0.15705909690E+03  0.12500000000E+03 0.  0.
</event>
<event>
 5    0  0.5503691E-005  0.3308650E+03  0.7546771E-02  0.1070755E+00
         21   -1    0    0  502  501  0.00000000000E+00  0.00000000000E+00  0.29958141238E+03  0.29958141238E+03  0.00000000000E+00 0.  1.
         21   -1    0    0  501  502 -0.00000000000E+00 -0.00000000000E+00 -0.36541539809E+03  0.36541539809E+03  0.00000000000E+00 0.  1.
         25    1    1    2    0    0 -0.19742540632E+03  0.94223508208E+02  0.35879727301E+02  0.25449403803E+03  0.12500000000E+03 0.  0.
         25    1    1    2    0    0  0.22995531536E+02  0.19705202567E+01 -0.11976041369E+03  0.17464316222E+03  0.12500000000E+03 0.  0.
         25    1    1    2    0    0  0.17442987479E+03 -0.96194028464E+02  0.18046700683E+02  0.23585961023E+03  0.12500000000E+03 0.  0.
</event>
<event>
 5    0  0.5503691E-005  0.2240338E+03  0.7546771E-02  0.1130911E+00
         21   -1    0    0  502  501  0.00000000000E+00  0.00000000000E+00  0.32663766160E+03  0.32663766160E+03  0.00000000000E+00 0. -1.
         21   -1    0    0  501  502 -0.00000000000E+00 -0.00000000000E+00 -0.15366001607E+03  0.15366001607E+03  0.00000000000E+00 0. -1.
         25    1    1    2    0    0  0.37637929357E+02 -0.61407156129E+02  0.13187549509E+03  0.19545740906E+03  0.12500000000E+03 0.  0.
         25    1    1    2    0    0 -0.41589223055E+02  0.47854884057E+02  0.68643129496E+02  0.15606611621E+03  0.12500000000E+03 0.  0.
         25    1    1    2    0    0  0.39512936981E+01  0.13552272072E+02 -0.27540979060E+02  0.12877415241E+03  0.12500000000E+03 0.  0.
</event>
<event>
 5    0  0.5503691E-005  0.3772547E+03  0.7546771E-02  0.1051953E+00
         21   -1    0    0  502  501  0.00000000000E+00  0.00000000000E+00  0.11718809982E+04  0.11718809982E+04  0.00000000000E+00 0. -1.
         21   -1    0    0  501  502 -0.00000000000E+00 -0.00000000000E+00 -0.12144675660E+03  0.12144675660E+03  0.00000000000E+00 0. -1.
         25    1    1    2    0    0  0.15956743964E+03 -0.10206898334E+03  0.29159330009E+03  0.36950168851E+03  0.12500000000E+03 0.  0.
         25    1    1    2    0    0  0.35202259052E+02  0.22058707858E+03  0.47005817878E+03  0.53523597574E+03  0.12500000000E+03 0.  0.
         25    1    1    2    0    0 -0.19476969869E+03 -0.11851809524E+03  0.28878276270E+03  0.38859009053E+03  0.12500000000E+03 0.  0.
</event>
<event>
 5    0  0.5503691E-005  0.2860085E+03  0.7546771E-02  0.1092452E+00
         21   -1    0    0  502  501  0.00000000000E+00  0.00000000000E+00  0.17471684968E+03  0.17471684968E+03  0.00000000000E+00 0.  1.
         21   -1    0    0  501  502 -0.00000000000E+00 -0.00000000000E+00 -0.46819094315E+03  0.46819094315E+03  0.00000000000E+00 0.  1.
         25    1    1    2    0    0 -0.97298307034E+02  0.62486020167E+02 -0.15222484163E+03  0.22840504740E+03  0.12500000000E+03 0.  0.
         25    1    1    2    0    0  0.76110980476E+02 -0.11560705036E+02  0.70221448970E+02  0.16273470172E+03  0.12500000000E+03 0.  0.
         25    1    1    2    0    0  0.21187326557E+02 -0.50925315130E+02 -0.21147070081E+03  0.25176804370E+03  0.12500000000E+03 0.  0.
</event>
<event>
 5    0  0.5807363E-005  0.5127630E+03  0.7546771E-02  0.1010500E+00
         21   -1    0    0  502  501  0.00000000000E+00  0.00000000000E+00  0.90223892416E+03  0.90223892416E+03  0.00000000000E+00 0.  1.
         21   -1    0    0  501  502 -0.00000000000E+00 -0.00000000000E+00 -0.29141489644E+03  0.29141489644E+03  0.00000000000E+00 0.  1.
         25    1    1    2    0    0 -0.11097964729E+03  0.24750907606E+03  0.53670878116E+03  0.61421375809E+03  0.12500000000E+03 0.  0.
         25    1    1    2    0    0 -0.15103257080E+03 -0.72732898852E+02 -0.55979304647E+02  0.21647077069E+03  0.12500000000E+03 0.  0.
         25    1    1    2    0    0  0.26201221809E+03 -0.17477617721E+03  0.13009455121E+03  0.36296929182E+03  0.12500000000E+03 0.  0.
</event>
<event>
 5    0  0.5503691E-005  0.3919592E+03  0.7546771E-02  0.1046600E+00
         21   -1    0    0  502  501  0.00000000000E+00  0.00000000000E+00  0.11407908604E+04  0.11407908604E+04  0.00000000000E+00 0.  1.
         21   -1    0    0  501  502 -0.00000000000E+00 -0.00000000000E+00 -0.13467147822E+03  0.13467147822E+03  0.00000000000E+00 0.  1.
         25    1    1    2    0    0 -0.28286983394E+03  0.29585789053E+02  0.31803185952E+03  0.44458961475E+03  0.12500000000E+03 0.  0.
         25    1    1    2    0    0  0.11863210278E+02  0.21084673956E+02  0.37211372576E+03  0.39329241555E+03  0.12500000000E+03 0.  0.
         25    1    1    2    0    0  0.27100662366E+03 -0.50670463010E+02  0.31597379687E+03  0.43758030829E+03  0.12500000000E+03 0.  0.
</event>
<event>
 5    0  0.5503691E-005  0.4006719E+03  0.7546771E-02  0.1043547E+00
         21   -1    0    0  502  501  0.00000000000E+00  0.00000000000E+00  0.78380871597E+03  0.78380871597E+03  0.00000000000E+00 0.  1.
         21   -1    0    0  501  502 -0.00000000000E+00 -0.00000000000E+00 -0.20481780194E+03  0.20481780194E+03  0.00000000000E+00 0.  1.
         25    1    1    2    0    0  0.51056732911E+02 -0.18796115080E+02  0.21685435395E+03  0.25614623703E+03  0.12500000000E+03 0.  0.
         25    1    1    2    0    0 -0.72912020665E+02  0.26543531980E+03  0.33888765594E+03  0.45413865185E+03  0.12500000000E+03 0.  0.
         25    1    1    2    0    0  0.21855287754E+02 -0.24663920472E+03  0.23248904137E+02  0.27834162903E+03  0.12500000000E+03 0.  0.
</event>
<event>
 5    0  0.5503691E-005  0.2805291E+03  0.7546771E-02  0.1095400E+00
         21   -1    0    0  502  501  0.00000000000E+00  0.00000000000E+00  0.26027441603E+03  0.26027441603E+03  0.00000000000E+00 0.  1.
         21   -1    0    0  501  502 -0.00000000000E+00 -0.00000000000E+00 -0.30236011326E+03  0.30236011326E+03  0.00000000000E+00 0.  1.
         25    1    1    2    0    0 -0.24528212666E+01  0.69815852395E+02 -0.82841422549E+02  0.16543267775E+03  0.12500000000E+03 0.  0.
         25    1    1    2    0    0 -0.70039131339E+02 -0.16699584337E+03  0.92404043214E+01  0.22023504874E+03  0.12500000000E+03 0.  0.
         25    1    1    2    0    0  0.72491952606E+02  0.97179990972E+02  0.31515320999E+02  0.17696680281E+03  0.12500000000E+03 0.  0.
</event>
<event>
 5    0  0.5503691E-005  0.2623672E+03  0.7546771E-02  0.1105729E+00
         21   -1    0    0  502  501  0.00000000000E+00  0.00000000000E+00  0.13238396430E+03  0.13238396430E+03  0.00000000000E+00 0. -1.
         21   -1    0    0  501  502 -0.00000000000E+00 -0.00000000000E+00 -0.51997650645E+03  0.51997650645E+03  0.00000000000E+00 0. -1.
         25    1    1    2    0    0 -0.43011749063E+02 -0.79477448192E+02 -0.88297351741E+02  0.17773040723E+03  0.12500000000E+03 0.  0.
         25    1    1    2    0    0  0.77986562730E+02  0.78611276672E+02 -0.21972015549E+02  0.16843220076E+03  0.12500000000E+03 0.  0.
         25    1    1    2    0    0 -0.34974813667E+02  0.86617151920E+00 -0.27732317486E+03  0.30619786276E+03  0.12500000000E+03 0.  0.
</event>
<event>
 5    0  0.5503691E-005  0.4268111E+03  0.7546771E-02  0.1034872E+00
         21   -1    0    0  502  501  0.00000000000E+00  0.00000000000E+00  0.10506420960E+04  0.10506420960E+04  0.00000000000E+00 0.  1.
         21   -1    0    0  501  502 -0.00000000000E+00 -0.00000000000E+00 -0.17338706033E+03  0.17338706033E+03  0.00000000000E+00 0.  1.
         25    1    1    2    0    0  0.17348562316E+03  0.21595562978E+02  0.24867127812E+02  0.21634926353E+03  0.12500000000E+03 0.  0.
         25    1    1    2    0    0  0.28077059320E+01  0.19474600736E+03  0.35258064914E+03  0.42174874598E+03  0.12500000000E+03 0.  0.
         25    1    1    2    0    0 -0.17629332909E+03 -0.21634157034E+03  0.49980725872E+03  0.58593114681E+03  0.12500000000E+03 0.  0.
</event>
<event>
 5    0  0.5503691E-005  0.3677324E+03  0.7546771E-02  0.1055563E+00
         21   -1    0    0  502  501  0.00000000000E+00  0.00000000000E+00  0.20256789256E+04  0.20256789256E+04  0.00000000000E+00 0. -1.
         21   -1    0    0  501  502 -0.00000000000E+00 -0.00000000000E+00 -0.66756452459E+02  0.66756452459E+02  0.00000000000E+00 0. -1.
         25    1    1    2    0    0  0.22283367243E+02  0.30489504652E+02  0.20725966901E+03  0.24496475001E+03  0.12500000000E+03 0.  0.
         25    1    1    2    0    0 -0.17130691126E+02  0.24847190876E+03  0.92596002467E+03  0.96698434181E+03  0.12500000000E+03 0.  0.
         25    1    1    2    0    0 -0.51526761170E+01 -0.27896141341E+03  0.82570277946E+03  0.88048628624E+03  0.12500000000E+03 0.  0.
</event>
<event>
 5    0  0.5503691E-005  0.3992249E+03  0.7546771E-02  0.1044048E+00
         21   -1    0    0  502  501  0.00000000000E+00  0.00000000000E+00  0.77006844667E+03  0.77006844667E+03  0.00000000000E+00 0. -1.
         21   -1    0    0  501  502 -0.00000000000E+00 -0.00000000000E+00 -0.20696931854E+03  0.20696931854E+03  0.00000000000E+00 0. -1.
         25    1    1    2    0    0 -0.17801692111E+03 -0.42988067896E+02  0.14190544544E+03  0.26324922342E+03  0.12500000000E+03 0.  0.
         25    1    1    2    0    0 -0.11098787100E+03 -0.51571091153E+02  0.32853988418E+03  0.37221141902E+03  0.12500000000E+03 0.  0.
         25    1    1    2    0    0  0.28900479211E+03  0.94559159050E+02  0.92653798499E+02  0.34157712277E+03  0.12500000000E+03 0.  0.
</event>
<event>
 5    0  0.5503691E-005  0.4355198E+03  0.7546771E-02  0.1032130E+00
         21   -1    0    0  502  501  0.00000000000E+00  0.00000000000E+00  0.53446536131E+03  0.53446536131E+03  0.00000000000E+00 0. -1.
         21   -1    0    0  501  502 -0.00000000000E+00 -0.00000000000E+00 -0.35489205876E+03  0.35489205876E+03  0.00000000000E+00 0. -1.
         25    1    1    2    0    0  0.21383829930E+02 -0.10060552665E+03  0.97922898228E+02  0.18918941348E+03  0.12500000000E+03 0.  0.
         25    1    1    2    0    0 -0.78830550499E+02  0.36192136880E+02  0.35567833312E+03  0.38685424014E+03  0.12500000000E+03 0.  0.
         25    1    1    2    0    0  0.57446720569E+02  0.64413389769E+02 -0.27402792880E+03  0.31331376645E+03  0.12500000000E+03 0.  0.
</event>
<event>
 5    0  0.5503691E-005  0.3785705E+03  0.7546771E-02  0.1051463E+00
         21   -1    0    0  502  501  0.00000000000E+00  0.00000000000E+00  0.53638814795E+03  0.53638814795E+03  0.00000000000E+00 0.  1.
         21   -1    0    0  501  502 -0.00000000000E+00 -0.00000000000E+00 -0.26718638777E+03  0.26718638777E+03  0.00000000000E+00 0.  1.
         25    1    1    2    0    0 -0.17758275403E+02  0.27517944836E+03  0.39873181567E+02  0.30537510664E+03  0.12500000000E+03 0.  0.
         25    1    1    2    0    0  0.23440458816E+01 -0.18317192885E+03  0.25735577514E+03  0.33972701551E+03  0.12500000000E+03 0.  0.
         25    1    1    2    0    0  0.15414229522E+02 -0.92007519512E+02 -0.28027196520E+02  0.15847241357E+03  0.12500000000E+03 0.  0.
</event>
<event>
 5    0  0.5503691E-005  0.3146952E+03  0.7546771E-02  0.1078117E+00
         21   -1    0    0  502  501  0.00000000000E+00  0.00000000000E+00  0.12715704416E+03  0.12715704416E+03  0.00000000000E+00 0.  1.
         21   -1    0    0  501  502 -0.00000000000E+00 -0.00000000000E+00 -0.77882510481E+03  0.77882510481E+03  0.00000000000E+00 0.  1.
         25    1    1    2    0    0 -0.15336910267E+03  0.85395149208E+01 -0.13794739987E+03  0.24134931137E+03  0.12500000000E+03 0.  0.
         25    1    1    2    0    0  0.66893667530E+02 -0.13694747882E+03 -0.14176267654E+03  0.24279833437E+03  0.12500000000E+03 0.  0.
         25    1    1    2    0    0  0.86475435141E+02  0.12840796390E+03 -0.37195798423E+03  0.42183450323E+03  0.12500000000E+03 0.  0.
</event>
<event>
 5    0  0.5503691E-005  0.4546147E+03  0.7546771E-02  0.1026355E+00
         21   -1    0    0  502  501  0.00000000000E+00  0.00000000000E+00  0.12764185678E+03  0.12764185678E+03  0.00000000000E+00 0.  1.
         21   -1    0    0  501  502 -0.00000000000E+00 -0.00000000000E+00 -0.16191754083E+04  0.16191754083E+04  0.00000000000E+00 0.  1.
         25    1    1    2    0    0 -0.27513993847E+02 -0.15826582863E+03 -0.98022589758E+01  0.20377972581E+03  0.12500000000E+03 0.  0.
         25    1    1    2    0    0 -0.54349747093E+02 -0.72518078315E+02 -0.47667129284E+03  0.50105218103E+03  0.12500000000E+03 0.  0.
         25    1    1    2    0    0  0.81863740940E+02  0.23078390695E+03 -0.10050599997E+04  0.10419853582E+04  0.12500000000E+03 0.  0.
</event>
<event>
 5    0  0.5503691E-005  0.2524101E+03  0.7546771E-02  0.1111791E+00
         21   -1    0    0  502  501  0.00000000000E+00  0.00000000000E+00  0.62875088434E+03  0.62875088434E+03  0.00000000000E+00 0. -1.
         21   -1    0    0  501  502 -0.00000000000E+00 -0.00000000000E+00 -0.10132923299E+03  0.10132923299E+03  0.00000000000E+00 0. -1.
         25    1    1    2    0    0 -0.88440609349E+02 -0.72067365249E+02  0.21391550097E+03  0.27276416200E+03  0.12500000000E+03 0.  0.
         25    1    1    2    0    0 -0.57133120820E+00  0.77773687034E+02  0.56025763814E+02  0.15752129705E+03  0.12500000000E+03 0.  0.
         25    1    1    2    0    0  0.89011940557E+02 -0.57063217849E+01  0.25748038655E+03  0.29979465828E+03  0.12500000000E+03 0.  0.
</event>
<event>
 5    0  0.5503691E-005  0.2812251E+03  0.7546771E-02  0.1095022E+00
         21   -1    0    0  502  501  0.00000000000E+00  0.00000000000E+00  0.15880386221E+03  0.15880386221E+03  0.00000000000E+00 0. -1.
         21   -1    0    0  501  502 -0.00000000000E+00 -0.00000000000E+00 -0.49802042321E+03  0.49802042321E+03  0.00000000000E+00 0. -1.
         25    1    1    2    0    0  0.73199453300E+02  0.46851793230E+02 -0.25292992196E+03  0.29521483011E+03  0.12500000000E+03 0.  0.
         25    1    1    2    0    0 -0.71731838336E+02 -0.46784051723E+02 -0.15682952522E+03  0.21807041089E+03  0.12500000000E+03 0.  0.
         25    1    1    2    0    0 -0.14676149639E+01 -0.67741506939E-01  0.70542886177E+02  0.14353904442E+03  0.12500000000E+03 0.  0.
</event>
<event>
 5    0  0.5503691E-005  0.4325909E+03  0.7546771E-02  0.1033045E+00
         21   -1    0    0  502  501  0.00000000000E+00  0.00000000000E+00  0.19203048694E+03  0.19203048694E+03  0.00000000000E+00 0.  1.
         21   -1    0    0  501  502 -0.00000000000E+00 -0.00000000000E+00 -0.97450628516E+03  0.97450628516E+03  0.00000000000E+00 0.  1.
         25    1    1    2    0    0  0.36766141595E+02  0.41323735498E+02 -0.29300167192E+03  0.32331776943E+03  0.12500000000E+03 0.  0.
         25    1    1    2    0    0  0.12181660216E+03  0.26643650363E+03 -0.22853733590E+03  0.39202296990E+03  0.12500000000E+03 0.  0.
         25    1    1    2    0    0 -0.15858274376E+03 -0.30776023912E+03 -0.26093679039E+03  0.45119603277E+03  0.12500000000E+03 0.  0.
</event>
<event>
 5    0  0.5503691E-005  0.2664555E+03  0.7546771E-02  0.1103325E+00
         21   -1    0    0  502  501  0.00000000000E+00  0.00000000000E+00  0.76245701008E+03  0.76245701008E+03  0.00000000000E+00 0.  1.
         21   -1    0    0  501  502 -0.00000000000E+00 -0.00000000000E+00 -0.93118112680E+02  0.93118112680E+02  0.00000000000E+00 0.  1.
         25    1    1    2    0    0  0.22821633087E+02  0.16298077733E+03  0.37995778799E+03  0.43252338823E+03  0.12500000000E+03 0.  0.
         25    1    1    2    0    0 -0.64116032763E+01 -0.12274715856E+03  0.14834693379E+03  0.22965144536E+03  0.12500000000E+03 0.  0.
         25    1    1    2    0    0 -0.16410029810E+02 -0.40233618763E+02  0.14103417562E+03  0.19340028917E+03  0.12500000000E+03 0.  0.
</event>
<event>
 5    0  0.5503691E-005  0.4037023E+03  0.7546771E-02  0.1042505E+00
         21   -1    0    0  502  501  0.00000000000E+00  0.00000000000E+00  0.63639052207E+03  0.63639052207E+03  0.00000000000E+00 0. -1.
         21   -1    0    0  501  502 -0.00000000000E+00 -0.00000000000E+00 -0.25609366651E+03  0.25609366651E+03  0.00000000000E+00 0. -1.
         25    1    1    2    0    0  0.14634447333E+03 -0.16539361710E+03  0.83420726718E+02  0.26712501024E+03  0.12500000000E+03 0.  0.
         25    1    1    2    0    0  0.16589435665E+02  0.24352786027E+03  0.29887909137E+03  0.40562881968E+03  0.12500000000E+03 0.  0.
         25    1    1    2    0    0 -0.16293390899E+03 -0.78134243167E+02 -0.20029625330E+01  0.21973035865E+03  0.12500000000E+03 0.  0.
</event>
<event>
 5    0  0.5503691E-005  0.2327070E+03  0.7546771E-02  0.1124749E+00
         21   -1    0    0  502  501  0.00000000000E+00  0.00000000000E+00  0.49633447148E+03  0.49633447148E+03  0.00000000000E+00 0.  1.
         21   -1    0    0  501  502 -0.00000000000E+00 -0.00000000000E+00 -0.10910497032E+03  0.10910497032E+03  0.00000000000E+00 0.  1.
         25    1    1    2    0    0 -0.62973348458E+02  0.67041706310E+02  0.17571849748E+03  0.23444023409E+03  0.12500000000E+03 0.  0.
         25    1    1    2    0    0  0.38293068186E+02 -0.67224914306E+02  0.31308316918E+02  0.15030222514E+03  0.12500000000E+03 0.  0.
         25    1    1    2    0    0  0.24680280272E+02  0.18320799696E+00  0.18020268676E+03  0.22069698257E+03  0.12500000000E+03 0.  0.
</event>
<event>
 5    0  0.5503691E-005  0.2396676E+03  0.7546771E-02  0.1120014E+00
         21   -1    0    0  502  501  0.00000000000E+00  0.00000000000E+00  0.11181978383E+03  0.11181978383E+03  0.00000000000E+00 0. -1.
         21   -1    0    0  501  502 -0.00000000000E+00 -0.00000000000E+00 -0.51368884420E+03  0.51368884420E+03  0.00000000000E+00 0. -1.
         25    1    1    2    0    0 -0.29930635993E+02 -0.44820518916E+02 -0.22528215146E+03  0.26321430367E+03  0.12500000000E+03 0.  0.
         25    1    1    2    0    0 -0.49875125504E+02 -0.52447707979E+00 -0.15571448691E+03  0.20581497675E+03  0.12500000000E+03 0.  0.
         25    1    1    2    0    0  0.79805761498E+02  0.45344995995E+02 -0.20872421997E+02  0.15647934762E+03  0.12500000000E+03 0.  0.
</event>
<event>
 5    0  0.5503691E-005  0.2584489E+03  0.7546771E-02  0.1108079E+00
         21   -1    0    0  502  501  0.00000000000E+00  0.00000000000E+00  0.27223601796E+03  0.27223601796E+03  0.00000000000E+00 0.  1.
         21   -1    0    0  501  502 -0.00000000000E+00 -0.00000000000E+00 -0.24535993437E+03  0.24535993437E+03  0.00000000000E+00 0.  1.
         25    1    1    2    0    0 -0.60165874041E+02  0.10695202814E+02  0.11770373711E+03  0.18224568443E+03  0.12500000000E+03 0.  0.
         25    1    1    2    0    0  0.15942456826E+02  0.55479289820E+02 -0.12195310588E+03  0.18392844685E+03  0.12500000000E+03 0.  0.
         25    1    1    2    0    0  0.44223417215E+02 -0.66174492634E+02  0.31125452358E+02  0.15142182105E+03  0.12500000000E+03 0.  0.
</event>
<event>
 5    0  0.5503691E-005  0.3036390E+03  0.7546771E-02  0.1083436E+00
         21   -1    0    0  502  501  0.00000000000E+00  0.00000000000E+00  0.88622436632E+02  0.88622436632E+02  0.00000000000E+00 0.  1.
         21   -1    0    0  501  502 -0.00000000000E+00 -0.00000000000E+00 -0.10403307239E+04  0.10403307239E+04  0.00000000000E+00 0.  1.
         25    1    1    2    0    0 -0.11694328224E+03 -0.36803062112E+02 -0.43034553658E+03  0.46459926549E+03  0.12500000000E+03 0.  0.
         25    1    1    2    0    0  0.88015117426E+02  0.69101270470E+02 -0.50366129787E+03  0.53086848602E+03  0.12500000000E+03 0.  0.
         25    1    1    2    0    0  0.28928164810E+02 -0.32298208357E+02 -0.17701452787E+02  0.13348540899E+03  0.12500000000E+03 0.  0.
</event>
<event>
 5    0  0.5503691E-005  0.3188764E+03  0.7546771E-02  0.1076168E+00
         21   -1    0    0  502  501  0.00000000000E+00  0.00000000000E+00  0.12013315960E+03  0.12013315960E+03  0.00000000000E+00 0.  1.
         21   -1    0    0  501  502 -0.00000000000E+00 -0.00000000000E+00 -0.84641233278E+03  0.84641233278E+03  0.00000000000E+00 0.  1.
         25    1    1    2    0    0  0.13283941331E+01 -0.13887529048E+03 -0.23650702551E+03  0.30141115450E+03  0.12500000000E+03 0.  0.
         25    1    1    2    0    0  0.66886497675E+02 -0.32342759339E+02 -0.39895899348E+03  0.42463294282E+03  0.12500000000E+03 0.  0.
         25    1    1    2    0    0 -0.68214891808E+02  0.17121804982E+03 -0.90813154194E+02  0.24050139506E+03  0.12500000000E+03 0.  0.
</event>
<event>
 5    0  0.5503691E-005  0.3593018E+03  0.7546771E-02  0.1058861E+00
         21   -1    0    0  502  501  0.00000000000E+00  0.00000000000E+00  0.59576776808E+02  0.59576776808E+02  0.00000000000E+00 0. -1.
         21   -1    0    0  501  502 -0.00000000000E+00 -0.00000000000E+00 -0.21669139382E+04  0.21669139382E+04  0.00000000000E+00 0. -1.
         25    1    1    2    0    0 -0.22485966824E+03 -0.17782693121E+03 -0.71733035975E+03  0.78254209656E+03  0.12500000000E+03 0.  0.
         25    1    1    2    0    0  0.15439367440E+03  0.13843422604E+03 -0.87237601690E+03  0.90535427126E+03  0.12500000000E+03 0.  0.
         25    1    1    2    0    0  0.70465993841E+02  0.39392705174E+02 -0.51763078472E+03  0.53859434717E+03  0.12500000000E+03 0.  0.
</event>
<event>
 5    0  0.5503691E-005  0.4360374E+03  0.7546771E-02  0.1031970E+00
         21   -1    0    0  502  501  0.00000000000E+00  0.00000000000E+00  0.84684720609E+03  0.84684720609E+03  0.00000000000E+00 0. -1.
         21   -1    0    0  501  502 -0.00000000000E+00 -0.00000000000E+00 -0.22451349686E+03  0.22451349686E+03  0.00000000000E+00 0. -1.
         25    1    1    2    0    0 -0.15821830216E+01 -0.21631026713E+03  0.30606023511E+03  0.39508290583E+03  0.12500000000E+03 0.  0.
         25    1    1    2    0    0  0.10957867478E+03 -0.12263921943E+03  0.44051406202E+02  0.21121882136E+03  0.12500000000E+03 0.  0.
         25    1    1    2    0    0 -0.10799649176E+03  0.33894948656E+03  0.27222206792E+03  0.46505897576E+03  0.12500000000E+03 0.  0.
</event>
<event>
 5    0  0.5503691E-005  0.2857269E+03  0.7546771E-02  0.1092602E+00
         21   -1    0    0  502  501  0.00000000000E+00  0.00000000000E+00  0.68833541697E+03  0.68833541697E+03  0.00000000000E+00 0. -1.
         21   -1    0    0  501  502 -0.00000000000E+00 -0.00000000000E+00 -0.11860474701E+03  0.11860474701E+03  0.00000000000E+00 0. -1.
         25    1    1    2    0    0 -0.97207490483E+02  0.34003391785E+02  0.38476884229E+03  0.41746567386E+03  0.12500000000E+03 0.  0.
         25    1    1    2    0    0  0.14903501144E+03  0.22248714355E+02  0.96169388382E+02  0.21812838235E+03  0.12500000000E+03 0.  0.
         25    1    1    2    0    0 -0.51827520953E+02 -0.56252106140E+02  0.88792439290E+02  0.17134610777E+03  0.12500000000E+03 0.  0.
</event>
<event>
 5    0  0.5503691E-005  0.4282208E+03  0.7546771E-02  0.1034423E+00
         21   -1    0    0  502  501  0.00000000000E+00  0.00000000000E+00  0.49588904307E+03  0.49588904307E+03  0.00000000000E+00 0. -1.
         21   -1    0    0  501  502 -0.00000000000E+00 -0.00000000000E+00 -0.36978637337E+03  0.36978637337E+03  0.00000000000E+00 0. -1.
         25    1    1    2    0    0  0.15105725011E+02 -0.22726864704E+03  0.10970131475E+03  0.28202588412E+03  0.12500000000E+03 0.  0.
         25    1    1    2    0    0  0.11460533868E+02 -0.11552017629E+03 -0.10245301184E+03  0.19899214709E+03  0.12500000000E+03 0.  0.
         25    1    1    2    0    0 -0.26566258879E+02  0.34278882333E+03  0.11885436679E+03  0.38465738524E+03  0.12500000000E+03 0.  0.
</event>
<event>
 5    0  0.5503691E-005  0.2867246E+03  0.7546771E-02  0.1092072E+00
         21   -1    0    0  502  501  0.00000000000E+00  0.00000000000E+00  0.20056973826E+03  0.20056973826E+03  0.00000000000E+00 0. -1.
         21   -1    0    0  501  502 -0.00000000000E+00 -0.00000000000E+00 -0.40988729288E+03  0.40988729288E+03  0.00000000000E+00 0. -1.
         25    1    1    2    0    0 -0.11902817307E+03 -0.66623397119E+02  0.65515005035E+02  0.19627429509E+03  0.12500000000E+03 0.  0.
         25    1    1    2    0    0  0.83501829386E+02  0.33432964651E+02 -0.22166109945E+03  0.26990546798E+03  0.12500000000E+03 0.  0.
         25    1    1    2    0    0  0.35526343685E+02  0.33190432468E+02 -0.53171460199E+02  0.14427726807E+03  0.12500000000E+03 0.  0.
</event>
<event>
 5    0  0.5503691E-005  0.2175997E+03  0.7546771E-02  0.1135685E+00
         21   -1    0    0  502  501  0.00000000000E+00  0.00000000000E+00  0.52282851233E+03  0.52282851233E+03  0.00000000000E+00 0.  1.
         21   -1    0    0  501  502 -0.00000000000E+00 -0.00000000000E+00 -0.90564387466E+02  0.90564387466E+02  0.00000000000E+00 0.  1.
         25    1    1    2    0    0 -0.78821110542E+02 -0.39604731035E+02  0.11648930107E+03  0.19229160006E+03  0.12500000000E+03 0.  0.
         25    1    1    2    0    0  0.61127696034E+02 -0.16769272897E+02  0.16645447691E+03  0.21760031393E+03  0.12500000000E+03 0.  0.
         25    1    1    2    0    0  0.17693414507E+02  0.56374003932E+02  0.14932034688E+03  0.20350098582E+03  0.12500000000E+03 0.  0.
</event>
<event>
 5    0  0.5503691E-005  0.3266740E+03  0.7546771E-02  0.1072618E+00
         21   -1    0    0  502  501  0.00000000000E+00  0.00000000000E+00  0.23248823356E+03  0.23248823356E+03  0.00000000000E+00 0.  1.
         21   -1    0    0  501  502 -0.00000000000E+00 -0.00000000000E+00 -0.45901628978E+03  0.45901628978E+03  0.00000000000E+00 0.  1.
         25    1    1    2    0    0 -0.45409778520E+02 -0.18452837393E+02 -0.58085928773E+02  0.14629261880E+03  0.12500000000E+03 0.  0.
         25    1    1    2    0    0 -0.23507457963E+02  0.20402381176E+03  0.24725222217E+02  0.24169123476E+03  0.12500000000E+03 0.  0.
         25    1    1    2    0    0  0.68917236483E+02 -0.18557097437E+03 -0.19316734967E+03  0.30352066979E+03  0.12500000000E+03 0.  0.
</event>
<event>
 5    0  0.5503691E-005  0.3805402E+03  0.7546771E-02  0.1050734E+00
         21   -1    0    0  502  501  0.00000000000E+00  0.00000000000E+00  0.15665171428E+03  0.15665171428E+03  0.00000000000E+00 0. -1.
         21   -1    0    0  501  502 -0.00000000000E+00 -0.00000000000E+00 -0.92441289517E+03  0.92441289517E+03  0.00000000000E+00 0. -1.
         25    1    1    2    0    0 -0.14772506748E+03  0.18908694133E+03 -0.31149422178E+03  0.41258964741E+03  0.12500000000E+03 0.  0.
         25    1    1    2    0    0  0.28879526477E+02 -0.20138710822E+03 -0.43235789254E+03  0.49391207886E+03  0.12500000000E+03 0.  0.
         25    1    1    2    0    0  0.11884554100E+03  0.12300166892E+02 -0.23909066575E+02  0.17456288319E+03  0.12500000000E+03 0.  0.
</event>
<event>
 5    0  0.5829256E-005  0.3603137E+03  0.7546771E-02  0.1058460E+00
         21   -1    0    0  502  501  0.00000000000E+00  0.00000000000E+00  0.34471154116E+03  0.34471154116E+03  0.00000000000E+00 0.  1.
         21   -1    0    0  501  502 -0.00000000000E+00 -0.00000000000E+00 -0.37662206757E+03  0.37662206757E+03  0.00000000000E+00 0.  1.
         25    1    1    2    0    0 -0.19703212112E+03  0.18625210703E+03 -0.68026766014E+02  0.30620931570E+03  0.12500000000E+03 0.  0.
         25    1    1    2    0    0  0.11461867656E+03 -0.15035701003E+03 -0.58929854631E+02  0.23418454101E+03  0.12500000000E+03 0.  0.
         25    1    1    2    0    0  0.82413444556E+02 -0.35895096994E+02  0.95046094231E+02  0.18093975202E+03  0.12500000000E+03 0.  0.
</event>
<event>
 5    0  0.5503691E-005  0.2445954E+03  0.7546771E-02  0.1116769E+00
         21   -1    0    0  502  501  0.00000000000E+00  0.00000000000E+00  0.62839522547E+03  0.62839522547E+03  0.00000000000E+00 0.  1.
         21   -1    0    0  501  502 -0.00000000000E+00 -0.00000000000E+00 -0.95205871135E+02  0.95205871135E+02  0.00000000000E+00 0.  1.
         25    1    1    2    0    0 -0.72582189370E+02  0.83513802618E+02  0.69802513468E+02  0.18094231215E+03  0.12500000000E+03 0.  0.
         25    1    1    2    0    0  0.71085424224E+02 -0.56473368939E+02  0.25597435781E+03  0.29898202420E+03  0.12500000000E+03 0.  0.
         25    1    1    2    0    0  0.14967651462E+01 -0.27040433679E+02  0.20741248305E+03  0.24367676025E+03  0.12500000000E+03 0.  0.
</event>
<event>
 5    0  0.5503691E-005  0.2609093E+03  0.7546771E-02  0.1106598E+00
         21   -1    0    0  502  501  0.00000000000E+00  0.00000000000E+00  0.46359846090E+02  0.46359846090E+02  0.00000000000E+00 0.  1.
         21   -1    0    0  501  502 -0.00000000000E+00 -0.00000000000E+00 -0.14683760106E+04  0.14683760106E+04  0.00000000000E+00 0.  1.
         25    1    1    2    0    0  0.10093078141E+03  0.77340150747E+00 -0.60785273503E+03  0.62872694254E+03  0.12500000000E+03 0.  0.
         25    1    1    2    0    0  0.35071236723E+02 -0.32452147506E+02 -0.52215434564E+03  0.53902995667E+03  0.12500000000E+03 0.  0.
         25    1    1    2    0    0 -0.13600201813E+03  0.31678745999E+02 -0.29200908380E+03  0.34697895744E+03  0.12500000000E+03 0.  0.
</event>
<event>
 5    0  0.5503691E-005  0.2705591E+03  0.7546771E-02  0.1100960E+00
         21   -1    0    0  502  501  0.00000000000E+00  0.00000000000E+00  0.49859151477E+03  0.49859151477E+03  0.00000000000E+00 0. -1.
         21   -1    0    0  501  502 -0.00000000000E+00 -0.00000000000E+00 -0.14681800111E+03  0.14681800111E+03  0.00000000000E+00 0. -1.
         25    1    1    2    0    0 -0.69903767497E+02  0.10014562752E+03  0.10538018302E+03  0.20407269880E+03  0.12500000000E+03 0.  0.
         25    1    1    2    0    0  0.13246844115E+03 -0.91411458709E+02  0.21802733029E+03  0.29843736267E+03  0.12500000000E+03 0.  0.
         25    1    1    2    0    0 -0.62564673652E+02 -0.87341688112E+01  0.28366000349E+02  0.14289945441E+03  0.12500000000E+03 0.  0.
</event>
<event>
 5    0  0.5503691E-005  0.3078383E+03  0.7546771E-02  0.1081387E+00
         21   -1    0    0  502  501  0.00000000000E+00  0.00000000000E+00  0.45406860144E+03  0.45406860144E+03  0.00000000000E+00 0.  1.
         21   -1    0    0  501  502 -0.00000000000E+00 -0.00000000000E+00 -0.20870061972E+03  0.20870061972E+03  0.00000000000E+00 0.  1.
         25    1    1    2    0    0  0.18594356537E+03 -0.20441549132E+02  0.17596160127E+03  0.28562274341E+03  0.12500000000E+03 0.  0.
         25    1    1    2    0    0 -0.11539343142E+03 -0.82409650699E+02  0.66993153550E+02  0.20054943821E+03  0.12500000000E+03 0.  0.
         25    1    1    2    0    0 -0.70550133950E+02  0.10285119983E+03  0.24132269027E+01  0.17659703953E+03  0.12500000000E+03 0.  0.
</event>
<event>
 5    0  0.5503691E-005  0.2829421E+03  0.7546771E-02  0.1094093E+00
         21   -1    0    0  502  501  0.00000000000E+00  0.00000000000E+00  0.11694709426E+04  0.11694709426E+04  0.00000000000E+00 0. -1.
         21   -1    0    0  501  502 -0.00000000000E+00 -0.00000000000E+00 -0.68455104033E+02  0.68455104033E+02  0.00000000000E+00 0. -1.
         25    1    1    2    0    0  0.54172676981E+01 -0.59532065390E+02  0.47437199520E+03  0.49419348785E+03  0.12500000000E+03 0.  0.
         25    1    1    2    0    0 -0.13342445857E+03  0.18933545622E+02  0.16513117846E+03  0.24709081609E+03  0.12500000000E+03 0.  0.
         25    1    1    2    0    0  0.12800719088E+03  0.40598519768E+02  0.46151266491E+03  0.49664174270E+03  0.12500000000E+03 0.  0.
</event>
<event>
 5    0  0.5503691E-005  0.3534188E+03  0.7546771E-02  0.1061221E+00
         21   -1    0    0  502  501  0.00000000000E+00  0.00000000000E+00  0.30104168091E+03  0.30104168091E+03  0.00000000000E+00 0.  1.
         21   -1    0    0  501  502 -0.00000000000E+00 -0.00000000000E+00 -0.41490880026E+03  0.41490880026E+03  0.00000000000E+00 0.  1.
         25    1    1    2    0    0 -0.16051913688E+02  0.84058860930E+02 -0.10917660938E+03  0.18672998707E+03  0.12500000000E+03 0.  0.
         25    1    1    2    0    0  0.12830539341E+02 -0.26119088283E+03  0.73007674582E+02  0.29889867942E+03  0.12500000000E+03 0.  0.
         25    1    1    2    0    0  0.32213743470E+01  0.17713202190E+03 -0.77698184557E+02  0.23032181468E+03  0.12500000000E+03 0.  0.
</event>
<event>
 5    0  0.5503691E-005  0.4990227E+03  0.7546771E-02  0.1014034E+00
         21   -1    0    0  502  501  0.00000000000E+00  0.00000000000E+00  0.85404568946E+02  0.85404568946E+02  0.00000000000E+00 0. -1.
         21   -1    0    0  501  502 -0.00000000000E+00 -0.00000000000E+00 -0.29158114035E+04  0.29158114035E+04  0.00000000000E+00 0. -1.
         25    1    1    2    0    0  0.27744249483E+03 -0.21929692559E+03 -0.51929780410E+03  0.64059401250E+03  0.12500000000E+03 0.  0.
         25    1    1    2    0    0 -0.13232774143E+03  0.41380348689E+02 -0.14118197173E+04  0.14241077483E+04  0.12500000000E+03 0.  0.
         25    1    1    2    0    0 -0.14511475340E+03  0.17791657690E+03 -0.89928931308E+03  0.93651421164E+03  0.12500000000E+03 0.  0.
</event>
<event>
 5    0  0.5503691E-005  0.3868614E+03  0.7546771E-02  0.1048427E+00
         21   -1    0    0  502  501  0.00000000000E+00  0.00000000000E+00  0.44322828506E+03  0.44322828506E+03  0.00000000000E+00 0.  1.
         21   -1    0    0  501  502 -0.00000000000E+00 -0.00000000000E+00 -0.33766282166E+03  0.33766282166E+03  0.00000000000E+00 0.  1.
         25    1    1    2    0    0 -0.83777642532E+02 -0.24565552669E+03  0.10229207542E+03  0.30570246952E+03  0.12500000000E+03 0.  0.
         25    1    1    2    0    0  0.15259743674E+03  0.19332565533E+02 -0.45175634713E+02  0.20328690012E+03  0.12500000000E+03 0.  0.
         25    1    1    2    0    0 -0.68819794211E+02  0.22632296115E+03  0.48449022690E+02  0.27190173707E+03  0.12500000000E+03 0.  0.
</event>
<event>
 5    0  0.5503691E-005  0.2789944E+03  0.7546771E-02  0.1096239E+00
         21   -1    0    0  502  501  0.00000000000E+00  0.00000000000E+00  0.41192837329E+02  0.41192837329E+02  0.00000000000E+00 0.  1.
         21   -1    0    0  501  502 -0.00000000000E+00 -0.00000000000E+00 -0.18895974900E+04  0.18895974900E+04  0.00000000000E+00 0.  1.
         25    1    1    2    0    0  0.10203328232E+02 -0.33002815240E+02 -0.30048128509E+03  0.32727251093E+03  0.12500000000E+03 0.  0.
         25    1    1    2    0    0 -0.75189615021E+02  0.15181243601E+03 -0.10854007186E+04  0.11056311382E+04  0.12500000000E+03 0.  0.
         25    1    1    2    0    0  0.64986286790E+02 -0.11880962077E+03 -0.46252264899E+03  0.49788667816E+03  0.12500000000E+03 0.  0.
</event>
<event>
 5    0  0.5503691E-005  0.2192967E+03  0.7546771E-02  0.1134408E+00
         21   -1    0    0  502  501  0.00000000000E+00  0.00000000000E+00  0.22551351636E+03  0.22551351636E+03  0.00000000000E+00 0.  1.
         21   -1    0    0  501  502 -0.00000000000E+00 -0.00000000000E+00 -0.21325121846E+03  0.21325121846E+03  0.00000000000E+00 0.  1.
         25    1    1    2    0    0 -0.16810879732E+02 -0.41084538370E+02 -0.44384907561E+02  0.13987696376E+03  0.12500000000E+03 0.  0.
         25    1    1    2    0    0  0.61243249220E+02  0.70006678133E+02  0.47105532103E+02  0.16277469617E+03  0.12500000000E+03 0.  0.
         25    1    1    2    0    0 -0.44432369488E+02 -0.28922139762E+02  0.95416733531E+01  0.13611307489E+03  0.12500000000E+03 0.  0.
</event>
<event>
 5    0  0.5503691E-005  0.3037114E+03  0.7546771E-02  0.1083400E+00
         21   -1    0    0  502  501  0.00000000000E+00  0.00000000000E+00  0.41804628893E+03  0.41804628893E+03  0.00000000000E+00 0. -1.
         21   -1    0    0  501  502 -0.00000000000E+00 -0.00000000000E+00 -0.22064685744E+03  0.22064685744E+03  0.00000000000E+00 0. -1.
         25    1    1    2    0    0  0.42612829110E+01 -0.77808618683E+02  0.20484778888E+02  0.14871773882E+03  0.12500000000E+03 0.  0.
         25    1    1    2    0    0  0.98617477336E+02  0.19533299255E+03  0.62979847972E+02  0.25975343321E+03  0.12500000000E+03 0.  0.
         25    1    1    2    0    0 -0.10287876025E+03 -0.11752437387E+03  0.11393480462E+03  0.23022197434E+03  0.12500000000E+03 0.  0.
</event>
<event>
 5    0  0.5503691E-005  0.2887252E+03  0.7546771E-02  0.1091017E+00
         21   -1    0    0  502  501  0.00000000000E+00  0.00000000000E+00  0.34771430410E+03  0.34771430410E+03  0.00000000000E+00 0.  1.
         21   -1    0    0  501  502 -0.00000000000E+00 -0.00000000000E+00 -0.23974347760E+03  0.23974347760E+03  0.00000000000E+00 0.  1.
         25    1    1    2    0    0 -0.99932327513E+01 -0.98247923355E+02  0.15478789656E+03  0.22211891424E+03  0.12500000000E+03 0.  0.
         25    1    1    2    0    0  0.83562583402E+02  0.14600237667E+03 -0.29865761507E+02  0.21169875542E+03  0.12500000000E+03 0.  0.
         25    1    1    2    0    0 -0.73569350651E+02 -0.47754453314E+02 -0.16951308549E+02  0.15364011204E+03  0.12500000000E+03 0.  0.
</event>
<event>
 5    0  0.5503691E-005  0.2003284E+03  0.7546771E-02  0.1149462E+00
         21   -1    0    0  502  501  0.00000000000E+00  0.00000000000E+00  0.56333190661E+03  0.56333190661E+03  0.00000000000E+00 0.  1.
         21   -1    0    0  501  502 -0.00000000000E+00 -0.00000000000E+00 -0.71239449339E+02  0.71239449339E+02  0.00000000000E+00 0.  1.
         25    1    1    2    0    0 -0.36582559829E+02 -0.11007630827E+02  0.15723384441E+03  0.20446743860E+03  0.12500000000E+03 0.  0.
         25    1    1    2    0    0 -0.17806264454E+02  0.75570848649E+01  0.11259020062E+03  0.16933908545E+03  0.12500000000E+03 0.  0.
         25    1    1    2    0    0  0.54388824283E+02  0.34505459619E+01  0.22226841224E+03  0.26076483190E+03  0.12500000000E+03 0.  0.
</event>
<event>
 5    0  0.5503691E-005  0.6444671E+03  0.7546771E-02  0.9817217E-01
         21   -1    0    0  502  501  0.00000000000E+00  0.00000000000E+00  0.49398539643E+03  0.49398539643E+03  0.00000000000E+00 0.  1.
         21   -1    0    0  501  502 -0.00000000000E+00 -0.00000000000E+00 -0.84078983863E+03  0.84078983863E+03  0.00000000000E+00 0.  1.
         25    1    1    2    0    0  0.21107368257E+03 -0.49721885637E+03 -0.30683673699E+03  0.63368168174E+03  0.12500000000E+03 0.  0.
         25    1    1    2    0    0 -0.57910422090E+02  0.45458443212E+03 -0.10908837254E+03  0.48736628519E+03  0.12500000000E+03 0.  0.
         25    1    1    2    0    0 -0.15316326048E+03  0.42634424249E+02  0.69120667336E+02  0.21372726814E+03  0.12500000000E+03 0.  0.
</event>
<event>
 5    0  0.5503691E-005  0.3464123E+03  0.7546771E-02  0.1064097E+00
         21   -1    0    0  502  501  0.00000000000E+00  0.00000000000E+00  0.74869785756E+02  0.74869785756E+02  0.00000000000E+00 0.  1.
         21   -1    0    0  501  502 -0.00000000000E+00 -0.00000000000E+00 -0.16028028403E+04  0.16028028403E+04  0.00000000000E+00 0.  1.
         25    1    1    2    0    0  0.69304005050E+02  0.73676046399E+02 -0.10810333519E+04  0.10929269477E+04  0.12500000000E+03 0.  0.
         25    1    1    2    0    0 -0.80338337496E+02  0.56118234674E+02 -0.33914628761E+03  0.37449794276E+03  0.12500000000E+03 0.  0.
         25    1    1    2    0    0  0.11034332447E+02 -0.12979428107E+03 -0.10775341499E+03  0.21024773562E+03  0.12500000000E+03 0.  0.
</event>
<event>
 5    0  0.5503691E-005  0.3273178E+03  0.7546771E-02  0.1072330E+00
         21   -1    0    0  502  501  0.00000000000E+00  0.00000000000E+00  0.21269651086E+03  0.21269651086E+03  0.00000000000E+00 0.  1.
         21   -1    0    0  501  502 -0.00000000000E+00 -0.00000000000E+00 -0.50370816477E+03  0.50370816477E+03  0.00000000000E+00 0.  1.
         25    1    1    2    0    0 -0.17832412158E+03 -0.11542956787E+03 -0.67849713376E+02  0.25564049186E+03  0.12500000000E+03 0.  0.
         25    1    1    2    0    0  0.69175697785E+02  0.14286622696E+03 -0.29381738616E+02  0.20416738852E+03  0.12500000000E+03 0.  0.
         25    1    1    2    0    0  0.10914842379E+03 -0.27436659089E+02 -0.19378020191E+03  0.25659679525E+03  0.12500000000E+03 0.  0.
</event>
<event>
 5    0  0.5503691E-005  0.6777809E+03  0.7546771E-02  0.9756003E-01
         21   -1    0    0  502  501  0.00000000000E+00  0.00000000000E+00  0.26455359135E+04  0.26455359135E+04  0.00000000000E+00 0.  1.
         21   -1    0    0  501  502 -0.00000000000E+00 -0.00000000000E+00 -0.17364605855E+03  0.17364605855E+03  0.00000000000E+00 0.  1.
         25    1    1    2    0    0  0.31744946673E+03 -0.40308825364E+03  0.16434446903E+04  0.17262067530E+04  0.12500000000E+03 0.  0.
         25    1    1    2    0    0 -0.16003707645E+03  0.45724645460E+03  0.52730632695E+03  0.72688592538E+03  0.12500000000E+03 0.  0.
         25    1    1    2    0    0 -0.15741239029E+03 -0.54158200960E+02  0.30113883776E+03  0.36608929369E+03  0.12500000000E+03 0.  0.
</event>
<event>
 5    0  0.5503691E-005  0.3020901E+03  0.7546771E-02  0.1084200E+00
         21   -1    0    0  502  501  0.00000000000E+00  0.00000000000E+00  0.22219047973E+04  0.22219047973E+04  0.00000000000E+00 0. -1.
         21   -1    0    0  501  502 -0.00000000000E+00 -0.00000000000E+00 -0.41072149226E+02  0.41072149226E+02  0.00000000000E+00 0. -1.
         25    1    1    2    0    0  0.37943059670E+01  0.91749487226E+02  0.35907723157E+03  0.39114424883E+03  0.12500000000E+03 0.  0.
         25    1    1    2    0    0 -0.32277488392E+01  0.97454314983E+02  0.37086919097E+03  0.40333202041E+03  0.12500000000E+03 0.  0.
         25    1    1    2    0    0 -0.56655712781E+00 -0.18920380221E+03  0.14508862255E+04  0.14685006773E+04  0.12500000000E+03 0.  0.
</event>
<event>
 5    0  0.5503691E-005  0.2728058E+03  0.7546771E-02  0.1099684E+00
         21   -1    0    0  502  501  0.00000000000E+00  0.00000000000E+00  0.96578351094E+03  0.96578351094E+03  0.00000000000E+00 0. -1.
         21   -1    0    0  501  502 -0.00000000000E+00 -0.00000000000E+00 -0.77059702483E+02  0.77059702483E+02  0.00000000000E+00 0. -1.
         25    1    1    2    0    0  0.65421004610E+02 -0.36707484047E+02  0.21665003886E+03  0.26113135884E+03  0.12500000000E+03 0.  0.
         25    1    1    2    0    0  0.11080139775E+03  0.63378601470E+02  0.25674133694E+03  0.31278572691E+03  0.12500000000E+03 0.  0.
         25    1    1    2    0    0 -0.17622240236E+03 -0.26671117423E+02  0.41533243266E+03  0.46892612767E+03  0.12500000000E+03 0.  0.
</event>
<event>
 5    0  0.5503691E-005  0.3369074E+03  0.7546771E-02  0.1068121E+00
         21   -1    0    0  502  501  0.00000000000E+00  0.00000000000E+00  0.11982841502E+03  0.11982841502E+03  0.00000000000E+00 0.  1.
         21   -1    0    0  501  502 -0.00000000000E+00 -0.00000000000E+00 -0.94724265894E+03  0.94724265894E+03  0.00000000000E+00 0.  1.
         25    1    1    2    0    0  0.89019081669E+02  0.20880708490E+03 -0.26561619394E+03  0.37108187518E+03  0.12500000000E+03 0.  0.
         25    1    1    2    0    0  0.53929301949E+02 -0.13853191659E+03 -0.36590215192E+03  0.41425698099E+03  0.12500000000E+03 0.  0.
         25    1    1    2    0    0 -0.14294838362E+03 -0.70275168312E+02 -0.19589589806E+03  0.28173221778E+03  0.12500000000E+03 0.  0.
</event>
<event>
 5    0  0.5503691E-005  0.2548348E+03  0.7546771E-02  0.1110287E+00
         21   -1    0    0  502  501  0.00000000000E+00  0.00000000000E+00  0.16550515218E+03  0.16550515218E+03  0.00000000000E+00 0.  1.
         21   -1    0    0  501  502 -0.00000000000E+00 -0.00000000000E+00 -0.39237920088E+03  0.39237920088E+03  0.00000000000E+00 0.  1.
         25    1    1    2    0    0  0.42639508765E+02  0.13508505019E+03 -0.80916235265E+02  0.20552015867E+03  0.12500000000E+03 0.  0.
         25    1    1    2    0    0 -0.82477454739E+02 -0.42767123111E+02 -0.42369248694E+02  0.16140542306E+03  0.12500000000E+03 0.  0.
         25    1    1    2    0    0  0.39837945974E+02 -0.92317927077E+02 -0.10358856475E+03  0.19095877132E+03  0.12500000000E+03 0.  0.
</event>
<event>
 5    0  0.5503691E-005  0.3176470E+03  0.7546771E-02  0.1076737E+00
         21   -1    0    0  502  501  0.00000000000E+00  0.00000000000E+00  0.97091514598E+03  0.97091514598E+03  0.00000000000E+00 0.  1.
         21   -1    0    0  501  502 -0.00000000000E+00 -0.00000000000E+00 -0.10392215566E+03  0.10392215566E+03  0.00000000000E+00 0.  1.
         25    1    1    2    0    0  0.46916678973E+02 -0.13497123711E+03  0.10148715445E+03  0.21527436478E+03  0.12500000000E+03 0.  0.
         25    1    1    2    0    0 -0.71563971504E+01 -0.12304689702E+02  0.56301341767E+03  0.57689836876E+03  0.12500000000E+03 0.  0.
         25    1    1    2    0    0 -0.39760281823E+02  0.14727592682E+03  0.20249241820E+03  0.28266456810E+03  0.12500000000E+03 0.  0.
</event>
<event>
 5    0  0.5503691E-005  0.2971152E+03  0.7546771E-02  0.1086692E+00
         21   -1    0    0  502  501  0.00000000000E+00  0.00000000000E+00  0.13377399779E+04  0.13377399779E+04  0.00000000000E+00 0. -1.
         21   -1    0    0  501  502 -0.00000000000E+00 -0.00000000000E+00 -0.65989981677E+02  0.65989981677E+02  0.00000000000E+00 0. -1.
         25    1    1    2    0    0 -0.13176056835E+03 -0.45902019791E+02  0.42579033203E+03  0.46517765385E+03  0.12500000000E+03 0.  0.
         25    1    1    2    0    0  0.82189939635E+02  0.78804025420E+02  0.14109833855E+03  0.22022488901E+03  0.12500000000E+03 0.  0.
         25    1    1    2    0    0  0.49570628719E+02 -0.32902005629E+02  0.70486132561E+03  0.71832741667E+03  0.12500000000E+03 0.  0.
</event>
<event>
 5    0  0.5503691E-005  0.2941314E+03  0.7546771E-02  0.1088212E+00
         21   -1    0    0  502  501  0.00000000000E+00  0.00000000000E+00  0.95267208434E+03  0.95267208434E+03  0.00000000000E+00 0.  1.
         21   -1    0    0  501  502 -0.00000000000E+00 -0.00000000000E+00 -0.90811175144E+02  0.90811175144E+02  0.00000000000E+00 0.  1.
         25    1    1    2    0    0 -0.81814908130E+02  0.14016046875E+03  0.36270995434E+03  0.41655989626E+03  0.12500000000E+03 0.  0.
         25    1    1    2    0    0  0.15046546645E+03 -0.13051347510E+03  0.33445614792E+03  0.40885148729E+03  0.12500000000E+03 0.  0.
         25    1    1    2    0    0 -0.68650558320E+02 -0.96469936531E+01  0.16469480693E+03  0.21807187594E+03  0.12500000000E+03 0.  0.
</event>
<event>
 5    0  0.5503691E-005  0.3552718E+03  0.7546771E-02  0.1060472E+00
         21   -1    0    0  502  501  0.00000000000E+00  0.00000000000E+00  0.10345081890E+04  0.10345081890E+04  0.00000000000E+00 0. -1.
         21   -1    0    0  501  502 -0.00000000000E+00 -0.00000000000E+00 -0.12200779143E+03  0.12200779143E+03  0.00000000000E+00 0. -1.
         25    1    1    2    0    0 -0.56587167145E+02  0.16283999955E+03  0.10285171551E+03  0.23647927673E+03  0.12500000000E+03 0.  0.
         25    1    1    2    0    0  0.54317905061E+02  0.62614368549E+02  0.47178348217E+03  0.49505115696E+03  0.12500000000E+03 0.  0.
         25    1    1    2    0    0  0.22692620847E+01 -0.22545436810E+03  0.33786519988E+03  0.42498554673E+03  0.12500000000E+03 0.  0.
</event>
<event>
 5    0  0.5503691E-005  0.3721576E+03  0.7546771E-02  0.1053871E+00
         21   -1    0    0  502  501  0.00000000000E+00  0.00000000000E+00  0.83668910514E+03  0.83668910514E+03  0.00000000000E+00 0.  1.
         21   -1    0    0  501  502 -0.00000000000E+00 -0.00000000000E+00 -0.16553490440E+03  0.16553490440E+03  0.00000000000E+00 0.  1.
         25    1    1    2    0    0  0.16529493155E+03 -0.59595919404E+02  0.33039079887E+03  0.39453411511E+03  0.12500000000E+03 0.  0.
         25    1    1    2    0    0 -0.18532956016E+03 -0.13955907517E+03  0.21607227051E+03  0.34078733459E+03  0.12500000000E+03 0.  0.
         25    1    1    2    0    0  0.20034628613E+02  0.19915499458E+03  0.12469113136E+03  0.26690255984E+03  0.12500000000E+03 0.  0.
</event>
<event>
 5    0  0.5503691E-005  0.2935438E+03  0.7546771E-02  0.1088513E+00
         21   -1    0    0  502  501  0.00000000000E+00  0.00000000000E+00  0.94226791860E+02  0.94226791860E+02  0.00000000000E+00 0.  1.
         21   -1    0    0  501  502 -0.00000000000E+00 -0.00000000000E+00 -0.91447402976E+03  0.91447402976E+03  0.00000000000E+00 0.  1.
         25    1    1    2    0    0  0.56813571276E+01  0.59592794253E+02 -0.20602049441E+03  0.24830026794E+03  0.12500000000E+03 0.  0.
         25    1    1    2    0    0  0.70387944852E+02 -0.11608611289E+03 -0.56747598667E+03  0.59672811550E+03  0.12500000000E+03 0.  0.
         25    1    1    2    0    0 -0.76069301979E+02  0.56493318635E+02 -0.46750756827E+02  0.16367243817E+03  0.12500000000E+03 0.  0.
</event>
<event>
 5    0  0.5503691E-005  0.2351596E+03  0.7546771E-02  0.1123060E+00
         21   -1    0    0  502  501  0.00000000000E+00  0.00000000000E+00  0.37887030701E+02  0.37887030701E+02  0.00000000000E+00 0. -1.
         21   -1    0    0  501  502 -0.00000000000E+00 -0.00000000000E+00 -0.14596031440E+04  0.14596031440E+04  0.00000000000E+00 0. -1.
         25    1    1    2    0    0  0.63603435064E+02 -0.56902616821E+02 -0.47661361049E+03  0.50006883372E+03  0.12500000000E+03 0.  0.
         25    1    1    2    0    0  0.55322748407E+02  0.36506856936E+02 -0.35121117254E+03  0.37863920136E+03  0.12500000000E+03 0.  0.
         25    1    1    2    0    0 -0.11892618347E+03  0.20395759885E+02 -0.59389133025E+03  0.61878213960E+03  0.12500000000E+03 0.  0.
</event>
<event>
 5    0  0.5503691E-005  0.2964778E+03  0.7546771E-02  0.1087015E+00
         21   -1    0    0  502  501  0.00000000000E+00  0.00000000000E+00  0.16151908733E+04  0.16151908733E+04  0.00000000000E+00 0.  1.
         21   -1    0    0  501  502 -0.00000000000E+00 -0.00000000000E+00 -0.54420264493E+02  0.54420264493E+02  0.00000000000E+00 0.  1.
         25    1    1    2    0    0  0.10219892395E+03  0.14678144308E+03  0.74351149141E+03  0.77487015038E+03  0.12500000000E+03 0.  0.
         25    1    1    2    0    0 -0.74843886828E+02 -0.56327667783E+02  0.17920529458E+03  0.23772663115E+03  0.12500000000E+03 0.  0.
         25    1    1    2    0    0 -0.27355037121E+02 -0.90453775301E+02  0.63805382286E+03  0.65701435631E+03  0.12500000000E+03 0.  0.
</event>
<event>
 5    0  0.5768077E-005  0.2934258E+03  0.7546771E-02  0.1088574E+00
         21   -1    0    0  502  501  0.00000000000E+00  0.00000000000E+00  0.63669088798E+02  0.63669088798E+02  0.00000000000E+00 0.  1.
         21   -1    0    0  501  502 -0.00000000000E+00 -0.00000000000E+00 -0.13522843535E+04  0.13522843535E+04  0.00000000000E+00 0.  1.
         25    1    1    2    0    0  0.77609825541E+02 -0.16215660367E+03 -0.63204832465E+03  0.66890069056E+03  0.12500000000E+03 0.  0.
         25    1    1    2    0    0 -0.18986873379E+02  0.12096600873E+03 -0.51955563652E+03  0.54823018529E+03  0.12500000000E+03 0.  0.
         25    1    1    2    0    0 -0.58622952163E+02  0.41190594942E+02 -0.13701130352E+03  0.19882256644E+03  0.12500000000E+03 0.  0.
</event>
<event>
 5    0  0.5503691E-005  0.2442529E+03  0.7546771E-02  0.1116992E+00
         21   -1    0    0  502  501  0.00000000000E+00  0.00000000000E+00  0.18015153185E+03  0.18015153185E+03  0.00000000000E+00 0.  1.
         21   -1    0    0  501  502 -0.00000000000E+00 -0.00000000000E+00 -0.33116269250E+03  0.33116269250E+03  0.00000000000E+00 0.  1.
         25    1    1    2    0    0  0.35342880813E+01  0.48524814228E+02 -0.14071194953E+03  0.19440165002E+03  0.12500000000E+03 0.  0.
         25    1    1    2    0    0 -0.75823781591E+02  0.33765562147E+02 -0.13750865336E+02  0.15067662506E+03  0.12500000000E+03 0.  0.
         25    1    1    2    0    0  0.72289493510E+02 -0.82290376375E+02  0.34516542157E+01  0.16623594928E+03  0.12500000000E+03 0.  0.
</event>
<event>
 5    0  0.5503691E-005  0.2142232E+03  0.7546771E-02  0.1138265E+00
         21   -1    0    0  502  501  0.00000000000E+00  0.00000000000E+00  0.13477344831E+03  0.13477344831E+03  0.00000000000E+00 0. -1.
         21   -1    0    0  501  502 -0.00000000000E+00 -0.00000000000E+00 -0.34050893977E+03  0.34050893977E+03  0.00000000000E+00 0. -1.
         25    1    1    2    0    0  0.30314532039E+02 -0.34528646810E+01 -0.43945433827E+02  0.13596725445E+03  0.12500000000E+03 0.  0.
         25    1    1    2    0    0  0.24864360723E+02  0.29504588915E+02 -0.67082812048E+01  0.13099144338E+03  0.12500000000E+03 0.  0.
         25    1    1    2    0    0 -0.55178892762E+02 -0.26051724234E+02 -0.15508177643E+03  0.20832369026E+03  0.12500000000E+03 0.  0.
</event>
<event>
 5    0  0.5503691E-005  0.3357945E+03  0.7546771E-02  0.1068601E+00
         21   -1    0    0  502  501  0.00000000000E+00  0.00000000000E+00  0.62188839392E+02  0.62188839392E+02  0.00000000000E+00 0.  1.
         21   -1    0    0  501  502 -0.00000000000E+00 -0.00000000000E+00 -0.18131542464E+04  0.18131542464E+04  0.00000000000E+00 0.  1.
         25    1    1    2    0    0 -0.54239007633E+02  0.19310828739E+03 -0.85414542279E+03  0.88624042104E+03  0.12500000000E+03 0.  0.
         25    1    1    2    0    0  0.16028744499E+03 -0.82612146412E+02 -0.48129603727E+03  0.52894962638E+03  0.12500000000E+03 0.  0.
         25    1    1    2    0    0 -0.10604843735E+03 -0.11049614098E+03 -0.41552394695E+03  0.46015303837E+03  0.12500000000E+03 0.  0.
</event>
<event>
 5    0  0.5503691E-005  0.2819166E+03  0.7546771E-02  0.1094647E+00
         21   -1    0    0  502  501  0.00000000000E+00  0.00000000000E+00  0.11459216259E+04  0.11459216259E+04  0.00000000000E+00 0. -1.
         21   -1    0    0  501  502 -0.00000000000E+00 -0.00000000000E+00 -0.69356375660E+02  0.69356375660E+02  0.00000000000E+00 0. -1.
         25    1    1    2    0    0  0.74066634477E+02  0.88824198996E+02  0.18432817202E+03  0.25095314238E+03  0.12500000000E+03 0.  0.
         25    1    1    2    0    0 -0.54884432362E+02  0.54247775134E+02  0.58010705906E+03  0.59841818320E+03  0.12500000000E+03 0.  0.
         25    1    1    2    0    0 -0.19182202115E+02 -0.14307197413E+03  0.31213001914E+03  0.36590667595E+03  0.12500000000E+03 0.  0.
</event>
<event>
 5    0  0.5503691E-005  0.3751422E+03  0.7546771E-02  0.1052744E+00
         21   -1    0    0  502  501  0.00000000000E+00  0.00000000000E+00  0.36492685451E+03  0.36492685451E+03  0.00000000000E+00 0. -1.
         21   -1    0    0  501  502 -0.00000000000E+00 -0.00000000000E+00 -0.38564358652E+03  0.38564358652E+03  0.00000000000E+00 0. -1.
         25    1    1    2    0    0 -0.26374487180E+03  0.11881183324E+03  0.84668303789E+02  0.32629944956E+03  0.12500000000E+03 0.  0.
         25    1    1    2    0    0  0.14395908105E+03 -0.97699693926E+02  0.11133382222E+02  0.21451899545E+03  0.12500000000E+03 0.  0.
         25    1    1    2    0    0  0.11978579075E+03 -0.21112139310E+02 -0.11651841802E+03  0.20975199601E+03  0.12500000000E+03 0.  0.
</event>
<event>
 5    0  0.5503691E-005  0.3252894E+03  0.7546771E-02  0.1073240E+00
         21   -1    0    0  502  501  0.00000000000E+00  0.00000000000E+00  0.16136694011E+03  0.16136694011E+03  0.00000000000E+00 0.  1.
         21   -1    0    0  501  502 -0.00000000000E+00 -0.00000000000E+00 -0.65573048682E+03  0.65573048682E+03  0.00000000000E+00 0.  1.
         25    1    1    2    0    0  0.15561591695E+03  0.18297227192E+02 -0.15071258683E+02  0.20100558442E+03  0.12500000000E+03 0.  0.
         25    1    1    2    0    0 -0.84985689525E+02  0.46905647953E+02 -0.41791934158E+03  0.44688285188E+03  0.12500000000E+03 0.  0.
         25    1    1    2    0    0 -0.70630227422E+02 -0.65202875145E+02 -0.61372946443E+02  0.16920899062E+03  0.12500000000E+03 0.  0.
</event>
<event>
 5    0  0.5503691E-005  0.3632909E+03  0.7546771E-02  0.1057288E+00
         21   -1    0    0  502  501  0.00000000000E+00  0.00000000000E+00  0.13300711224E+03  0.13300711224E+03  0.00000000000E+00 0. -1.
         21   -1    0    0  501  502 -0.00000000000E+00 -0.00000000000E+00 -0.99227998307E+03  0.99227998307E+03  0.00000000000E+00 0. -1.
         25    1    1    2    0    0  0.15276521383E+03  0.90174391278E+02 -0.46577539473E+03  0.51384856692E+03  0.12500000000E+03 0.  0.
         25    1    1    2    0    0 -0.85429903383E+01  0.55808066015E+02 -0.33808635164E+03  0.36484915251E+03  0.12500000000E+03 0.  0.
         25    1    1    2    0    0 -0.14422222349E+03 -0.14598245729E+03 -0.55411124465E+02  0.24658937589E+03  0.12500000000E+03 0.  0.
</event>
<event>
 5    0  0.5503691E-005  0.2606973E+03  0.7546771E-02  0.1106725E+00
         21   -1    0    0  502  501  0.00000000000E+00  0.00000000000E+00  0.18642091308E+04  0.18642091308E+04  0.00000000000E+00 0.  1.
         21   -1    0    0  501  502 -0.00000000000E+00 -0.00000000000E+00 -0.36456798414E+02  0.36456798414E+02  0.00000000000E+00 0.  1.
         25    1    1    2    0    0 -0.16991084500E+02  0.19036195098E+02  0.13146076453E+04  0.13207836063E+04  0.12500000000E+03 0.  0.
         25    1    1    2    0    0  0.38649605057E+02 -0.38700921072E+01  0.17599413062E+03  0.21933468398E+03  0.12500000000E+03 0.  0.
         25    1    1    2    0    0 -0.21658520557E+02 -0.15166102991E+02  0.33715055649E+03  0.36054763892E+03  0.12500000000E+03 0.  0.
</event>
<event>
 5    0  0.5503691E-005  0.4169386E+03  0.7546771E-02  0.1038067E+00
         21   -1    0    0  502  501  0.00000000000E+00  0.00000000000E+00  0.98101007029E+02  0.98101007029E+02  0.00000000000E+00 0.  1.
         21   -1    0    0  501  502 -0.00000000000E+00 -0.00000000000E+00 -0.17720284672E+04  0.17720284672E+04  0.00000000000E+00 0.  1.
         25    1    1    2    0    0 -0.36866236053E+02 -0.21894521258E+03 -0.40632424118E+03  0.47960453964E+03  0.12500000000E+03 0.  0.
         25    1    1    2    0    0 -0.10766444887E+03  0.12418309870E+03 -0.11001275481E+04  0.11193385089E+04  0.12500000000E+03 0.  0.
         25    1    1    2    0    0  0.14453068492E+03  0.94762113887E+02 -0.16747567093E+03  0.27118642566E+03  0.12500000000E+03 0.  0.
</event>
<event>
 5    0  0.5503691E-005  0.2509348E+03  0.7546771E-02  0.1112715E+00
         21   -1    0    0  502  501  0.00000000000E+00  0.00000000000E+00  0.94735314139E+02  0.94735314139E+02  0.00000000000E+00 0.  1.
         21   -1    0    0  501  502 -0.00000000000E+00 -0.00000000000E+00 -0.66467588462E+03  0.66467588462E+03  0.00000000000E+00 0.  1.
         25    1    1    2    0    0  0.25088041999E+02 -0.18153398281E+01 -0.71742122242E+02  0.14630323788E+03  0.12500000000E+03 0.  0.
         25    1    1    2    0    0  0.16660466173E+02  0.39161374210E+02 -0.44751042943E+02  0.13942324127E+03  0.12500000000E+03 0.  0.
         25    1    1    2    0    0 -0.41748508172E+02 -0.37346034382E+02 -0.45344740529E+03  0.47368471960E+03  0.12500000000E+03 0.  0.
</event>
<event>
 5    0  0.5503691E-005  0.4428672E+03  0.7546771E-02  0.1029871E+00
         21   -1    0    0  502  501  0.00000000000E+00  0.00000000000E+00  0.24959337085E+03  0.24959337085E+03  0.00000000000E+00 0.  1.
         21   -1    0    0  501  502 -0.00000000000E+00 -0.00000000000E+00 -0.78580360387E+03  0.78580360387E+03  0.00000000000E+00 0.  1.
         25    1    1    2    0    0  0.24711148027E+03  0.22875621096E+03 -0.24333286165E+03  0.43385408756E+03  0.12500000000E+03 0.  0.
         25    1    1    2    0    0 -0.14830346484E+03 -0.24370620213E+03 -0.31140622565E+03  0.44043781402E+03  0.12500000000E+03 0.  0.
         25    1    1    2    0    0 -0.98808015435E+02  0.14949991171E+02  0.18528854283E+02  0.16110507314E+03  0.12500000000E+03 0.  0.
</event>
<event>
 5    0  0.5503691E-005  0.2480617E+03  0.7546771E-02  0.1114536E+00
         21   -1    0    0  502  501  0.00000000000E+00  0.00000000000E+00  0.12639954050E+03  0.12639954050E+03  0.00000000000E+00 0.  1.
         21   -1    0    0  501  502 -0.00000000000E+00 -0.00000000000E+00 -0.48682630684E+03  0.48682630684E+03  0.00000000000E+00 0.  1.
         25    1    1    2    0    0  0.45353187365E+02 -0.19416534103E+02 -0.17143887703E+03  0.21783067267E+03  0.12500000000E+03 0.  0.
         25    1    1    2    0    0  0.40742111937E+02  0.53565361771E+02 -0.19321508575E+03  0.23976287667E+03  0.12500000000E+03 0.  0.
         25    1    1    2    0    0 -0.86095299302E+02 -0.34148827667E+02  0.42271964379E+01  0.15563229801E+03  0.12500000000E+03 0.  0.
</event>
<event>
 5    0  0.5503691E-005  0.5649061E+03  0.7546771E-02  0.9981014E-01
         21   -1    0    0  502  501  0.00000000000E+00  0.00000000000E+00  0.21850531013E+03  0.21850531013E+03  0.00000000000E+00 0. -1.
         21   -1    0    0  501  502 -0.00000000000E+00 -0.00000000000E+00 -0.14604631187E+04  0.14604631187E+04  0.00000000000E+00 0. -1.
         25    1    1    2    0    0  0.16608125590E+03  0.13942030216E+03 -0.35764281682E+03  0.43652535853E+03  0.12500000000E+03 0.  0.
         25    1    1    2    0    0 -0.33548966752E+03  0.19972348541E+03 -0.21445663063E+03  0.46266557475E+03  0.12500000000E+03 0.  0.
         25    1    1    2    0    0  0.16940841163E+03 -0.33914378757E+03 -0.66985836108E+03  0.77977749550E+03  0.12500000000E+03 0.  0.
</event>
<event>
 5    0  0.5503691E-005  0.4069628E+03  0.7546771E-02  0.1041395E+00
         21   -1    0    0  502  501  0.00000000000E+00  0.00000000000E+00  0.18814893515E+03  0.18814893515E+03  0.00000000000E+00 0. -1.
         21   -1    0    0  501  502 -0.00000000000E+00 -0.00000000000E+00 -0.88025315251E+03  0.88025315251E+03  0.00000000000E+00 0. -1.
         25    1    1    2    0    0 -0.18353838406E+03 -0.29097476758E+03 -0.33189559206E+03  0.49409749829E+03  0.12500000000E+03 0.  0.
         25    1    1    2    0    0  0.16123174846E+03  0.13504407956E+03 -0.22136104851E+03  0.32993680294E+03  0.12500000000E+03 0.  0.
         25    1    1    2    0    0  0.22306635595E+02  0.15593068803E+03 -0.13884757679E+03  0.24436778642E+03  0.12500000000E+03 0.  0.
</event>
<event>
 5    0  0.5503691E-005  0.3109927E+03  0.7546771E-02  0.1079871E+00
         21   -1    0    0  502  501  0.00000000000E+00  0.00000000000E+00  0.30513397477E+03  0.30513397477E+03  0.00000000000E+00 0. -1.
         21   -1    0    0  501  502 -0.00000000000E+00 -0.00000000000E+00 -0.31696383319E+03  0.31696383319E+03  0.00000000000E+00 0. -1.
         25    1    1    2    0    0  0.41649881994E+02 -0.26093730769E+02  0.18139187694E+03  0.22570690835E+03  0.12500000000E+03 0.  0.
         25    1    1    2    0    0  0.16408473648E+01 -0.16085150107E+02  0.33603426245E+02  0.13044391396E+03  0.12500000000E+03 0.  0.
         25    1    1    2    0    0 -0.43290729359E+02  0.42178880876E+02 -0.22682516160E+03  0.26594698565E+03  0.12500000000E+03 0.  0.
</event>
<event>
 5    0  0.5503691E-005  0.2375387E+03  0.7546771E-02  0.1121443E+00
         21   -1    0    0  502  501  0.00000000000E+00  0.00000000000E+00  0.33544703046E+03  0.33544703046E+03  0.00000000000E+00 0.  1.
         21   -1    0    0  501  502 -0.00000000000E+00 -0.00000000000E+00 -0.16820728062E+03  0.16820728062E+03  0.00000000000E+00 0.  1.
         25    1    1    2    0    0 -0.45348620071E+01  0.10340558262E+02  0.55999867575E+02  0.13743535676E+03  0.12500000000E+03 0.  0.
         25    1    1    2    0    0 -0.11587576504E+03 -0.33275260011E+02  0.61279155940E+02  0.18415909102E+03  0.12500000000E+03 0.  0.
         25    1    1    2    0    0  0.12041062705E+03  0.22934701749E+02  0.49960726322E+02  0.18205986330E+03  0.12500000000E+03 0.  0.
</event>
<event>
 5    0  0.5503691E-005  0.2944749E+03  0.7546771E-02  0.1088036E+00
         21   -1    0    0  502  501  0.00000000000E+00  0.00000000000E+00  0.22382469889E+03  0.22382469889E+03  0.00000000000E+00 0.  1.
         21   -1    0    0  501  502 -0.00000000000E+00 -0.00000000000E+00 -0.38742576196E+03  0.38742576196E+03  0.00000000000E+00 0.  1.
         25    1    1    2    0    0 -0.85804878929E+02 -0.10050500592E+03 -0.11917205735E+03  0.21746427917E+03  0.12500000000E+03 0.  0.
         25    1    1    2    0    0  0.10704589670E+03 -0.69911130346E+02 -0.23647525733E+02  0.18036240079E+03  0.12500000000E+03 0.  0.
         25    1    1    2    0    0 -0.21241017774E+02  0.17041613627E+03 -0.20781479992E+02  0.21342378089E+03  0.12500000000E+03 0.  0.
</event>
<event>
 5    0  0.5765650E-005  0.2749877E+03  0.7546771E-02  0.1098458E+00
         21   -1    0    0  502  501  0.00000000000E+00  0.00000000000E+00  0.58779421522E+03  0.58779421522E+03  0.00000000000E+00 0.  1.
         21   -1    0    0  501  502 -0.00000000000E+00 -0.00000000000E+00 -0.12864742319E+03  0.12864742319E+03  0.00000000000E+00 0.  1.
         25    1    1    2    0    0  0.67553252552E+02  0.69152647427E+02  0.52656498890E+02  0.16656301346E+03  0.12500000000E+03 0.  0.
         25    1    1    2    0    0  0.12980029982E+02 -0.12455047199E+03  0.32838138968E+03  0.37301560066E+03  0.12500000000E+03 0.  0.
         25    1    1    2    0    0 -0.80533282534E+02  0.55397824562E+02  0.78108903465E+02  0.17686302429E+03  0.12500000000E+03 0.  0.
</event>
<event>
 5    0  0.5503691E-005  0.4340059E+03  0.7546771E-02  0.1032602E+00
         21   -1    0    0  502  501  0.00000000000E+00  0.00000000000E+00  0.13935498118E+03  0.13935498118E+03  0.00000000000E+00 0.  1.
         21   -1    0    0  501  502 -0.00000000000E+00 -0.00000000000E+00 -0.13516639260E+04  0.13516639260E+04  0.00000000000E+00 0.  1.
         25    1    1    2    0    0 -0.52343887901E+02 -0.10881446991E+03 -0.97406539341E+03  0.98944876679E+03  0.12500000000E+03 0.  0.
         25    1    1    2    0    0 -0.10827810586E+03 -0.60949124382E+02 -0.10012826271E+03  0.20270572998E+03  0.12500000000E+03 0.  0.
         25    1    1    2    0    0  0.16062199377E+03  0.16976359429E+03 -0.13811528867E+03  0.29886441038E+03  0.12500000000E+03 0.  0.
</event>
<event>
 5    0  0.5503691E-005  0.3610827E+03  0.7546771E-02  0.1058156E+00
         21   -1    0    0  502  501  0.00000000000E+00  0.00000000000E+00  0.24445355719E+03  0.24445355719E+03  0.00000000000E+00 0. -1.
         21   -1    0    0  501  502 -0.00000000000E+00 -0.00000000000E+00 -0.53335573076E+03  0.53335573076E+03  0.00000000000E+00 0. -1.
         25    1    1    2    0    0  0.24861323240E+03 -0.15611715595E+02  0.19524506101E+02  0.27938946173E+03  0.12500000000E+03 0.  0.
         25    1    1    2    0    0 -0.16746163655E+03  0.33957696923E+02 -0.27058786064E+03  0.34356850150E+03  0.12500000000E+03 0.  0.
         25    1    1    2    0    0 -0.81151595846E+02 -0.18345981328E+02 -0.37838819027E+02  0.15485132471E+03  0.12500000000E+03 0.  0.
</event>
<event>
 5    0  0.5503691E-005  0.3742817E+03  0.7546771E-02  0.1053068E+00
         21   -1    0    0  502  501  0.00000000000E+00  0.00000000000E+00  0.32010149047E+03  0.32010149047E+03  0.00000000000E+00 0.  1.
         21   -1    0    0  501  502 -0.00000000000E+00 -0.00000000000E+00 -0.43763236316E+03  0.43763236316E+03  0.00000000000E+00 0.  1.
         25    1    1    2    0    0 -0.10508658545E+03  0.64975636892E+02 -0.12885799349E+03  0.21793211401E+03  0.12500000000E+03 0.  0.
         25    1    1    2    0    0  0.13393695907E+03 -0.86767375806E+02 -0.20439574319E+03  0.28787203119E+03  0.12500000000E+03 0.  0.
         25    1    1    2    0    0 -0.28850373614E+02  0.21791738913E+02  0.21572286398E+03  0.25192970843E+03  0.12500000000E+03 0.  0.
</event>
<event>
 5    0  0.5503691E-005  0.2279806E+03  0.7546771E-02  0.1128069E+00
         21   -1    0    0  502  501  0.00000000000E+00  0.00000000000E+00  0.30321604025E+03  0.30321604025E+03  0.00000000000E+00 0.  1.
         21   -1    0    0  501  502 -0.00000000000E+00 -0.00000000000E+00 -0.17141299237E+03  0.17141299237E+03  0.00000000000E+00 0.  1.
         25    1    1    2    0    0 -0.38553547736E+02  0.39564071102E+02  0.36466883178E+02  0.14144442490E+03  0.12500000000E+03 0.  0.
         25    1    1    2    0    0  0.41546718716E+02 -0.14653516984E+00  0.14231534366E+03  0.19391959249E+03  0.12500000000E+03 0.  0.
         25    1    1    2    0    0 -0.29931709793E+01 -0.39417535932E+02 -0.46979178959E+02  0.13926501523E+03  0.12500000000E+03 0.  0.
</event>
<event>
 5    0  0.5503691E-005  0.2431598E+03  0.7546771E-02  0.1117706E+00
         21   -1    0    0  502  501  0.00000000000E+00  0.00000000000E+00  0.34666374409E+02  0.34666374409E+02  0.00000000000E+00 0. -1.
         21   -1    0    0  501  502 -0.00000000000E+00 -0.00000000000E+00 -0.17055925790E+04  0.17055925790E+04  0.00000000000E+00 0. -1.
         25    1    1    2    0    0  0.59945851016E+02  0.11195206439E+03 -0.63588153063E+03  0.66037647654E+03  0.12500000000E+03 0.  0.
         25    1    1    2    0    0 -0.51768420394E+02 -0.98645572017E+01 -0.33490675440E+03  0.36133753331E+03  0.12500000000E+03 0.  0.
         25    1    1    2    0    0 -0.81774306212E+01 -0.10208750719E+03 -0.70013791957E+03  0.71854494356E+03  0.12500000000E+03 0.  0.
</event>
<event>
 5    0  0.5503691E-005  0.3095274E+03  0.7546771E-02  0.1080573E+00
         21   -1    0    0  502  501  0.00000000000E+00  0.00000000000E+00  0.83410882819E+02  0.83410882819E+02  0.00000000000E+00 0. -1.
         21   -1    0    0  501  502 -0.00000000000E+00 -0.00000000000E+00 -0.11486179112E+04  0.11486179112E+04  0.00000000000E+00 0. -1.
         25    1    1    2    0    0 -0.13158182840E+03 -0.81995959897E+02 -0.10616024101E+03  0.22568143870E+03  0.12500000000E+03 0.  0.
         25    1    1    2    0    0  0.80613018908E+02  0.46213716938E+02 -0.37964882553E+03  0.41035642700E+03  0.12500000000E+03 0.  0.
         25    1    1    2    0    0  0.50968809491E+02  0.35782242959E+02 -0.57939796188E+03  0.59599092836E+03  0.12500000000E+03 0.  0.
</event>
<event>
 5    0  0.5503691E-005  0.3450903E+03  0.7546771E-02  0.1064648E+00
         21   -1    0    0  502  501  0.00000000000E+00  0.00000000000E+00  0.36102385353E+04  0.36102385353E+04  0.00000000000E+00 0. -1.
         21   -1    0    0  501  502 -0.00000000000E+00 -0.00000000000E+00 -0.32985999091E+02  0.32985999091E+02  0.00000000000E+00 0. -1.
         25    1    1    2    0    0 -0.52940648838E+01 -0.13927104207E+03  0.25674768098E+04  0.25742934214E+04  0.12500000000E+03 0.  0.
         25    1    1    2    0    0  0.99791994994E+02  0.93351767654E+02  0.47685464848E+03  0.51155483632E+03  0.12500000000E+03 0.  0.
         25    1    1    2    0    0 -0.94497930111E+02  0.45919274413E+02  0.53292107787E+03  0.55737627667E+03  0.12500000000E+03 0.  0.
</event>
<event>
 5    0  0.5503691E-005  0.3897275E+03  0.7546771E-02  0.1047396E+00
         21   -1    0    0  502  501  0.00000000000E+00  0.00000000000E+00  0.44484377253E+03  0.44484377253E+03  0.00000000000E+00 0.  1.
         21   -1    0    0  501  502 -0.00000000000E+00 -0.00000000000E+00 -0.34144008874E+03  0.34144008874E+03  0.00000000000E+00 0.  1.
         25    1    1    2    0    0  0.63325678548E+02  0.70886828306E+02  0.70655510908E+01  0.15719416657E+03  0.12500000000E+03 0.  0.
         25    1    1    2    0    0 -0.29688461025E+03 -0.44592141148E+02  0.14902603545E+03  0.35771873043E+03  0.12500000000E+03 0.  0.
         25    1    1    2    0    0  0.23355893171E+03 -0.26294687159E+02 -0.52687902755E+02  0.27137096427E+03  0.12500000000E+03 0.  0.
</event>
<event>
 5    0  0.5503691E-005  0.2793878E+03  0.7546771E-02  0.1096024E+00
         21   -1    0    0  502  501  0.00000000000E+00  0.00000000000E+00  0.83998414204E+03  0.83998414204E+03  0.00000000000E+00 0.  1.
         21   -1    0    0  501  502 -0.00000000000E+00 -0.00000000000E+00 -0.92927383503E+02  0.92927383503E+02  0.00000000000E+00 0.  1.
         25    1    1    2    0    0  0.27845788449E+02 -0.83788565737E+02  0.18649883742E+03  0.24125241562E+03  0.12500000000E+03 0.  0.
         25    1    1    2    0    0 -0.11901107628E+03  0.15615294836E+03  0.35354424270E+03  0.42327994413E+03  0.12500000000E+03 0.  0.
         25    1    1    2    0    0  0.91165287832E+02 -0.72364382626E+02  0.20701367841E+03  0.26837916578E+03  0.12500000000E+03 0.  0.
</event>
<event>
 5    0  0.5503691E-005  0.3043986E+03  0.7546771E-02  0.1083062E+00
         21   -1    0    0  502  501  0.00000000000E+00  0.00000000000E+00  0.10967738856E+04  0.10967738856E+04  0.00000000000E+00 0.  1.
         21   -1    0    0  501  502 -0.00000000000E+00 -0.00000000000E+00 -0.84482802860E+02  0.84482802860E+02  0.00000000000E+00 0.  1.
         25    1    1    2    0    0  0.12389617693E+03 -0.62878724165E+02  0.57928090705E+03  0.60868330508E+03  0.12500000000E+03 0.  0.
         25    1    1    2    0    0  0.40538028070E+02  0.68208917801E+02  0.27549772476E+03  0.31276154580E+03  0.12500000000E+03 0.  0.
         25    1    1    2    0    0 -0.16443420500E+03 -0.53301936359E+01  0.15751245090E+03  0.25981183754E+03  0.12500000000E+03 0.  0.
</event>
<event>
 5    0  0.5503691E-005  0.4339260E+03  0.7546771E-02  0.1032627E+00
         21   -1    0    0  502  501  0.00000000000E+00  0.00000000000E+00  0.63075020230E+03  0.63075020230E+03  0.00000000000E+00 0.  1.
         21   -1    0    0  501  502 -0.00000000000E+00 -0.00000000000E+00 -0.29852033849E+03  0.29852033849E+03  0.00000000000E+00 0.  1.
         25    1    1    2    0    0 -0.89192718979E+01 -0.22037095050E+03  0.74132732683E+02  0.26412794492E+03  0.12500000000E+03 0.  0.
         25    1    1    2    0    0  0.78507890505E+02  0.64093386902E+02 -0.14056898389E+03  0.21367285824E+03  0.12500000000E+03 0.  0.
         25    1    1    2    0    0 -0.69588618607E+02  0.15627756359E+03  0.39866611502E+03  0.45146973762E+03  0.12500000000E+03 0.  0.
</event>
<event>
 5    0  0.5503691E-005  0.3783829E+03  0.7546771E-02  0.1051533E+00
         21   -1    0    0  502  501  0.00000000000E+00  0.00000000000E+00  0.49440607073E+03  0.49440607073E+03  0.00000000000E+00 0. -1.
         21   -1    0    0  501  502 -0.00000000000E+00 -0.00000000000E+00 -0.28958705450E+03  0.28958705450E+03  0.00000000000E+00 0. -1.
         25    1    1    2    0    0 -0.13223779590E+03  0.73150559298E+02 -0.12120959054E+03  0.23055282221E+03  0.12500000000E+03 0.  0.
         25    1    1    2    0    0  0.17086007217E+03 -0.10576578903E+03  0.34386601960E+03  0.41743071979E+03  0.12500000000E+03 0.  0.
         25    1    1    2    0    0 -0.38622276267E+02  0.32615229732E+02 -0.17837412828E+02  0.13600958323E+03  0.12500000000E+03 0.  0.
</event>
<event>
 5    0  0.5503691E-005  0.2524863E+03  0.7546771E-02  0.1111744E+00
         21   -1    0    0  502  501  0.00000000000E+00  0.00000000000E+00  0.46104240938E+03  0.46104240938E+03  0.00000000000E+00 0. -1.
         21   -1    0    0  501  502 -0.00000000000E+00 -0.00000000000E+00 -0.13827220507E+03  0.13827220507E+03  0.00000000000E+00 0. -1.
         25    1    1    2    0    0  0.56577133881E+02 -0.10700858496E+02  0.10664774981E+03  0.17410980153E+03  0.12500000000E+03 0.  0.
         25    1    1    2    0    0 -0.76423735714E+02  0.12720296470E+03  0.12031211533E+03  0.22830064981E+03  0.12500000000E+03 0.  0.
         25    1    1    2    0    0  0.19846601833E+02 -0.11650210621E+03  0.95810339172E+02  0.19690416310E+03  0.12500000000E+03 0.  0.
</event>
<event>
 5    0  0.5503691E-005  0.3941257E+03  0.7546771E-02  0.1045833E+00
         21   -1    0    0  502  501  0.00000000000E+00  0.00000000000E+00  0.51566212393E+03  0.51566212393E+03  0.00000000000E+00 0.  1.
         21   -1    0    0  501  502 -0.00000000000E+00 -0.00000000000E+00 -0.30123418643E+03  0.30123418643E+03  0.00000000000E+00 0.  1.
         25    1    1    2    0    0 -0.72840767191E+02 -0.11693768476E+02 -0.52388929963E+02  0.15431176743E+03  0.12500000000E+03 0.  0.
         25    1    1    2    0    0  0.10997295146E+03 -0.23138530816E+03  0.26127599212E+03  0.38668249888E+03  0.12500000000E+03 0.  0.
         25    1    1    2    0    0 -0.37132184270E+02  0.24307907664E+03  0.55408753449E+01  0.27590204404E+03  0.12500000000E+03 0.  0.
</event>
<event>
 5    0  0.5503691E-005  0.4323520E+03  0.7546771E-02  0.1033120E+00
         21   -1    0    0  502  501  0.00000000000E+00  0.00000000000E+00  0.47337154284E+03  0.47337154284E+03  0.00000000000E+00 0.  1.
         21   -1    0    0  501  502 -0.00000000000E+00 -0.00000000000E+00 -0.39488690304E+03  0.39488690304E+03  0.00000000000E+00 0.  1.
         25    1    1    2    0    0 -0.13923578699E+02  0.15719168928E+03 -0.22644755350E+03  0.30299601929E+03  0.12500000000E+03 0.  0.
         25    1    1    2    0    0 -0.13682578903E+03 -0.68263173308E+02  0.28840821486E+03  0.34955036229E+03  0.12500000000E+03 0.  0.
         25    1    1    2    0    0  0.15074936773E+03 -0.88928515969E+02  0.16523978432E+02  0.21571206431E+03  0.12500000000E+03 0.  0.
</event>
<event>
 5    0  0.5503691E-005  0.3748016E+03  0.7546771E-02  0.1052872E+00
         21   -1    0    0  502  501  0.00000000000E+00  0.00000000000E+00  0.63119632701E+03  0.63119632701E+03  0.00000000000E+00 0. -1.
         21   -1    0    0  501  502 -0.00000000000E+00 -0.00000000000E+00 -0.22255558756E+03  0.22255558756E+03  0.00000000000E+00 0. -1.
         25    1    1    2    0    0 -0.19756923078E+03 -0.28691500272E+02  0.66141699969E+02  0.24465593721E+03  0.12500000000E+03 0.  0.
         25    1    1    2    0    0  0.30966961002E+03  0.32468570436E+02  0.23653021208E+03  0.41051311388E+03  0.12500000000E+03 0.  0.
         25    1    1    2    0    0 -0.11210037924E+03 -0.37770701646E+01  0.10596882740E+03  0.19858286348E+03  0.12500000000E+03 0.  0.
</event>
<event>
 5    0  0.5503691E-005  0.3122490E+03  0.7546771E-02  0.1079273E+00
         21   -1    0    0  502  501  0.00000000000E+00  0.00000000000E+00  0.10587508664E+03  0.10587508664E+03  0.00000000000E+00 0.  1.
         21   -1    0    0  501  502 -0.00000000000E+00 -0.00000000000E+00 -0.92089094137E+03  0.92089094137E+03  0.00000000000E+00 0.  1.
         25    1    1    2    0    0  0.13822549919E+02  0.92296556347E+02 -0.12865341268E+03  0.20220390153E+03  0.12500000000E+03 0.  0.
         25    1    1    2    0    0 -0.18206017865E+03 -0.10596075033E+03 -0.33112345891E+03  0.41187538686E+03  0.12500000000E+03 0.  0.
         25    1    1    2    0    0  0.16823762873E+03  0.13664193984E+02 -0.35523898314E+03  0.41268673962E+03  0.12500000000E+03 0.  0.
</event>
<event>
 5    0  0.5931795E-005  0.3128245E+03  0.7546771E-02  0.1079000E+00
         21   -1    0    0  502  501  0.00000000000E+00  0.00000000000E+00  0.43200664869E+03  0.43200664869E+03  0.00000000000E+00 0. -1.
         21   -1    0    0  501  502 -0.00000000000E+00 -0.00000000000E+00 -0.22652236063E+03  0.22652236063E+03  0.00000000000E+00 0. -1.
         25    1    1    2    0    0  0.90432613471E+02  0.50601352306E+02 -0.86612125789E+02  0.18402503843E+03  0.12500000000E+03 0.  0.
         25    1    1    2    0    0 -0.14478060446E+03 -0.38546053196E+02  0.58363973426E+02  0.20366289559E+03  0.12500000000E+03 0.  0.
         25    1    1    2    0    0  0.54347990990E+02 -0.12055299110E+02  0.23373244043E+03  0.27084107530E+03  0.12500000000E+03 0.  0.
</event>
<event>
 5    0  0.5605982E-005  0.3353330E+03  0.7546771E-02  0.1068801E+00
         21   -1    0    0  502  501  0.00000000000E+00  0.00000000000E+00  0.94682107920E+03  0.94682107920E+03  0.00000000000E+00 0. -1.
         21   -1    0    0  501  502 -0.00000000000E+00 -0.00000000000E+00 -0.11876397406E+03  0.11876397406E+03  0.00000000000E+00 0. -1.
         25    1    1    2    0    0 -0.35028658992E+01 -0.11047872064E+03  0.40799022847E+03  0.44079342590E+03  0.12500000000E+03 0.  0.
         25    1    1    2    0    0 -0.18295970898E+03  0.28841018006E+02  0.19428812452E+03  0.29610628963E+03  0.12500000000E+03 0.  0.
         25    1    1    2    0    0  0.18646257488E+03  0.81637702631E+02  0.22577875215E+03  0.32868533774E+03  0.12500000000E+03 0.  0.
</event>
<event>
 5    0  0.5503691E-005  0.2814068E+03  0.7546771E-02  0.1094923E+00
         21   -1    0    0  502  501  0.00000000000E+00  0.00000000000E+00  0.29010091693E+02  0.29010091693E+02  0.00000000000E+00 0.  1.
         21   -1    0    0  501  502 -0.00000000000E+00 -0.00000000000E+00 -0.27297325805E+04  0.27297325805E+04  0.00000000000E+00 0.  1.
         25    1    1    2    0    0 -0.15948397230E+03 -0.75113568113E+02 -0.89127438423E+03  0.91709989288E+03  0.12500000000E+03 0.  0.
         25    1    1    2    0    0  0.73214041075E+02  0.11586518609E+03 -0.95731171203E+03  0.97511832674E+03  0.12500000000E+03 0.  0.
         25    1    1    2    0    0  0.86269931227E+02 -0.40751617975E+02 -0.85213639253E+03  0.86652445255E+03  0.12500000000E+03 0.  0.
</event>
<event>
 5    0  0.5503691E-005  0.2780338E+03  0.7546771E-02  0.1096768E+00
         21   -1    0    0  502  501  0.00000000000E+00  0.00000000000E+00  0.60491195705E+02  0.60491195705E+02  0.00000000000E+00 0.  1.
         21   -1    0    0  501  502 -0.00000000000E+00 -0.00000000000E+00 -0.12779183471E+04  0.12779183471E+04  0.00000000000E+00 0.  1.
         25    1    1    2    0    0 -0.25433459503E+02 -0.88111376810E+02 -0.49181344159E+03  0.51567037623E+03  0.12500000000E+03 0.  0.
         25    1    1    2    0    0 -0.34560902163E+02  0.69836847705E+02 -0.91537936913E+02  0.17342385981E+03  0.12500000000E+03 0.  0.
         25    1    1    2    0    0  0.59994361666E+02  0.18274529106E+02 -0.63407577292E+03  0.64931530681E+03  0.12500000000E+03 0.  0.
</event>
<event>
 5    0  0.5503691E-005  0.2639402E+03  0.7546771E-02  0.1104799E+00
         21   -1    0    0  502  501  0.00000000000E+00  0.00000000000E+00  0.87486806703E+02  0.87486806703E+02  0.00000000000E+00 0.  1.
         21   -1    0    0  501  502 -0.00000000000E+00 -0.00000000000E+00 -0.79628518499E+03  0.79628518499E+03  0.00000000000E+00 0.  1.
         25    1    1    2    0    0 -0.58221119551E+02  0.82728241628E+02 -0.49898977929E+03  0.52426087071E+03  0.12500000000E+03 0.  0.
         25    1    1    2    0    0  0.40837188601E+02  0.19873890510E+01 -0.54994535768E+02  0.14255183146E+03  0.12500000000E+03 0.  0.
         25    1    1    2    0    0  0.17383930950E+02 -0.84715630679E+02 -0.15481406324E+03  0.21695928953E+03  0.12500000000E+03 0.  0.
</event>
<event>
 5    0  0.5503691E-005  0.3378303E+03  0.7546771E-02  0.1067724E+00
         21   -1    0    0  502  501  0.00000000000E+00  0.00000000000E+00  0.74312971612E+03  0.74312971612E+03  0.00000000000E+00 0. -1.
         21   -1    0    0  501  502 -0.00000000000E+00 -0.00000000000E+00 -0.15357930305E+03  0.15357930305E+03  0.00000000000E+00 0. -1.
         25    1    1    2    0    0 -0.44566023577E+02 -0.10150465114E+03  0.33860023123E+02  0.17047236089E+03  0.12500000000E+03 0.  0.
         25    1    1    2    0    0  0.18328555857E+03  0.13273118104E+03  0.42044350023E+03  0.49356752252E+03  0.12500000000E+03 0.  0.
         25    1    1    2    0    0 -0.13871953500E+03 -0.31226529893E+02  0.13524688972E+03  0.23266913577E+03  0.12500000000E+03 0.  0.
</event>
<event>
 5    0  0.5503691E-005  0.2901396E+03  0.7546771E-02  0.1090276E+00
         21   -1    0    0  502  501  0.00000000000E+00  0.00000000000E+00  0.41521595258E+03  0.41521595258E+03  0.00000000000E+00 0.  1.
         21   -1    0    0  501  502 -0.00000000000E+00 -0.00000000000E+00 -0.20274022235E+03  0.20274022235E+03  0.00000000000E+00 0.  1.
         25    1    1    2    0    0 -0.50310346908E+02  0.23646986885E+02  0.81274894424E+02  0.15912548337E+03  0.12500000000E+03 0.  0.
         25    1    1    2    0    0  0.84315332819E+02  0.15284511487E+03  0.10287949785E+03  0.23807539891E+03  0.12500000000E+03 0.  0.
         25    1    1    2    0    0 -0.34004985910E+02 -0.17649210176E+03  0.28321337960E+02  0.22075529265E+03  0.12500000000E+03 0.  0.
</event>
<event>
 5    0  0.5503691E-005  0.3147292E+03  0.7546771E-02  0.1078101E+00
         21   -1    0    0  502  501  0.00000000000E+00  0.00000000000E+00  0.51003542419E+03  0.51003542419E+03  0.00000000000E+00 0. -1.
         21   -1    0    0  501  502 -0.00000000000E+00 -0.00000000000E+00 -0.19421094431E+03  0.19421094431E+03  0.00000000000E+00 0. -1.
         25    1    1    2    0    0  0.70407745624E+02  0.13852917525E+02 -0.87346971933E+02  0.16853381700E+03  0.12500000000E+03 0.  0.
         25    1    1    2    0    0 -0.70430337114E+02  0.10588200438E+03  0.22798660016E+03  0.28943793996E+03  0.12500000000E+03 0.  0.
         25    1    1    2    0    0  0.22591490235E-01 -0.11973492191E+03  0.17518485165E+03  0.24627461153E+03  0.12500000000E+03 0.  0.
</event>
<event>
 5    0  0.5503691E-005  0.2630101E+03  0.7546771E-02  0.1105348E+00
         21   -1    0    0  502  501  0.00000000000E+00  0.00000000000E+00  0.11630912457E+03  0.11630912457E+03  0.00000000000E+00 0. -1.
         21   -1    0    0  501  502 -0.00000000000E+00 -0.00000000000E+00 -0.59474525587E+03  0.59474525587E+03  0.00000000000E+00 0. -1.
         25    1    1    2    0    0  0.15183641194E+01 -0.91951294983E+02 -0.11276047439E+02  0.15559400800E+03  0.12500000000E+03 0.  0.
         25    1    1    2    0    0 -0.67004243641E+02  0.41090029131E+02 -0.19370687320E+03  0.24356787942E+03  0.12500000000E+03 0.  0.
         25    1    1    2    0    0  0.65485879521E+02  0.50861265852E+02 -0.27345321066E+03  0.31189249302E+03  0.12500000000E+03 0.  0.
</event>
<event>
 5    0  0.5503691E-005  0.2688753E+03  0.7546771E-02  0.1101925E+00
         21   -1    0    0  502  501  0.00000000000E+00  0.00000000000E+00  0.17318873387E+04  0.17318873387E+04  0.00000000000E+00 0.  1.
         21   -1    0    0  501  502 -0.00000000000E+00 -0.00000000000E+00 -0.41742855626E+02  0.41742855626E+02  0.00000000000E+00 0.  1.
         25    1    1    2    0    0 -0.14363966803E+03 -0.57335232249E+02  0.92425397750E+03  0.94540472710E+03  0.12500000000E+03 0.  0.
         25    1    1    2    0    0  0.12073192103E+03  0.40536939713E+02  0.34754690717E+03  0.39068311062E+03  0.12500000000E+03 0.  0.
         25    1    1    2    0    0  0.22907747005E+02  0.16798292536E+02  0.41834359838E+03  0.43754235659E+03  0.12500000000E+03 0.  0.
</event>
<event>
 5    0  0.5503691E-005  0.3680198E+03  0.7546771E-02  0.1055453E+00
         21   -1    0    0  502  501  0.00000000000E+00  0.00000000000E+00  0.75349769274E+03  0.75349769274E+03  0.00000000000E+00 0. -1.
         21   -1    0    0  501  502 -0.00000000000E+00 -0.00000000000E+00 -0.17974646803E+03  0.17974646803E+03  0.00000000000E+00 0. -1.
         25    1    1    2    0    0  0.16762346951E+02 -0.65981407957E+02 -0.20885075743E+02  0.14386003218E+03  0.12500000000E+03 0.  0.
         25    1    1    2    0    0  0.53273170689E+02  0.20829818237E+03  0.12537903014E+03  0.27851582485E+03  0.12500000000E+03 0.  0.
         25    1    1    2    0    0 -0.70035517639E+02 -0.14231677441E+03  0.46925727032E+03  0.51086830373E+03  0.12500000000E+03 0.  0.
</event>
<event>
 5    0  0.5503691E-005  0.2225065E+03  0.7546771E-02  0.1132028E+00
         21   -1    0    0  502  501  0.00000000000E+00  0.00000000000E+00  0.21842164682E+03  0.21842164682E+03  0.00000000000E+00 0.  1.
         21   -1    0    0  501  502 -0.00000000000E+00 -0.00000000000E+00 -0.22666782976E+03  0.22666782976E+03  0.00000000000E+00 0.  1.
         25    1    1    2    0    0  0.35455236722E+02  0.88019120278E+01 -0.17882034039E+01  0.13024110387E+03  0.12500000000E+03 0.  0.
         25    1    1    2    0    0 -0.10845404757E+03  0.21019977991E+02  0.16962000456E+01  0.16682924505E+03  0.12500000000E+03 0.  0.
         25    1    1    2    0    0  0.72998810843E+02 -0.29821890019E+02 -0.81541795763E+01  0.14801912766E+03  0.12500000000E+03 0.  0.
</event>
<event>
 5    0  0.5503691E-005  0.3233262E+03  0.7546771E-02  0.1074129E+00
         21   -1    0    0  502  501  0.00000000000E+00  0.00000000000E+00  0.62195967657E+03  0.62195967657E+03  0.00000000000E+00 0. -1.
         21   -1    0    0  501  502 -0.00000000000E+00 -0.00000000000E+00 -0.16808133851E+03  0.16808133851E+03  0.00000000000E+00 0. -1.
         25    1    1    2    0    0 -0.88147477007E+02 -0.13424158344E+03  0.39721666081E+03  0.44631474998E+03  0.12500000000E+03 0.  0.
         25    1    1    2    0    0  0.35060500898E+02  0.14460664418E+03 -0.45878631380E+01  0.19438716200E+03  0.12500000000E+03 0.  0.
         25    1    1    2    0    0  0.53086976109E+02 -0.10365060738E+02  0.61249540383E+02  0.14933910310E+03  0.12500000000E+03 0.  0.
</event>
<event>
 5    0  0.5503691E-005  0.3574745E+03  0.7546771E-02  0.1059588E+00
         21   -1    0    0  502  501  0.00000000000E+00  0.00000000000E+00  0.24012450875E+03  0.24012450875E+03  0.00000000000E+00 0.  1.
         21   -1    0    0  501  502 -0.00000000000E+00 -0.00000000000E+00 -0.53217390179E+03  0.53217390179E+03  0.00000000000E+00 0.  1.
         25    1    1    2    0    0 -0.24897810706E+02 -0.58487313776E+02 -0.17272288636E+03  0.22248339786E+03  0.12500000000E+03 0.  0.
         25    1    1    2    0    0 -0.17691441828E+03  0.55975116911E+02  0.82255112123E+02  0.23837539424E+03  0.12500000000E+03 0.  0.
         25    1    1    2    0    0  0.20181222898E+03  0.25121968646E+01 -0.20158161880E+03  0.31143961845E+03  0.12500000000E+03 0.  0.
</event>
<event>
 5    0  0.5503691E-005  0.3073617E+03  0.7546771E-02  0.1081617E+00
         21   -1    0    0  502  501  0.00000000000E+00  0.00000000000E+00  0.88828086839E+02  0.88828086839E+02  0.00000000000E+00 0. -1.
         21   -1    0    0  501  502 -0.00000000000E+00 -0.00000000000E+00 -0.10635287701E+04  0.10635287701E+04  0.00000000000E+00 0. -1.
         25    1    1    2    0    0  0.24481486495E+02 -0.30109479213E+02 -0.81355209798E+02  0.15410903309E+03  0.12500000000E+03 0.  0.
         25    1    1    2    0    0  0.55318894024E+02  0.12425692805E+03 -0.74733425892E+03  0.76982690182E+03  0.12500000000E+03 0.  0.
         25    1    1    2    0    0 -0.79800380519E+02 -0.94147448842E+02 -0.14601121458E+03  0.22842092206E+03  0.12500000000E+03 0.  0.
</event>
<event>
 5    0  0.5503691E-005  0.4687008E+03  0.7546771E-02  0.1022288E+00
         21   -1    0    0  502  501  0.00000000000E+00  0.00000000000E+00  0.15480809372E+03  0.15480809372E+03  0.00000000000E+00 0.  1.
         21   -1    0    0  501  502 -0.00000000000E+00 -0.00000000000E+00 -0.14190498519E+04  0.14190498519E+04  0.00000000000E+00 0.  1.
         25    1    1    2    0    0 -0.40848261230E+02 -0.43576206623E+02 -0.10991198912E+03  0.17684205264E+03  0.12500000000E+03 0.  0.
         25    1    1    2    0    0 -0.54862703693E+02  0.24891984693E+03 -0.10954664037E+04  0.11316548273E+04  0.12500000000E+03 0.  0.
         25    1    1    2    0    0  0.95710964923E+02 -0.20534364031E+03 -0.58863365383E+02  0.26536106573E+03  0.12500000000E+03 0.  0.
</event>
<event>
 5    0  0.5503691E-005  0.3924997E+03  0.7546771E-02  0.1046408E+00
         21   -1    0    0  502  501  0.00000000000E+00  0.00000000000E+00  0.40589084230E+03  0.40589084230E+03  0.00000000000E+00 0. -1.
         21   -1    0    0  501  502 -0.00000000000E+00 -0.00000000000E+00 -0.37955036128E+03  0.37955036128E+03  0.00000000000E+00 0. -1.
         25    1    1    2    0    0  0.29232350372E+03  0.87091798732E+02  0.11402309746E+03  0.34880406962E+03  0.12500000000E+03 0.  0.
         25    1    1    2    0    0 -0.25895674901E+03 -0.61739112824E+02 -0.78936677147E+02  0.30450995864E+03  0.12500000000E+03 0.  0.
         25    1    1    2    0    0 -0.33366754704E+02 -0.25352685909E+02 -0.87459392917E+01  0.13212717531E+03  0.12500000000E+03 0.  0.
</event>
<event>
 5    0  0.5503691E-005  0.2977857E+03  0.7546771E-02  0.1086353E+00
         21   -1    0    0  502  501  0.00000000000E+00  0.00000000000E+00  0.31470821079E+02  0.31470821079E+02  0.00000000000E+00 0.  1.
         21   -1    0    0  501  502 -0.00000000000E+00 -0.00000000000E+00 -0.28177317313E+04  0.28177317313E+04  0.00000000000E+00 0.  1.
         25    1    1    2    0    0  0.88214916446E+02 -0.94571201648E+02 -0.61367283695E+03  0.63948802528E+03  0.12500000000E+03 0.  0.
         25    1    1    2    0    0  0.96818388397E+02  0.69479914641E+02 -0.76077142271E+03  0.78012782061E+03  0.12500000000E+03 0.  0.
         25    1    1    2    0    0 -0.18503330484E+03  0.25091287007E+02 -0.14118166505E+04  0.14295867064E+04  0.12500000000E+03 0.  0.
</event>
