<event>
 5    0  0.5550393E-005  0.3151554E+03  0.7546771E-02  0.1077901E+00
         21   -1    0    0  502  501  0.00000000000E+00  0.00000000000E+00  0.39369533407E+02  0.39369533407E+02  0.00000000000E+00 0. -1.
         21   -1    0    0  501  502 -0.00000000000E+00 -0.00000000000E+00 -0.25228366987E+04  0.25228366987E+04  0.00000000000E+00 0. -1.
         25    1    1    2    0    0 -0.50380525736E+02  0.13915353010E+02 -0.85283431418E+03  0.86352950260E+03  0.12500000000E+03 0.  0.
         25    1    1    2    0    0  0.97573380106E+02 -0.75642747923E+02 -0.22553106846E+03  0.28588748251E+03  0.12500000000E+03 0.  0.
         25    1    1    2    0    0 -0.47192854369E+02  0.61727394913E+02 -0.14051017826E+04  0.14127892470E+04  0.12500000000E+03 0.  0.
</event>
<event>
 5    0  0.5550393E-005  0.2957418E+03  0.7546771E-02  0.1087389E+00
         21   -1    0    0  502  501  0.00000000000E+00  0.00000000000E+00  0.10587206329E+04  0.10587206329E+04  0.00000000000E+00 0.  1.
         21   -1    0    0  501  502 -0.00000000000E+00 -0.00000000000E+00 -0.82612163755E+02  0.82612163755E+02  0.00000000000E+00 0.  1.
         25    1    1    2    0    0  0.44648112960E+02 -0.90489696756E+02  0.48230801710E+02  0.16772909540E+03  0.12500000000E+03 0.  0.
         25    1    1    2    0    0  0.36045985800E+02  0.40405585515E+02  0.38004379169E+03  0.40372045778E+03  0.12500000000E+03 0.  0.
         25    1    1    2    0    0 -0.80694098760E+02  0.50084111241E+02  0.54783387578E+03  0.56988324350E+03  0.12500000000E+03 0.  0.
</event>
<event>
 5    0  0.5550393E-005  0.3166417E+03  0.7546771E-02  0.1077205E+00
         21   -1    0    0  502  501  0.00000000000E+00  0.00000000000E+00  0.12630322847E+04  0.12630322847E+04  0.00000000000E+00 0. -1.
         21   -1    0    0  501  502 -0.00000000000E+00 -0.00000000000E+00 -0.79381963654E+02  0.79381963654E+02  0.00000000000E+00 0. -1.
         25    1    1    2    0    0 -0.61641997057E+02  0.77189447818E+02  0.67797660230E+03  0.69644469983E+03  0.12500000000E+03 0.  0.
         25    1    1    2    0    0 -0.43944151990E+02 -0.16300398220E+03  0.32892180157E+03  0.39027674572E+03  0.12500000000E+03 0.  0.
         25    1    1    2    0    0  0.10558614905E+03  0.85814534379E+02  0.17675191721E+03  0.25569280283E+03  0.12500000000E+03 0.  0.
</event>
<event>
 5    0  0.5565252E-005  0.2659219E+03  0.7546771E-02  0.1103637E+00
         21   -1    0    0  502  501  0.00000000000E+00  0.00000000000E+00  0.75988507914E+03  0.75988507914E+03  0.00000000000E+00 0. -1.
         21   -1    0    0  501  502 -0.00000000000E+00 -0.00000000000E+00 -0.93059377928E+02  0.93059377928E+02  0.00000000000E+00 0. -1.
         25    1    1    2    0    0 -0.67932020771E+02 -0.81671566445E+02  0.24785087904E+03  0.29722056196E+03  0.12500000000E+03 0.  0.
         25    1    1    2    0    0 -0.41600564364E+02  0.56439058906E+02  0.34203476751E+03  0.37084869760E+03  0.12500000000E+03 0.  0.
         25    1    1    2    0    0  0.10953258514E+03  0.25232507538E+02  0.76940054667E+02  0.18487519751E+03  0.12500000000E+03 0.  0.
</event>
<event>
 5    0  0.5550393E-005  0.2819371E+03  0.7546771E-02  0.1094636E+00
         21   -1    0    0  502  501  0.00000000000E+00  0.00000000000E+00  0.12753520804E+03  0.12753520804E+03  0.00000000000E+00 0. -1.
         21   -1    0    0  501  502 -0.00000000000E+00 -0.00000000000E+00 -0.62326736618E+03  0.62326736618E+03  0.00000000000E+00 0. -1.
         25    1    1    2    0    0  0.35899285958E+02 -0.95995543998E+01 -0.39345048770E+02  0.13621285930E+03  0.12500000000E+03 0.  0.
         25    1    1    2    0    0  0.13260230481E+03 -0.41254426184E+02 -0.14905377495E+03  0.23901323551E+03  0.12500000000E+03 0.  0.
         25    1    1    2    0    0 -0.16850159077E+03  0.50853980583E+02 -0.30733333442E+03  0.37557647940E+03  0.12500000000E+03 0.  0.
</event>
<event>
 5    0  0.5550393E-005  0.6457103E+03  0.7546771E-02  0.9814862E-01
         21   -1    0    0  502  501  0.00000000000E+00  0.00000000000E+00  0.22368022889E+04  0.22368022889E+04  0.00000000000E+00 0.  1.
         21   -1    0    0  501  502 -0.00000000000E+00 -0.00000000000E+00 -0.18640079927E+03  0.18640079927E+03  0.00000000000E+00 0.  1.
         25    1    1    2    0    0  0.34495214973E+03  0.11476215380E+03  0.71435560032E+03  0.81122824240E+03  0.12500000000E+03 0.  0.
         25    1    1    2    0    0 -0.57184117943E+02 -0.33996593705E+03  0.21231900765E+03  0.42373484953E+03  0.12500000000E+03 0.  0.
         25    1    1    2    0    0 -0.28776803179E+03  0.22520378325E+03  0.11237268816E+04  0.11882399962E+04  0.12500000000E+03 0.  0.
</event>
<event>
 5    0  0.5550393E-005  0.3106178E+03  0.7546771E-02  0.1080050E+00
         21   -1    0    0  502  501  0.00000000000E+00  0.00000000000E+00  0.16671038374E+03  0.16671038374E+03  0.00000000000E+00 0. -1.
         21   -1    0    0  501  502 -0.00000000000E+00 -0.00000000000E+00 -0.57874858469E+03  0.57874858469E+03  0.00000000000E+00 0. -1.
         25    1    1    2    0    0  0.74470298574E+00 -0.14655754586E+03 -0.61886700850E+02  0.20232308957E+03  0.12500000000E+03 0.  0.
         25    1    1    2    0    0 -0.49362879323E+02  0.99714634267E+02 -0.22672320835E+01  0.16736141277E+03  0.12500000000E+03 0.  0.
         25    1    1    2    0    0  0.48618176337E+02  0.46842911591E+02 -0.34788426801E+03  0.37577446609E+03  0.12500000000E+03 0.  0.
</event>
<event>
 5    0  0.5550393E-005  0.3167738E+03  0.7546771E-02  0.1077144E+00
         21   -1    0    0  502  501  0.00000000000E+00  0.00000000000E+00  0.37651443810E+03  0.37651443810E+03  0.00000000000E+00 0. -1.
         21   -1    0    0  501  502 -0.00000000000E+00 -0.00000000000E+00 -0.26651208402E+03  0.26651208402E+03  0.00000000000E+00 0. -1.
         25    1    1    2    0    0  0.14913013271E+03 -0.25505248012E+02  0.52106647704E+02  0.20305274412E+03  0.12500000000E+03 0.  0.
         25    1    1    2    0    0  0.68284384162E+02  0.32235738311E+02  0.11112810691E+03  0.18351118791E+03  0.12500000000E+03 0.  0.
         25    1    1    2    0    0 -0.21741451687E+03 -0.67304902996E+01 -0.53232400530E+02  0.25646259009E+03  0.12500000000E+03 0.  0.
</event>
<event>
 5    0  0.5550393E-005  0.4458789E+03  0.7546771E-02  0.1028958E+00
         21   -1    0    0  502  501  0.00000000000E+00  0.00000000000E+00  0.66590479799E+02  0.66590479799E+02  0.00000000000E+00 0. -1.
         21   -1    0    0  501  502 -0.00000000000E+00 -0.00000000000E+00 -0.29855315857E+04  0.29855315857E+04  0.00000000000E+00 0. -1.
         25    1    1    2    0    0 -0.37674186478E+01  0.10855503002E+03 -0.17943146914E+04  0.18019402320E+04  0.12500000000E+03 0.  0.
         25    1    1    2    0    0 -0.23010793449E+03 -0.82043235699E+01 -0.56732219203E+03  0.62489714515E+03  0.12500000000E+03 0.  0.
         25    1    1    2    0    0  0.23387535314E+03 -0.10035070645E+03 -0.55730422252E+03  0.62528468839E+03  0.12500000000E+03 0.  0.
</event>
<event>
 5    0  0.5863491E-005  0.4523172E+03  0.7546771E-02  0.1027033E+00
         21   -1    0    0  502  501  0.00000000000E+00  0.00000000000E+00  0.29731402072E+03  0.29731402072E+03  0.00000000000E+00 0.  1.
         21   -1    0    0  501  502 -0.00000000000E+00 -0.00000000000E+00 -0.68813062624E+03  0.68813062624E+03  0.00000000000E+00 0.  1.
         25    1    1    2    0    0 -0.18180856673E+03  0.13436652756E+02  0.12513674776E+03  0.25400611059E+03  0.12500000000E+03 0.  0.
         25    1    1    2    0    0  0.16267347580E+03 -0.17367938969E+03 -0.13863770285E+03  0.30244437965E+03  0.12500000000E+03 0.  0.
         25    1    1    2    0    0  0.19135090938E+02  0.16024273694E+03 -0.37731565042E+03  0.42899415672E+03  0.12500000000E+03 0.  0.
</event>
<event>
 5    0  0.5550393E-005  0.2188007E+03  0.7546771E-02  0.1134780E+00
         21   -1    0    0  502  501  0.00000000000E+00  0.00000000000E+00  0.98587690828E+02  0.98587690828E+02  0.00000000000E+00 0.  1.
         21   -1    0    0  501  502 -0.00000000000E+00 -0.00000000000E+00 -0.48559545659E+03  0.48559545659E+03  0.00000000000E+00 0.  1.
         25    1    1    2    0    0  0.52815880076E+02 -0.39621698387E+02 -0.15349366418E+03  0.20867367135E+03  0.12500000000E+03 0.  0.
         25    1    1    2    0    0 -0.37235716186E+02  0.12499926487E+02 -0.29651759282E+02  0.13433902468E+03  0.12500000000E+03 0.  0.
         25    1    1    2    0    0 -0.15580163889E+02  0.27121771900E+02 -0.20386234230E+03  0.24117045140E+03  0.12500000000E+03 0.  0.
</event>
<event>
 5    0  0.5550393E-005  0.7829264E+03  0.7546771E-02  0.9585065E-01
         21   -1    0    0  502  501  0.00000000000E+00  0.00000000000E+00  0.46379218534E+03  0.46379218534E+03  0.00000000000E+00 0. -1.
         21   -1    0    0  501  502 -0.00000000000E+00 -0.00000000000E+00 -0.13216559651E+04  0.13216559651E+04  0.00000000000E+00 0. -1.
         25    1    1    2    0    0  0.43462471447E+03  0.12708595113E+03 -0.86864333120E+03  0.98753011004E+03  0.12500000000E+03 0.  0.
         25    1    1    2    0    0 -0.11938214024E+03 -0.29783980774E+03 -0.16224398544E+03  0.38066882890E+03  0.12500000000E+03 0.  0.
         25    1    1    2    0    0 -0.31524257423E+03  0.17075385661E+03  0.17302353690E+03  0.41724921148E+03  0.12500000000E+03 0.  0.
</event>
<event>
 5    0  0.5550393E-005  0.3061348E+03  0.7546771E-02  0.1082213E+00
         21   -1    0    0  502  501  0.00000000000E+00  0.00000000000E+00  0.16298786890E+03  0.16298786890E+03  0.00000000000E+00 0. -1.
         21   -1    0    0  501  502 -0.00000000000E+00 -0.00000000000E+00 -0.57500286111E+03  0.57500286111E+03  0.00000000000E+00 0. -1.
         25    1    1    2    0    0 -0.81831233356E+02  0.38906148785E+02 -0.11573576736E+03  0.19295027083E+03  0.12500000000E+03 0.  0.
         25    1    1    2    0    0  0.18600354686E+03 -0.23367122916E+02 -0.30748139431E+03  0.38119961926E+03  0.12500000000E+03 0.  0.
         25    1    1    2    0    0 -0.10417231350E+03 -0.15539025868E+02  0.11202169464E+02  0.16384083992E+03  0.12500000000E+03 0.  0.
</event>
<event>
 5    0  0.5550393E-005  0.3179525E+03  0.7546771E-02  0.1076596E+00
         21   -1    0    0  502  501  0.00000000000E+00  0.00000000000E+00  0.16478898463E+03  0.16478898463E+03  0.00000000000E+00 0.  1.
         21   -1    0    0  501  502 -0.00000000000E+00 -0.00000000000E+00 -0.61347407070E+03  0.61347407070E+03  0.00000000000E+00 0.  1.
         25    1    1    2    0    0  0.10077229455E+03  0.41125521296E+01 -0.64876941337E+02  0.17322235985E+03  0.12500000000E+03 0.  0.
         25    1    1    2    0    0  0.50115294306E+02 -0.16557703778E+03 -0.16287531737E+03  0.26847842962E+03  0.12500000000E+03 0.  0.
         25    1    1    2    0    0 -0.15088758885E+03  0.16146448565E+03 -0.22093282735E+03  0.33656226586E+03  0.12500000000E+03 0.  0.
</event>
<event>
 5    0  0.5550393E-005  0.2667832E+03  0.7546771E-02  0.1103135E+00
         21   -1    0    0  502  501  0.00000000000E+00  0.00000000000E+00  0.28231418752E+03  0.28231418752E+03  0.00000000000E+00 0.  1.
         21   -1    0    0  501  502 -0.00000000000E+00 -0.00000000000E+00 -0.25210660612E+03  0.25210660612E+03  0.00000000000E+00 0.  1.
         25    1    1    2    0    0 -0.50786999066E+02 -0.11533770361E+03  0.23549309660E+02  0.17905774246E+03  0.12500000000E+03 0.  0.
         25    1    1    2    0    0 -0.81653043386E+02  0.45190618886E+02  0.29877467758E+02  0.15883033277E+03  0.12500000000E+03 0.  0.
         25    1    1    2    0    0  0.13244004245E+03  0.70147084723E+02 -0.23219196014E+02  0.19653271840E+03  0.12500000000E+03 0.  0.
</event>
<event>
 5    0  0.5550393E-005  0.3086467E+03  0.7546771E-02  0.1080996E+00
         21   -1    0    0  502  501  0.00000000000E+00  0.00000000000E+00  0.15536590447E+04  0.15536590447E+04  0.00000000000E+00 0. -1.
         21   -1    0    0  501  502 -0.00000000000E+00 -0.00000000000E+00 -0.61315107947E+02  0.61315107947E+02  0.00000000000E+00 0. -1.
         25    1    1    2    0    0 -0.36397315237E+02 -0.18600756572E+03  0.99284722077E+03  0.10184764027E+04  0.12500000000E+03 0.  0.
         25    1    1    2    0    0  0.19087432486E+02  0.14605003136E+03  0.27996360927E+03  0.34014638651E+03  0.12500000000E+03 0.  0.
         25    1    1    2    0    0  0.17309882751E+02  0.39957534356E+02  0.21953310667E+03  0.25635136340E+03  0.12500000000E+03 0.  0.
</event>
<event>
 5    0  0.5550393E-005  0.3170570E+03  0.7546771E-02  0.1077012E+00
         21   -1    0    0  502  501  0.00000000000E+00  0.00000000000E+00  0.12357221422E+04  0.12357221422E+04  0.00000000000E+00 0.  1.
         21   -1    0    0  501  502 -0.00000000000E+00 -0.00000000000E+00 -0.81349319878E+02  0.81349319878E+02  0.00000000000E+00 0.  1.
         25    1    1    2    0    0  0.13870043654E+03  0.90891524414E+02  0.38169983364E+03  0.43453290245E+03  0.12500000000E+03 0.  0.
         25    1    1    2    0    0 -0.10506768466E+03  0.19200066966E+02  0.65629586307E+03  0.67657750540E+03  0.12500000000E+03 0.  0.
         25    1    1    2    0    0 -0.33632751885E+02 -0.11009159138E+03  0.11637712560E+03  0.20596105422E+03  0.12500000000E+03 0.  0.
</event>
<event>
 5    0  0.5550393E-005  0.3203230E+03  0.7546771E-02  0.1075501E+00
         21   -1    0    0  502  501  0.00000000000E+00  0.00000000000E+00  0.78373981491E+02  0.78373981491E+02  0.00000000000E+00 0.  1.
         21   -1    0    0  501  502 -0.00000000000E+00 -0.00000000000E+00 -0.13091953190E+04  0.13091953190E+04  0.00000000000E+00 0.  1.
         25    1    1    2    0    0 -0.34979927669E+01  0.10285434299E+03 -0.10111055075E+04  0.10239875971E+04  0.12500000000E+03 0.  0.
         25    1    1    2    0    0 -0.29154914427E+02 -0.21505560211E+02 -0.14074602445E+03  0.19169491791E+03  0.12500000000E+03 0.  0.
         25    1    1    2    0    0  0.32652907194E+02 -0.81348782777E+02 -0.78969805523E+02  0.17188678539E+03  0.12500000000E+03 0.  0.
</event>
<event>
 5    0  0.5550393E-005  0.2825321E+03  0.7546771E-02  0.1094314E+00
         21   -1    0    0  502  501  0.00000000000E+00  0.00000000000E+00  0.58294657309E+02  0.58294657309E+02  0.00000000000E+00 0. -1.
         21   -1    0    0  501  502 -0.00000000000E+00 -0.00000000000E+00 -0.13693258046E+04  0.13693258046E+04  0.00000000000E+00 0. -1.
         25    1    1    2    0    0  0.90462775983E+02  0.33384344526E+02 -0.48126628651E+03  0.50649804228E+03  0.12500000000E+03 0.  0.
         25    1    1    2    0    0 -0.65244899901E+02  0.23389305695E+02 -0.91346055444E+02  0.16962623155E+03  0.12500000000E+03 0.  0.
         25    1    1    2    0    0 -0.25217876082E+02 -0.56773650220E+02 -0.73841880536E+03  0.75149618811E+03  0.12500000000E+03 0.  0.
</event>
<event>
 5    0  0.5550393E-005  0.2554308E+03  0.7546771E-02  0.1109920E+00
         21   -1    0    0  502  501  0.00000000000E+00  0.00000000000E+00  0.27831064344E+04  0.27831064344E+04  0.00000000000E+00 0. -1.
         21   -1    0    0  501  502 -0.00000000000E+00 -0.00000000000E+00 -0.23443197710E+02  0.23443197710E+02  0.00000000000E+00 0. -1.
         25    1    1    2    0    0 -0.28499542028E+02  0.12560057638E+02  0.33175196670E+03  0.35588529943E+03  0.12500000000E+03 0.  0.
         25    1    1    2    0    0 -0.86547897860E+02 -0.25738962630E+02  0.14323323820E+04  0.14406089287E+04  0.12500000000E+03 0.  0.
         25    1    1    2    0    0  0.11504743989E+03  0.13178904992E+02  0.99557888794E+03  0.10100554040E+04  0.12500000000E+03 0.  0.
</event>
<event>
 5    0  0.5550393E-005  0.2797352E+03  0.7546771E-02  0.1095834E+00
         21   -1    0    0  502  501  0.00000000000E+00  0.00000000000E+00  0.10661550182E+04  0.10661550182E+04  0.00000000000E+00 0.  1.
         21   -1    0    0  501  502 -0.00000000000E+00 -0.00000000000E+00 -0.73396273347E+02  0.73396273347E+02  0.00000000000E+00 0.  1.
         25    1    1    2    0    0 -0.34592801345E+02 -0.43036180666E+02  0.73962758088E+02  0.15538424738E+03  0.12500000000E+03 0.  0.
         25    1    1    2    0    0  0.34598828502E+02 -0.56247496187E+02  0.18295843894E+03  0.23121342985E+03  0.12500000000E+03 0.  0.
         25    1    1    2    0    0 -0.60271564291E-02  0.99283676853E+02  0.73583754784E+03  0.75295361433E+03  0.12500000000E+03 0.  0.
</event>
<event>
 5    0  0.5550393E-005  0.4480520E+03  0.7546771E-02  0.1028305E+00
         21   -1    0    0  502  501  0.00000000000E+00  0.00000000000E+00  0.28279431833E+03  0.28279431833E+03  0.00000000000E+00 0.  1.
         21   -1    0    0  501  502 -0.00000000000E+00 -0.00000000000E+00 -0.70988214448E+03  0.70988214448E+03  0.00000000000E+00 0.  1.
         25    1    1    2    0    0  0.23241130305E+03 -0.15834414665E+03 -0.88584469769E+02  0.32025004426E+03  0.12500000000E+03 0.  0.
         25    1    1    2    0    0  0.35931288640E+02 -0.10846249210E+03 -0.38674183169E+02  0.17371200920E+03  0.12500000000E+03 0.  0.
         25    1    1    2    0    0 -0.26834259169E+03  0.26680663874E+03 -0.29982917321E+03  0.49871440936E+03  0.12500000000E+03 0.  0.
</event>
<event>
 5    0  0.5550393E-005  0.3101705E+03  0.7546771E-02  0.1080264E+00
         21   -1    0    0  502  501  0.00000000000E+00  0.00000000000E+00  0.38063523410E+02  0.38063523410E+02  0.00000000000E+00 0.  1.
         21   -1    0    0  501  502 -0.00000000000E+00 -0.00000000000E+00 -0.25275040169E+04  0.25275040169E+04  0.00000000000E+00 0.  1.
         25    1    1    2    0    0  0.54760490131E+02  0.24238310840E+02 -0.30010551320E+03  0.33056697664E+03  0.12500000000E+03 0.  0.
         25    1    1    2    0    0 -0.12762490154E+03 -0.12061427886E+03 -0.17384484333E+04  0.17517602219E+04  0.12500000000E+03 0.  0.
         25    1    1    2    0    0  0.72864411410E+02  0.96375968025E+02 -0.45088654694E+03  0.48324034173E+03  0.12500000000E+03 0.  0.
</event>
<event>
 5    0  0.5550393E-005  0.3740173E+03  0.7546771E-02  0.1053167E+00
         21   -1    0    0  502  501  0.00000000000E+00  0.00000000000E+00  0.11871799090E+04  0.11871799090E+04  0.00000000000E+00 0.  1.
         21   -1    0    0  501  502 -0.00000000000E+00 -0.00000000000E+00 -0.11783298630E+03  0.11783298630E+03  0.00000000000E+00 0.  1.
         25    1    1    2    0    0  0.96769925510E+01  0.43185418309E+02  0.53876086779E+03  0.55483952383E+03  0.12500000000E+03 0.  0.
         25    1    1    2    0    0  0.34943661757E+02  0.58114117421E+02  0.56248875189E+03  0.58018695792E+03  0.12500000000E+03 0.  0.
         25    1    1    2    0    0 -0.44620654308E+02 -0.10129953573E+03 -0.31902696947E+02  0.16998641358E+03  0.12500000000E+03 0.  0.
</event>
<event>
 5    0  0.9015016E-005  0.7493994E+03  0.7546771E-02  0.9636293E-01
         21   -1    0    0  502  501  0.00000000000E+00  0.00000000000E+00  0.59293714867E+03  0.59293714867E+03  0.00000000000E+00 0. -1.
         21   -1    0    0  501  502 -0.00000000000E+00 -0.00000000000E+00 -0.94714841379E+03  0.94714841379E+03  0.00000000000E+00 0. -1.
         25    1    1    2    0    0  0.38194418773E+03 -0.16564129820E+03  0.74260712167E+02  0.44097398515E+03  0.12500000000E+03 0.  0.
         25    1    1    2    0    0 -0.34838958711E+03 -0.32365089454E+03 -0.11900886156E+03  0.50587875531E+03  0.12500000000E+03 0.  0.
         25    1    1    2    0    0 -0.33554600620E+02  0.48929219274E+03 -0.30946311572E+03  0.59323282200E+03  0.12500000000E+03 0.  0.
</event>
<event>
 5    0  0.6854747E-005  0.5246797E+03  0.7546771E-02  0.1007531E+00
         21   -1    0    0  502  501  0.00000000000E+00  0.00000000000E+00  0.63075799364E+03  0.63075799364E+03  0.00000000000E+00 0. -1.
         21   -1    0    0  501  502 -0.00000000000E+00 -0.00000000000E+00 -0.43644123180E+03  0.43644123180E+03  0.00000000000E+00 0. -1.
         25    1    1    2    0    0 -0.19989792069E+03  0.31387784849E+03  0.10383149156E+03  0.40605967678E+03  0.12500000000E+03 0.  0.
         25    1    1    2    0    0  0.15607144597E+03 -0.15690740379E+03  0.28247169008E+03  0.37999142794E+03  0.12500000000E+03 0.  0.
         25    1    1    2    0    0  0.43826474720E+02 -0.15697044469E+03 -0.19198641981E+03  0.28114812072E+03  0.12500000000E+03 0.  0.
</event>
<event>
 5    0  0.5550393E-005  0.4948596E+03  0.7546771E-02  0.1015129E+00
         21   -1    0    0  502  501  0.00000000000E+00  0.00000000000E+00  0.25844609532E+04  0.25844609532E+04  0.00000000000E+00 0.  1.
         21   -1    0    0  501  502 -0.00000000000E+00 -0.00000000000E+00 -0.94753237971E+02  0.94753237971E+02  0.00000000000E+00 0.  1.
         25    1    1    2    0    0 -0.10650781220E+02 -0.44551042169E+01  0.99076292637E+02  0.15991997642E+03  0.12500000000E+03 0.  0.
         25    1    1    2    0    0  0.78483590579E+02 -0.22912426138E+03  0.21097212014E+04  0.21272531934E+04  0.12500000000E+03 0.  0.
         25    1    1    2    0    0 -0.67832809359E+02  0.23357936560E+03  0.28091022117E+03  0.39204102134E+03  0.12500000000E+03 0.  0.
</event>
<event>
 5    0  0.5550393E-005  0.2645879E+03  0.7546771E-02  0.1104418E+00
         21   -1    0    0  502  501  0.00000000000E+00  0.00000000000E+00  0.11465328195E+03  0.11465328195E+03  0.00000000000E+00 0.  1.
         21   -1    0    0  501  502 -0.00000000000E+00 -0.00000000000E+00 -0.61059519541E+03  0.61059519541E+03  0.00000000000E+00 0.  1.
         25    1    1    2    0    0  0.83368174653E+02 -0.10111875915E+03 -0.13820945179E+03  0.22782034273E+03  0.12500000000E+03 0.  0.
         25    1    1    2    0    0  0.54500854762E+02  0.15679058017E+02 -0.10920292683E+03  0.17540369226E+03  0.12500000000E+03 0.  0.
         25    1    1    2    0    0 -0.13786902941E+03  0.85439701133E+02 -0.24852953485E+03  0.32202444238E+03  0.12500000000E+03 0.  0.
</event>
<event>
 5    0  0.5550393E-005  0.2935681E+03  0.7546771E-02  0.1088501E+00
         21   -1    0    0  502  501  0.00000000000E+00  0.00000000000E+00  0.15642520086E+04  0.15642520086E+04  0.00000000000E+00 0. -1.
         21   -1    0    0  501  502 -0.00000000000E+00 -0.00000000000E+00 -0.55094865187E+02  0.55094865187E+02  0.00000000000E+00 0. -1.
         25    1    1    2    0    0 -0.14490463643E+03  0.51149567902E+02  0.10325200450E+04  0.10513497397E+04  0.12500000000E+03 0.  0.
         25    1    1    2    0    0  0.11299063481E+03 -0.61002953916E+02  0.26350178913E+03  0.31866351660E+03  0.12500000000E+03 0.  0.
         25    1    1    2    0    0  0.31914001613E+02  0.98533860140E+01  0.21313530929E+03  0.24933361743E+03  0.12500000000E+03 0.  0.
</event>
<event>
 5    0  0.5550393E-005  0.3093424E+03  0.7546771E-02  0.1080662E+00
         21   -1    0    0  502  501  0.00000000000E+00  0.00000000000E+00  0.94013556458E+03  0.94013556458E+03  0.00000000000E+00 0.  1.
         21   -1    0    0  501  502 -0.00000000000E+00 -0.00000000000E+00 -0.10178608305E+03  0.10178608305E+03  0.00000000000E+00 0.  1.
         25    1    1    2    0    0 -0.16538631252E+02  0.64745765248E+02  0.23305944266E+03  0.27277691298E+03  0.12500000000E+03 0.  0.
         25    1    1    2    0    0 -0.15162526563E+03 -0.69404313097E+02  0.48407789226E+03  0.52703281267E+03  0.12500000000E+03 0.  0.
         25    1    1    2    0    0  0.16816389688E+03  0.46585478494E+01  0.12121214659E+03  0.24211192198E+03  0.12500000000E+03 0.  0.
</event>
<event>
 5    0  0.5809680E-005  0.2916280E+03  0.7546771E-02  0.1089502E+00
         21   -1    0    0  502  501  0.00000000000E+00  0.00000000000E+00  0.11801334069E+03  0.11801334069E+03  0.00000000000E+00 0.  1.
         21   -1    0    0  501  502 -0.00000000000E+00 -0.00000000000E+00 -0.72065490643E+03  0.72065490643E+03  0.00000000000E+00 0.  1.
         25    1    1    2    0    0  0.49048711883E+01 -0.10329875698E+03 -0.84969187933E+02  0.18313780017E+03  0.12500000000E+03 0.  0.
         25    1    1    2    0    0 -0.13653146944E+03 -0.14447890481E+02 -0.24716314592E+03  0.30913460561E+03  0.12500000000E+03 0.  0.
         25    1    1    2    0    0  0.13162659825E+03  0.11774664746E+03 -0.27050923189E+03  0.34639584133E+03  0.12500000000E+03 0.  0.
</event>
<event>
 5    0  0.5550393E-005  0.3333880E+03  0.7546771E-02  0.1069648E+00
         21   -1    0    0  502  501  0.00000000000E+00  0.00000000000E+00  0.27147630436E+03  0.27147630436E+03  0.00000000000E+00 0.  1.
         21   -1    0    0  501  502 -0.00000000000E+00 -0.00000000000E+00 -0.40941908086E+03  0.40941908086E+03  0.00000000000E+00 0.  1.
         25    1    1    2    0    0  0.47151269131E+02  0.17185572557E+03 -0.12982733866E+03  0.25345171227E+03  0.12500000000E+03 0.  0.
         25    1    1    2    0    0  0.10085347727E+03 -0.15862213417E+02 -0.62096554372E+02  0.17292777613E+03  0.12500000000E+03 0.  0.
         25    1    1    2    0    0 -0.14800474640E+03 -0.15599351216E+03  0.53981116528E+02  0.25451589682E+03  0.12500000000E+03 0.  0.
</event>
<event>
 5    0  0.7307742E-005  0.2865630E+03  0.7546771E-02  0.1092157E+00
         21   -1    0    0  502  501  0.00000000000E+00  0.00000000000E+00  0.18754695245E+03  0.18754695245E+03  0.00000000000E+00 0. -1.
         21   -1    0    0  501  502 -0.00000000000E+00 -0.00000000000E+00 -0.43785483354E+03  0.43785483354E+03  0.00000000000E+00 0. -1.
         25    1    1    2    0    0 -0.40775566614E+02  0.59174934072E+00  0.52570998306E+02  0.14160404960E+03  0.12500000000E+03 0.  0.
         25    1    1    2    0    0  0.10599550628E+03  0.73142814454E+02 -0.52235960764E+02  0.18691846954E+03  0.12500000000E+03 0.  0.
         25    1    1    2    0    0 -0.65219939662E+02 -0.73734563795E+02 -0.25064291864E+03  0.29687926686E+03  0.12500000000E+03 0.  0.
</event>
<event>
 5    0  0.5550393E-005  0.2201899E+03  0.7546771E-02  0.1133742E+00
         21   -1    0    0  502  501  0.00000000000E+00  0.00000000000E+00  0.88317317107E+02  0.88317317107E+02  0.00000000000E+00 0.  1.
         21   -1    0    0  501  502 -0.00000000000E+00 -0.00000000000E+00 -0.54897016806E+03  0.54897016806E+03  0.00000000000E+00 0.  1.
         25    1    1    2    0    0  0.16377642348E+02  0.25809929851E+02 -0.29053624776E+03  0.31775885654E+03  0.12500000000E+03 0.  0.
         25    1    1    2    0    0 -0.18021861767E+02 -0.53890953683E+02 -0.57202781852E+02  0.14874871644E+03  0.12500000000E+03 0.  0.
         25    1    1    2    0    0  0.16442194193E+01  0.28081023832E+02 -0.11291382134E+03  0.17077991219E+03  0.12500000000E+03 0.  0.
</event>
<event>
 5    0  0.5550393E-005  0.3485611E+03  0.7546771E-02  0.1063207E+00
         21   -1    0    0  502  501  0.00000000000E+00  0.00000000000E+00  0.31724270547E+02  0.31724270547E+02  0.00000000000E+00 0.  1.
         21   -1    0    0  501  502 -0.00000000000E+00 -0.00000000000E+00 -0.38297136224E+04  0.38297136224E+04  0.00000000000E+00 0.  1.
         25    1    1    2    0    0 -0.14671469749E+03  0.15580106086E+03 -0.11986447438E+04  0.12239989358E+04  0.12500000000E+03 0.  0.
         25    1    1    2    0    0  0.18195549094E+03 -0.18840331433E+03 -0.13442894116E+04  0.13752609322E+04  0.12500000000E+03 0.  0.
         25    1    1    2    0    0 -0.35240793442E+02  0.32602253472E+02 -0.12550551965E+04  0.12621780250E+04  0.12500000000E+03 0.  0.
</event>
<event>
 5    0  0.5550393E-005  0.2299749E+03  0.7546771E-02  0.1126657E+00
         21   -1    0    0  502  501  0.00000000000E+00  0.00000000000E+00  0.16265645828E+03  0.16265645828E+03  0.00000000000E+00 0.  1.
         21   -1    0    0  501  502 -0.00000000000E+00 -0.00000000000E+00 -0.32515443359E+03  0.32515443359E+03  0.00000000000E+00 0.  1.
         25    1    1    2    0    0  0.45557815116E+01  0.83119005324E+02 -0.98319277745E+02  0.17950265894E+03  0.12500000000E+03 0.  0.
         25    1    1    2    0    0 -0.40860829973E+02  0.21338204999E+02 -0.13626354329E+02  0.13392387372E+03  0.12500000000E+03 0.  0.
         25    1    1    2    0    0  0.36305048462E+02 -0.10445721032E+03 -0.50552343232E+02  0.17438435921E+03  0.12500000000E+03 0.  0.
</event>
<event>
 5    0  0.5550393E-005  0.2322787E+03  0.7546771E-02  0.1125046E+00
         21   -1    0    0  502  501  0.00000000000E+00  0.00000000000E+00  0.13501233623E+03  0.13501233623E+03  0.00000000000E+00 0. -1.
         21   -1    0    0  501  502 -0.00000000000E+00 -0.00000000000E+00 -0.39961825972E+03  0.39961825972E+03  0.00000000000E+00 0. -1.
         25    1    1    2    0    0 -0.51054334950E+02 -0.12378242424E+02 -0.20967980387E+03  0.24970059302E+03  0.12500000000E+03 0.  0.
         25    1    1    2    0    0  0.33510777254E+02  0.49369399330E+02  0.87634691991E+01  0.13878799723E+03  0.12500000000E+03 0.  0.
         25    1    1    2    0    0  0.17543557696E+02 -0.36991156906E+02 -0.63689588815E+02  0.14614200570E+03  0.12500000000E+03 0.  0.
</event>
<event>
 5    0  0.5550393E-005  0.2074269E+03  0.7546771E-02  0.1143620E+00
         21   -1    0    0  502  501  0.00000000000E+00  0.00000000000E+00  0.13580800820E+03  0.13580800820E+03  0.00000000000E+00 0.  1.
         21   -1    0    0  501  502 -0.00000000000E+00 -0.00000000000E+00 -0.31681425146E+03  0.31681425146E+03  0.00000000000E+00 0.  1.
         25    1    1    2    0    0  0.70372840054E+02  0.88816689087E+01 -0.37658332347E+02  0.14857446165E+03  0.12500000000E+03 0.  0.
         25    1    1    2    0    0 -0.64499738775E+02 -0.21772376703E+02 -0.76036208379E+02  0.16137148966E+03  0.12500000000E+03 0.  0.
         25    1    1    2    0    0 -0.58731012795E+01  0.12890707794E+02 -0.67311702541E+02  0.14267630835E+03  0.12500000000E+03 0.  0.
</event>
<event>
 5    0  0.5550393E-005  0.2407067E+03  0.7546771E-02  0.1119323E+00
         21   -1    0    0  502  501  0.00000000000E+00  0.00000000000E+00  0.56529066569E+02  0.56529066569E+02  0.00000000000E+00 0.  1.
         21   -1    0    0  501  502 -0.00000000000E+00 -0.00000000000E+00 -0.10249541829E+04  0.10249541829E+04  0.00000000000E+00 0.  1.
         25    1    1    2    0    0  0.15790440234E+02  0.49386330208E+02 -0.18930936931E+03  0.23270450130E+03  0.12500000000E+03 0.  0.
         25    1    1    2    0    0 -0.51716197506E+02 -0.13309518451E+02 -0.13835013323E+03  0.19395223054E+03  0.12500000000E+03 0.  0.
         25    1    1    2    0    0  0.35925757272E+02 -0.36076811757E+02 -0.64076561377E+03  0.65482651761E+03  0.12500000000E+03 0.  0.
</event>
<event>
 5    0  0.5550393E-005  0.3158087E+03  0.7546771E-02  0.1077595E+00
         21   -1    0    0  502  501  0.00000000000E+00  0.00000000000E+00  0.55679062813E+03  0.55679062813E+03  0.00000000000E+00 0. -1.
         21   -1    0    0  501  502 -0.00000000000E+00 -0.00000000000E+00 -0.17912501378E+03  0.17912501378E+03  0.00000000000E+00 0. -1.
         25    1    1    2    0    0  0.43940757715E+02 -0.38760169268E+02 -0.54084196805E+02  0.14826746526E+03  0.12500000000E+03 0.  0.
         25    1    1    2    0    0  0.11481679603E+03 -0.75811888283E+01  0.10205526877E+03  0.19819346346E+03  0.12500000000E+03 0.  0.
         25    1    1    2    0    0 -0.15875755375E+03  0.46341358096E+02  0.32969454239E+03  0.38945471319E+03  0.12500000000E+03 0.  0.
</event>
<event>
 5    0  0.5550393E-005  0.2954204E+03  0.7546771E-02  0.1087553E+00
         21   -1    0    0  502  501  0.00000000000E+00  0.00000000000E+00  0.56959254592E+02  0.56959254592E+02  0.00000000000E+00 0.  1.
         21   -1    0    0  501  502 -0.00000000000E+00 -0.00000000000E+00 -0.15322042988E+04  0.15322042988E+04  0.00000000000E+00 0.  1.
         25    1    1    2    0    0 -0.49550278836E+01  0.55970621604E+02 -0.20372871498E+03  0.24553543958E+03  0.12500000000E+03 0.  0.
         25    1    1    2    0    0 -0.11190463470E+03 -0.10472234657E+03 -0.99746918380E+03  0.10168870093E+04  0.12500000000E+03 0.  0.
         25    1    1    2    0    0  0.11685966258E+03  0.48751724967E+02 -0.27404714538E+03  0.32674110442E+03  0.12500000000E+03 0.  0.
</event>
<event>
 5    0  0.5550393E-005  0.3625068E+03  0.7546771E-02  0.1057596E+00
         21   -1    0    0  502  501  0.00000000000E+00  0.00000000000E+00  0.93424412185E+03  0.93424412185E+03  0.00000000000E+00 0. -1.
         21   -1    0    0  501  502 -0.00000000000E+00 -0.00000000000E+00 -0.14066040716E+03  0.14066040716E+03  0.00000000000E+00 0. -1.
         25    1    1    2    0    0  0.39783057569E+02  0.19916647575E+03  0.46772806382E+03  0.52501858864E+03  0.12500000000E+03 0.  0.
         25    1    1    2    0    0 -0.11117888224E+03 -0.20197950483E+03  0.97239154498E+02  0.27970862946E+03  0.12500000000E+03 0.  0.
         25    1    1    2    0    0  0.71395824668E+02  0.28130290744E+01  0.22861649638E+03  0.27017731091E+03  0.12500000000E+03 0.  0.
</event>
<event>
 5    0  0.5550393E-005  0.2352439E+03  0.7546771E-02  0.1123002E+00
         21   -1    0    0  502  501  0.00000000000E+00  0.00000000000E+00  0.70290693811E+03  0.70290693811E+03  0.00000000000E+00 0. -1.
         21   -1    0    0  501  502 -0.00000000000E+00 -0.00000000000E+00 -0.78729776005E+02  0.78729776005E+02  0.00000000000E+00 0. -1.
         25    1    1    2    0    0 -0.59990560291E+02 -0.33164901014E+02  0.31590079528E+03  0.34657912581E+03  0.12500000000E+03 0.  0.
         25    1    1    2    0    0  0.11275659137E+03  0.14704790018E+02  0.15210488465E+03  0.22735693454E+03  0.12500000000E+03 0.  0.
         25    1    1    2    0    0 -0.52766031083E+02  0.18460110995E+02  0.15617148217E+03  0.20770065377E+03  0.12500000000E+03 0.  0.
</event>
<event>
 5    0  0.5550393E-005  0.4486904E+03  0.7546771E-02  0.1028113E+00
         21   -1    0    0  502  501  0.00000000000E+00  0.00000000000E+00  0.15901823790E+04  0.15901823790E+04  0.00000000000E+00 0.  1.
         21   -1    0    0  501  502 -0.00000000000E+00 -0.00000000000E+00 -0.12660376645E+03  0.12660376645E+03  0.00000000000E+00 0.  1.
         25    1    1    2    0    0 -0.16066748988E+03  0.18903128847E+03  0.16902430464E+03  0.32517854463E+03  0.12500000000E+03 0.  0.
         25    1    1    2    0    0  0.23971859400E+03 -0.20765361413E+03  0.10620639877E+04  0.11154326254E+04  0.12500000000E+03 0.  0.
         25    1    1    2    0    0 -0.79051104123E+02  0.18622325660E+02  0.23249032019E+03  0.27617497544E+03  0.12500000000E+03 0.  0.
</event>
<event>
 5    0  0.6487128E-005  0.3295301E+03  0.7546771E-02  0.1071345E+00
         21   -1    0    0  502  501  0.00000000000E+00  0.00000000000E+00  0.90202590216E+03  0.90202590216E+03  0.00000000000E+00 0. -1.
         21   -1    0    0  501  502 -0.00000000000E+00 -0.00000000000E+00 -0.12038467487E+03  0.12038467487E+03  0.00000000000E+00 0. -1.
         25    1    1    2    0    0 -0.26179002833E+01  0.43714865739E+02 -0.43875174060E+02  0.13952732273E+03  0.12500000000E+03 0.  0.
         25    1    1    2    0    0 -0.81538048209E+02 -0.40514875260E+02  0.32056211341E+03  0.35591428319E+03  0.12500000000E+03 0.  0.
         25    1    1    2    0    0  0.84155948492E+02 -0.31999904787E+01  0.50495428794E+03  0.52696897111E+03  0.12500000000E+03 0.  0.
</event>
<event>
 5    0  0.5550393E-005  0.3216156E+03  0.7546771E-02  0.1074908E+00
         21   -1    0    0  502  501  0.00000000000E+00  0.00000000000E+00  0.24096208854E+03  0.24096208854E+03  0.00000000000E+00 0.  1.
         21   -1    0    0  501  502 -0.00000000000E+00 -0.00000000000E+00 -0.42926512942E+03  0.42926512942E+03  0.00000000000E+00 0.  1.
         25    1    1    2    0    0 -0.40969966683E+02  0.20457827813E+03 -0.33261196526E+02  0.24548343579E+03  0.12500000000E+03 0.  0.
         25    1    1    2    0    0  0.12576673633E+03 -0.10740018936E+03 -0.12656975068E+03  0.24289292791E+03  0.12500000000E+03 0.  0.
         25    1    1    2    0    0 -0.84796769646E+02 -0.97178088770E+02 -0.28472093678E+02  0.18185085427E+03  0.12500000000E+03 0.  0.
</event>
<event>
 5    0  0.5550393E-005  0.3498841E+03  0.7546771E-02  0.1062663E+00
         21   -1    0    0  502  501  0.00000000000E+00  0.00000000000E+00  0.18419233411E+03  0.18419233411E+03  0.00000000000E+00 0. -1.
         21   -1    0    0  501  502 -0.00000000000E+00 -0.00000000000E+00 -0.66462542180E+03  0.66462542180E+03  0.00000000000E+00 0. -1.
         25    1    1    2    0    0 -0.53417926212E+02  0.15887219256E+03 -0.20837518181E+03  0.29519326687E+03  0.12500000000E+03 0.  0.
         25    1    1    2    0    0  0.35010566462E+02  0.14554701400E+02 -0.30938603876E+03  0.33583076106E+03  0.12500000000E+03 0.  0.
         25    1    1    2    0    0  0.18407359750E+02 -0.17342689396E+03  0.37328132876E+02  0.21779372798E+03  0.12500000000E+03 0.  0.
</event>
<event>
 5    0  0.5550393E-005  0.3475228E+03  0.7546771E-02  0.1063636E+00
         21   -1    0    0  502  501  0.00000000000E+00  0.00000000000E+00  0.89055510141E+02  0.89055510141E+02  0.00000000000E+00 0.  1.
         21   -1    0    0  501  502 -0.00000000000E+00 -0.00000000000E+00 -0.13561443505E+04  0.13561443505E+04  0.00000000000E+00 0.  1.
         25    1    1    2    0    0 -0.99774451997E+02  0.16399934202E+03 -0.15921899183E+03  0.27897385686E+03  0.12500000000E+03 0.  0.
         25    1    1    2    0    0  0.69561462822E+02 -0.68569862150E+02 -0.26970332072E+03  0.31289855275E+03  0.12500000000E+03 0.  0.
         25    1    1    2    0    0  0.30212989175E+02 -0.95429479865E+02 -0.83816652785E+03  0.85332745107E+03  0.12500000000E+03 0.  0.
</event>
<event>
 5    0  0.5550393E-005  0.2406601E+03  0.7546771E-02  0.1119354E+00
         21   -1    0    0  502  501  0.00000000000E+00  0.00000000000E+00  0.45800415979E+03  0.45800415979E+03  0.00000000000E+00 0. -1.
         21   -1    0    0  501  502 -0.00000000000E+00 -0.00000000000E+00 -0.12645578864E+03  0.12645578864E+03  0.00000000000E+00 0. -1.
         25    1    1    2    0    0  0.59369839296E+01  0.75566767179E+01  0.30090076950E+02  0.12892929796E+03  0.12500000000E+03 0.  0.
         25    1    1    2    0    0  0.25784470671E+02  0.85742427109E+02  0.57336759795E+02  0.16410090420E+03  0.12500000000E+03 0.  0.
         25    1    1    2    0    0 -0.31721454601E+02 -0.93299103827E+02  0.24412153441E+03  0.29142974628E+03  0.12500000000E+03 0.  0.
</event>
<event>
 5    0  0.5550393E-005  0.4235668E+03  0.7546771E-02  0.1035912E+00
         21   -1    0    0  502  501  0.00000000000E+00  0.00000000000E+00  0.10398769204E+04  0.10398769204E+04  0.00000000000E+00 0. -1.
         21   -1    0    0  501  502 -0.00000000000E+00 -0.00000000000E+00 -0.17252887953E+03  0.17252887953E+03  0.00000000000E+00 0. -1.
         25    1    1    2    0    0  0.47936055416E+02 -0.25796388647E+02  0.13872955729E+03  0.19451017748E+03  0.12500000000E+03 0.  0.
         25    1    1    2    0    0 -0.14321999535E+03  0.10830554652E+03 -0.45684935046E+02  0.22350429921E+03  0.12500000000E+03 0.  0.
         25    1    1    2    0    0  0.95283939937E+02 -0.82509157877E+02  0.77430341860E+03  0.79439132322E+03  0.12500000000E+03 0.  0.
</event>
<event>
 5    0  0.5550393E-005  0.4578433E+03  0.7546771E-02  0.1025409E+00
         21   -1    0    0  502  501  0.00000000000E+00  0.00000000000E+00  0.34631374971E+03  0.34631374971E+03  0.00000000000E+00 0.  1.
         21   -1    0    0  501  502 -0.00000000000E+00 -0.00000000000E+00 -0.60529069663E+03  0.60529069663E+03  0.00000000000E+00 0.  1.
         25    1    1    2    0    0  0.12767868617E+03  0.20805364771E+03 -0.10835243161E+01  0.27425233135E+03  0.12500000000E+03 0.  0.
         25    1    1    2    0    0 -0.29574764028E+03 -0.93008578615E+02 -0.28176828080E+03  0.43719060659E+03  0.12500000000E+03 0.  0.
         25    1    1    2    0    0  0.16806895411E+03 -0.11504506909E+03  0.23874858197E+02  0.24016150839E+03  0.12500000000E+03 0.  0.
</event>
<event>
 5    0  0.5550393E-005  0.2997535E+03  0.7546771E-02  0.1085364E+00
         21   -1    0    0  502  501  0.00000000000E+00  0.00000000000E+00  0.11506985488E+03  0.11506985488E+03  0.00000000000E+00 0. -1.
         21   -1    0    0  501  502 -0.00000000000E+00 -0.00000000000E+00 -0.78084887137E+03  0.78084887137E+03  0.00000000000E+00 0. -1.
         25    1    1    2    0    0 -0.10559490294E+03  0.71272985710E+01 -0.53738729428E+02  0.17237729825E+03  0.12500000000E+03 0.  0.
         25    1    1    2    0    0 -0.21663545959E+02 -0.25661848777E+02 -0.59179872599E+02  0.14232040271E+03  0.12500000000E+03 0.  0.
         25    1    1    2    0    0  0.12725844890E+03  0.18534550206E+02 -0.55286041445E+03  0.58122102529E+03  0.12500000000E+03 0.  0.
</event>
<event>
 5    0  0.5550393E-005  0.2834305E+03  0.7546771E-02  0.1093830E+00
         21   -1    0    0  502  501  0.00000000000E+00  0.00000000000E+00  0.20837328300E+04  0.20837328300E+04  0.00000000000E+00 0.  1.
         21   -1    0    0  501  502 -0.00000000000E+00 -0.00000000000E+00 -0.38552374560E+02  0.38552374560E+02  0.00000000000E+00 0.  1.
         25    1    1    2    0    0 -0.46894237618E+02 -0.87710809723E+02  0.81266659547E+03  0.82821751434E+03  0.12500000000E+03 0.  0.
         25    1    1    2    0    0  0.23965197005E+02  0.15340212987E+03  0.10103708980E+04  0.10298450833E+04  0.12500000000E+03 0.  0.
         25    1    1    2    0    0  0.22929040613E+02 -0.65691320152E+02  0.22214296200E+03  0.26422260693E+03  0.12500000000E+03 0.  0.
</event>
<event>
 5    0  0.6053209E-005  0.3591773E+03  0.7546771E-02  0.1058910E+00
         21   -1    0    0  502  501  0.00000000000E+00  0.00000000000E+00  0.83598293975E+03  0.83598293975E+03  0.00000000000E+00 0.  1.
         21   -1    0    0  501  502 -0.00000000000E+00 -0.00000000000E+00 -0.15431936477E+03  0.15431936477E+03  0.00000000000E+00 0.  1.
         25    1    1    2    0    0  0.18402235353E+03 -0.23737262895E+02  0.60910860399E+02  0.23186810294E+03  0.12500000000E+03 0.  0.
         25    1    1    2    0    0 -0.23919165198E+03 -0.15124374483E+02  0.27965237035E+03  0.38893680891E+03  0.12500000000E+03 0.  0.
         25    1    1    2    0    0  0.55169298456E+02  0.38861637378E+02  0.34110034424E+03  0.36949739267E+03  0.12500000000E+03 0.  0.
</event>
<event>
 5    0  0.5550393E-005  0.3284778E+03  0.7546771E-02  0.1071812E+00
         21   -1    0    0  502  501  0.00000000000E+00  0.00000000000E+00  0.67564282161E+02  0.67564282161E+02  0.00000000000E+00 0. -1.
         21   -1    0    0  501  502 -0.00000000000E+00 -0.00000000000E+00 -0.15969628177E+04  0.15969628177E+04  0.00000000000E+00 0. -1.
         25    1    1    2    0    0 -0.24180218584E+01  0.10199876594E+03 -0.12354098905E+03  0.20321656197E+03  0.12500000000E+03 0.  0.
         25    1    1    2    0    0  0.81426303422E+02 -0.10390323263E+03 -0.34288373723E+03  0.38809841779E+03  0.12500000000E+03 0.  0.
         25    1    1    2    0    0 -0.79008281564E+02  0.19044666931E+01 -0.10629738093E+04  0.10732121201E+04  0.12500000000E+03 0.  0.
</event>
<event>
 5    0  0.7784416E-005  0.3596234E+03  0.7546771E-02  0.1058733E+00
         21   -1    0    0  502  501  0.00000000000E+00  0.00000000000E+00  0.78224184713E+03  0.78224184713E+03  0.00000000000E+00 0. -1.
         21   -1    0    0  501  502 -0.00000000000E+00 -0.00000000000E+00 -0.16533117437E+03  0.16533117437E+03  0.00000000000E+00 0. -1.
         25    1    1    2    0    0 -0.38126763508E+02  0.17122510054E+03  0.14425842853E+03  0.25924347504E+03  0.12500000000E+03 0.  0.
         25    1    1    2    0    0  0.70074357022E+02 -0.83340489107E+02  0.50272542665E+03  0.52935234696E+03  0.12500000000E+03 0.  0.
         25    1    1    2    0    0 -0.31947593515E+02 -0.87884611431E+02 -0.30073182416E+02  0.15897719949E+03  0.12500000000E+03 0.  0.
</event>
<event>
 5    0  0.5550393E-005  0.3671943E+03  0.7546771E-02  0.1055771E+00
         21   -1    0    0  502  501  0.00000000000E+00  0.00000000000E+00  0.31221307354E+03  0.31221307354E+03  0.00000000000E+00 0. -1.
         21   -1    0    0  501  502 -0.00000000000E+00 -0.00000000000E+00 -0.43185770389E+03  0.43185770389E+03  0.00000000000E+00 0. -1.
         25    1    1    2    0    0  0.24709011087E+03  0.14300206571E+03  0.59408281740E+02  0.31726559477E+03  0.12500000000E+03 0.  0.
         25    1    1    2    0    0 -0.13261825761E+03 -0.10862792333E+03 -0.12174780817E+03  0.24461225802E+03  0.12500000000E+03 0.  0.
         25    1    1    2    0    0 -0.11447185326E+03 -0.34374142385E+02 -0.57305103921E+02  0.18219292464E+03  0.12500000000E+03 0.  0.
</event>
<event>
 5    0  0.6231493E-005  0.2436248E+03  0.7546771E-02  0.1117401E+00
         21   -1    0    0  502  501  0.00000000000E+00  0.00000000000E+00  0.42083373296E+03  0.42083373296E+03  0.00000000000E+00 0.  1.
         21   -1    0    0  501  502 -0.00000000000E+00 -0.00000000000E+00 -0.14103684690E+03  0.14103684690E+03  0.00000000000E+00 0.  1.
         25    1    1    2    0    0 -0.18923514907E+02  0.36793356341E+02  0.11504675557E+03  0.17485024008E+03  0.12500000000E+03 0.  0.
         25    1    1    2    0    0 -0.59089115855E+02 -0.78357588390E+02 -0.42585693549E+01  0.15897978074E+03  0.12500000000E+03 0.  0.
         25    1    1    2    0    0  0.78012630762E+02  0.41564232049E+02  0.16900869985E+03  0.22804055904E+03  0.12500000000E+03 0.  0.
</event>
<event>
 5    0  0.5550393E-005  0.3711242E+03  0.7546771E-02  0.1054264E+00
         21   -1    0    0  502  501  0.00000000000E+00  0.00000000000E+00  0.44368828281E+03  0.44368828281E+03  0.00000000000E+00 0.  1.
         21   -1    0    0  501  502 -0.00000000000E+00 -0.00000000000E+00 -0.31042782330E+03  0.31042782330E+03  0.00000000000E+00 0.  1.
         25    1    1    2    0    0 -0.65210057901E+02 -0.35528570134E+02 -0.36301849640E+02  0.14985811701E+03  0.12500000000E+03 0.  0.
         25    1    1    2    0    0 -0.68987310525E+02  0.13213794742E+02 -0.16713101586E+03  0.22020815118E+03  0.12500000000E+03 0.  0.
         25    1    1    2    0    0  0.13419736843E+03  0.22314775392E+02  0.33669332502E+03  0.38404983792E+03  0.12500000000E+03 0.  0.
</event>
<event>
 5    0  0.5550393E-005  0.6696209E+03  0.7546771E-02  0.9770643E-01
         21   -1    0    0  502  501  0.00000000000E+00  0.00000000000E+00  0.34906829318E+03  0.34906829318E+03  0.00000000000E+00 0.  1.
         21   -1    0    0  501  502 -0.00000000000E+00 -0.00000000000E+00 -0.12845398999E+04  0.12845398999E+04  0.00000000000E+00 0.  1.
         25    1    1    2    0    0 -0.69199938318E+02  0.29980198197E+03 -0.22579043491E+03  0.40159205713E+03  0.12500000000E+03 0.  0.
         25    1    1    2    0    0  0.33930664411E+03 -0.45680978821E+03 -0.18981604786E+03  0.61274734872E+03  0.12500000000E+03 0.  0.
         25    1    1    2    0    0 -0.27010670579E+03  0.15700780624E+03 -0.51986512397E+03  0.61926878725E+03  0.12500000000E+03 0.  0.
</event>
<event>
 5    0  0.5550393E-005  0.3037572E+03  0.7546771E-02  0.1083377E+00
         21   -1    0    0  502  501  0.00000000000E+00  0.00000000000E+00  0.41025442458E+03  0.41025442458E+03  0.00000000000E+00 0. -1.
         21   -1    0    0  501  502 -0.00000000000E+00 -0.00000000000E+00 -0.22490533431E+03  0.22490533431E+03  0.00000000000E+00 0. -1.
         25    1    1    2    0    0 -0.13696548136E+03 -0.25095361851E+02  0.40711930251E+02  0.19149877685E+03  0.12500000000E+03 0.  0.
         25    1    1    2    0    0  0.51022279968E+02 -0.11256468432E+03 -0.25184843838E+02  0.17757634293E+03  0.12500000000E+03 0.  0.
         25    1    1    2    0    0  0.85943201393E+02  0.13766004617E+03  0.16982200385E+03  0.26608463911E+03  0.12500000000E+03 0.  0.
</event>
<event>
 5    0  0.5550393E-005  0.3151949E+03  0.7546771E-02  0.1077882E+00
         21   -1    0    0  502  501  0.00000000000E+00  0.00000000000E+00  0.39973831860E+03  0.39973831860E+03  0.00000000000E+00 0. -1.
         21   -1    0    0  501  502 -0.00000000000E+00 -0.00000000000E+00 -0.24853211212E+03  0.24853211212E+03  0.00000000000E+00 0. -1.
         25    1    1    2    0    0  0.17189145815E+03  0.43383009463E+02  0.97275718887E+01  0.21713678765E+03  0.12500000000E+03 0.  0.
         25    1    1    2    0    0  0.60216341050E+02  0.21560562465E+01  0.62484423913E+02  0.15218396611E+03  0.12500000000E+03 0.  0.
         25    1    1    2    0    0 -0.23210779920E+03 -0.45539065710E+02  0.78994210685E+02  0.27894967697E+03  0.12500000000E+03 0.  0.
</event>
<event>
 5    0  0.5550393E-005  0.3457566E+03  0.7546771E-02  0.1064370E+00
         21   -1    0    0  502  501  0.00000000000E+00  0.00000000000E+00  0.10035312156E+03  0.10035312156E+03  0.00000000000E+00 0.  1.
         21   -1    0    0  501  502 -0.00000000000E+00 -0.00000000000E+00 -0.11912697112E+04  0.11912697112E+04  0.00000000000E+00 0.  1.
         25    1    1    2    0    0  0.12652789086E+03  0.45532529061E+02 -0.39583064735E+03  0.43633636080E+03  0.12500000000E+03 0.  0.
         25    1    1    2    0    0 -0.14390992240E+03 -0.44838611255E+02 -0.70209081283E+03  0.72888756080E+03  0.12500000000E+03 0.  0.
         25    1    1    2    0    0  0.17382031535E+02 -0.69391780580E+00  0.70048705106E+01  0.12639891120E+03  0.12500000000E+03 0.  0.
</event>
<event>
 5    0  0.5550393E-005  0.3665058E+03  0.7546771E-02  0.1056037E+00
         21   -1    0    0  502  501  0.00000000000E+00  0.00000000000E+00  0.10904779391E+03  0.10904779391E+03  0.00000000000E+00 0.  1.
         21   -1    0    0  501  502 -0.00000000000E+00 -0.00000000000E+00 -0.12318131466E+04  0.12318131466E+04  0.00000000000E+00 0.  1.
         25    1    1    2    0    0 -0.99785432060E+02 -0.39312331972E+02 -0.63107220888E+02  0.17638059197E+03  0.12500000000E+03 0.  0.
         25    1    1    2    0    0  0.45554397715E+02 -0.13153257389E+03 -0.18564419681E+03  0.26356173651E+03  0.12500000000E+03 0.  0.
         25    1    1    2    0    0  0.54231034345E+02  0.17084490586E+03 -0.87401393501E+03  0.90091861205E+03  0.12500000000E+03 0.  0.
</event>
<event>
 5    0  0.5750718E-005  0.7366518E+03  0.7546771E-02  0.9656527E-01
         21   -1    0    0  502  501  0.00000000000E+00  0.00000000000E+00  0.39393038791E+03  0.39393038791E+03  0.00000000000E+00 0. -1.
         21   -1    0    0  501  502 -0.00000000000E+00 -0.00000000000E+00 -0.13775426824E+04  0.13775426824E+04  0.00000000000E+00 0. -1.
         25    1    1    2    0    0  0.42904819320E+03 -0.15950779585E+03 -0.24150015992E+03  0.53242127706E+03  0.12500000000E+03 0.  0.
         25    1    1    2    0    0 -0.35513026634E+03  0.40516701909E+03 -0.13666233824E+03  0.56971871491E+03  0.12500000000E+03 0.  0.
         25    1    1    2    0    0 -0.73917926867E+02 -0.24565922324E+03 -0.60544979631E+03  0.66933307832E+03  0.12500000000E+03 0.  0.
</event>
<event>
 5    0  0.5550393E-005  0.3554412E+03  0.7546771E-02  0.1060404E+00
         21   -1    0    0  502  501  0.00000000000E+00  0.00000000000E+00  0.13086271071E+04  0.13086271071E+04  0.00000000000E+00 0. -1.
         21   -1    0    0  501  502 -0.00000000000E+00 -0.00000000000E+00 -0.96542753337E+02  0.96542753337E+02  0.00000000000E+00 0. -1.
         25    1    1    2    0    0 -0.46373531954E+02 -0.13087414459E+03  0.48912933831E+03  0.52359436187E+03  0.12500000000E+03 0.  0.
         25    1    1    2    0    0  0.62742442113E+02  0.63674101592E+02  0.72255432205E+03  0.73871561075E+03  0.12500000000E+03 0.  0.
         25    1    1    2    0    0 -0.16368910159E+02  0.67200042994E+02  0.40069342784E+00  0.14285988784E+03  0.12500000000E+03 0.  0.
</event>
<event>
 5    0  0.6309143E-005  0.2557250E+03  0.7546771E-02  0.1109739E+00
         21   -1    0    0  502  501  0.00000000000E+00  0.00000000000E+00  0.58579274259E+03  0.58579274259E+03  0.00000000000E+00 0.  1.
         21   -1    0    0  501  502 -0.00000000000E+00 -0.00000000000E+00 -0.11163553364E+03  0.11163553364E+03  0.00000000000E+00 0.  1.
         25    1    1    2    0    0 -0.31976044067E+02  0.93844443820E+02  0.23032021561E+03  0.28018145683E+03  0.12500000000E+03 0.  0.
         25    1    1    2    0    0 -0.99749795272E+01 -0.14979282064E+03  0.14079234997E+03  0.24080048825E+03  0.12500000000E+03 0.  0.
         25    1    1    2    0    0  0.41951023594E+02  0.55948376815E+02  0.10304464337E+03  0.17644633115E+03  0.12500000000E+03 0.  0.
</event>
<event>
 5    0  0.5550393E-005  0.2675432E+03  0.7546771E-02  0.1102694E+00
         21   -1    0    0  502  501  0.00000000000E+00  0.00000000000E+00  0.62589092800E+03  0.62589092800E+03  0.00000000000E+00 0. -1.
         21   -1    0    0  501  502 -0.00000000000E+00 -0.00000000000E+00 -0.11436395586E+03  0.11436395586E+03  0.00000000000E+00 0. -1.
         25    1    1    2    0    0 -0.14150764064E+03 -0.68419785338E+02  0.21359678666E+03  0.29317958090E+03  0.12500000000E+03 0.  0.
         25    1    1    2    0    0  0.14970389201E+03  0.15496218334E+02  0.15327336309E+03  0.24853392504E+03  0.12500000000E+03 0.  0.
         25    1    1    2    0    0 -0.81962513707E+01  0.52923567005E+02  0.14465682239E+03  0.19854137791E+03  0.12500000000E+03 0.  0.
</event>
<event>
 5    0  0.5550393E-005  0.3216461E+03  0.7546771E-02  0.1074894E+00
         21   -1    0    0  502  501  0.00000000000E+00  0.00000000000E+00  0.35865482602E+03  0.35865482602E+03  0.00000000000E+00 0. -1.
         21   -1    0    0  501  502 -0.00000000000E+00 -0.00000000000E+00 -0.28845627419E+03  0.28845627419E+03  0.00000000000E+00 0. -1.
         25    1    1    2    0    0  0.57841406428E+02  0.18715987442E+03  0.64235027566E+02  0.24109248361E+03  0.12500000000E+03 0.  0.
         25    1    1    2    0    0 -0.38393392095E+02  0.47646751980E+02  0.59981407744E+01  0.13930270358E+03  0.12500000000E+03 0.  0.
         25    1    1    2    0    0 -0.19448014334E+02 -0.23480662640E+03 -0.34616512307E-01  0.26671591302E+03  0.12500000000E+03 0.  0.
</event>
<event>
 5    0  0.6105494E-005  0.2819224E+03  0.7546771E-02  0.1094644E+00
         21   -1    0    0  502  501  0.00000000000E+00  0.00000000000E+00  0.66429701728E+03  0.66429701728E+03  0.00000000000E+00 0.  1.
         21   -1    0    0  501  502 -0.00000000000E+00 -0.00000000000E+00 -0.11964566682E+03  0.11964566682E+03  0.00000000000E+00 0.  1.
         25    1    1    2    0    0  0.67469033290E+02  0.46881905470E+02  0.27143077117E+03  0.30991877492E+03  0.12500000000E+03 0.  0.
         25    1    1    2    0    0 -0.15914844346E+02 -0.42437709530E+02  0.30702301096E+03  0.33457789933E+03  0.12500000000E+03 0.  0.
         25    1    1    2    0    0 -0.51554188944E+02 -0.44441959396E+01 -0.33802431663E+02  0.13944600984E+03  0.12500000000E+03 0.  0.
</event>
<event>
 5    0  0.5550393E-005  0.4258092E+03  0.7546771E-02  0.1035192E+00
         21   -1    0    0  502  501  0.00000000000E+00  0.00000000000E+00  0.77637132665E+03  0.77637132665E+03  0.00000000000E+00 0.  1.
         21   -1    0    0  501  502 -0.00000000000E+00 -0.00000000000E+00 -0.23353964009E+03  0.23353964009E+03  0.00000000000E+00 0.  1.
         25    1    1    2    0    0 -0.19862610820E+03  0.64529092382E+02  0.51387077459E+03  0.56859872283E+03  0.12500000000E+03 0.  0.
         25    1    1    2    0    0  0.21026964461E+03  0.70432697101E+02 -0.10651240161E+01  0.25455887876E+03  0.12500000000E+03 0.  0.
         25    1    1    2    0    0 -0.11643536404E+02 -0.13496178948E+03  0.30026035982E+02  0.18675336516E+03  0.12500000000E+03 0.  0.
</event>
<event>
 5    0  0.5550393E-005  0.3314605E+03  0.7546771E-02  0.1070492E+00
         21   -1    0    0  502  501  0.00000000000E+00  0.00000000000E+00  0.85406899809E+03  0.85406899809E+03  0.00000000000E+00 0.  1.
         21   -1    0    0  501  502 -0.00000000000E+00 -0.00000000000E+00 -0.12863840653E+03  0.12863840653E+03  0.00000000000E+00 0.  1.
         25    1    1    2    0    0 -0.11759765882E+03 -0.95346040208E+02  0.99126399531E+02  0.21993435345E+03  0.12500000000E+03 0.  0.
         25    1    1    2    0    0  0.60364533170E+00  0.19182327586E+03  0.25525477910E+03  0.34289435079E+03  0.12500000000E+03 0.  0.
         25    1    1    2    0    0  0.11699401349E+03 -0.96477235651E+02  0.37104941294E+03  0.41987870038E+03  0.12500000000E+03 0.  0.
</event>
<event>
 5    0  0.5550393E-005  0.2604011E+03  0.7546771E-02  0.1106903E+00
         21   -1    0    0  502  501  0.00000000000E+00  0.00000000000E+00  0.11233367677E+04  0.11233367677E+04  0.00000000000E+00 0. -1.
         21   -1    0    0  501  502 -0.00000000000E+00 -0.00000000000E+00 -0.60363650447E+02  0.60363650447E+02  0.00000000000E+00 0. -1.
         25    1    1    2    0    0  0.13680565636E+01 -0.13741274353E+03  0.27398110146E+03  0.33102081146E+03  0.12500000000E+03 0.  0.
         25    1    1    2    0    0  0.55498257122E+01  0.66255721711E+02  0.59183183564E+03  0.60853146418E+03  0.12500000000E+03 0.  0.
         25    1    1    2    0    0 -0.69178822758E+01  0.71157021822E+02  0.19716018017E+03  0.24414814251E+03  0.12500000000E+03 0.  0.
</event>
<event>
 5    0  0.5550393E-005  0.3646249E+03  0.7546771E-02  0.1056767E+00
         21   -1    0    0  502  501  0.00000000000E+00  0.00000000000E+00  0.35739270771E+03  0.35739270771E+03  0.00000000000E+00 0.  1.
         21   -1    0    0  501  502 -0.00000000000E+00 -0.00000000000E+00 -0.37200349132E+03  0.37200349132E+03  0.00000000000E+00 0.  1.
         25    1    1    2    0    0 -0.18688132115E+03  0.44778719097E+02  0.84627954628E+02  0.24436990932E+03  0.12500000000E+03 0.  0.
         25    1    1    2    0    0 -0.67682330013E+02 -0.11469654998E+03 -0.40633653562E+02  0.18711571333E+03  0.12500000000E+03 0.  0.
         25    1    1    2    0    0  0.25456365116E+03  0.69917830885E+02 -0.58605084668E+02  0.29791057638E+03  0.12500000000E+03 0.  0.
</event>
<event>
 5    0  0.5550393E-005  0.3350316E+03  0.7546771E-02  0.1068932E+00
         21   -1    0    0  502  501  0.00000000000E+00  0.00000000000E+00  0.59066834889E+02  0.59066834889E+02  0.00000000000E+00 0. -1.
         21   -1    0    0  501  502 -0.00000000000E+00 -0.00000000000E+00 -0.19003246665E+04  0.19003246665E+04  0.00000000000E+00 0.  1.
         25    1    1    2    0    0 -0.33947270335E+02 -0.22910488104E+03 -0.66441385470E+03  0.71464133242E+03  0.12500000000E+03 0.  0.
         25    1    1    2    0    0 -0.64691042710E+02  0.18486117522E+03 -0.80447610271E+03  0.83735618761E+03  0.12500000000E+03 0.  0.
         25    1    1    2    0    0  0.98638313045E+02  0.44243705822E+02 -0.37236787415E+03  0.40739398131E+03  0.12500000000E+03 0.  0.
</event>
<event>
 5    0  0.5550393E-005  0.2975713E+03  0.7546771E-02  0.1086461E+00
         21   -1    0    0  502  501  0.00000000000E+00  0.00000000000E+00  0.34206588615E+03  0.34206588615E+03  0.00000000000E+00 0. -1.
         21   -1    0    0  501  502 -0.00000000000E+00 -0.00000000000E+00 -0.25886431206E+03  0.25886431206E+03  0.00000000000E+00 0. -1.
         25    1    1    2    0    0  0.64178132709E+02  0.52237831180E+02 -0.46027736323E+02  0.15681573976E+03  0.12500000000E+03 0.  0.
         25    1    1    2    0    0 -0.66184724167E+02 -0.89330718602E+02 -0.89302813812E+02  0.18963224292E+03  0.12500000000E+03 0.  0.
         25    1    1    2    0    0  0.20065914577E+01  0.37092887422E+02  0.21853212422E+03  0.25448221554E+03  0.12500000000E+03 0.  0.
</event>
<event>
 5    0  0.5550393E-005  0.3466985E+03  0.7546771E-02  0.1063978E+00
         21   -1    0    0  502  501  0.00000000000E+00  0.00000000000E+00  0.85925723766E+03  0.85925723766E+03  0.00000000000E+00 0. -1.
         21   -1    0    0  501  502 -0.00000000000E+00 -0.00000000000E+00 -0.13988812460E+03  0.13988812460E+03  0.00000000000E+00 0. -1.
         25    1    1    2    0    0  0.18102187356E+03 -0.80088858809E+02  0.12515994559E+03  0.26546780594E+03  0.12500000000E+03 0.  0.
         25    1    1    2    0    0 -0.55743161977E+02  0.81334156386E+02  0.58706691106E+02  0.16968800984E+03  0.12500000000E+03 0.  0.
         25    1    1    2    0    0 -0.12527871158E+03 -0.12452975766E+01  0.53550247637E+03  0.56398954648E+03  0.12500000000E+03 0.  0.
</event>
<event>
 5    0  0.5550393E-005  0.3769990E+03  0.7546771E-02  0.1052049E+00
         21   -1    0    0  502  501  0.00000000000E+00  0.00000000000E+00  0.13076954964E+04  0.13076954964E+04  0.00000000000E+00 0.  1.
         21   -1    0    0  501  502 -0.00000000000E+00 -0.00000000000E+00 -0.10868602629E+03  0.10868602629E+03  0.00000000000E+00 0.  1.
         25    1    1    2    0    0 -0.21430634639E+03 -0.12010799380E+02  0.45644143943E+03  0.51964916726E+03  0.12500000000E+03 0.  0.
         25    1    1    2    0    0  0.85054704204E+02  0.10449529116E+03  0.73778294361E+02  0.19804495777E+03  0.12500000000E+03 0.  0.
         25    1    1    2    0    0  0.12925164219E+03 -0.92484491775E+02  0.66878973634E+03  0.69868739767E+03  0.12500000000E+03 0.  0.
</event>
<event>
 5    0  0.5550393E-005  0.5305394E+03  0.7546771E-02  0.1006101E+00
         21   -1    0    0  502  501  0.00000000000E+00  0.00000000000E+00  0.55097822826E+03  0.55097822826E+03  0.00000000000E+00 0. -1.
         21   -1    0    0  501  502 -0.00000000000E+00 -0.00000000000E+00 -0.51085871477E+03  0.51085871477E+03  0.00000000000E+00 0. -1.
         25    1    1    2    0    0  0.11620458481E+03 -0.11125944539E+03  0.27134121972E+03  0.33931287514E+03  0.12500000000E+03 0.  0.
         25    1    1    2    0    0  0.14302922056E+03 -0.18935190412E+03 -0.83214951978E+02  0.28082241677E+03  0.12500000000E+03 0.  0.
         25    1    1    2    0    0 -0.25923380537E+03  0.30061134951E+03 -0.14800675426E+03  0.44170165112E+03  0.12500000000E+03 0.  0.
</event>
<event>
 5    0  0.5550393E-005  0.2173888E+03  0.7546771E-02  0.1135845E+00
         21   -1    0    0  502  501  0.00000000000E+00  0.00000000000E+00  0.40436044186E+03  0.40436044186E+03  0.00000000000E+00 0.  1.
         21   -1    0    0  501  502 -0.00000000000E+00 -0.00000000000E+00 -0.11687067481E+03  0.11687067481E+03  0.00000000000E+00 0.  1.
         25    1    1    2    0    0 -0.21775886980E+02  0.38150968630E+02 -0.24070707184E+01  0.13251595998E+03  0.12500000000E+03 0.  0.
         25    1    1    2    0    0  0.64125767913E+01 -0.13293589157E+02  0.10663822159E+03  0.16496833319E+03  0.12500000000E+03 0.  0.
         25    1    1    2    0    0  0.15363310188E+02 -0.24857379474E+02  0.18325861619E+03  0.22374682349E+03  0.12500000000E+03 0.  0.
</event>
<event>
 5    0  0.5550393E-005  0.3290553E+03  0.7546771E-02  0.1071556E+00
         21   -1    0    0  502  501  0.00000000000E+00  0.00000000000E+00  0.13593631684E+03  0.13593631684E+03  0.00000000000E+00 0.  1.
         21   -1    0    0  501  502 -0.00000000000E+00 -0.00000000000E+00 -0.79653021537E+03  0.79653021537E+03  0.00000000000E+00 0.  1.
         25    1    1    2    0    0 -0.30866772082E+02  0.58409901601E+02 -0.13237303988E+03  0.19368039630E+03  0.12500000000E+03 0.  0.
         25    1    1    2    0    0  0.20184089817E+03 -0.15440728931E+03 -0.31007836846E+03  0.41994637009E+03  0.12500000000E+03 0.  0.
         25    1    1    2    0    0 -0.17097412609E+03  0.95997387709E+02 -0.21814249019E+03  0.31883976582E+03  0.12500000000E+03 0.  0.
</event>
<event>
 5    0  0.5550393E-005  0.3734788E+03  0.7546771E-02  0.1053371E+00
         21   -1    0    0  502  501  0.00000000000E+00  0.00000000000E+00  0.31084838967E+03  0.31084838967E+03  0.00000000000E+00 0.  1.
         21   -1    0    0  501  502 -0.00000000000E+00 -0.00000000000E+00 -0.44872815884E+03  0.44872815884E+03  0.00000000000E+00 0.  1.
         25    1    1    2    0    0 -0.38673575473E+02  0.25025921419E+03 -0.67403167502E+02  0.29033344058E+03  0.12500000000E+03 0.  0.
         25    1    1    2    0    0 -0.37077392341E+02 -0.27528601041E+03 -0.94712716617E+02  0.31898686374E+03  0.12500000000E+03 0.  0.
         25    1    1    2    0    0  0.75750967814E+02  0.25026796216E+02  0.24236114945E+02  0.15025624420E+03  0.12500000000E+03 0.  0.
</event>
<event>
 5    0  0.5550393E-005  0.2754586E+03  0.7546771E-02  0.1098196E+00
         21   -1    0    0  502  501  0.00000000000E+00  0.00000000000E+00  0.12824110913E+04  0.12824110913E+04  0.00000000000E+00 0. -1.
         21   -1    0    0  501  502 -0.00000000000E+00 -0.00000000000E+00 -0.59167781580E+02  0.59167781580E+02  0.00000000000E+00 0. -1.
         25    1    1    2    0    0  0.14060751450E+03 -0.76154313179E+01  0.36934557558E+03  0.41457161278E+03  0.12500000000E+03 0.  0.
         25    1    1    2    0    0 -0.14551345220E+03 -0.27168782733E+02  0.69660618152E+03  0.72304735644E+03  0.12500000000E+03 0.  0.
         25    1    1    2    0    0  0.49059377017E+01  0.34784214051E+02  0.15729155262E+03  0.20395990365E+03  0.12500000000E+03 0.  0.
</event>
<event>
 5    0  0.5550393E-005  0.2367347E+03  0.7546771E-02  0.1121987E+00
         21   -1    0    0  502  501  0.00000000000E+00  0.00000000000E+00  0.12963409552E+04  0.12963409552E+04  0.00000000000E+00 0.  1.
         21   -1    0    0  501  502 -0.00000000000E+00 -0.00000000000E+00 -0.43231912936E+02  0.43231912936E+02  0.00000000000E+00 0.  1.
         25    1    1    2    0    0  0.12175104518E+03  0.24052958628E+02  0.33664120769E+03  0.37993968539E+03  0.12500000000E+03 0.  0.
         25    1    1    2    0    0 -0.69842594982E+02  0.38709872980E+00  0.54582115970E+03  0.56429059561E+03  0.12500000000E+03 0.  0.
         25    1    1    2    0    0 -0.51908450201E+02 -0.24440057358E+02  0.37064667491E+03  0.39534258717E+03  0.12500000000E+03 0.  0.
</event>
<event>
 5    0  0.5550393E-005  0.2471183E+03  0.7546771E-02  0.1115140E+00
         21   -1    0    0  502  501  0.00000000000E+00  0.00000000000E+00  0.10354566548E+04  0.10354566548E+04  0.00000000000E+00 0. -1.
         21   -1    0    0  501  502 -0.00000000000E+00 -0.00000000000E+00 -0.58976332838E+02  0.58976332838E+02  0.00000000000E+00 0. -1.
         25    1    1    2    0    0 -0.11008542299E+02  0.30792998773E+02  0.67752863680E+03  0.68973868274E+03  0.12500000000E+03 0.  0.
         25    1    1    2    0    0  0.14431442538E+02 -0.37129956858E+02  0.22159014028E+03  0.25751522382E+03  0.12500000000E+03 0.  0.
         25    1    1    2    0    0 -0.34229002387E+01  0.63369580857E+01  0.77361544898E+02  0.14717908110E+03  0.12500000000E+03 0.  0.
</event>
<event>
 5    0  0.5550393E-005  0.3502286E+03  0.7546771E-02  0.1062521E+00
         21   -1    0    0  502  501  0.00000000000E+00  0.00000000000E+00  0.50529756910E+03  0.50529756910E+03  0.00000000000E+00 0.  1.
         21   -1    0    0  501  502 -0.00000000000E+00 -0.00000000000E+00 -0.24274819724E+03  0.24274819724E+03  0.00000000000E+00 0.  1.
         25    1    1    2    0    0  0.12750238663E+02 -0.21289099095E+03  0.18310710585E+03  0.30763347481E+03  0.12500000000E+03 0.  0.
         25    1    1    2    0    0  0.12734166727E+03  0.14024119814E+03  0.90232342548E+01  0.22713412917E+03  0.12500000000E+03 0.  0.
         25    1    1    2    0    0 -0.14009190593E+03  0.72649792806E+02  0.70419031752E+02  0.21327816235E+03  0.12500000000E+03 0.  0.
</event>
<event>
 5    0  0.6014495E-005  0.3207594E+03  0.7546771E-02  0.1075300E+00
         21   -1    0    0  502  501  0.00000000000E+00  0.00000000000E+00  0.29322170648E+03  0.29322170648E+03  0.00000000000E+00 0. -1.
         21   -1    0    0  501  502 -0.00000000000E+00 -0.00000000000E+00 -0.35088328711E+03  0.35088328711E+03  0.00000000000E+00 0. -1.
         25    1    1    2    0    0 -0.11105287020E+03  0.33295511721E+02 -0.81891234029E+02  0.18913620830E+03  0.12500000000E+03 0.  0.
         25    1    1    2    0    0  0.20988248368E+03  0.77267922384E+02  0.44178580750E+02  0.25999564570E+03  0.12500000000E+03 0.  0.
         25    1    1    2    0    0 -0.98829613476E+02 -0.11056343410E+03 -0.19948927351E+02  0.19497313959E+03  0.12500000000E+03 0.  0.
</event>
<event>
 5    0  0.5550393E-005  0.3071408E+03  0.7546771E-02  0.1081724E+00
         21   -1    0    0  502  501  0.00000000000E+00  0.00000000000E+00  0.61985919040E+02  0.61985919040E+02  0.00000000000E+00 0.  1.
         21   -1    0    0  501  502 -0.00000000000E+00 -0.00000000000E+00 -0.15218857432E+04  0.15218857432E+04  0.00000000000E+00 0.  1.
         25    1    1    2    0    0  0.20286900826E+02  0.97059224460E+02 -0.22987431547E+03  0.27982003557E+03  0.12500000000E+03 0.  0.
         25    1    1    2    0    0 -0.17340727300E+03 -0.97408265885E+02 -0.63544502687E+03  0.67747607690E+03  0.12500000000E+03 0.  0.
         25    1    1    2    0    0  0.15312037217E+03  0.34904142489E+00 -0.59458048183E+03  0.62657554977E+03  0.12500000000E+03 0.  0.
</event>
<event>
 5    0  0.5550393E-005  0.2548449E+03  0.7546771E-02  0.1110281E+00
         21   -1    0    0  502  501  0.00000000000E+00  0.00000000000E+00  0.44713383678E+03  0.44713383678E+03  0.00000000000E+00 0. -1.
         21   -1    0    0  501  502 -0.00000000000E+00 -0.00000000000E+00 -0.14524939837E+03  0.14524939837E+03  0.00000000000E+00 0. -1.
         25    1    1    2    0    0  0.72821919755E+02  0.34552148389E+02  0.17484455904E+02  0.14975843600E+03  0.12500000000E+03 0.  0.
         25    1    1    2    0    0 -0.99424629042E+02  0.46088550589E+01  0.26231281797E+03  0.30714737973E+03  0.12500000000E+03 0.  0.
         25    1    1    2    0    0  0.26602709287E+02 -0.39161003448E+02  0.22087164536E+02  0.13547741941E+03  0.12500000000E+03 0.  0.
</event>
<event>
 5    0  0.5550393E-005  0.2429441E+03  0.7546771E-02  0.1117847E+00
         21   -1    0    0  502  501  0.00000000000E+00  0.00000000000E+00  0.51230763973E+02  0.51230763973E+02  0.00000000000E+00 0. -1.
         21   -1    0    0  501  502 -0.00000000000E+00 -0.00000000000E+00 -0.11520784076E+04  0.11520784076E+04  0.00000000000E+00 0. -1.
         25    1    1    2    0    0 -0.37130502119E+02 -0.33542528497E+02 -0.19905596412E+03  0.24031656676E+03  0.12500000000E+03 0.  0.
         25    1    1    2    0    0 -0.91736920361E+02  0.39280663596E+01 -0.44746714195E+03  0.47358519338E+03  0.12500000000E+03 0.  0.
         25    1    1    2    0    0  0.12886742248E+03  0.29614462138E+02 -0.45432453754E+03  0.48940741142E+03  0.12500000000E+03 0.  0.
</event>
<event>
 5    0  0.5550393E-005  0.4446914E+03  0.7546771E-02  0.1029317E+00
         21   -1    0    0  502  501  0.00000000000E+00  0.00000000000E+00  0.12792874689E+03  0.12792874689E+03  0.00000000000E+00 0.  1.
         21   -1    0    0  501  502 -0.00000000000E+00 -0.00000000000E+00 -0.15457856230E+04  0.15457856230E+04  0.00000000000E+00 0.  1.
         25    1    1    2    0    0 -0.23002188744E+02 -0.47381900609E+02 -0.11289956122E+04  0.11371148744E+04  0.12500000000E+03 0.  0.
         25    1    1    2    0    0 -0.11339089099E+03  0.13737000487E+03 -0.53678090658E+02  0.22413020728E+03  0.12500000000E+03 0.  0.
         25    1    1    2    0    0  0.13639307974E+03 -0.89988104259E+02 -0.23518317329E+03  0.31246928826E+03  0.12500000000E+03 0.  0.
</event>
<event>
 5    0  0.5550393E-005  0.3173678E+03  0.7546771E-02  0.1076867E+00
         21   -1    0    0  502  501  0.00000000000E+00  0.00000000000E+00  0.19876777847E+04  0.19876777847E+04  0.00000000000E+00 0.  1.
         21   -1    0    0  501  502 -0.00000000000E+00 -0.00000000000E+00 -0.50673369616E+02  0.50673369616E+02  0.00000000000E+00 0.  1.
         25    1    1    2    0    0  0.22137507148E+02  0.11651599069E+03  0.20840329226E+03  0.27041260610E+03  0.12500000000E+03 0.  0.
         25    1    1    2    0    0 -0.11443890368E+03 -0.34870066736E+02  0.55680455150E+03  0.58306817166E+03  0.12500000000E+03 0.  0.
         25    1    1    2    0    0  0.92301396530E+02 -0.81645923953E+02  0.11717965714E+04  0.11848703766E+04  0.12500000000E+03 0.  0.
</event>
<event>
 5    0  0.5550393E-005  0.2611276E+03  0.7546771E-02  0.1106468E+00
         21   -1    0    0  502  501  0.00000000000E+00  0.00000000000E+00  0.12706031953E+03  0.12706031953E+03  0.00000000000E+00 0.  1.
         21   -1    0    0  501  502 -0.00000000000E+00 -0.00000000000E+00 -0.53665544370E+03  0.53665544370E+03  0.00000000000E+00 0.  1.
         25    1    1    2    0    0  0.41768295060E+02 -0.16206686234E+03 -0.18653116835E+03  0.28005202214E+03  0.12500000000E+03 0.  0.
         25    1    1    2    0    0  0.19192030458E+02  0.62442552395E+02 -0.97732876132E+02  0.17159289455E+03  0.12500000000E+03 0.  0.
         25    1    1    2    0    0 -0.60960325518E+02  0.99624309945E+02 -0.12533107969E+03  0.21207084655E+03  0.12500000000E+03 0.  0.
</event>
<event>
 5    0  0.5550393E-005  0.5202985E+03  0.7546771E-02  0.1008612E+00
         21   -1    0    0  502  501  0.00000000000E+00  0.00000000000E+00  0.18631963190E+03  0.18631963190E+03  0.00000000000E+00 0. -1.
         21   -1    0    0  501  502 -0.00000000000E+00 -0.00000000000E+00 -0.14529359318E+04  0.14529359318E+04  0.00000000000E+00 0. -1.
         25    1    1    2    0    0  0.58913760218E+02 -0.13759815724E+03 -0.23660005477E+03  0.30660833312E+03  0.12500000000E+03 0.  0.
         25    1    1    2    0    0 -0.19775337413E+03  0.13538899683E+03 -0.11003135065E+04  0.11330275328E+04  0.12500000000E+03 0.  0.
         25    1    1    2    0    0  0.13883961391E+03  0.22091604087E+01  0.70297261400E+02  0.19961969778E+03  0.12500000000E+03 0.  0.
</event>
<event>
 5    0  0.5550393E-005  0.2886493E+03  0.7546771E-02  0.1091056E+00
         21   -1    0    0  502  501  0.00000000000E+00  0.00000000000E+00  0.26625116454E+04  0.26625116454E+04  0.00000000000E+00 0. -1.
         21   -1    0    0  501  502 -0.00000000000E+00 -0.00000000000E+00 -0.31293170706E+02  0.31293170706E+02  0.00000000000E+00 0. -1.
         25    1    1    2    0    0 -0.71466666820E+02 -0.70969650232E+02  0.54676990058E+03  0.56984778661E+03  0.12500000000E+03 0.  0.
         25    1    1    2    0    0  0.15115403803E+03  0.51472801378E+02  0.16899844897E+04  0.17021073903E+04  0.12500000000E+03 0.  0.
         25    1    1    2    0    0 -0.79687371210E+02  0.19496848855E+02  0.39446408436E+03  0.42184963920E+03  0.12500000000E+03 0.  0.
</event>
<event>
 5    0  0.5550393E-005  0.3225715E+03  0.7546771E-02  0.1074472E+00
         21   -1    0    0  502  501  0.00000000000E+00  0.00000000000E+00  0.23492731781E+03  0.23492731781E+03  0.00000000000E+00 0.  1.
         21   -1    0    0  501  502 -0.00000000000E+00 -0.00000000000E+00 -0.44291303871E+03  0.44291303871E+03  0.00000000000E+00 0.  1.
         25    1    1    2    0    0  0.13823476691E+02 -0.11954595428E+03  0.11164572971E+03  0.20633005756E+03  0.12500000000E+03 0.  0.
         25    1    1    2    0    0 -0.79360249653E+02  0.12694972445E+03 -0.24011226946E+03  0.30934314880E+03  0.12500000000E+03 0.  0.
         25    1    1    2    0    0  0.65536772963E+02 -0.74037701713E+01 -0.79519181150E+02  0.16216715017E+03  0.12500000000E+03 0.  0.
</event>
<event>
 5    0  0.5550393E-005  0.5451078E+03  0.7546771E-02  0.1002633E+00
         21   -1    0    0  502  501  0.00000000000E+00  0.00000000000E+00  0.21407803989E+03  0.21407803989E+03  0.00000000000E+00 0. -1.
         21   -1    0    0  501  502 -0.00000000000E+00 -0.00000000000E+00 -0.13880104182E+04  0.13880104182E+04  0.00000000000E+00 0. -1.
         25    1    1    2    0    0 -0.32816954996E+03  0.10306829417E+03 -0.33033638559E+03  0.49301668777E+03  0.12500000000E+03 0.  0.
         25    1    1    2    0    0  0.40440566913E+03 -0.24955792654E+03 -0.45977032368E+03  0.67293153772E+03  0.12500000000E+03 0.  0.
         25    1    1    2    0    0 -0.76236119177E+02  0.14648963237E+03 -0.38382566905E+03  0.43614023259E+03  0.12500000000E+03 0.  0.
</event>
<event>
 5    0  0.6878408E-005  0.4106608E+03  0.7546771E-02  0.1040149E+00
         21   -1    0    0  502  501  0.00000000000E+00  0.00000000000E+00  0.36130191141E+03  0.36130191141E+03  0.00000000000E+00 0.  1.
         21   -1    0    0  501  502 -0.00000000000E+00 -0.00000000000E+00 -0.46676279588E+03  0.46676279588E+03  0.00000000000E+00 0.  1.
         25    1    1    2    0    0 -0.37182503800E+02 -0.22731757744E+03 -0.15109354441E+03  0.30250632847E+03  0.12500000000E+03 0.  0.
         25    1    1    2    0    0 -0.11048436692E+03  0.16827025735E+03 -0.11862380064E+03  0.26498732219E+03  0.12500000000E+03 0.  0.
         25    1    1    2    0    0  0.14766687072E+03  0.59047320089E+02  0.16425646057E+03  0.26057105663E+03  0.12500000000E+03 0.  0.
</event>
<event>
 5    0  0.5664837E-005  0.2582829E+03  0.7546771E-02  0.1108179E+00
         21   -1    0    0  502  501  0.00000000000E+00  0.00000000000E+00  0.29634253443E+03  0.29634253443E+03  0.00000000000E+00 0. -1.
         21   -1    0    0  501  502 -0.00000000000E+00 -0.00000000000E+00 -0.22511122744E+03  0.22511122744E+03  0.00000000000E+00 0. -1.
         25    1    1    2    0    0 -0.53040901591E+02 -0.21437914755E+01  0.47786869200E+02  0.14396707246E+03  0.12500000000E+03 0.  0.
         25    1    1    2    0    0 -0.19619129140E+02 -0.12889172627E+03  0.25086342054E+02  0.18235216447E+03  0.12500000000E+03 0.  0.
         25    1    1    2    0    0  0.72660030730E+02  0.13103551775E+03 -0.16419042616E+01  0.19513452495E+03  0.12500000000E+03 0.  0.
</event>
<event>
 5    0  0.5550393E-005  0.2432706E+03  0.7546771E-02  0.1117633E+00
         21   -1    0    0  502  501  0.00000000000E+00  0.00000000000E+00  0.45498479360E+02  0.45498479360E+02  0.00000000000E+00 0. -1.
         21   -1    0    0  501  502 -0.00000000000E+00 -0.00000000000E+00 -0.13007157989E+04  0.13007157989E+04  0.00000000000E+00 0. -1.
         25    1    1    2    0    0 -0.44420720322E+01  0.12540020106E+02 -0.23931574471E+03  0.27032204826E+03  0.12500000000E+03 0.  0.
         25    1    1    2    0    0  0.18055859010E+02  0.11235836232E+03 -0.60992833139E+03  0.63292020434E+03  0.12500000000E+03 0.  0.
         25    1    1    2    0    0 -0.13613786977E+02 -0.12489838243E+03 -0.40597324340E+03  0.44297202562E+03  0.12500000000E+03 0.  0.
</event>
<event>
 5    0  0.5550393E-005  0.3007237E+03  0.7546771E-02  0.1084879E+00
         21   -1    0    0  502  501  0.00000000000E+00  0.00000000000E+00  0.82346167965E+02  0.82346167965E+02  0.00000000000E+00 0.  1.
         21   -1    0    0  501  502 -0.00000000000E+00 -0.00000000000E+00 -0.10982261745E+04  0.10982261745E+04  0.00000000000E+00 0.  1.
         25    1    1    2    0    0 -0.15194107189E+03  0.32831084145E+02 -0.73975973419E+03  0.76618107112E+03  0.12500000000E+03 0.  0.
         25    1    1    2    0    0  0.12062722067E+03 -0.40998374736E+02 -0.17938767964E+03  0.25305480178E+03  0.12500000000E+03 0.  0.
         25    1    1    2    0    0  0.31313851219E+02  0.81672905912E+01 -0.96732592662E+02  0.16133646952E+03  0.12500000000E+03 0.  0.
</event>
<event>
 5    0  0.5550393E-005  0.7478234E+03  0.7546771E-02  0.9638771E-01
         21   -1    0    0  502  501  0.00000000000E+00  0.00000000000E+00  0.31009738581E+03  0.31009738581E+03  0.00000000000E+00 0.  1.
         21   -1    0    0  501  502 -0.00000000000E+00 -0.00000000000E+00 -0.18034327791E+04  0.18034327791E+04  0.00000000000E+00 0.  1.
         25    1    1    2    0    0  0.68704544385E+03 -0.81521886039E+02 -0.51401606660E+03  0.87092753805E+03  0.12500000000E+03 0.  0.
         25    1    1    2    0    0 -0.56760592931E+03  0.55892362778E+02 -0.81606727516E+03  0.10034397066E+04  0.12500000000E+03 0.  0.
         25    1    1    2    0    0 -0.11943951454E+03  0.25629523262E+02 -0.16325205152E+03  0.23916292024E+03  0.12500000000E+03 0.  0.
</event>
<event>
 5    0  0.5550393E-005  0.3052411E+03  0.7546771E-02  0.1082650E+00
         21   -1    0    0  502  501  0.00000000000E+00  0.00000000000E+00  0.54883682923E+02  0.54883682923E+02  0.00000000000E+00 0.  1.
         21   -1    0    0  501  502 -0.00000000000E+00 -0.00000000000E+00 -0.16976293325E+04  0.16976293325E+04  0.00000000000E+00 0.  1.
         25    1    1    2    0    0  0.61663983684E+01  0.12497850405E+03 -0.32630848214E+03  0.37116017628E+03  0.12500000000E+03 0.  0.
         25    1    1    2    0    0  0.41173477598E+02  0.77250695430E+02 -0.30215026412E+03  0.33850067549E+03  0.12500000000E+03 0.  0.
         25    1    1    2    0    0 -0.47339875967E+02 -0.20222919948E+03 -0.10142869033E+04  0.10428521636E+04  0.12500000000E+03 0.  0.
</event>
<event>
 5    0  0.5550393E-005  0.2260435E+03  0.7546771E-02  0.1129456E+00
         21   -1    0    0  502  501  0.00000000000E+00  0.00000000000E+00  0.57218723745E+02  0.57218723745E+02  0.00000000000E+00 0. -1.
         21   -1    0    0  501  502 -0.00000000000E+00 -0.00000000000E+00 -0.89298835454E+03  0.89298835454E+03  0.00000000000E+00 0. -1.
         25    1    1    2    0    0 -0.85353466294E+02 -0.28240898326E+02 -0.28858258091E+03  0.32708969497E+03  0.12500000000E+03 0.  0.
         25    1    1    2    0    0 -0.20293819840E+02 -0.14500387661E+02 -0.20483522953E+03  0.24125623644E+03  0.12500000000E+03 0.  0.
         25    1    1    2    0    0  0.10564728613E+03  0.42741285987E+02 -0.34235182035E+03  0.38186114688E+03  0.12500000000E+03 0.  0.
</event>
<event>
 5    0  0.5550393E-005  0.2365284E+03  0.7546771E-02  0.1122127E+00
         21   -1    0    0  502  501  0.00000000000E+00  0.00000000000E+00  0.11720439298E+03  0.11720439298E+03  0.00000000000E+00 0. -1.
         21   -1    0    0  501  502 -0.00000000000E+00 -0.00000000000E+00 -0.47733430072E+03  0.47733430072E+03  0.00000000000E+00 0. -1.
         25    1    1    2    0    0 -0.84139984011E+02  0.48159790673E+01 -0.36994382048E+02  0.15522987749E+03  0.12500000000E+03 0.  0.
         25    1    1    2    0    0  0.41408073960E+02 -0.67642884730E+02 -0.19511722928E+03  0.24492023519E+03  0.12500000000E+03 0.  0.
         25    1    1    2    0    0  0.42731910051E+02  0.62826905663E+02 -0.12801829641E+03  0.19438858101E+03  0.12500000000E+03 0.  0.
</event>
<event>
 5    0  0.5550393E-005  0.2822775E+03  0.7546771E-02  0.1094451E+00
         21   -1    0    0  502  501  0.00000000000E+00  0.00000000000E+00  0.15729498119E+04  0.15729498119E+04  0.00000000000E+00 0.  1.
         21   -1    0    0  501  502 -0.00000000000E+00 -0.00000000000E+00 -0.50656794554E+02  0.50656794554E+02  0.00000000000E+00 0.  1.
         25    1    1    2    0    0  0.61806218805E+02 -0.11461652893E+03  0.29377461851E+03  0.34479774342E+03  0.12500000000E+03 0.  0.
         25    1    1    2    0    0 -0.10948060494E+03  0.14195058253E+03  0.75177388565E+03  0.78289523302E+03  0.12500000000E+03 0.  0.
         25    1    1    2    0    0  0.47674386138E+02 -0.27334053599E+02  0.47674451317E+03  0.49591363000E+03  0.12500000000E+03 0.  0.
</event>
<event>
 5    0  0.5550393E-005  0.2725970E+03  0.7546771E-02  0.1099802E+00
         21   -1    0    0  502  501  0.00000000000E+00  0.00000000000E+00  0.57925953355E+03  0.57925953355E+03  0.00000000000E+00 0.  1.
         21   -1    0    0  501  502 -0.00000000000E+00 -0.00000000000E+00 -0.12828291041E+03  0.12828291041E+03  0.00000000000E+00 0.  1.
         25    1    1    2    0    0  0.11403742273E+03  0.86055405797E+00  0.81914871024E+02  0.18799021366E+03  0.12500000000E+03 0.  0.
         25    1    1    2    0    0 -0.75467844377E+02 -0.75184760855E+02  0.32274554822E+03  0.36212957998E+03  0.12500000000E+03 0.  0.
         25    1    1    2    0    0 -0.38569578350E+02  0.74324206797E+02  0.46316203899E+02  0.15742265032E+03  0.12500000000E+03 0.  0.
</event>
<event>
 5    0  0.5550393E-005  0.2734087E+03  0.7546771E-02  0.1099344E+00
         21   -1    0    0  502  501  0.00000000000E+00  0.00000000000E+00  0.14127621696E+04  0.14127621696E+04  0.00000000000E+00 0. -1.
         21   -1    0    0  501  502 -0.00000000000E+00 -0.00000000000E+00 -0.52912160412E+02  0.52912160412E+02  0.00000000000E+00 0. -1.
         25    1    1    2    0    0 -0.44942141045E+02  0.45757122771E+02  0.91261896708E+02  0.16753281504E+03  0.12500000000E+03 0.  0.
         25    1    1    2    0    0 -0.13163755942E+02 -0.63776321852E+01  0.73162000832E+03  0.74236567488E+03  0.12500000000E+03 0.  0.
         25    1    1    2    0    0  0.58105896987E+02 -0.39379490586E+02  0.53696810419E+03  0.55577584012E+03  0.12500000000E+03 0.  0.
</event>
<event>
 5    0  0.5550393E-005  0.9781242E+03  0.7546771E-02  0.9332869E-01
         21   -1    0    0  502  501  0.00000000000E+00  0.00000000000E+00  0.71421296023E+03  0.71421296023E+03  0.00000000000E+00 0.  1.
         21   -1    0    0  501  502 -0.00000000000E+00 -0.00000000000E+00 -0.13395541245E+04  0.13395541245E+04  0.00000000000E+00 0.  1.
         25    1    1    2    0    0 -0.13981826249E+03  0.10705146169E+03  0.25301788375E+03  0.33264427167E+03  0.12500000000E+03 0.  0.
         25    1    1    2    0    0 -0.21031715827E+03 -0.50935877765E+03 -0.10103735027E+04  0.11576524895E+04  0.12500000000E+03 0.  0.
         25    1    1    2    0    0  0.35013542076E+03  0.40230731596E+03  0.13201445466E+03  0.56347032360E+03  0.12500000000E+03 0.  0.
</event>
<event>
 5    0  0.5550393E-005  0.2962324E+03  0.7546771E-02  0.1087139E+00
         21   -1    0    0  502  501  0.00000000000E+00  0.00000000000E+00  0.33469127611E+03  0.33469127611E+03  0.00000000000E+00 0.  1.
         21   -1    0    0  501  502 -0.00000000000E+00 -0.00000000000E+00 -0.26219279310E+03  0.26219279310E+03  0.00000000000E+00 0.  1.
         25    1    1    2    0    0  0.60629471273E+01 -0.23867435480E+02  0.30517593023E+02  0.13100663070E+03  0.12500000000E+03 0.  0.
         25    1    1    2    0    0  0.12291118001E+03  0.15972635383E+03  0.20980255310E+01  0.23716885965E+03  0.12500000000E+03 0.  0.
         25    1    1    2    0    0 -0.12897412713E+03 -0.13585891835E+03  0.39882864459E+02  0.22870857885E+03  0.12500000000E+03 0.  0.
</event>
<event>
 5    0  0.5550393E-005  0.2913135E+03  0.7546771E-02  0.1089665E+00
         21   -1    0    0  502  501  0.00000000000E+00  0.00000000000E+00  0.32346261338E+03  0.32346261338E+03  0.00000000000E+00 0. -1.
         21   -1    0    0  501  502 -0.00000000000E+00 -0.00000000000E+00 -0.26235969274E+03  0.26235969274E+03  0.00000000000E+00 0. -1.
         25    1    1    2    0    0 -0.10413007110E+02 -0.96601393827E+02 -0.14489188669E+03  0.21461341718E+03  0.12500000000E+03 0.  0.
         25    1    1    2    0    0  0.43808952315E+02  0.11601506645E+03  0.13831151710E+03  0.22390577418E+03  0.12500000000E+03 0.  0.
         25    1    1    2    0    0 -0.33395945205E+02 -0.19413672624E+02  0.67683290229E+02  0.14730311476E+03  0.12500000000E+03 0.  0.
</event>
<event>
 5    0  0.5550393E-005  0.2249710E+03  0.7546771E-02  0.1130230E+00
         21   -1    0    0  502  501  0.00000000000E+00  0.00000000000E+00  0.98622211039E+03  0.98622211039E+03  0.00000000000E+00 0. -1.
         21   -1    0    0  501  502 -0.00000000000E+00 -0.00000000000E+00 -0.51319036820E+02  0.51319036820E+02  0.00000000000E+00 0. -1.
         25    1    1    2    0    0 -0.27009457014E+02 -0.59956833669E+02  0.24857897818E+03  0.28590355203E+03  0.12500000000E+03 0.  0.
         25    1    1    2    0    0 -0.54473248619E+02  0.74734466699E+02  0.31861998254E+03  0.35453669571E+03  0.12500000000E+03 0.  0.
         25    1    1    2    0    0  0.81482705633E+02 -0.14777633030E+02  0.36770411285E+03  0.39710089947E+03  0.12500000000E+03 0.  0.
</event>
<event>
 5    0  0.5550393E-005  0.2734237E+03  0.7546771E-02  0.1099336E+00
         21   -1    0    0  502  501  0.00000000000E+00  0.00000000000E+00  0.60087459965E+03  0.60087459965E+03  0.00000000000E+00 0. -1.
         21   -1    0    0  501  502 -0.00000000000E+00 -0.00000000000E+00 -0.12441948180E+03  0.12441948180E+03  0.00000000000E+00 0. -1.
         25    1    1    2    0    0  0.34273585534E+02  0.12426201832E+03  0.22172053164E+03  0.28530811768E+03  0.12500000000E+03 0.  0.
         25    1    1    2    0    0 -0.46373301528E+02 -0.17668764043E+03  0.17578116633E+03  0.28265354024E+03  0.12500000000E+03 0.  0.
         25    1    1    2    0    0  0.12099715993E+02  0.52425622108E+02  0.78953419884E+02  0.15733242352E+03  0.12500000000E+03 0.  0.
</event>
<event>
 5    0  0.5550393E-005  0.2856327E+03  0.7546771E-02  0.1092652E+00
         21   -1    0    0  502  501  0.00000000000E+00  0.00000000000E+00  0.64186602443E+02  0.64186602443E+02  0.00000000000E+00 0. -1.
         21   -1    0    0  501  502 -0.00000000000E+00 -0.00000000000E+00 -0.12710762746E+04  0.12710762746E+04  0.00000000000E+00 0. -1.
         25    1    1    2    0    0  0.26930336240E+02  0.16468099241E+03 -0.27670904634E+03  0.34646496013E+03  0.12500000000E+03 0.  0.
         25    1    1    2    0    0 -0.35285747659E+02 -0.15987781340E+03 -0.64970745229E+03  0.68157961587E+03  0.12500000000E+03 0.  0.
         25    1    1    2    0    0  0.83554114183E+01 -0.48031790069E+01 -0.28047317348E+03  0.30721830101E+03  0.12500000000E+03 0.  0.
</event>
<event>
 5    0  0.5550393E-005  0.3631156E+03  0.7546771E-02  0.1057357E+00
         21   -1    0    0  502  501  0.00000000000E+00  0.00000000000E+00  0.53082610268E+03  0.53082610268E+03  0.00000000000E+00 0.  1.
         21   -1    0    0  501  502 -0.00000000000E+00 -0.00000000000E+00 -0.24839192164E+03  0.24839192164E+03  0.00000000000E+00 0.  1.
         25    1    1    2    0    0 -0.20168043484E+03  0.52080261743E+02 -0.51758659645E+02  0.24837735466E+03  0.12500000000E+03 0.  0.
         25    1    1    2    0    0  0.83396382228E+02  0.72857838592E+02  0.25312467353E+03  0.30324960274E+03  0.12500000000E+03 0.  0.
         25    1    1    2    0    0  0.11828405261E+03 -0.12493810033E+03  0.81068167153E+02  0.22759106692E+03  0.12500000000E+03 0.  0.
</event>
<event>
 5    0  0.5550393E-005  0.2365173E+03  0.7546771E-02  0.1122135E+00
         21   -1    0    0  502  501  0.00000000000E+00  0.00000000000E+00  0.11123879051E+03  0.11123879051E+03  0.00000000000E+00 0. -1.
         21   -1    0    0  501  502 -0.00000000000E+00 -0.00000000000E+00 -0.50288586817E+03  0.50288586817E+03  0.00000000000E+00 0. -1.
         25    1    1    2    0    0  0.79978767660E+02 -0.50743653808E+02 -0.63059239026E+02  0.16903546759E+03  0.12500000000E+03 0.  0.
         25    1    1    2    0    0 -0.28041288620E+02 -0.92459159977E+01 -0.67882471931E+02  0.14527501790E+03  0.12500000000E+03 0.  0.
         25    1    1    2    0    0 -0.51937479040E+02  0.59989569806E+02 -0.26070536670E+03  0.29981417318E+03  0.12500000000E+03 0.  0.
</event>
<event>
 5    0  0.5550393E-005  0.2756156E+03  0.7546771E-02  0.1098108E+00
         21   -1    0    0  502  501  0.00000000000E+00  0.00000000000E+00  0.16092645128E+03  0.16092645128E+03  0.00000000000E+00 0.  1.
         21   -1    0    0  501  502 -0.00000000000E+00 -0.00000000000E+00 -0.47204149156E+03  0.47204149156E+03  0.00000000000E+00 0.  1.
         25    1    1    2    0    0 -0.11042135041E+03  0.12452601077E+03 -0.94820762665E+02  0.22872599113E+03  0.12500000000E+03 0.  0.
         25    1    1    2    0    0  0.13513131344E+03 -0.96316466675E+02 -0.10528391870E+03  0.23290993358E+03  0.12500000000E+03 0.  0.
         25    1    1    2    0    0 -0.24709963028E+02 -0.28209544096E+02 -0.11101035891E+03  0.17133201813E+03  0.12500000000E+03 0.  0.
</event>
<event>
 5    0  0.5550393E-005  0.4031411E+03  0.7546771E-02  0.1042697E+00
         21   -1    0    0  502  501  0.00000000000E+00  0.00000000000E+00  0.76181678592E+03  0.76181678592E+03  0.00000000000E+00 0.  1.
         21   -1    0    0  501  502 -0.00000000000E+00 -0.00000000000E+00 -0.21333570370E+03  0.21333570370E+03  0.00000000000E+00 0.  1.
         25    1    1    2    0    0 -0.19183229331E+03  0.12591790978E+03  0.24900182580E+03  0.36094578265E+03  0.12500000000E+03 0.  0.
         25    1    1    2    0    0  0.19519835802E+03 -0.18081418106E+03  0.10015346631E+02  0.29414532839E+03  0.12500000000E+03 0.  0.
         25    1    1    2    0    0 -0.33660647100E+01  0.54896271274E+02  0.28946390978E+03  0.32006137858E+03  0.12500000000E+03 0.  0.
</event>
<event>
 5    0  0.5550393E-005  0.3231235E+03  0.7546771E-02  0.1074221E+00
         21   -1    0    0  502  501  0.00000000000E+00  0.00000000000E+00  0.39163675545E+03  0.39163675545E+03  0.00000000000E+00 0. -1.
         21   -1    0    0  501  502 -0.00000000000E+00 -0.00000000000E+00 -0.26659601120E+03  0.26659601120E+03  0.00000000000E+00 0. -1.
         25    1    1    2    0    0 -0.42165531964E+01  0.22967583395E+03  0.11422038977E+03  0.28537705840E+03  0.12500000000E+03 0.  0.
         25    1    1    2    0    0 -0.18246719778E+02 -0.19407910419E+03 -0.32914033679E+02  0.23389736014E+03  0.12500000000E+03 0.  0.
         25    1    1    2    0    0  0.22463272974E+02 -0.35596729757E+02  0.43734388151E+02  0.13895834811E+03  0.12500000000E+03 0.  0.
</event>
<event>
 5    0  0.5550393E-005  0.2258185E+03  0.7546771E-02  0.1129618E+00
         21   -1    0    0  502  501  0.00000000000E+00  0.00000000000E+00  0.26189222988E+02  0.26189222988E+02  0.00000000000E+00 0. -1.
         21   -1    0    0  501  502 -0.00000000000E+00 -0.00000000000E+00 -0.19471367511E+04  0.19471367511E+04  0.00000000000E+00 0. -1.
         25    1    1    2    0    0  0.36235580126E+02  0.39503748731E+02 -0.37486410255E+03  0.39877519834E+03  0.12500000000E+03 0.  0.
         25    1    1    2    0    0 -0.77495262614E+01 -0.74538993955E+01 -0.11539130162E+04  0.11607135154E+04  0.12500000000E+03 0.  0.
         25    1    1    2    0    0 -0.28486053864E+02 -0.32049849336E+02 -0.39217040929E+03  0.41383726032E+03  0.12500000000E+03 0.  0.
</event>
<event>
 5    0  0.6286664E-005  0.2669190E+03  0.7546771E-02  0.1103056E+00
         21   -1    0    0  502  501  0.00000000000E+00  0.00000000000E+00  0.46314262585E+02  0.46314262585E+02  0.00000000000E+00 0. -1.
         21   -1    0    0  501  502 -0.00000000000E+00 -0.00000000000E+00 -0.15383110910E+04  0.15383110910E+04  0.00000000000E+00 0. -1.
         25    1    1    2    0    0  0.73884830752E+02  0.14950177499E+03 -0.70966969716E+03  0.73963898491E+03  0.12500000000E+03 0.  0.
         25    1    1    2    0    0 -0.12462292162E+02 -0.91880583739E+02 -0.27779839225E+03  0.31842471187E+03  0.12500000000E+03 0.  0.
         25    1    1    2    0    0 -0.61422538590E+02 -0.57621191247E+02 -0.50452873901E+03  0.52656165680E+03  0.12500000000E+03 0.  0.
</event>
<event>
 5    0  0.5550393E-005  0.4439289E+03  0.7546771E-02  0.1029548E+00
         21   -1    0    0  502  501  0.00000000000E+00  0.00000000000E+00  0.17548541962E+04  0.17548541962E+04  0.00000000000E+00 0.  1.
         21   -1    0    0  501  502 -0.00000000000E+00 -0.00000000000E+00 -0.11230153749E+03  0.11230153749E+03  0.00000000000E+00 0.  1.
         25    1    1    2    0    0 -0.58854871318E+02  0.24593659535E+03  0.37247969117E+03  0.46724172025E+03  0.12500000000E+03 0.  0.
         25    1    1    2    0    0  0.48117581391E+02  0.13343461425E+03  0.42270896126E+03  0.46306367148E+03  0.12500000000E+03 0.  0.
         25    1    1    2    0    0  0.10737289927E+02 -0.37937120961E+03  0.84736400626E+03  0.93685034193E+03  0.12500000000E+03 0.  0.
</event>
<event>
 5    0  0.5550393E-005  0.3546752E+03  0.7546771E-02  0.1060712E+00
         21   -1    0    0  502  501  0.00000000000E+00  0.00000000000E+00  0.10227802978E+04  0.10227802978E+04  0.00000000000E+00 0.  1.
         21   -1    0    0  501  502 -0.00000000000E+00 -0.00000000000E+00 -0.12299271582E+03  0.12299271582E+03  0.00000000000E+00 0.  1.
         25    1    1    2    0    0 -0.14951567221E+03  0.12421976229E+03  0.53023511039E+03  0.57841140884E+03  0.12500000000E+03 0.  0.
         25    1    1    2    0    0  0.41763845612E+02 -0.18921643504E+03  0.11653049509E+03  0.25836298956E+03  0.12500000000E+03 0.  0.
         25    1    1    2    0    0  0.10775182660E+03  0.64996672754E+02  0.25302197645E+03  0.30899861516E+03  0.12500000000E+03 0.  0.
</event>
<event>
 5    0  0.5550393E-005  0.6034362E+03  0.7546771E-02  0.9898303E-01
         21   -1    0    0  502  501  0.00000000000E+00  0.00000000000E+00  0.10100589009E+04  0.10100589009E+04  0.00000000000E+00 0. -1.
         21   -1    0    0  501  502 -0.00000000000E+00 -0.00000000000E+00 -0.36050889047E+03  0.36050889047E+03  0.00000000000E+00 0. -1.
         25    1    1    2    0    0  0.83789019437E+02  0.37148924112E+03  0.45118968211E+03  0.60350806564E+03  0.12500000000E+03 0.  0.
         25    1    1    2    0    0 -0.29558863806E+03 -0.62885834546E+02  0.17701474731E+03  0.37186891764E+03  0.12500000000E+03 0.  0.
         25    1    1    2    0    0  0.21179961863E+03 -0.30860340658E+03  0.21345581035E+02  0.39519080813E+03  0.12500000000E+03 0.  0.
</event>
<event>
 5    0  0.5550393E-005  0.3039074E+03  0.7546771E-02  0.1083303E+00
         21   -1    0    0  502  501  0.00000000000E+00  0.00000000000E+00  0.18865987800E+03  0.18865987800E+03  0.00000000000E+00 0.  1.
         21   -1    0    0  501  502 -0.00000000000E+00 -0.00000000000E+00 -0.48955678085E+03  0.48955678085E+03  0.00000000000E+00 0.  1.
         25    1    1    2    0    0 -0.40198383409E+02  0.12273747180E+03 -0.36350156428E+02  0.18337592777E+03  0.12500000000E+03 0.  0.
         25    1    1    2    0    0 -0.58761533027E+02 -0.25339945702E+02 -0.27387771520E+03  0.30778082055E+03  0.12500000000E+03 0.  0.
         25    1    1    2    0    0  0.98959916436E+02 -0.97397526097E+02  0.93309687855E+01  0.18705991054E+03  0.12500000000E+03 0.  0.
</event>
<event>
 5    0  0.6591342E-005  0.4375532E+03  0.7546771E-02  0.1031500E+00
         21   -1    0    0  502  501  0.00000000000E+00  0.00000000000E+00  0.80528343131E+03  0.80528343131E+03  0.00000000000E+00 0.  1.
         21   -1    0    0  501  502 -0.00000000000E+00 -0.00000000000E+00 -0.23774583786E+03  0.23774583786E+03  0.00000000000E+00 0.  1.
         25    1    1    2    0    0  0.24310740935E+03  0.16646260640E+03  0.19887722580E+03  0.37681316690E+03  0.12500000000E+03 0.  0.
         25    1    1    2    0    0 -0.60836417425E+02 -0.38225435179E+02 -0.68679345188E+02  0.15970005020E+03  0.12500000000E+03 0.  0.
         25    1    1    2    0    0 -0.18227099192E+03 -0.12823717122E+03  0.43733971284E+03  0.50651605207E+03  0.12500000000E+03 0.  0.
</event>
<event>
 5    0  0.6940856E-005  0.4575226E+03  0.7546771E-02  0.1025502E+00
         21   -1    0    0  502  501  0.00000000000E+00  0.00000000000E+00  0.40613047272E+03  0.40613047272E+03  0.00000000000E+00 0. -1.
         21   -1    0    0  501  502 -0.00000000000E+00 -0.00000000000E+00 -0.51541798410E+03  0.51541798410E+03  0.00000000000E+00 0. -1.
         25    1    1    2    0    0 -0.29715236126E+03 -0.39952806764E+00  0.20953678142E+02  0.32305377579E+03  0.12500000000E+03 0.  0.
         25    1    1    2    0    0  0.17917538717E+03  0.15858976362E+03  0.82763505894E+02  0.28236382630E+03  0.12500000000E+03 0.  0.
         25    1    1    2    0    0  0.11797697409E+03 -0.15819023555E+03 -0.21300469542E+03  0.31613085472E+03  0.12500000000E+03 0.  0.
</event>
<event>
 5    0  0.5550393E-005  0.6199197E+03  0.7546771E-02  0.9864920E-01
         21   -1    0    0  502  501  0.00000000000E+00  0.00000000000E+00  0.13480663097E+04  0.13480663097E+04  0.00000000000E+00 0. -1.
         21   -1    0    0  501  502 -0.00000000000E+00 -0.00000000000E+00 -0.28507527520E+03  0.28507527520E+03  0.00000000000E+00 0. -1.
         25    1    1    2    0    0 -0.33334495320E+03  0.28682105514E+02  0.38462444453E+03  0.52488330544E+03  0.12500000000E+03 0.  0.
         25    1    1    2    0    0 -0.11723951409E+03  0.51419486057E+02 -0.93781991265E+02  0.20201269539E+03  0.12500000000E+03 0.  0.
         25    1    1    2    0    0  0.45058446730E+03 -0.80101591571E+02  0.77214858121E+03  0.90624558405E+03  0.12500000000E+03 0.  0.
</event>
<event>
 5    0  0.5727096E-005  0.3392136E+03  0.7546771E-02  0.1067131E+00
         21   -1    0    0  502  501  0.00000000000E+00  0.00000000000E+00  0.81268270815E+03  0.81268270815E+03  0.00000000000E+00 0. -1.
         21   -1    0    0  501  502 -0.00000000000E+00 -0.00000000000E+00 -0.14158767086E+03  0.14158767086E+03  0.00000000000E+00 0. -1.
         25    1    1    2    0    0  0.11903192714E+03  0.74314485299E+02  0.20071736655E+03  0.27496127662E+03  0.12500000000E+03 0.  0.
         25    1    1    2    0    0  0.14962826107E+01 -0.16674815285E+03  0.48720033677E+02  0.21402295910E+03  0.12500000000E+03 0.  0.
         25    1    1    2    0    0 -0.12052820975E+03  0.92433667550E+02  0.42165763707E+03  0.46528614329E+03  0.12500000000E+03 0.  0.
</event>
<event>
 5    0  0.5550393E-005  0.3285707E+03  0.7546771E-02  0.1071771E+00
         21   -1    0    0  502  501  0.00000000000E+00  0.00000000000E+00  0.65113172484E+03  0.65113172484E+03  0.00000000000E+00 0. -1.
         21   -1    0    0  501  502 -0.00000000000E+00 -0.00000000000E+00 -0.16580166551E+03  0.16580166551E+03  0.00000000000E+00 0. -1.
         25    1    1    2    0    0  0.67506007899E+02 -0.26104834736E+02  0.81968157556E+02  0.16607920506E+03  0.12500000000E+03 0.  0.
         25    1    1    2    0    0 -0.10292111191E+03  0.18439992173E+03  0.62544084817E+02  0.25324464250E+03  0.12500000000E+03 0.  0.
         25    1    1    2    0    0  0.35415104012E+02 -0.15829508699E+03  0.34081781696E+03  0.39760954279E+03  0.12500000000E+03 0.  0.
</event>
<event>
 5    0  0.5550393E-005  0.3450043E+03  0.7546771E-02  0.1064684E+00
         21   -1    0    0  502  501  0.00000000000E+00  0.00000000000E+00  0.13409647535E+04  0.13409647535E+04  0.00000000000E+00 0. -1.
         21   -1    0    0  501  502 -0.00000000000E+00 -0.00000000000E+00 -0.88762957115E+02  0.88762957115E+02  0.00000000000E+00 0. -1.
         25    1    1    2    0    0  0.43083308232E+02  0.82796308791E+02  0.10705389202E+03  0.18920078222E+03  0.12500000000E+03 0.  0.
         25    1    1    2    0    0  0.52131812900E+02  0.30339413902E+02  0.96861111458E+03  0.97850431642E+03  0.12500000000E+03 0.  0.
         25    1    1    2    0    0 -0.95215121132E+02 -0.11313572269E+03  0.17653678979E+03  0.26202261199E+03  0.12500000000E+03 0.  0.
</event>
<event>
 5    0  0.5550393E-005  0.2675078E+03  0.7546771E-02  0.1102714E+00
         21   -1    0    0  502  501  0.00000000000E+00  0.00000000000E+00  0.71241824427E+02  0.71241824427E+02  0.00000000000E+00 0. -1.
         21   -1    0    0  501  502 -0.00000000000E+00 -0.00000000000E+00 -0.10044722640E+04  0.10044722640E+04  0.00000000000E+00 0. -1.
         25    1    1    2    0    0  0.66921432243E+02  0.10091202577E+03 -0.24399533047E+03  0.29970057780E+03  0.12500000000E+03 0.  0.
         25    1    1    2    0    0 -0.48932053775E+02  0.59550785902E+02 -0.22285568307E+03  0.26689004752E+03  0.12500000000E+03 0.  0.
         25    1    1    2    0    0 -0.17989378468E+02 -0.16046281168E+03 -0.46637942605E+03  0.50912346313E+03  0.12500000000E+03 0.  0.
</event>
<event>
 5    0  0.5550393E-005  0.2661083E+03  0.7546771E-02  0.1103528E+00
         21   -1    0    0  502  501  0.00000000000E+00  0.00000000000E+00  0.82490673662E+02  0.82490673662E+02  0.00000000000E+00 0.  1.
         21   -1    0    0  501  502 -0.00000000000E+00 -0.00000000000E+00 -0.85844398099E+03  0.85844398099E+03  0.00000000000E+00 0.  1.
         25    1    1    2    0    0 -0.84463135307E+02  0.12703013432E+03 -0.19527312366E+03  0.27753786962E+03  0.12500000000E+03 0.  0.
         25    1    1    2    0    0 -0.20094765005E+02 -0.68143163716E+02 -0.31419693306E+03  0.34553147916E+03  0.12500000000E+03 0.  0.
         25    1    1    2    0    0  0.10455790031E+03 -0.58886970602E+02 -0.26648325061E+03  0.31786530588E+03  0.12500000000E+03 0.  0.
</event>
<event>
 5    0  0.5550393E-005  0.2830685E+03  0.7546771E-02  0.1094025E+00
         21   -1    0    0  502  501  0.00000000000E+00  0.00000000000E+00  0.11309818611E+03  0.11309818611E+03  0.00000000000E+00 0. -1.
         21   -1    0    0  501  502 -0.00000000000E+00 -0.00000000000E+00 -0.70847976453E+03  0.70847976453E+03  0.00000000000E+00 0. -1.
         25    1    1    2    0    0 -0.10367498361E+03  0.97695574432E+01 -0.24037482836E+03  0.29025679077E+03  0.12500000000E+03 0.  0.
         25    1    1    2    0    0  0.12537620404E+03 -0.68398360602E+02 -0.50695164248E+02  0.19644981026E+03  0.12500000000E+03 0.  0.
         25    1    1    2    0    0 -0.21701220431E+02  0.58628803159E+02 -0.30431158581E+03  0.33487134961E+03  0.12500000000E+03 0.  0.
</event>
<event>
 5    0  0.5550393E-005  0.3815591E+03  0.7546771E-02  0.1050359E+00
         21   -1    0    0  502  501  0.00000000000E+00  0.00000000000E+00  0.87944827565E+03  0.87944827565E+03  0.00000000000E+00 0. -1.
         21   -1    0    0  501  502 -0.00000000000E+00 -0.00000000000E+00 -0.16554396588E+03  0.16554396588E+03  0.00000000000E+00 0. -1.
         25    1    1    2    0    0 -0.13120637476E+03  0.47927686154E+02  0.24163037534E+03  0.30581434591E+03  0.12500000000E+03 0.  0.
         25    1    1    2    0    0  0.10012317506E+03 -0.10550891112E+03  0.54690971007E+03  0.57956191341E+03  0.12500000000E+03 0.  0.
         25    1    1    2    0    0  0.31083199693E+02  0.57581224962E+02 -0.74635775636E+02  0.15961598221E+03  0.12500000000E+03 0.  0.
</event>
<event>
 5    0  0.7242164E-005  0.2781518E+03  0.7546771E-02  0.1096703E+00
         21   -1    0    0  502  501  0.00000000000E+00  0.00000000000E+00  0.24057326074E+03  0.24057326074E+03  0.00000000000E+00 0.  1.
         21   -1    0    0  501  502 -0.00000000000E+00 -0.00000000000E+00 -0.32160021155E+03  0.32160021155E+03  0.00000000000E+00 0.  1.
         25    1    1    2    0    0 -0.27977913946E+01  0.95000021637E+02 -0.99526142856E+02  0.18591203527E+03  0.12500000000E+03 0.  0.
         25    1    1    2    0    0 -0.66557845742E+02 -0.10557271326E+03  0.10822297617E+03  0.20715394562E+03  0.12500000000E+03 0.  0.
         25    1    1    2    0    0  0.69355637137E+02  0.10572691619E+02 -0.89723784123E+02  0.16910749140E+03  0.12500000000E+03 0.  0.
</event>
<event>
 5    0  0.5550393E-005  0.2256128E+03  0.7546771E-02  0.1129766E+00
         21   -1    0    0  502  501  0.00000000000E+00  0.00000000000E+00  0.25759925685E+03  0.25759925685E+03  0.00000000000E+00 0. -1.
         21   -1    0    0  501  502 -0.00000000000E+00 -0.00000000000E+00 -0.19759809417E+03  0.19759809417E+03  0.00000000000E+00 0. -1.
         25    1    1    2    0    0 -0.20307156012E+02  0.41284865959E+02  0.10625043306E+03  0.17038478591E+03  0.12500000000E+03 0.  0.
         25    1    1    2    0    0  0.38252839549E+01  0.31253284525E+02 -0.52579067559E+02  0.13921551256E+03  0.12500000000E+03 0.  0.
         25    1    1    2    0    0  0.16481872057E+02 -0.72538150484E+02  0.63297971778E+01  0.14559705256E+03  0.12500000000E+03 0.  0.
</event>
<event>
 5    0  0.5550393E-005  0.4488924E+03  0.7546771E-02  0.1028053E+00
         21   -1    0    0  502  501  0.00000000000E+00  0.00000000000E+00  0.71306255503E+03  0.71306255503E+03  0.00000000000E+00 0.  1.
         21   -1    0    0  501  502 -0.00000000000E+00 -0.00000000000E+00 -0.28259003090E+03  0.28259003090E+03  0.00000000000E+00 0.  1.
         25    1    1    2    0    0  0.12843970525E+03 -0.21752738833E+03  0.12029924250E+03  0.30645037168E+03  0.12500000000E+03 0.  0.
         25    1    1    2    0    0 -0.36253827060E+02  0.23438718098E+03  0.41997100112E+03  0.49824926730E+03  0.12500000000E+03 0.  0.
         25    1    1    2    0    0 -0.92185878186E+02 -0.16859792642E+02 -0.10979771949E+03  0.19095294695E+03  0.12500000000E+03 0.  0.
</event>
<event>
 5    0  0.5550393E-005  0.2290908E+03  0.7546771E-02  0.1127281E+00
         21   -1    0    0  502  501  0.00000000000E+00  0.00000000000E+00  0.77920074257E+02  0.77920074257E+02  0.00000000000E+00 0.  1.
         21   -1    0    0  501  502 -0.00000000000E+00 -0.00000000000E+00 -0.67354366735E+03  0.67354366735E+03  0.00000000000E+00 0.  1.
         25    1    1    2    0    0  0.53339975724E+02  0.77442833624E+02 -0.17378102653E+03  0.23381058717E+03  0.12500000000E+03 0.  0.
         25    1    1    2    0    0  0.37099667214E+02 -0.34781010713E+02 -0.14666863080E+03  0.19930577331E+03  0.12500000000E+03 0.  0.
         25    1    1    2    0    0 -0.90439642938E+02 -0.42661822912E+02 -0.27517393577E+03  0.31834738113E+03  0.12500000000E+03 0.  0.
</event>
<event>
 5    0  0.5822485E-005  0.3997012E+03  0.7546771E-02  0.1043883E+00
         21   -1    0    0  502  501  0.00000000000E+00  0.00000000000E+00  0.28893028718E+03  0.28893028718E+03  0.00000000000E+00 0. -1.
         21   -1    0    0  501  502 -0.00000000000E+00 -0.00000000000E+00 -0.55293990858E+03  0.55293990858E+03  0.00000000000E+00 0. -1.
         25    1    1    2    0    0 -0.17084495108E+03 -0.11282193347E+03 -0.24913643846E+03  0.34584787255E+03  0.12500000000E+03 0.  0.
         25    1    1    2    0    0  0.24008618545E+03 -0.15157264652E+02  0.79110132161E+02  0.28240844911E+03  0.12500000000E+03 0.  0.
         25    1    1    2    0    0 -0.69241234369E+02  0.12797919812E+03 -0.93983315110E+02  0.21361387410E+03  0.12500000000E+03 0.  0.
</event>
<event>
 5    0  0.5550393E-005  0.3888338E+03  0.7546771E-02  0.1047716E+00
         21   -1    0    0  502  501  0.00000000000E+00  0.00000000000E+00  0.79795184605E+02  0.79795184605E+02  0.00000000000E+00 0.  1.
         21   -1    0    0  501  502 -0.00000000000E+00 -0.00000000000E+00 -0.18947472045E+04  0.18947472045E+04  0.00000000000E+00 0.  1.
         25    1    1    2    0    0  0.56700230675E+02 -0.79594743341E+01 -0.62289508192E+03  0.63788835424E+03  0.12500000000E+03 0.  0.
         25    1    1    2    0    0 -0.18991056678E+03 -0.21250310804E+03 -0.72280018542E+03  0.78694898332E+03  0.12500000000E+03 0.  0.
         25    1    1    2    0    0  0.13321033611E+03  0.22046258238E+03 -0.46925675253E+03  0.54970505152E+03  0.12500000000E+03 0.  0.
</event>
<event>
 5    0  0.6182089E-005  0.2884873E+03  0.7546771E-02  0.1091142E+00
         21   -1    0    0  502  501  0.00000000000E+00  0.00000000000E+00  0.94195805215E+03  0.94195805215E+03  0.00000000000E+00 0.  1.
         21   -1    0    0  501  502 -0.00000000000E+00 -0.00000000000E+00 -0.88353097985E+02  0.88353097985E+02  0.00000000000E+00 0.  1.
         25    1    1    2    0    0 -0.13019246603E+02  0.13236323967E+02  0.11375433420E+02  0.12688223493E+03  0.12500000000E+03 0.  0.
         25    1    1    2    0    0 -0.76676861799E+02 -0.69323174954E+02  0.45249749137E+03  0.48069119341E+03  0.12500000000E+03 0.  0.
         25    1    1    2    0    0  0.89696108402E+02  0.56086850987E+02  0.38973202937E+03  0.42273772180E+03  0.12500000000E+03 0.  0.
</event>
<event>
 5    0  0.5550393E-005  0.2610866E+03  0.7546771E-02  0.1106492E+00
         21   -1    0    0  502  501  0.00000000000E+00  0.00000000000E+00  0.49828683787E+02  0.49828683787E+02  0.00000000000E+00 0.  1.
         21   -1    0    0  501  502 -0.00000000000E+00 -0.00000000000E+00 -0.13680111533E+04  0.13680111533E+04  0.00000000000E+00 0.  1.
         25    1    1    2    0    0 -0.42350473917E+02 -0.14272466718E+03 -0.48609088849E+03  0.52352005228E+03  0.12500000000E+03 0.  0.
         25    1    1    2    0    0  0.37504686435E+02  0.78025265106E+02 -0.22815257947E+03  0.27417721098E+03  0.12500000000E+03 0.  0.
         25    1    1    2    0    0  0.48457874819E+01  0.64699402079E+02 -0.60393900156E+03  0.62014257384E+03  0.12500000000E+03 0.  0.
</event>
<event>
 5    0  0.5550393E-005  0.3718493E+03  0.7546771E-02  0.1053988E+00
         21   -1    0    0  502  501  0.00000000000E+00  0.00000000000E+00  0.57159608666E+03  0.57159608666E+03  0.00000000000E+00 0. -1.
         21   -1    0    0  501  502 -0.00000000000E+00 -0.00000000000E+00 -0.24190494888E+03  0.24190494888E+03  0.00000000000E+00 0. -1.
         25    1    1    2    0    0  0.13609468174E+03  0.43093056739E+02  0.38236354143E+02  0.19356082433E+03  0.12500000000E+03 0.  0.
         25    1    1    2    0    0  0.39941181158E+02 -0.87661198074E+02 -0.88299017665E+02  0.18083556100E+03  0.12500000000E+03 0.  0.
         25    1    1    2    0    0 -0.17603586289E+03  0.44568141335E+02  0.37975380130E+03  0.43910465022E+03  0.12500000000E+03 0.  0.
</event>
<event>
 5    0  0.5550393E-005  0.3074556E+03  0.7546771E-02  0.1081572E+00
         21   -1    0    0  502  501  0.00000000000E+00  0.00000000000E+00  0.10084059419E+04  0.10084059419E+04  0.00000000000E+00 0.  1.
         21   -1    0    0  501  502 -0.00000000000E+00 -0.00000000000E+00 -0.93740946440E+02  0.93740946440E+02  0.00000000000E+00 0.  1.
         25    1    1    2    0    0 -0.10776099174E+03  0.68845734808E+02  0.30626766421E+03  0.35465060085E+03  0.12500000000E+03 0.  0.
         25    1    1    2    0    0  0.13140181616E+03  0.10706678152E+03  0.36456428506E+03  0.42102476285E+03  0.12500000000E+03 0.  0.
         25    1    1    2    0    0 -0.23640824414E+02 -0.17591251633E+03  0.24383304616E+03  0.32647152460E+03  0.12500000000E+03 0.  0.
</event>
<event>
 5    0  0.5550393E-005  0.2070663E+03  0.7546771E-02  0.1143910E+00
         21   -1    0    0  502  501  0.00000000000E+00  0.00000000000E+00  0.23771127521E+03  0.23771127521E+03  0.00000000000E+00 0.  1.
         21   -1    0    0  501  502 -0.00000000000E+00 -0.00000000000E+00 -0.18037194062E+03  0.18037194062E+03  0.00000000000E+00 0.  1.
         25    1    1    2    0    0  0.10440172331E+02  0.63371087647E+02  0.32482705920E+02  0.14423944721E+03  0.12500000000E+03 0.  0.
         25    1    1    2    0    0 -0.29797445846E+02 -0.37758827946E+02 -0.23583393475E+02  0.13599556358E+03  0.12500000000E+03 0.  0.
         25    1    1    2    0    0  0.19357273515E+02 -0.25612259701E+02  0.48440022143E+02  0.13784820503E+03  0.12500000000E+03 0.  0.
</event>
<event>
 5    0  0.5550393E-005  0.6373046E+03  0.7546771E-02  0.9830897E-01
         21   -1    0    0  502  501  0.00000000000E+00  0.00000000000E+00  0.36711115846E+03  0.36711115846E+03  0.00000000000E+00 0.  1.
         21   -1    0    0  501  502 -0.00000000000E+00 -0.00000000000E+00 -0.11063602151E+04  0.11063602151E+04  0.00000000000E+00 0.  1.
         25    1    1    2    0    0 -0.11067551556E+03 -0.27119234642E+03  0.17980801857E+03  0.36571885656E+03  0.12500000000E+03 0.  0.
         25    1    1    2    0    0  0.68391785061E+02  0.40216780332E+03 -0.56678281778E+03  0.70942521863E+03  0.12500000000E+03 0.  0.
         25    1    1    2    0    0  0.42283730500E+02 -0.13097545690E+03 -0.35227425740E+03  0.39832729834E+03  0.12500000000E+03 0.  0.
</event>
<event>
 5    0  0.5674767E-005  0.2745038E+03  0.7546771E-02  0.1098729E+00
         21   -1    0    0  502  501  0.00000000000E+00  0.00000000000E+00  0.76523052196E+03  0.76523052196E+03  0.00000000000E+00 0.  1.
         21   -1    0    0  501  502 -0.00000000000E+00 -0.00000000000E+00 -0.98470140344E+02  0.98470140344E+02  0.00000000000E+00 0.  1.
         25    1    1    2    0    0 -0.13107988091E+03 -0.49016821404E+01  0.76898877169E+02  0.19683596972E+03  0.12500000000E+03 0.  0.
         25    1    1    2    0    0  0.94148450807E+02  0.62416310971E+02  0.32944454435E+03  0.37002491061E+03  0.12500000000E+03 0.  0.
         25    1    1    2    0    0  0.36931430101E+02 -0.57514628831E+02  0.26041696009E+03  0.29683978197E+03  0.12500000000E+03 0.  0.
</event>
<event>
 5    0  0.5579783E-005  0.3029449E+03  0.7546771E-02  0.1083778E+00
         21   -1    0    0  502  501  0.00000000000E+00  0.00000000000E+00  0.48620683229E+03  0.48620683229E+03  0.00000000000E+00 0.  1.
         21   -1    0    0  501  502 -0.00000000000E+00 -0.00000000000E+00 -0.18875840258E+03  0.18875840258E+03  0.00000000000E+00 0.  1.
         25    1    1    2    0    0  0.90006733287E+02  0.77685869648E+02  0.11814872858E+03  0.20909430515E+03  0.12500000000E+03 0.  0.
         25    1    1    2    0    0 -0.13784972082E+03 -0.18196139801E+03  0.10497196849E+03  0.28063608119E+03  0.12500000000E+03 0.  0.
         25    1    1    2    0    0  0.47842987530E+02  0.10427552837E+03  0.74327732641E+02  0.18523484853E+03  0.12500000000E+03 0.  0.
</event>
<event>
 5    0  0.6240546E-005  0.2840146E+03  0.7546771E-02  0.1093516E+00
         21   -1    0    0  502  501  0.00000000000E+00  0.00000000000E+00  0.28818425437E+03  0.28818425437E+03  0.00000000000E+00 0.  1.
         21   -1    0    0  501  502 -0.00000000000E+00 -0.00000000000E+00 -0.27990536888E+03  0.27990536888E+03  0.00000000000E+00 0.  1.
         25    1    1    2    0    0  0.55045881361E+02  0.75677622076E+02 -0.30452608862E+02  0.15908963802E+03  0.12500000000E+03 0.  0.
         25    1    1    2    0    0  0.16692346756E+02  0.50270616022E+02 -0.10335419978E+03  0.17062490992E+03  0.12500000000E+03 0.  0.
         25    1    1    2    0    0 -0.71738228117E+02 -0.12594823810E+03  0.14208569413E+03  0.23837507531E+03  0.12500000000E+03 0.  0.
</event>
<event>
 5    0  0.5550393E-005  0.2889726E+03  0.7546771E-02  0.1090887E+00
         21   -1    0    0  502  501  0.00000000000E+00  0.00000000000E+00  0.13738964136E+04  0.13738964136E+04  0.00000000000E+00 0. -1.
         21   -1    0    0  501  502 -0.00000000000E+00 -0.00000000000E+00 -0.60779807375E+02  0.60779807375E+02  0.00000000000E+00 0. -1.
         25    1    1    2    0    0 -0.52945256376E+02 -0.52144660217E+01  0.69417952739E+03  0.70734758576E+03  0.12500000000E+03 0.  0.
         25    1    1    2    0    0 -0.18728722795E+02  0.73935750597E+02  0.51836414229E+03  0.53864983458E+03  0.12500000000E+03 0.  0.
         25    1    1    2    0    0  0.71673979171E+02 -0.68721284576E+02  0.10057293653E+03  0.18867880063E+03  0.12500000000E+03 0.  0.
</event>
<event>
 5    0  0.5550393E-005  0.2723632E+03  0.7546771E-02  0.1099935E+00
         21   -1    0    0  502  501  0.00000000000E+00  0.00000000000E+00  0.13027266222E+03  0.13027266222E+03  0.00000000000E+00 0.  1.
         21   -1    0    0  501  502 -0.00000000000E+00 -0.00000000000E+00 -0.56943436455E+03  0.56943436455E+03  0.00000000000E+00 0.  1.
         25    1    1    2    0    0  0.79381031016E+02 -0.95855477820E+02 -0.28429954622E+03  0.33457563076E+03  0.12500000000E+03 0.  0.
         25    1    1    2    0    0 -0.15300210017E+02 -0.42182378554E+02 -0.49154938984E+02  0.14161446788E+03  0.12500000000E+03 0.  0.
         25    1    1    2    0    0 -0.64080820999E+02  0.13803785637E+03 -0.10570721712E+03  0.22351692814E+03  0.12500000000E+03 0.  0.
</event>
<event>
 5    0  0.5550393E-005  0.2751523E+03  0.7546771E-02  0.1098367E+00
         21   -1    0    0  502  501  0.00000000000E+00  0.00000000000E+00  0.28772281745E+03  0.28772281745E+03  0.00000000000E+00 0. -1.
         21   -1    0    0  501  502 -0.00000000000E+00 -0.00000000000E+00 -0.26313093155E+03  0.26313093155E+03  0.00000000000E+00 0. -1.
         25    1    1    2    0    0 -0.93472497344E+02 -0.48862159826E+02 -0.62701113533E+02  0.17516006412E+03  0.12500000000E+03 0.  0.
         25    1    1    2    0    0  0.16713602024E+02 -0.94034287835E+02  0.63066311833E+02  0.16948200928E+03  0.12500000000E+03 0.  0.
         25    1    1    2    0    0  0.76758895320E+02  0.14289644766E+03  0.24226687595E+02  0.20621167561E+03  0.12500000000E+03 0.  0.
</event>
<event>
 5    0  0.5550393E-005  0.2727887E+03  0.7546771E-02  0.1099694E+00
         21   -1    0    0  502  501  0.00000000000E+00  0.00000000000E+00  0.35416590285E+02  0.35416590285E+02  0.00000000000E+00 0.  1.
         21   -1    0    0  501  502 -0.00000000000E+00 -0.00000000000E+00 -0.21010968583E+04  0.21010968583E+04  0.00000000000E+00 0.  1.
         25    1    1    2    0    0 -0.16586439471E+02 -0.15624448121E+03 -0.11164108041E+04  0.11343216173E+04  0.12500000000E+03 0.  0.
         25    1    1    2    0    0  0.61140936788E+01  0.13060989769E+03 -0.68589850698E+03  0.70935047007E+03  0.12500000000E+03 0.  0.
         25    1    1    2    0    0  0.10472345792E+02  0.25634583518E+02 -0.26337095691E+03  0.29284136122E+03  0.12500000000E+03 0.  0.
</event>
<event>
 5    0  0.5550393E-005  0.2754129E+03  0.7546771E-02  0.1098221E+00
         21   -1    0    0  502  501  0.00000000000E+00  0.00000000000E+00  0.33757455433E+03  0.33757455433E+03  0.00000000000E+00 0.  1.
         21   -1    0    0  501  502 -0.00000000000E+00 -0.00000000000E+00 -0.22469781818E+03  0.22469781818E+03  0.00000000000E+00 0.  1.
         25    1    1    2    0    0  0.54342363489E+02  0.15965619571E+02 -0.75023374038E+02  0.15640172675E+03  0.12500000000E+03 0.  0.
         25    1    1    2    0    0 -0.65968309272E+02  0.10473311496E+03  0.14118420131E+03  0.22556334343E+03  0.12500000000E+03 0.  0.
         25    1    1    2    0    0  0.11625945783E+02 -0.12069873453E+03  0.46715908875E+02  0.18030730233E+03  0.12500000000E+03 0.  0.
</event>
<event>
 5    0  0.5550393E-005  0.2677844E+03  0.7546771E-02  0.1102554E+00
         21   -1    0    0  502  501  0.00000000000E+00  0.00000000000E+00  0.22387827106E+03  0.22387827106E+03  0.00000000000E+00 0.  1.
         21   -1    0    0  501  502 -0.00000000000E+00 -0.00000000000E+00 -0.32030128525E+03  0.32030128525E+03  0.00000000000E+00 0.  1.
         25    1    1    2    0    0 -0.58182536734E+02 -0.18633039498E+02  0.72007435167E+02  0.15666036021E+03  0.12500000000E+03 0.  0.
         25    1    1    2    0    0  0.10943687925E+02 -0.65039112038E+02  0.18990521990E+02  0.14260256073E+03  0.12500000000E+03 0.  0.
         25    1    1    2    0    0  0.47238848809E+02  0.83672151536E+02 -0.18742097135E+03  0.24491663537E+03  0.12500000000E+03 0.  0.
</event>
<event>
 5    0  0.5550393E-005  0.2766132E+03  0.7546771E-02  0.1097553E+00
         21   -1    0    0  502  501  0.00000000000E+00  0.00000000000E+00  0.98737416044E+02  0.98737416044E+02  0.00000000000E+00 0.  1.
         21   -1    0    0  501  502 -0.00000000000E+00 -0.00000000000E+00 -0.77493296171E+03  0.77493296171E+03  0.00000000000E+00 0.  1.
         25    1    1    2    0    0 -0.15375726159E+02 -0.11645903061E+02 -0.17515995156E+03  0.21605103250E+03  0.12500000000E+03 0.  0.
         25    1    1    2    0    0  0.27420091445E+01  0.10537221884E+03 -0.47026681423E+03  0.49788221467E+03  0.12500000000E+03 0.  0.
         25    1    1    2    0    0  0.12633717014E+02 -0.93726315779E+02 -0.30768779884E+02  0.15973713059E+03  0.12500000000E+03 0.  0.
</event>
<event>
 5    0  0.5550393E-005  0.2457646E+03  0.7546771E-02  0.1116011E+00
         21   -1    0    0  502  501  0.00000000000E+00  0.00000000000E+00  0.67791750774E+03  0.67791750774E+03  0.00000000000E+00 0.  1.
         21   -1    0    0  501  502 -0.00000000000E+00 -0.00000000000E+00 -0.89096750151E+02  0.89096750151E+02  0.00000000000E+00 0.  1.
         25    1    1    2    0    0 -0.53977492245E+02  0.72792739173E+02  0.10875711566E+03  0.18885301891E+03  0.12500000000E+03 0.  0.
         25    1    1    2    0    0  0.35420945529E+02  0.39067472710E+02  0.31088385822E+03  0.33919711690E+03  0.12500000000E+03 0.  0.
         25    1    1    2    0    0  0.18556546716E+02 -0.11186021188E+03  0.16917978370E+03  0.23896412208E+03  0.12500000000E+03 0.  0.
</event>
<event>
 5    0  0.5550393E-005  0.4121321E+03  0.7546771E-02  0.1039658E+00
         21   -1    0    0  502  501  0.00000000000E+00  0.00000000000E+00  0.27188949792E+03  0.27188949792E+03  0.00000000000E+00 0. -1.
         21   -1    0    0  501  502 -0.00000000000E+00 -0.00000000000E+00 -0.62471289078E+03  0.62471289078E+03  0.00000000000E+00 0. -1.
         25    1    1    2    0    0 -0.97821510789E+02  0.16936656842E+03 -0.34440027728E+03  0.41531991701E+03  0.12500000000E+03 0.  0.
         25    1    1    2    0    0  0.14580153134E+03  0.61158198219E+02  0.51533145124E+02  0.20803623914E+03  0.12500000000E+03 0.  0.
         25    1    1    2    0    0 -0.47980020551E+02 -0.23052476664E+03 -0.59956260696E+02  0.27324623255E+03  0.12500000000E+03 0.  0.
</event>
<event>
 5    0  0.5550393E-005  0.3163982E+03  0.7546771E-02  0.1077319E+00
         21   -1    0    0  502  501  0.00000000000E+00  0.00000000000E+00  0.10315134343E+04  0.10315134343E+04  0.00000000000E+00 0.  1.
         21   -1    0    0  501  502 -0.00000000000E+00 -0.00000000000E+00 -0.97049480691E+02  0.97049480691E+02  0.00000000000E+00 0.  1.
         25    1    1    2    0    0 -0.61824088920E+02 -0.58149528491E+02  0.15225865600E+03  0.21450241015E+03  0.12500000000E+03 0.  0.
         25    1    1    2    0    0 -0.50701891355E+02  0.42042643462E+02  0.31742039837E+02  0.14481306139E+03  0.12500000000E+03 0.  0.
         25    1    1    2    0    0  0.11252598028E+03  0.16106885029E+02  0.75046325781E+03  0.76924744348E+03  0.12500000000E+03 0.  0.
</event>
<event>
 5    0  0.5550393E-005  0.4040492E+03  0.7546771E-02  0.1042387E+00
         21   -1    0    0  502  501  0.00000000000E+00  0.00000000000E+00  0.20964540399E+03  0.20964540399E+03  0.00000000000E+00 0. -1.
         21   -1    0    0  501  502 -0.00000000000E+00 -0.00000000000E+00 -0.77872316614E+03  0.77872316614E+03  0.00000000000E+00 0. -1.
         25    1    1    2    0    0 -0.29362564264E+03 -0.13205968855E+03 -0.11634131459E+03  0.36443940626E+03  0.12500000000E+03 0.  0.
         25    1    1    2    0    0  0.67737127906E+02  0.60094447295E+02 -0.11346539277E+03  0.19156997794E+03  0.12500000000E+03 0.  0.
         25    1    1    2    0    0  0.22588851473E+03  0.71965241253E+02 -0.33927105480E+03  0.43235918593E+03  0.12500000000E+03 0.  0.
</event>
<event>
 5    0  0.5550393E-005  0.2774344E+03  0.7546771E-02  0.1097099E+00
         21   -1    0    0  502  501  0.00000000000E+00  0.00000000000E+00  0.71539262635E+03  0.71539262635E+03  0.00000000000E+00 0.  1.
         21   -1    0    0  501  502 -0.00000000000E+00 -0.00000000000E+00 -0.10759105983E+03  0.10759105983E+03  0.00000000000E+00 0. -1.
         25    1    1    2    0    0 -0.29080131619E+02 -0.83638259155E+02  0.24821669783E+03  0.29168054706E+03  0.12500000000E+03 0.  0.
         25    1    1    2    0    0 -0.73612477586E+02 -0.66590348263E+02  0.91388524881E+02  0.18392915434E+03  0.12500000000E+03 0.  0.
         25    1    1    2    0    0  0.10269260920E+03  0.15022860742E+03  0.26819634381E+03  0.34737398478E+03  0.12500000000E+03 0.  0.
</event>
<event>
 5    0  0.5550393E-005  0.2203400E+03  0.7546771E-02  0.1133630E+00
         21   -1    0    0  502  501  0.00000000000E+00  0.00000000000E+00  0.49193774106E+03  0.49193774106E+03  0.00000000000E+00 0.  1.
         21   -1    0    0  501  502 -0.00000000000E+00 -0.00000000000E+00 -0.98690737953E+02  0.98690737953E+02  0.00000000000E+00 0.  1.
         25    1    1    2    0    0 -0.11473720707E+02 -0.18517735857E+02  0.91020769354E+02  0.15615483746E+03  0.12500000000E+03 0.  0.
         25    1    1    2    0    0  0.60353120725E+02 -0.61824307181E+02  0.18255856878E+03  0.23752342027E+03  0.12500000000E+03 0.  0.
         25    1    1    2    0    0 -0.48879400017E+02  0.80342043038E+02  0.11966766497E+03  0.19695022129E+03  0.12500000000E+03 0.  0.
</event>
<event>
 5    0  0.5550393E-005  0.4506978E+03  0.7546771E-02  0.1027514E+00
         21   -1    0    0  502  501  0.00000000000E+00  0.00000000000E+00  0.11068816873E+03  0.11068816873E+03  0.00000000000E+00 0.  1.
         21   -1    0    0  501  502 -0.00000000000E+00 -0.00000000000E+00 -0.18351421336E+04  0.18351421336E+04  0.00000000000E+00 0.  1.
         25    1    1    2    0    0 -0.40209021960E+02  0.23429320526E+03 -0.67013912347E+03  0.72195672743E+03  0.12500000000E+03 0.  0.
         25    1    1    2    0    0 -0.15299678686E+03 -0.31975063518E+03 -0.65228321589E+03  0.75282592889E+03  0.12500000000E+03 0.  0.
         25    1    1    2    0    0  0.19320580882E+03  0.85457429922E+02 -0.40203162549E+03  0.47104764598E+03  0.12500000000E+03 0.  0.
</event>
<event>
 5    0  0.5550393E-005  0.3774410E+03  0.7546771E-02  0.1051884E+00
         21   -1    0    0  502  501  0.00000000000E+00  0.00000000000E+00  0.54710525146E+03  0.54710525146E+03  0.00000000000E+00 0.  1.
         21   -1    0    0  501  502 -0.00000000000E+00 -0.00000000000E+00 -0.26039174136E+03  0.26039174136E+03  0.00000000000E+00 0.  1.
         25    1    1    2    0    0 -0.71606772807E+02 -0.15497918638E+03 -0.11176337634E+03  0.23929506977E+03  0.12500000000E+03 0.  0.
         25    1    1    2    0    0  0.78308680871E+02  0.15715122721E+03  0.38636928329E+03  0.44241946248E+03  0.12500000000E+03 0.  0.
         25    1    1    2    0    0 -0.67019080636E+01 -0.21720408294E+01  0.12107603147E+02  0.12578246057E+03  0.12500000000E+03 0.  0.
</event>
<event>
 5    0  0.5550393E-005  0.5755570E+03  0.7546771E-02  0.9957457E-01
         21   -1    0    0  502  501  0.00000000000E+00  0.00000000000E+00  0.67648559893E+03  0.67648559893E+03  0.00000000000E+00 0.  1.
         21   -1    0    0  501  502 -0.00000000000E+00 -0.00000000000E+00 -0.48968650763E+03  0.48968650763E+03  0.00000000000E+00 0.  1.
         25    1    1    2    0    0 -0.34153782356E+03 -0.15387176237E+03  0.72975353779E+02  0.40159059556E+03  0.12500000000E+03 0.  0.
         25    1    1    2    0    0  0.40399747674E+03  0.30960823203E+03 -0.46428883483E+01  0.52413526399E+03  0.12500000000E+03 0.  0.
         25    1    1    2    0    0 -0.62459653172E+02 -0.15573646965E+03  0.11846662587E+03  0.24044624701E+03  0.12500000000E+03 0.  0.
</event>
<event>
 5    0  0.5550393E-005  0.3752377E+03  0.7546771E-02  0.1052708E+00
         21   -1    0    0  502  501  0.00000000000E+00  0.00000000000E+00  0.34137290900E+03  0.34137290900E+03  0.00000000000E+00 0. -1.
         21   -1    0    0  501  502 -0.00000000000E+00 -0.00000000000E+00 -0.41246183429E+03  0.41246183429E+03  0.00000000000E+00 0. -1.
         25    1    1    2    0    0  0.79224378891E+01  0.11001662876E+03  0.15477343628E+03  0.22747799939E+03  0.12500000000E+03 0.  0.
         25    1    1    2    0    0  0.82800072907E+02 -0.20228699727E+03 -0.23741220405E+03  0.34607143188E+03  0.12500000000E+03 0.  0.
         25    1    1    2    0    0 -0.90722510797E+02  0.92270368502E+02  0.11549842479E+02  0.18028531202E+03  0.12500000000E+03 0.  0.
</event>
<event>
 5    0  0.5550393E-005  0.3123348E+03  0.7546771E-02  0.1079232E+00
         21   -1    0    0  502  501  0.00000000000E+00  0.00000000000E+00  0.11307771832E+03  0.11307771832E+03  0.00000000000E+00 0.  1.
         21   -1    0    0  501  502 -0.00000000000E+00 -0.00000000000E+00 -0.86270787176E+03  0.86270787176E+03  0.00000000000E+00 0.  1.
         25    1    1    2    0    0 -0.12602889529E+03  0.83729529055E+02 -0.28705126075E+03  0.34773171092E+03  0.12500000000E+03 0.  0.
         25    1    1    2    0    0  0.43328091853E+01 -0.28886470659E+02 -0.42151316246E+03  0.44062631282E+03  0.12500000000E+03 0.  0.
         25    1    1    2    0    0  0.12169608610E+03 -0.54843058396E+02 -0.41065730228E+02  0.18742756634E+03  0.12500000000E+03 0.  0.
</event>
<event>
 5    0  0.5550393E-005  0.3198260E+03  0.7546771E-02  0.1075729E+00
         21   -1    0    0  502  501  0.00000000000E+00  0.00000000000E+00  0.69319449585E+03  0.69319449585E+03  0.00000000000E+00 0. -1.
         21   -1    0    0  501  502 -0.00000000000E+00 -0.00000000000E+00 -0.14756130893E+03  0.14756130893E+03  0.00000000000E+00 0. -1.
         25    1    1    2    0    0 -0.82557317321E+02 -0.94047765087E+01 -0.36923354612E+02  0.15457197217E+03  0.12500000000E+03 0.  0.
         25    1    1    2    0    0  0.16824472764E+03  0.13850745564E+02  0.31391574765E+03  0.37771183216E+03  0.12500000000E+03 0.  0.
         25    1    1    2    0    0 -0.85687410316E+02 -0.44459690557E+01  0.26864079387E+03  0.30847200045E+03  0.12500000000E+03 0.  0.
</event>
<event>
 5    0  0.5550393E-005  0.3657281E+03  0.7546771E-02  0.1056339E+00
         21   -1    0    0  502  501  0.00000000000E+00  0.00000000000E+00  0.71995838495E+02  0.71995838495E+02  0.00000000000E+00 0. -1.
         21   -1    0    0  501  502 -0.00000000000E+00 -0.00000000000E+00 -0.18578442406E+04  0.18578442406E+04  0.00000000000E+00 0. -1.
         25    1    1    2    0    0  0.13336266457E+02 -0.26979897209E+02 -0.27259156012E+02  0.13142995261E+03  0.12500000000E+03 0.  0.
         25    1    1    2    0    0 -0.11140273220E+03  0.96164426378E+02 -0.11297363895E+04  0.11461184387E+04  0.12500000000E+03 0.  0.
         25    1    1    2    0    0  0.98066465743E+02 -0.69184529169E+02 -0.62885285654E+03  0.65229168779E+03  0.12500000000E+03 0.  0.
</event>
<event>
 5    0  0.5550393E-005  0.2852406E+03  0.7546771E-02  0.1092861E+00
         21   -1    0    0  502  501  0.00000000000E+00  0.00000000000E+00  0.91491723211E+02  0.91491723211E+02  0.00000000000E+00 0. -1.
         21   -1    0    0  501  502 -0.00000000000E+00 -0.00000000000E+00 -0.88928464965E+03  0.88928464965E+03  0.00000000000E+00 0. -1.
         25    1    1    2    0    0 -0.91932263635E+02 -0.73259936702E+02 -0.88100804126E+02  0.19288678314E+03  0.12500000000E+03 0.  0.
         25    1    1    2    0    0  0.13069452741E+03 -0.83066690096E+01 -0.30329209451E+03  0.35321545102E+03  0.12500000000E+03 0.  0.
         25    1    1    2    0    0 -0.38762263775E+02  0.81566605711E+02 -0.40640002780E+03  0.43467413871E+03  0.12500000000E+03 0.  0.
</event>
<event>
 5    0  0.5550393E-005  0.3046881E+03  0.7546771E-02  0.1082920E+00
         21   -1    0    0  502  501  0.00000000000E+00  0.00000000000E+00  0.10096720775E+04  0.10096720775E+04  0.00000000000E+00 0. -1.
         21   -1    0    0  501  502 -0.00000000000E+00 -0.00000000000E+00 -0.91945519342E+02  0.91945519342E+02  0.00000000000E+00 0. -1.
         25    1    1    2    0    0 -0.17722326089E+03 -0.34843559649E+02  0.33491018000E+03  0.40051465206E+03  0.12500000000E+03 0.  0.
         25    1    1    2    0    0  0.19205877654E+03  0.32700158274E+02  0.49838574249E+03  0.54951726298E+03  0.12500000000E+03 0.  0.
         25    1    1    2    0    0 -0.14835515651E+02  0.21434013751E+01  0.84430635717E+02  0.15158568185E+03  0.12500000000E+03 0.  0.
</event>
<event>
 5    0  0.5550393E-005  0.2512855E+03  0.7546771E-02  0.1112495E+00
         21   -1    0    0  502  501  0.00000000000E+00  0.00000000000E+00  0.35305646933E+03  0.35305646933E+03  0.00000000000E+00 0.  1.
         21   -1    0    0  501  502 -0.00000000000E+00 -0.00000000000E+00 -0.17885071226E+03  0.17885071226E+03  0.00000000000E+00 0.  1.
         25    1    1    2    0    0  0.52514702855E+02  0.14176433276E+02  0.11831822097E+02  0.13683478100E+03  0.12500000000E+03 0.  0.
         25    1    1    2    0    0  0.59290239304E+02 -0.91715247616E+02  0.32265397063E+02  0.16909486973E+03  0.12500000000E+03 0.  0.
         25    1    1    2    0    0 -0.11180494216E+03  0.77538814340E+02  0.13010853791E+03  0.22597753087E+03  0.12500000000E+03 0.  0.
</event>
<event>
 5    0  0.5550393E-005  0.3124413E+03  0.7546771E-02  0.1079182E+00
         21   -1    0    0  502  501  0.00000000000E+00  0.00000000000E+00  0.58956652911E+02  0.58956652911E+02  0.00000000000E+00 0. -1.
         21   -1    0    0  501  502 -0.00000000000E+00 -0.00000000000E+00 -0.16557850396E+04  0.16557850396E+04  0.00000000000E+00 0. -1.
         25    1    1    2    0    0  0.78869699333E+02  0.70569931092E+02 -0.21452813168E+03  0.26990343445E+03  0.12500000000E+03 0.  0.
         25    1    1    2    0    0  0.70121405306E+02 -0.11973379568E+03 -0.38929932122E+03  0.43177789987E+03  0.12500000000E+03 0.  0.
         25    1    1    2    0    0 -0.14899110464E+03  0.49163864583E+02 -0.99300093381E+03  0.10130603582E+04  0.12500000000E+03 0.  0.
</event>
<event>
 5    0  0.5550393E-005  0.3148470E+03  0.7546771E-02  0.1078046E+00
         21   -1    0    0  502  501  0.00000000000E+00  0.00000000000E+00  0.82385941700E+02  0.82385941700E+02  0.00000000000E+00 0. -1.
         21   -1    0    0  501  502 -0.00000000000E+00 -0.00000000000E+00 -0.12032226582E+04  0.12032226582E+04  0.00000000000E+00 0. -1.
         25    1    1    2    0    0 -0.19236099217E+03  0.16561013164E+02 -0.60910556720E+03  0.65108494873E+03  0.12500000000E+03 0.  0.
         25    1    1    2    0    0  0.88671103691E+02 -0.38260181630E+02 -0.89360858377E+02  0.18148490058E+03  0.12500000000E+03 0.  0.
         25    1    1    2    0    0  0.10368988848E+03  0.21699168466E+02 -0.42237029092E+03  0.45303875059E+03  0.12500000000E+03 0.  0.
</event>
<event>
 5    0  0.5550393E-005  0.4146172E+03  0.7546771E-02  0.1038833E+00
         21   -1    0    0  502  501  0.00000000000E+00  0.00000000000E+00  0.22499766478E+03  0.22499766478E+03  0.00000000000E+00 0.  1.
         21   -1    0    0  501  502 -0.00000000000E+00 -0.00000000000E+00 -0.76404087500E+03  0.76404087500E+03  0.00000000000E+00 0.  1.
         25    1    1    2    0    0 -0.23722633174E+03  0.14208942137E+03  0.69835150939E+01  0.30354489885E+03  0.12500000000E+03 0.  0.
         25    1    1    2    0    0  0.26536157299E+02 -0.15504788832E+02 -0.24831786453E+03  0.27969863776E+03  0.12500000000E+03 0.  0.
         25    1    1    2    0    0  0.21069017444E+03 -0.12658463254E+03 -0.29770886079E+03  0.40579500316E+03  0.12500000000E+03 0.  0.
</event>
<event>
 5    0  0.5550393E-005  0.3817807E+03  0.7546771E-02  0.1050278E+00
         21   -1    0    0  502  501  0.00000000000E+00  0.00000000000E+00  0.26529674148E+03  0.26529674148E+03  0.00000000000E+00 0.  1.
         21   -1    0    0  501  502 -0.00000000000E+00 -0.00000000000E+00 -0.54940931758E+03  0.54940931758E+03  0.00000000000E+00 0.  1.
         25    1    1    2    0    0  0.23964071952E+03 -0.19986555406E+03 -0.18433174267E+03  0.38337593235E+03  0.12500000000E+03 0.  0.
         25    1    1    2    0    0 -0.18424927699E+03  0.77234366181E+02 -0.64207099738E+02  0.24425497958E+03  0.12500000000E+03 0.  0.
         25    1    1    2    0    0 -0.55391442522E+02  0.12263118788E+03 -0.35573733691E+02  0.18707514713E+03  0.12500000000E+03 0.  0.
</event>
<event>
 5    0  0.5550393E-005  0.2821079E+03  0.7546771E-02  0.1094543E+00
         21   -1    0    0  502  501  0.00000000000E+00  0.00000000000E+00  0.67471816740E+03  0.67471816740E+03  0.00000000000E+00 0.  1.
         21   -1    0    0  501  502 -0.00000000000E+00 -0.00000000000E+00 -0.11795277995E+03  0.11795277995E+03  0.00000000000E+00 0.  1.
         25    1    1    2    0    0 -0.88744321177E+02 -0.33993391374E+02  0.28068019143E+02  0.15951150083E+03  0.12500000000E+03 0.  0.
         25    1    1    2    0    0 -0.59486323294E+02  0.62847320615E+02  0.21762426543E+03  0.26546888570E+03  0.12500000000E+03 0.  0.
         25    1    1    2    0    0  0.14823064447E+03 -0.28853929241E+02  0.31107310287E+03  0.36769056083E+03  0.12500000000E+03 0.  0.
</event>
<event>
 5    0  0.5550393E-005  0.3513407E+03  0.7546771E-02  0.1062066E+00
         21   -1    0    0  502  501  0.00000000000E+00  0.00000000000E+00  0.23460765278E+04  0.23460765278E+04  0.00000000000E+00 0. -1.
         21   -1    0    0  501  502 -0.00000000000E+00 -0.00000000000E+00 -0.52615618640E+02  0.52615618640E+02  0.00000000000E+00 0. -1.
         25    1    1    2    0    0 -0.66792281701E+02 -0.71252928648E+02  0.13849422634E+03  0.21057976984E+03  0.12500000000E+03 0.  0.
         25    1    1    2    0    0 -0.52210952908E+02  0.45101210277E+02  0.15995872104E+04  0.16059465578E+04  0.12500000000E+03 0.  0.
         25    1    1    2    0    0  0.11900323461E+03  0.26151718371E+02  0.55537947246E+03  0.58216581887E+03  0.12500000000E+03 0.  0.
</event>
<event>
 5    0  0.5550393E-005  0.2163809E+03  0.7546771E-02  0.1136610E+00
         21   -1    0    0  502  501  0.00000000000E+00  0.00000000000E+00  0.17730218608E+03  0.17730218608E+03  0.00000000000E+00 0. -1.
         21   -1    0    0  501  502 -0.00000000000E+00 -0.00000000000E+00 -0.26407293862E+03  0.26407293862E+03  0.00000000000E+00 0. -1.
         25    1    1    2    0    0 -0.78138306275E+02  0.20582121759E+02 -0.30806477513E+02  0.15199755821E+03  0.12500000000E+03 0.  0.
         25    1    1    2    0    0  0.42628853988E+02 -0.52917105822E+02  0.47338567377E+01  0.14235465809E+03  0.12500000000E+03 0.  0.
         25    1    1    2    0    0  0.35509452287E+02  0.32334984063E+02 -0.60698131762E+02  0.14702290840E+03  0.12500000000E+03 0.  0.
</event>
<event>
 5    0  0.5550393E-005  0.3291858E+03  0.7546771E-02  0.1071498E+00
         21   -1    0    0  502  501  0.00000000000E+00  0.00000000000E+00  0.27282938550E+03  0.27282938550E+03  0.00000000000E+00 0. -1.
         21   -1    0    0  501  502 -0.00000000000E+00 -0.00000000000E+00 -0.39718341993E+03  0.39718341993E+03  0.00000000000E+00 0. -1.
         25    1    1    2    0    0  0.11950064877E+03  0.17637255019E+03  0.59504448911E+02  0.25407373134E+03  0.12500000000E+03 0.  0.
         25    1    1    2    0    0 -0.96120632308E+02 -0.13750195593E+03 -0.19028767994E+03  0.28280800020E+03  0.12500000000E+03 0.  0.
         25    1    1    2    0    0 -0.23380016465E+02 -0.38870594260E+02  0.64291965975E+01  0.13313107390E+03  0.12500000000E+03 0.  0.
</event>
<event>
 5    0  0.5550393E-005  0.3208130E+03  0.7546771E-02  0.1075276E+00
         21   -1    0    0  502  501  0.00000000000E+00  0.00000000000E+00  0.52187191375E+03  0.52187191375E+03  0.00000000000E+00 0. -1.
         21   -1    0    0  501  502 -0.00000000000E+00 -0.00000000000E+00 -0.19721506403E+03  0.19721506403E+03  0.00000000000E+00 0. -1.
         25    1    1    2    0    0 -0.47586896792E+02  0.11933475708E+02 -0.12831406330E+02  0.13489464621E+03  0.12500000000E+03 0.  0.
         25    1    1    2    0    0  0.22008911587E+03  0.43183375364E+02  0.17822955790E+03  0.31256167094E+03  0.12500000000E+03 0.  0.
         25    1    1    2    0    0 -0.17250221907E+03 -0.55116851073E+02  0.15925869815E+03  0.27163066063E+03  0.12500000000E+03 0.  0.
</event>
<event>
 5    0  0.5550393E-005  0.3047590E+03  0.7546771E-02  0.1082886E+00
         21   -1    0    0  502  501  0.00000000000E+00  0.00000000000E+00  0.91184419435E+02  0.91184419435E+02  0.00000000000E+00 0.  1.
         21   -1    0    0  501  502 -0.00000000000E+00 -0.00000000000E+00 -0.10185736160E+04  0.10185736160E+04  0.00000000000E+00 0.  1.
         25    1    1    2    0    0 -0.14486653767E+03  0.35791375769E+02 -0.19152910782E+03  0.27308558266E+03  0.12500000000E+03 0.  0.
         25    1    1    2    0    0  0.20494468608E+02 -0.57687191636E+02 -0.87500769820E+02  0.16440565696E+03  0.12500000000E+03 0.  0.
         25    1    1    2    0    0  0.12437206906E+03  0.21895815867E+02 -0.64835931895E+03  0.67226679584E+03  0.12500000000E+03 0.  0.
</event>
<event>
 5    0  0.5550393E-005  0.8477272E+03  0.7546771E-02  0.9493393E-01
         21   -1    0    0  502  501  0.00000000000E+00  0.00000000000E+00  0.55153435708E+03  0.55153435708E+03  0.00000000000E+00 0.  1.
         21   -1    0    0  501  502 -0.00000000000E+00 -0.00000000000E+00 -0.13029856199E+04  0.13029856199E+04  0.00000000000E+00 0.  1.
         25    1    1    2    0    0 -0.98767509548E+02  0.11177842287E+02  0.51790732057E+03  0.54197136252E+03  0.12500000000E+03 0.  0.
         25    1    1    2    0    0 -0.69385340864E+00  0.72590347364E+02 -0.41787715212E+03  0.44217208667E+03  0.12500000000E+03 0.  0.
         25    1    1    2    0    0  0.99461362957E+02 -0.83768189651E+02 -0.85148143124E+03  0.87037652776E+03  0.12500000000E+03 0.  0.
</event>
<event>
 5    0  0.5550393E-005  0.3636311E+03  0.7546771E-02  0.1057155E+00
         21   -1    0    0  502  501  0.00000000000E+00  0.00000000000E+00  0.51099557385E+03  0.51099557385E+03  0.00000000000E+00 0. -1.
         21   -1    0    0  501  502 -0.00000000000E+00 -0.00000000000E+00 -0.25876456830E+03  0.25876456830E+03  0.00000000000E+00 0. -1.
         25    1    1    2    0    0 -0.88691321110E+02  0.16934368332E+02 -0.55322423388E+02  0.16382458241E+03  0.12500000000E+03 0.  0.
         25    1    1    2    0    0 -0.16204438711E+03 -0.10066343792E+03  0.11136829264E+03  0.25380978652E+03  0.12500000000E+03 0.  0.
         25    1    1    2    0    0  0.25073570822E+03  0.83729069584E+02  0.19618513630E+03  0.35212577323E+03  0.12500000000E+03 0.  0.
</event>
<event>
 5    0  0.5552386E-005  0.2936142E+03  0.7546771E-02  0.1088477E+00
         21   -1    0    0  502  501  0.00000000000E+00  0.00000000000E+00  0.69951013897E+03  0.69951013897E+03  0.00000000000E+00 0.  1.
         21   -1    0    0  501  502 -0.00000000000E+00 -0.00000000000E+00 -0.12324238913E+03  0.12324238913E+03  0.00000000000E+00 0.  1.
         25    1    1    2    0    0 -0.17434101740E+03 -0.20231594656E+02  0.30203036034E+03  0.37101407836E+03  0.12500000000E+03 0.  0.
         25    1    1    2    0    0  0.16015862655E+03  0.10210636756E+02  0.25156144569E+03  0.32351692957E+03  0.12500000000E+03 0.  0.
         25    1    1    2    0    0  0.14182390856E+02  0.10020957900E+02  0.22675943816E+02  0.12822152017E+03  0.12500000000E+03 0.  0.
</event>
<event>
 5    0  0.6063833E-005  0.3086994E+03  0.7546771E-02  0.1080971E+00
         21   -1    0    0  502  501  0.00000000000E+00  0.00000000000E+00  0.40092947784E+03  0.40092947784E+03  0.00000000000E+00 0. -1.
         21   -1    0    0  501  502 -0.00000000000E+00 -0.00000000000E+00 -0.23768600829E+03  0.23768600829E+03  0.00000000000E+00 0. -1.
         25    1    1    2    0    0 -0.90464042050E+02  0.20239166090E+03  0.13968303546E+03  0.29031444625E+03  0.12500000000E+03 0.  0.
         25    1    1    2    0    0  0.68226911350E+01 -0.12634239914E+03  0.25985831395E+02  0.17974764079E+03  0.12500000000E+03 0.  0.
         25    1    1    2    0    0  0.83641350915E+02 -0.76049261756E+02 -0.24253972958E+01  0.16855339910E+03  0.12500000000E+03 0.  0.
</event>
<event>
 5    0  0.5550393E-005  0.2449806E+03  0.7546771E-02  0.1116519E+00
         21   -1    0    0  502  501  0.00000000000E+00  0.00000000000E+00  0.83076676437E+02  0.83076676437E+02  0.00000000000E+00 0.  1.
         21   -1    0    0  501  502 -0.00000000000E+00 -0.00000000000E+00 -0.72241062566E+03  0.72241062566E+03  0.00000000000E+00 0.  1.
         25    1    1    2    0    0  0.58294837917E+01  0.34761155463E+02 -0.57851023896E+02  0.14217616459E+03  0.12500000000E+03 0.  0.
         25    1    1    2    0    0  0.74635404664E+02  0.78633189789E+01 -0.17131960763E+03  0.22496151532E+03  0.12500000000E+03 0.  0.
         25    1    1    2    0    0 -0.80464888455E+02 -0.42624474442E+02 -0.41016331769E+03  0.43834962219E+03  0.12500000000E+03 0.  0.
</event>
<event>
 5    0  0.5550393E-005  0.2101562E+03  0.7546771E-02  0.1141442E+00
         21   -1    0    0  502  501  0.00000000000E+00  0.00000000000E+00  0.32809199812E+03  0.32809199812E+03  0.00000000000E+00 0. -1.
         21   -1    0    0  501  502 -0.00000000000E+00 -0.00000000000E+00 -0.13461355864E+03  0.13461355864E+03  0.00000000000E+00 0. -1.
         25    1    1    2    0    0 -0.50325550511E+02  0.33681365669E+02  0.84932688635E+02  0.16280558045E+03  0.12500000000E+03 0.  0.
         25    1    1    2    0    0 -0.30026580300E+02 -0.93194449112E+01  0.53897347133E+02  0.13970816585E+03  0.12500000000E+03 0.  0.
         25    1    1    2    0    0  0.80352130812E+02 -0.24361920758E+02  0.54648403709E+02  0.16019181046E+03  0.12500000000E+03 0.  0.
</event>
<event>
 5    0  0.5550393E-005  0.5396855E+03  0.7546771E-02  0.1003910E+00
         21   -1    0    0  502  501  0.00000000000E+00  0.00000000000E+00  0.66293237104E+03  0.66293237104E+03  0.00000000000E+00 0. -1.
         21   -1    0    0  501  502 -0.00000000000E+00 -0.00000000000E+00 -0.43935174221E+03  0.43935174221E+03  0.00000000000E+00 0. -1.
         25    1    1    2    0    0 -0.17923005762E+03  0.15506389147E+03 -0.82520801175E+02  0.28036209911E+03  0.12500000000E+03 0.  0.
         25    1    1    2    0    0 -0.12939152777E+03  0.13390138384E+03 -0.77743558699E+02  0.23736218944E+03  0.12500000000E+03 0.  0.
         25    1    1    2    0    0  0.30862158539E+03 -0.28896527531E+03  0.38384498871E+03  0.58455982471E+03  0.12500000000E+03 0.  0.
</event>
<event>
 5    0  0.7680779E-005  0.3833809E+03  0.7546771E-02  0.1049691E+00
         21   -1    0    0  502  501  0.00000000000E+00  0.00000000000E+00  0.49126782985E+03  0.49126782985E+03  0.00000000000E+00 0.  1.
         21   -1    0    0  501  502 -0.00000000000E+00 -0.00000000000E+00 -0.29918689409E+03  0.29918689409E+03  0.00000000000E+00 0. -1.
         25    1    1    2    0    0 -0.44907476428E+02  0.27521015683E+03  0.51620371236E+02  0.30991446334E+03  0.12500000000E+03 0.  0.
         25    1    1    2    0    0  0.55870620122E+01 -0.91203935371E+02  0.19416893970E+03  0.24834643189E+03  0.12500000000E+03 0.  0.
         25    1    1    2    0    0  0.39320414416E+02 -0.18400622146E+03 -0.53708375176E+02  0.23219382871E+03  0.12500000000E+03 0.  0.
</event>
<event>
 5    0  0.5550393E-005  0.3001489E+03  0.7546771E-02  0.1085166E+00
         21   -1    0    0  502  501  0.00000000000E+00  0.00000000000E+00  0.12975182083E+03  0.12975182083E+03  0.00000000000E+00 0.  1.
         21   -1    0    0  501  502 -0.00000000000E+00 -0.00000000000E+00 -0.69432038257E+03  0.69432038257E+03  0.00000000000E+00 0.  1.
         25    1    1    2    0    0 -0.13507141582E+03 -0.70754609149E+02 -0.34776891545E+03  0.39977333658E+03  0.12500000000E+03 0.  0.
         25    1    1    2    0    0  0.77319296214E+02 -0.63397106421E+02 -0.15383465674E+03  0.22200803653E+03  0.12500000000E+03 0.  0.
         25    1    1    2    0    0  0.57752119603E+02  0.13415171557E+03 -0.62964989558E+02  0.20229083029E+03  0.12500000000E+03 0.  0.
</event>
<event>
 5    0  0.5775245E-005  0.2871924E+03  0.7546771E-02  0.1091824E+00
         21   -1    0    0  502  501  0.00000000000E+00  0.00000000000E+00  0.75379603376E+03  0.75379603376E+03  0.00000000000E+00 0.  1.
         21   -1    0    0  501  502 -0.00000000000E+00 -0.00000000000E+00 -0.10941878990E+03  0.10941878990E+03  0.00000000000E+00 0.  1.
         25    1    1    2    0    0 -0.61294568750E+02  0.42065272620E+02  0.34617764633E+03  0.37548698265E+03  0.12500000000E+03 0.  0.
         25    1    1    2    0    0  0.20683938332E+02 -0.10053196884E+03  0.30336337662E+03  0.34378603860E+03  0.12500000000E+03 0.  0.
         25    1    1    2    0    0  0.40610630418E+02  0.58466696216E+02 -0.51637790857E+01  0.14394180242E+03  0.12500000000E+03 0.  0.
</event>
<event>
 5    0  0.5550393E-005  0.2812640E+03  0.7546771E-02  0.1095001E+00
         21   -1    0    0  502  501  0.00000000000E+00  0.00000000000E+00  0.47792707423E+02  0.47792707423E+02  0.00000000000E+00 0.  1.
         21   -1    0    0  501  502 -0.00000000000E+00 -0.00000000000E+00 -0.16552619322E+04  0.16552619322E+04  0.00000000000E+00 0.  1.
         25    1    1    2    0    0 -0.59949618461E+02 -0.60265740876E+02 -0.74288713802E+03  0.75811095237E+03  0.12500000000E+03 0.  0.
         25    1    1    2    0    0  0.54034793018E+02 -0.71526038368E+02 -0.62828568963E+03  0.64684127946E+03  0.12500000000E+03 0.  0.
         25    1    1    2    0    0  0.59148254433E+01  0.13179177924E+03 -0.23629639715E+03  0.29810240781E+03  0.12500000000E+03 0.  0.
</event>
<event>
 5    0  0.5550393E-005  0.5515707E+03  0.7546771E-02  0.1001131E+00
         21   -1    0    0  502  501  0.00000000000E+00  0.00000000000E+00  0.31338489747E+03  0.31338489747E+03  0.00000000000E+00 0.  1.
         21   -1    0    0  501  502 -0.00000000000E+00 -0.00000000000E+00 -0.97078771559E+03  0.97078771559E+03  0.00000000000E+00 0.  1.
         25    1    1    2    0    0 -0.16381071632E+02 -0.12062213207E+02  0.21819241570E+03  0.25228310836E+03  0.12500000000E+03 0.  0.
         25    1    1    2    0    0  0.18418226448E+03 -0.16015505791E+03 -0.46811610589E+03  0.54252229237E+03  0.12500000000E+03 0.  0.
         25    1    1    2    0    0 -0.16780119285E+03  0.17221727112E+03 -0.40747912793E+03  0.48936721232E+03  0.12500000000E+03 0.  0.
</event>
<event>
 5    0  0.5550393E-005  0.2718409E+03  0.7546771E-02  0.1100231E+00
         21   -1    0    0  502  501  0.00000000000E+00  0.00000000000E+00  0.31316802786E+03  0.31316802786E+03  0.00000000000E+00 0.  1.
         21   -1    0    0  501  502 -0.00000000000E+00 -0.00000000000E+00 -0.23596747642E+03  0.23596747642E+03  0.00000000000E+00 0.  1.
         25    1    1    2    0    0  0.12570732887E+03  0.85783309286E+02  0.12841806168E+03  0.23511126568E+03  0.12500000000E+03 0.  0.
         25    1    1    2    0    0 -0.73527279216E+01 -0.31337060559E+02 -0.26843096642E+02  0.13183939400E+03  0.12500000000E+03 0.  0.
         25    1    1    2    0    0 -0.11835460095E+03 -0.54446248727E+02 -0.24374413601E+02  0.18218484461E+03  0.12500000000E+03 0.  0.
</event>
<event>
 5    0  0.5550393E-005  0.2385425E+03  0.7546771E-02  0.1120768E+00
         21   -1    0    0  502  501  0.00000000000E+00  0.00000000000E+00  0.76863127623E+02  0.76863127623E+02  0.00000000000E+00 0.  1.
         21   -1    0    0  501  502 -0.00000000000E+00 -0.00000000000E+00 -0.74030991546E+03  0.74030991546E+03  0.00000000000E+00 0.  1.
         25    1    1    2    0    0 -0.43686685261E+02  0.70152506052E+02 -0.89950347549E+02  0.17477404155E+03  0.12500000000E+03 0.  0.
         25    1    1    2    0    0  0.40193657637E+02 -0.39017897182E+02 -0.42111572224E+03  0.44283335233E+03  0.12500000000E+03 0.  0.
         25    1    1    2    0    0  0.34930276240E+01 -0.31134608869E+02 -0.15238071805E+03  0.19956564921E+03  0.12500000000E+03 0.  0.
</event>
<event>
 5    0  0.5550393E-005  0.3189380E+03  0.7546771E-02  0.1076139E+00
         21   -1    0    0  502  501  0.00000000000E+00  0.00000000000E+00  0.45038276229E+02  0.45038276229E+02  0.00000000000E+00 0. -1.
         21   -1    0    0  501  502 -0.00000000000E+00 -0.00000000000E+00 -0.22585555493E+04  0.22585555493E+04  0.00000000000E+00 0. -1.
         25    1    1    2    0    0  0.11765164102E+03  0.63427214456E+02 -0.83129961241E+03  0.85120442067E+03  0.12500000000E+03 0.  0.
         25    1    1    2    0    0 -0.12392188679E+03  0.89473205438E+02 -0.10279680302E+04  0.10467594564E+04  0.12500000000E+03 0.  0.
         25    1    1    2    0    0  0.62702457757E+01 -0.15290041989E+03 -0.35424963049E+03  0.40562994846E+03  0.12500000000E+03 0.  0.
</event>
<event>
 5    0  0.5550393E-005  0.2784531E+03  0.7546771E-02  0.1096537E+00
         21   -1    0    0  502  501  0.00000000000E+00  0.00000000000E+00  0.56493193847E+03  0.56493193847E+03  0.00000000000E+00 0.  1.
         21   -1    0    0  501  502 -0.00000000000E+00 -0.00000000000E+00 -0.13724860832E+03  0.13724860832E+03  0.00000000000E+00 0.  1.
         25    1    1    2    0    0  0.11993274575E+03 -0.16325465732E+02  0.59814948427E+02  0.18399242482E+03  0.12500000000E+03 0.  0.
         25    1    1    2    0    0  0.36457292957E+01  0.66895577553E+02  0.28301220567E+03  0.31655839619E+03  0.12500000000E+03 0.  0.
         25    1    1    2    0    0 -0.12357847505E+03 -0.50570111821E+02  0.84856176042E+02  0.20162972578E+03  0.12500000000E+03 0.  0.
</event>
<event>
 5    0  0.5550393E-005  0.3776043E+03  0.7546771E-02  0.1051823E+00
         21   -1    0    0  502  501  0.00000000000E+00  0.00000000000E+00  0.59454897541E+03  0.59454897541E+03  0.00000000000E+00 0.  1.
         21   -1    0    0  501  502 -0.00000000000E+00 -0.00000000000E+00 -0.23982049016E+03  0.23982049016E+03  0.00000000000E+00 0.  1.
         25    1    1    2    0    0  0.20429152950E+03  0.20115541375E+02  0.76563539046E+02  0.25224321505E+03  0.12500000000E+03 0.  0.
         25    1    1    2    0    0 -0.76698109901E+02 -0.20505358952E+03  0.16440190711E+03  0.30096937004E+03  0.12500000000E+03 0.  0.
         25    1    1    2    0    0 -0.12759341959E+03  0.18493804815E+03  0.11376303910E+03  0.28115688048E+03  0.12500000000E+03 0.  0.
</event>
<event>
 5    0  0.5550393E-005  0.2042860E+03  0.7546771E-02  0.1146172E+00
         21   -1    0    0  502  501  0.00000000000E+00  0.00000000000E+00  0.78391645293E+03  0.78391645293E+03  0.00000000000E+00 0. -1.
         21   -1    0    0  501  502 -0.00000000000E+00 -0.00000000000E+00 -0.53236228859E+02  0.53236228859E+02  0.00000000000E+00 0. -1.
         25    1    1    2    0    0 -0.37148257595E+01 -0.46076192338E+01  0.36007712046E+03  0.38120278431E+03  0.12500000000E+03 0.  0.
         25    1    1    2    0    0 -0.13696176179E+02  0.21885688739E-01  0.25686100797E+03  0.28598979551E+03  0.12500000000E+03 0.  0.
         25    1    1    2    0    0  0.17411001938E+02  0.45857335451E+01  0.11374209564E+03  0.16996010197E+03  0.12500000000E+03 0.  0.
</event>
<event>
 5    0  0.5550393E-005  0.4673164E+03  0.7546771E-02  0.1022680E+00
         21   -1    0    0  502  501  0.00000000000E+00  0.00000000000E+00  0.99647835200E+03  0.99647835200E+03  0.00000000000E+00 0. -1.
         21   -1    0    0  501  502 -0.00000000000E+00 -0.00000000000E+00 -0.21915640931E+03  0.21915640931E+03  0.00000000000E+00 0. -1.
         25    1    1    2    0    0 -0.55798360751E+02 -0.39166897348E+02  0.42604872654E+03  0.44921044099E+03  0.12500000000E+03 0.  0.
         25    1    1    2    0    0 -0.28519667714E+03 -0.15905459996E+02  0.19101151309E+03  0.36565082585E+03  0.12500000000E+03 0.  0.
         25    1    1    2    0    0  0.34099503789E+03  0.55072357344E+02  0.16026170306E+03  0.40077349447E+03  0.12500000000E+03 0.  0.
</event>
<event>
 5    0  0.5550393E-005  0.2211304E+03  0.7546771E-02  0.1133043E+00
         21   -1    0    0  502  501  0.00000000000E+00  0.00000000000E+00  0.24693770969E+02  0.24693770969E+02  0.00000000000E+00 0. -1.
         21   -1    0    0  501  502 -0.00000000000E+00 -0.00000000000E+00 -0.19802020101E+04  0.19802020101E+04  0.00000000000E+00 0. -1.
         25    1    1    2    0    0 -0.70080078272E+00 -0.80210568204E+02 -0.86176729552E+03  0.87447246841E+03  0.12500000000E+03 0.  0.
         25    1    1    2    0    0 -0.51854948387E+02  0.58537249768E+02 -0.61021449474E+03  0.62777565648E+03  0.12500000000E+03 0.  0.
         25    1    1    2    0    0  0.52555749170E+02  0.21673318436E+02 -0.48352644883E+03  0.50264765613E+03  0.12500000000E+03 0.  0.
</event>
<event>
 5    0  0.5550393E-005  0.2259202E+03  0.7546771E-02  0.1129545E+00
         21   -1    0    0  502  501  0.00000000000E+00  0.00000000000E+00  0.14547732589E+04  0.14547732589E+04  0.00000000000E+00 0.  1.
         21   -1    0    0  501  502 -0.00000000000E+00 -0.00000000000E+00 -0.35084461587E+02  0.35084461587E+02  0.00000000000E+00 0.  1.
         25    1    1    2    0    0  0.89279341602E+01 -0.28476421440E+02  0.47723788362E+03  0.49423841630E+03  0.12500000000E+03 0.  0.
         25    1    1    2    0    0 -0.53652701684E+00 -0.25117756060E+02  0.74427478878E+03  0.75511664711E+03  0.12500000000E+03 0.  0.
         25    1    1    2    0    0 -0.83914071434E+01  0.53594177501E+02  0.19817612494E+03  0.24050265710E+03  0.12500000000E+03 0.  0.
</event>
<event>
 5    0  0.5550393E-005  0.2912607E+03  0.7546771E-02  0.1089693E+00
         21   -1    0    0  502  501  0.00000000000E+00  0.00000000000E+00  0.32620018248E+03  0.32620018248E+03  0.00000000000E+00 0.  1.
         21   -1    0    0  501  502 -0.00000000000E+00 -0.00000000000E+00 -0.26006356339E+03  0.26006356339E+03  0.00000000000E+00 0.  1.
         25    1    1    2    0    0 -0.76490378912E+02 -0.94171634478E+01  0.17226867189E+03  0.22636465349E+03  0.12500000000E+03 0.  0.
         25    1    1    2    0    0  0.10723930743E+03 -0.43749122234E+02 -0.13531699520E+03  0.21760042267E+03  0.12500000000E+03 0.  0.
         25    1    1    2    0    0 -0.30748928523E+02  0.53166285682E+02  0.29184942402E+02  0.14229866971E+03  0.12500000000E+03 0.  0.
</event>
<event>
 5    0  0.5550393E-005  0.4879317E+03  0.7546771E-02  0.1016978E+00
         21   -1    0    0  502  501  0.00000000000E+00  0.00000000000E+00  0.89898631908E+03  0.89898631908E+03  0.00000000000E+00 0.  1.
         21   -1    0    0  501  502 -0.00000000000E+00 -0.00000000000E+00 -0.26482867672E+03  0.26482867672E+03  0.00000000000E+00 0.  1.
         25    1    1    2    0    0  0.50757405960E+02  0.27684233621E+03  0.52083244163E+02  0.31233901085E+03  0.12500000000E+03 0.  0.
         25    1    1    2    0    0 -0.11351164809E+03 -0.36629560549E+03  0.23517687239E+03  0.46689455572E+03  0.12500000000E+03 0.  0.
         25    1    1    2    0    0  0.62754242131E+02  0.89453269284E+02  0.34689752581E+03  0.38458142922E+03  0.12500000000E+03 0.  0.
</event>
<event>
 5    0  0.5550393E-005  0.3928157E+03  0.7546771E-02  0.1046296E+00
         21   -1    0    0  502  501  0.00000000000E+00  0.00000000000E+00  0.15838765056E+03  0.15838765056E+03  0.00000000000E+00 0.  1.
         21   -1    0    0  501  502 -0.00000000000E+00 -0.00000000000E+00 -0.97421824820E+03  0.97421824820E+03  0.00000000000E+00 0.  1.
         25    1    1    2    0    0  0.64579995635E+02 -0.87530923263E+02 -0.94320197077E+02  0.19066603772E+03  0.12500000000E+03 0.  0.
         25    1    1    2    0    0 -0.24590881683E+03  0.13562796276E+03 -0.62543077265E+03  0.69688933257E+03  0.12500000000E+03 0.  0.
         25    1    1    2    0    0  0.18132882119E+03 -0.48097039499E+02 -0.96079627913E+02  0.24505052847E+03  0.12500000000E+03 0.  0.
</event>
<event>
 5    0  0.5550393E-005  0.3094085E+03  0.7546771E-02  0.1080630E+00
         21   -1    0    0  502  501  0.00000000000E+00  0.00000000000E+00  0.84558606659E+02  0.84558606659E+02  0.00000000000E+00 0. -1.
         21   -1    0    0  501  502 -0.00000000000E+00 -0.00000000000E+00 -0.11321571120E+04  0.11321571120E+04  0.00000000000E+00 0. -1.
         25    1    1    2    0    0  0.72105703983E+02 -0.15315679420E+03 -0.26181414742E+03  0.33589862153E+03  0.12500000000E+03 0.  0.
         25    1    1    2    0    0  0.45379794746E+02 -0.22173083490E+02 -0.16339189223E+03  0.21183220211E+03  0.12500000000E+03 0.  0.
         25    1    1    2    0    0 -0.11748549873E+03  0.17532987769E+03 -0.62239246572E+03  0.66898489506E+03  0.12500000000E+03 0.  0.
</event>
<event>
 5    0  0.7049410E-005  0.3806223E+03  0.7546771E-02  0.1050704E+00
         21   -1    0    0  502  501  0.00000000000E+00  0.00000000000E+00  0.13507231494E+04  0.13507231494E+04  0.00000000000E+00 0.  1.
         21   -1    0    0  501  502 -0.00000000000E+00 -0.00000000000E+00 -0.10725610247E+03  0.10725610247E+03  0.00000000000E+00 0.  1.
         25    1    1    2    0    0 -0.10282790889E+03 -0.18324507355E+03  0.32157928077E+03  0.40396852556E+03  0.12500000000E+03 0.  0.
         25    1    1    2    0    0  0.20296277992E+02  0.14651411220E+02  0.77376145899E+03  0.78419283227E+03  0.12500000000E+03 0.  0.
         25    1    1    2    0    0  0.82531630896E+02  0.16859366233E+03  0.14812630718E+03  0.26981789406E+03  0.12500000000E+03 0.  0.
</event>
<event>
 5    0  0.5550393E-005  0.4165788E+03  0.7546771E-02  0.1038186E+00
         21   -1    0    0  502  501  0.00000000000E+00  0.00000000000E+00  0.20822409269E+03  0.20822409269E+03  0.00000000000E+00 0.  1.
         21   -1    0    0  501  502 -0.00000000000E+00 -0.00000000000E+00 -0.83341876866E+03  0.83341876866E+03  0.00000000000E+00 0.  1.
         25    1    1    2    0    0  0.11447535165E+03 -0.13292867695E+03  0.10062847864E+03  0.23775140379E+03  0.12500000000E+03 0.  0.
         25    1    1    2    0    0 -0.66156445740E+02  0.15252147933E+03 -0.39502199360E+03  0.44643796030E+03  0.12500000000E+03 0.  0.
         25    1    1    2    0    0 -0.48318905912E+02 -0.19592802383E+02 -0.33080116102E+03  0.35745349726E+03  0.12500000000E+03 0.  0.
</event>
<event>
 5    0  0.5550393E-005  0.3468434E+03  0.7546771E-02  0.1063918E+00
         21   -1    0    0  502  501  0.00000000000E+00  0.00000000000E+00  0.17675008184E+03  0.17675008184E+03  0.00000000000E+00 0. -1.
         21   -1    0    0  501  502 -0.00000000000E+00 -0.00000000000E+00 -0.68062399375E+03  0.68062399375E+03  0.00000000000E+00 0. -1.
         25    1    1    2    0    0  0.68187595122E+02  0.16201835188E+03 -0.48705925642E+03  0.53268303309E+03  0.12500000000E+03 0.  0.
         25    1    1    2    0    0 -0.35229524356E+02 -0.44067863854E+02 -0.51127397437E+02  0.14636292830E+03  0.12500000000E+03 0.  0.
         25    1    1    2    0    0 -0.32958070766E+02 -0.11795048803E+03  0.34312741949E+02  0.17832811420E+03  0.12500000000E+03 0.  0.
</event>
<event>
 5    0  0.5550393E-005  0.3743315E+03  0.7546771E-02  0.1053049E+00
         21   -1    0    0  502  501  0.00000000000E+00  0.00000000000E+00  0.17060374810E+03  0.17060374810E+03  0.00000000000E+00 0. -1.
         21   -1    0    0  501  502 -0.00000000000E+00 -0.00000000000E+00 -0.82134247589E+03  0.82134247589E+03  0.00000000000E+00 0. -1.
         25    1    1    2    0    0  0.13309515251E+03  0.30667351283E+02 -0.16643443813E+03  0.24895828617E+03  0.12500000000E+03 0.  0.
         25    1    1    2    0    0 -0.77315325302E+02  0.22768882046E+03 -0.22712140376E+03  0.35359438702E+03  0.12500000000E+03 0.  0.
         25    1    1    2    0    0 -0.55779827208E+02 -0.25835617175E+03 -0.25718288590E+03  0.38939355080E+03  0.12500000000E+03 0.  0.
</event>
<event>
 5    0  0.5550393E-005  0.4993305E+03  0.7546771E-02  0.1013954E+00
         21   -1    0    0  502  501  0.00000000000E+00  0.00000000000E+00  0.26150869096E+04  0.26150869096E+04  0.00000000000E+00 0.  1.
         21   -1    0    0  501  502 -0.00000000000E+00 -0.00000000000E+00 -0.95343290272E+02  0.95343290272E+02  0.00000000000E+00 0.  1.
         25    1    1    2    0    0 -0.42239408632E+02 -0.11580635631E+03  0.17471511872E+04  0.17559491879E+04  0.12500000000E+03 0.  0.
         25    1    1    2    0    0  0.76442900143E+02 -0.11750215614E+03  0.65850975351E+02  0.19902669327E+03  0.12500000000E+03 0.  0.
         25    1    1    2    0    0 -0.34203491511E+02  0.23330851245E+03  0.70674145681E+03  0.75545431867E+03  0.12500000000E+03 0.  0.
</event>
<event>
 5    0  0.5550393E-005  0.5016830E+03  0.7546771E-02  0.1013341E+00
         21   -1    0    0  502  501  0.00000000000E+00  0.00000000000E+00  0.24196237297E+03  0.24196237297E+03  0.00000000000E+00 0.  1.
         21   -1    0    0  501  502 -0.00000000000E+00 -0.00000000000E+00 -0.10401857655E+04  0.10401857655E+04  0.00000000000E+00 0.  1.
         25    1    1    2    0    0 -0.31087280442E+03  0.20322544020E+03 -0.18636459403E+03  0.43393460565E+03  0.12500000000E+03 0.  0.
         25    1    1    2    0    0  0.83607793727E+02  0.28881629974E+02 -0.10628165377E+02  0.15350038965E+03  0.12500000000E+03 0.  0.
         25    1    1    2    0    0  0.22726501069E+03 -0.23210707017E+03 -0.60123063312E+03  0.69471314318E+03  0.12500000000E+03 0.  0.
</event>
<event>
 5    0  0.5550393E-005  0.2655142E+03  0.7546771E-02  0.1103875E+00
         21   -1    0    0  502  501  0.00000000000E+00  0.00000000000E+00  0.26623998077E+03  0.26623998077E+03  0.00000000000E+00 0.  1.
         21   -1    0    0  501  502 -0.00000000000E+00 -0.00000000000E+00 -0.26479034313E+03  0.26479034313E+03  0.00000000000E+00 0.  1.
         25    1    1    2    0    0  0.11738227328E+03 -0.72945879451E+02 -0.60858961923E+02  0.19603191744E+03  0.12500000000E+03 0.  0.
         25    1    1    2    0    0 -0.12795685827E+03 -0.55109205937E+01  0.14700622957E+02  0.17956735823E+03  0.12500000000E+03 0.  0.
         25    1    1    2    0    0  0.10574584996E+02  0.78456800044E+02  0.47607976604E+02  0.15543104824E+03  0.12500000000E+03 0.  0.
</event>
<event>
 5    0  0.5550393E-005  0.3633178E+03  0.7546771E-02  0.1057278E+00
         21   -1    0    0  502  501  0.00000000000E+00  0.00000000000E+00  0.66264351682E+03  0.66264351682E+03  0.00000000000E+00 0. -1.
         21   -1    0    0  501  502 -0.00000000000E+00 -0.00000000000E+00 -0.19920186234E+03  0.19920186234E+03  0.00000000000E+00 0. -1.
         25    1    1    2    0    0 -0.24078076773E+02 -0.11577178183E+03  0.28496340281E+03  0.33288436460E+03  0.12500000000E+03 0.  0.
         25    1    1    2    0    0  0.13508751052E+02  0.23025136566E+03 -0.25453540993E+02  0.26357363391E+03  0.12500000000E+03 0.  0.
         25    1    1    2    0    0  0.10569325722E+02 -0.11447958382E+03  0.20393179265E+03  0.26538738066E+03  0.12500000000E+03 0.  0.
</event>
<event>
 5    0  0.5550393E-005  0.2877929E+03  0.7546771E-02  0.1091507E+00
         21   -1    0    0  502  501  0.00000000000E+00  0.00000000000E+00  0.96165312382E+03  0.96165312382E+03  0.00000000000E+00 0. -1.
         21   -1    0    0  501  502 -0.00000000000E+00 -0.00000000000E+00 -0.86127502283E+02  0.86127502283E+02  0.00000000000E+00 0. -1.
         25    1    1    2    0    0 -0.33362270538E+02  0.90755898035E+02  0.86043297195E+02  0.17993922062E+03  0.12500000000E+03 0.  0.
         25    1    1    2    0    0 -0.11593421161E+01 -0.11494761948E+03  0.66543275551E+03  0.68676054882E+03  0.12500000000E+03 0.  0.
         25    1    1    2    0    0  0.34521612654E+02  0.24191721443E+02  0.12404956883E+03  0.18108085667E+03  0.12500000000E+03 0.  0.
</event>
<event>
 5    0  0.5550393E-005  0.5116758E+03  0.7546771E-02  0.1010776E+00
         21   -1    0    0  502  501  0.00000000000E+00  0.00000000000E+00  0.23419311310E+03  0.23419311310E+03  0.00000000000E+00 0.  1.
         21   -1    0    0  501  502 -0.00000000000E+00 -0.00000000000E+00 -0.11179325939E+04  0.11179325939E+04  0.00000000000E+00 0.  1.
         25    1    1    2    0    0  0.18561792871E+03  0.55636898306E+02 -0.54281059272E+03  0.58976081548E+03  0.12500000000E+03 0.  0.
         25    1    1    2    0    0  0.19814462042E+03 -0.13517482343E+03 -0.13915420140E+03  0.30417497474E+03  0.12500000000E+03 0.  0.
         25    1    1    2    0    0 -0.38376254913E+03  0.79537925126E+02 -0.20177468669E+03  0.45818991678E+03  0.12500000000E+03 0.  0.
</event>
<event>
 5    0  0.5550393E-005  0.2231514E+03  0.7546771E-02  0.1131555E+00
         21   -1    0    0  502  501  0.00000000000E+00  0.00000000000E+00  0.39950947913E+03  0.39950947913E+03  0.00000000000E+00 0.  1.
         21   -1    0    0  501  502 -0.00000000000E+00 -0.00000000000E+00 -0.12464417638E+03  0.12464417638E+03  0.00000000000E+00 0.  1.
         25    1    1    2    0    0 -0.29557044653E+02 -0.39069586643E+02  0.85967906155E+02  0.15942249646E+03  0.12500000000E+03 0.  0.
         25    1    1    2    0    0 -0.24403033041E+02  0.84208253145E+02  0.39680532165E+02  0.15775323310E+03  0.12500000000E+03 0.  0.
         25    1    1    2    0    0  0.53960077695E+02 -0.45138666502E+02  0.14921686443E+03  0.20697792595E+03  0.12500000000E+03 0.  0.
</event>
<event>
 5    0  0.5550393E-005  0.3084899E+03  0.7546771E-02  0.1081072E+00
         21   -1    0    0  502  501  0.00000000000E+00  0.00000000000E+00  0.59491356921E+02  0.59491356921E+02  0.00000000000E+00 0.  1.
         21   -1    0    0  501  502 -0.00000000000E+00 -0.00000000000E+00 -0.15996610559E+04  0.15996610559E+04  0.00000000000E+00 0.  1.
         25    1    1    2    0    0 -0.13106484784E+03  0.16006027045E+03 -0.49669758800E+03  0.55238643940E+03  0.12500000000E+03 0.  0.
         25    1    1    2    0    0 -0.10408703011E+02 -0.12208728250E+03 -0.54354166040E+03  0.57103080673E+03  0.12500000000E+03 0.  0.
         25    1    1    2    0    0  0.14147355085E+03 -0.37972987954E+02 -0.49993045058E+03  0.53573516668E+03  0.12500000000E+03 0.  0.
</event>
<event>
 5    0  0.5550393E-005  0.4441884E+03  0.7546771E-02  0.1029469E+00
         21   -1    0    0  502  501  0.00000000000E+00  0.00000000000E+00  0.46316995314E+03  0.46316995314E+03  0.00000000000E+00 0.  1.
         21   -1    0    0  501  502 -0.00000000000E+00 -0.00000000000E+00 -0.42598472891E+03  0.42598472891E+03  0.00000000000E+00 0.  1.
         25    1    1    2    0    0 -0.91207807886E+02  0.67606159994E+02  0.16441528348E+03  0.23568377655E+03  0.12500000000E+03 0.  0.
         25    1    1    2    0    0 -0.19002457498E+03  0.69615077422E+02  0.88011430259E+02  0.25362691095E+03  0.12500000000E+03 0.  0.
         25    1    1    2    0    0  0.28123238287E+03 -0.13722123742E+03 -0.21524148951E+03  0.39984399455E+03  0.12500000000E+03 0.  0.
</event>
<event>
 5    0  0.1111968E-004  0.9499041E+03  0.7546771E-02  0.9365263E-01
         21   -1    0    0  502  501  0.00000000000E+00  0.00000000000E+00  0.14264234049E+04  0.14264234049E+04  0.00000000000E+00 0.  1.
         21   -1    0    0  501  502 -0.00000000000E+00 -0.00000000000E+00 -0.63257361387E+03  0.63257361387E+03  0.00000000000E+00 0.  1.
         25    1    1    2    0    0  0.36293061377E+03  0.86464847757E+02  0.87845066827E+03  0.96254629857E+03  0.12500000000E+03 0.  0.
         25    1    1    2    0    0  0.87364346266E+02  0.30497055949E+03 -0.29569963685E+03  0.45133451716E+03  0.12500000000E+03 0.  0.
         25    1    1    2    0    0 -0.45029496003E+03 -0.39143540724E+03  0.21109875955E+03  0.64511620299E+03  0.12500000000E+03 0.  0.
</event>
<event>
 5    0  0.5550393E-005  0.2968846E+03  0.7546771E-02  0.1086808E+00
         21   -1    0    0  502  501  0.00000000000E+00  0.00000000000E+00  0.20127865062E+04  0.20127865062E+04  0.00000000000E+00 0.  1.
         21   -1    0    0  501  502 -0.00000000000E+00 -0.00000000000E+00 -0.43790256352E+02  0.43790256352E+02  0.00000000000E+00 0.  1.
         25    1    1    2    0    0 -0.10515636677E+03  0.67733955410E+02  0.56182837585E+03  0.58900074202E+03  0.12500000000E+03 0.  0.
         25    1    1    2    0    0  0.95495881567E+02 -0.17684876108E+03  0.63384601757E+03  0.67659494654E+03  0.12500000000E+03 0.  0.
         25    1    1    2    0    0  0.96604852082E+01  0.10911480567E+03  0.77332185640E+03  0.79098107396E+03  0.12500000000E+03 0.  0.
</event>
<event>
 5    0  0.5550393E-005  0.2677286E+03  0.7546771E-02  0.1102587E+00
         21   -1    0    0  502  501  0.00000000000E+00  0.00000000000E+00  0.18607775609E+04  0.18607775609E+04  0.00000000000E+00 0. -1.
         21   -1    0    0  501  502 -0.00000000000E+00 -0.00000000000E+00 -0.38520780200E+02  0.38520780200E+02  0.00000000000E+00 0. -1.
         25    1    1    2    0    0 -0.14011077312E+01  0.55553601195E+02  0.98577076186E+03  0.99521714246E+03  0.12500000000E+03 0.  0.
         25    1    1    2    0    0  0.11991839191E+02  0.81860692849E+02  0.46567907957E+03  0.48921057061E+03  0.12500000000E+03 0.  0.
         25    1    1    2    0    0 -0.10590731460E+02 -0.13741429404E+03  0.37080693931E+03  0.41487062808E+03  0.12500000000E+03 0.  0.
</event>
<event>
 5    0  0.6295589E-005  0.3019810E+03  0.7546771E-02  0.1084254E+00
         21   -1    0    0  502  501  0.00000000000E+00  0.00000000000E+00  0.42173388532E+03  0.42173388532E+03  0.00000000000E+00 0. -1.
         21   -1    0    0  501  502 -0.00000000000E+00 -0.00000000000E+00 -0.21623241250E+03  0.21623241250E+03  0.00000000000E+00 0. -1.
         25    1    1    2    0    0  0.74064036560E+00  0.92308393717E+02  0.24929067326E+03  0.29375538782E+03  0.12500000000E+03 0.  0.
         25    1    1    2    0    0  0.17934497298E+02  0.42108741703E+02 -0.81235176855E+02  0.15594533106E+03  0.12500000000E+03 0.  0.
         25    1    1    2    0    0 -0.18675137664E+02 -0.13441713542E+03  0.37445976416E+02  0.18826557893E+03  0.12500000000E+03 0.  0.
</event>
<event>
 5    0  0.5559446E-005  0.5619316E+03  0.7546771E-02  0.9987693E-01
         21   -1    0    0  502  501  0.00000000000E+00  0.00000000000E+00  0.28150207076E+03  0.28150207076E+03  0.00000000000E+00 0. -1.
         21   -1    0    0  501  502 -0.00000000000E+00 -0.00000000000E+00 -0.11217223709E+04  0.11217223709E+04  0.00000000000E+00 0. -1.
         25    1    1    2    0    0  0.17729716325E+03 -0.91517686977E+02 -0.22459614570E+03  0.32538930497E+03  0.12500000000E+03 0.  0.
         25    1    1    2    0    0 -0.18369024668E+03 -0.11190144566E+03 -0.75936424902E+03  0.79907640621E+03  0.12500000000E+03 0.  0.
         25    1    1    2    0    0  0.63930834236E+01  0.20341913264E+03  0.14374009456E+03  0.27875873049E+03  0.12500000000E+03 0.  0.
</event>
<event>
 5    0  0.5550393E-005  0.3943863E+03  0.7546771E-02  0.1045741E+00
         21   -1    0    0  502  501  0.00000000000E+00  0.00000000000E+00  0.55491602034E+03  0.55491602034E+03  0.00000000000E+00 0. -1.
         21   -1    0    0  501  502 -0.00000000000E+00 -0.00000000000E+00 -0.28029572070E+03  0.28029572070E+03  0.00000000000E+00 0.  1.
         25    1    1    2    0    0 -0.28980817087E+02 -0.22890152590E+03  0.17576655958E+03  0.31583964252E+03  0.12500000000E+03 0.  0.
         25    1    1    2    0    0  0.10526004030E+02  0.31470944497E+03  0.13109710355E+03  0.36326888399E+03  0.12500000000E+03 0.  0.
         25    1    1    2    0    0  0.18454813057E+02 -0.85807919069E+02 -0.32243363490E+02  0.15610321454E+03  0.12500000000E+03 0.  0.
</event>
<event>
 5    0  0.5550393E-005  0.3998371E+03  0.7546771E-02  0.1043836E+00
         21   -1    0    0  502  501  0.00000000000E+00  0.00000000000E+00  0.11554159840E+04  0.11554159840E+04  0.00000000000E+00 0.  1.
         21   -1    0    0  501  502 -0.00000000000E+00 -0.00000000000E+00 -0.13836546634E+03  0.13836546634E+03  0.00000000000E+00 0.  1.
         25    1    1    2    0    0 -0.14094019938E+03 -0.45207385476E+01  0.20019562470E+03  0.27493247358E+03  0.12500000000E+03 0.  0.
         25    1    1    2    0    0  0.32093864581E+03  0.11274571372E+03  0.52892863592E+03  0.64117369895E+03  0.12500000000E+03 0.  0.
         25    1    1    2    0    0 -0.17999844644E+03 -0.10822497517E+03  0.28792625704E+03  0.37767527780E+03  0.12500000000E+03 0.  0.
</event>
<event>
 5    0  0.5550393E-005  0.2798019E+03  0.7546771E-02  0.1095797E+00
         21   -1    0    0  502  501  0.00000000000E+00  0.00000000000E+00  0.57972016175E+03  0.57972016175E+03  0.00000000000E+00 0. -1.
         21   -1    0    0  501  502 -0.00000000000E+00 -0.00000000000E+00 -0.13504635497E+03  0.13504635497E+03  0.00000000000E+00 0. -1.
         25    1    1    2    0    0  0.51900094886E+02 -0.42212882173E+02  0.33732392881E+03  0.36590706501E+03  0.12500000000E+03 0.  0.
         25    1    1    2    0    0  0.40091106609E+02  0.64168087668E+02  0.12345532010E+03  0.19128788871E+03  0.12500000000E+03 0.  0.
         25    1    1    2    0    0 -0.91991201495E+02 -0.21955205495E+02 -0.16105442141E+02  0.15757156300E+03  0.12500000000E+03 0.  0.
</event>
<event>
 5    0  0.5550393E-005  0.2318141E+03  0.7546771E-02  0.1125369E+00
         21   -1    0    0  502  501  0.00000000000E+00  0.00000000000E+00  0.12690000897E+04  0.12690000897E+04  0.00000000000E+00 0.  1.
         21   -1    0    0  501  502 -0.00000000000E+00 -0.00000000000E+00 -0.42346567310E+02  0.42346567310E+02  0.00000000000E+00 0.  1.
         25    1    1    2    0    0 -0.29665856070E+02 -0.28672971519E+02  0.18400452744E+03  0.22624073115E+03  0.12500000000E+03 0.  0.
         25    1    1    2    0    0  0.58805274773E+02  0.69454781727E+02  0.40777340426E+03  0.43610340089E+03  0.12500000000E+03 0.  0.
         25    1    1    2    0    0 -0.29139418703E+02 -0.40781810208E+02  0.63487559073E+03  0.64900252502E+03  0.12500000000E+03 0.  0.
</event>
<event>
 5    0  0.5550393E-005  0.2338584E+03  0.7546771E-02  0.1123953E+00
         21   -1    0    0  502  501  0.00000000000E+00  0.00000000000E+00  0.61930769423E+03  0.61930769423E+03  0.00000000000E+00 0.  1.
         21   -1    0    0  501  502 -0.00000000000E+00 -0.00000000000E+00 -0.88307883451E+02  0.88307883451E+02  0.00000000000E+00 0.  1.
         25    1    1    2    0    0 -0.11443955940E+02 -0.36327526319E+02  0.99026509410E+02  0.16395701529E+03  0.12500000000E+03 0.  0.
         25    1    1    2    0    0 -0.77298047369E+02 -0.33650848787E+02  0.13586421120E+03  0.20295677283E+03  0.12500000000E+03 0.  0.
         25    1    1    2    0    0  0.88742003309E+02  0.69978375105E+02  0.29610909016E+03  0.34070178956E+03  0.12500000000E+03 0.  0.
</event>
<event>
 5    0  0.5550393E-005  0.3047478E+03  0.7546771E-02  0.1082891E+00
         21   -1    0    0  502  501  0.00000000000E+00  0.00000000000E+00  0.16542007142E+03  0.16542007142E+03  0.00000000000E+00 0.  1.
         21   -1    0    0  501  502 -0.00000000000E+00 -0.00000000000E+00 -0.56142668741E+03  0.56142668741E+03  0.00000000000E+00 0.  1.
         25    1    1    2    0    0 -0.96956233115E+02  0.35945491582E+02 -0.10766575533E+02  0.16258385115E+03  0.12500000000E+03 0.  0.
         25    1    1    2    0    0 -0.56638510201E+02 -0.88219341230E+02 -0.48626368845E+02  0.17023541568E+03  0.12500000000E+03 0.  0.
         25    1    1    2    0    0  0.15359474332E+03  0.52273849648E+02 -0.33661367162E+03  0.39402749200E+03  0.12500000000E+03 0.  0.
</event>
<event>
 5    0  0.5550393E-005  0.2132945E+03  0.7546771E-02  0.1138983E+00
         21   -1    0    0  502  501  0.00000000000E+00  0.00000000000E+00  0.42616438625E+03  0.42616438625E+03  0.00000000000E+00 0. -1.
         21   -1    0    0  501  502 -0.00000000000E+00 -0.00000000000E+00 -0.10675348019E+03  0.10675348019E+03  0.00000000000E+00 0. -1.
         25    1    1    2    0    0  0.13554283881E+02  0.12551927140E+02  0.93893523106E+02  0.15742383291E+03  0.12500000000E+03 0.  0.
         25    1    1    2    0    0  0.51189108652E+02 -0.58744189745E+02  0.14579638726E+03  0.20725055178E+03  0.12500000000E+03 0.  0.
         25    1    1    2    0    0 -0.64743392533E+02  0.46192262605E+02  0.79720995690E+02  0.16824348176E+03  0.12500000000E+03 0.  0.
</event>
<event>
 5    0  0.5550393E-005  0.2993736E+03  0.7546771E-02  0.1085554E+00
         21   -1    0    0  502  501  0.00000000000E+00  0.00000000000E+00  0.27585890649E+04  0.27585890649E+04  0.00000000000E+00 0.  1.
         21   -1    0    0  501  502 -0.00000000000E+00 -0.00000000000E+00 -0.32489279750E+02  0.32489279750E+02  0.00000000000E+00 0.  1.
         25    1    1    2    0    0 -0.14572079323E+03 -0.29347192439E+02  0.84458675721E+03  0.86663002356E+03  0.12500000000E+03 0.  0.
         25    1    1    2    0    0  0.27743208448E+01 -0.49332611979E+02  0.28903120836E+03  0.31875608679E+03  0.12500000000E+03 0.  0.
         25    1    1    2    0    0  0.14294647238E+03  0.78679804418E+02  0.15924818196E+04  0.16056922343E+04  0.12500000000E+03 0.  0.
</event>
<event>
 5    0  0.5550393E-005  0.2770423E+03  0.7546771E-02  0.1097315E+00
         21   -1    0    0  502  501  0.00000000000E+00  0.00000000000E+00  0.42414813569E+03  0.42414813569E+03  0.00000000000E+00 0. -1.
         21   -1    0    0  501  502 -0.00000000000E+00 -0.00000000000E+00 -0.18095661654E+03  0.18095661654E+03  0.00000000000E+00 0. -1.
         25    1    1    2    0    0  0.10641120000E+03  0.98183029811E+01  0.15849177592E+03  0.22839523986E+03  0.12500000000E+03 0.  0.
         25    1    1    2    0    0 -0.47984828962E+02 -0.79858563936E+02 -0.57879392439E+02  0.16629779949E+03  0.12500000000E+03 0.  0.
         25    1    1    2    0    0 -0.58426371035E+02  0.70040260955E+02  0.14257913568E+03  0.21041171288E+03  0.12500000000E+03 0.  0.
</event>
<event>
 5    0  0.5550393E-005  0.3177454E+03  0.7546771E-02  0.1076692E+00
         21   -1    0    0  502  501  0.00000000000E+00  0.00000000000E+00  0.18319846858E+03  0.18319846858E+03  0.00000000000E+00 0.  1.
         21   -1    0    0  501  502 -0.00000000000E+00 -0.00000000000E+00 -0.55110793953E+03  0.55110793953E+03  0.00000000000E+00 0.  1.
         25    1    1    2    0    0 -0.50401619178E+02 -0.45008376364E+02 -0.33482798299E+02  0.14598689989E+03  0.12500000000E+03 0.  0.
         25    1    1    2    0    0 -0.81920207568E+02  0.16223158774E+03 -0.29484564053E+03  0.36822406250E+03  0.12500000000E+03 0.  0.
         25    1    1    2    0    0  0.13232182675E+03 -0.11722321137E+03 -0.39581032122E+02  0.22009544571E+03  0.12500000000E+03 0.  0.
</event>
<event>
 5    0  0.5550393E-005  0.2499718E+03  0.7546771E-02  0.1113323E+00
         21   -1    0    0  502  501  0.00000000000E+00  0.00000000000E+00  0.58765415052E+02  0.58765415052E+02  0.00000000000E+00 0.  1.
         21   -1    0    0  501  502 -0.00000000000E+00 -0.00000000000E+00 -0.10633107302E+04  0.10633107302E+04  0.00000000000E+00 0.  1.
         25    1    1    2    0    0  0.87076363711E+02 -0.20348598762E+02 -0.32522452366E+03  0.35971148074E+03  0.12500000000E+03 0.  0.
         25    1    1    2    0    0  0.10452771190E+02 -0.76920325644E+02 -0.20061775037E+03  0.24879404873E+03  0.12500000000E+03 0.  0.
         25    1    1    2    0    0 -0.97529134901E+02  0.97268924406E+02 -0.47870304114E+03  0.51357061579E+03  0.12500000000E+03 0.  0.
</event>
<event>
 5    0  0.5550393E-005  0.3874153E+03  0.7546771E-02  0.1048227E+00
         21   -1    0    0  502  501  0.00000000000E+00  0.00000000000E+00  0.24658501343E+04  0.24658501343E+04  0.00000000000E+00 0. -1.
         21   -1    0    0  501  502 -0.00000000000E+00 -0.00000000000E+00 -0.60867704309E+02  0.60867704309E+02  0.00000000000E+00 0. -1.
         25    1    1    2    0    0  0.18105516784E+03  0.22593952321E+03  0.14138012313E+04  0.14485470526E+04  0.12500000000E+03 0.  0.
         25    1    1    2    0    0 -0.11069100257E+02 -0.10893583515E+03  0.55933113878E+03  0.58349452780E+03  0.12500000000E+03 0.  0.
         25    1    1    2    0    0 -0.16998606758E+03 -0.11700368807E+03  0.43185005986E+03  0.49467625817E+03  0.12500000000E+03 0.  0.
</event>
<event>
 5    0  0.5550393E-005  0.2549947E+03  0.7546771E-02  0.1110188E+00
         21   -1    0    0  502  501  0.00000000000E+00  0.00000000000E+00  0.17633273461E+04  0.17633273461E+04  0.00000000000E+00 0. -1.
         21   -1    0    0  501  502 -0.00000000000E+00 -0.00000000000E+00 -0.36874775994E+02  0.36874775994E+02  0.00000000000E+00 0. -1.
         25    1    1    2    0    0  0.47900288245E+02  0.57498063616E+02  0.71085302639E+03  0.72562903061E+03  0.12500000000E+03 0.  0.
         25    1    1    2    0    0 -0.46820286577E+02 -0.14545188862E+03  0.53553770111E+03  0.57076616968E+03  0.12500000000E+03 0.  0.
         25    1    1    2    0    0 -0.10800016678E+01  0.87953825007E+02  0.48006184266E+03  0.50380692186E+03  0.12500000000E+03 0.  0.
</event>
<event>
 5    0  0.5550393E-005  0.4188000E+03  0.7546771E-02  0.1037458E+00
         21   -1    0    0  502  501  0.00000000000E+00  0.00000000000E+00  0.24968162792E+03  0.24968162792E+03  0.00000000000E+00 0.  1.
         21   -1    0    0  501  502 -0.00000000000E+00 -0.00000000000E+00 -0.70246817948E+03  0.70246817948E+03  0.00000000000E+00 0.  1.
         25    1    1    2    0    0 -0.56467035382E+02 -0.17221482313E+03 -0.29905609769E+03  0.37135699934E+03  0.12500000000E+03 0.  0.
         25    1    1    2    0    0 -0.27041927939E+02  0.32070707110E+03 -0.12664694684E+03  0.36776179854E+03  0.12500000000E+03 0.  0.
         25    1    1    2    0    0  0.83508963321E+02 -0.14849224797E+03 -0.27083507029E+02  0.21303100951E+03  0.12500000000E+03 0.  0.
</event>
<event>
 5    0  0.5550393E-005  0.3183212E+03  0.7546771E-02  0.1076425E+00
         21   -1    0    0  502  501  0.00000000000E+00  0.00000000000E+00  0.16741995234E+03  0.16741995234E+03  0.00000000000E+00 0. -1.
         21   -1    0    0  501  502 -0.00000000000E+00 -0.00000000000E+00 -0.60523494983E+03  0.60523494983E+03  0.00000000000E+00 0. -1.
         25    1    1    2    0    0 -0.10019846982E+03  0.13145414232E+03 -0.32521814121E+03  0.38563164323E+03  0.12500000000E+03 0.  0.
         25    1    1    2    0    0  0.14827568614E+03 -0.99595358963E+02 -0.15503723467E+02  0.21856413262E+03  0.12500000000E+03 0.  0.
         25    1    1    2    0    0 -0.48077216318E+02 -0.31858783354E+02 -0.97093132813E+02  0.16845912633E+03  0.12500000000E+03 0.  0.
</event>
<event>
 5    0  0.5550393E-005  0.2901996E+03  0.7546771E-02  0.1090245E+00
         21   -1    0    0  502  501  0.00000000000E+00  0.00000000000E+00  0.85180863808E+02  0.85180863808E+02  0.00000000000E+00 0. -1.
         21   -1    0    0  501  502 -0.00000000000E+00 -0.00000000000E+00 -0.98867020431E+03  0.98867020431E+03  0.00000000000E+00 0. -1.
         25    1    1    2    0    0  0.11972079068E+03 -0.89432816081E+02 -0.17482626939E+03  0.26176424657E+03  0.12500000000E+03 0.  0.
         25    1    1    2    0    0 -0.10429384910E+03  0.11255416134E+03 -0.59469037079E+03  0.62675935040E+03  0.12500000000E+03 0.  0.
         25    1    1    2    0    0 -0.15426941580E+02 -0.23121345259E+02 -0.13397270032E+03  0.18532747115E+03  0.12500000000E+03 0.  0.
</event>
<event>
 5    0  0.5550393E-005  0.3265291E+03  0.7546771E-02  0.1072683E+00
         21   -1    0    0  502  501  0.00000000000E+00  0.00000000000E+00  0.39230765998E+03  0.39230765998E+03  0.00000000000E+00 0.  1.
         21   -1    0    0  501  502 -0.00000000000E+00 -0.00000000000E+00 -0.27177965410E+03  0.27177965410E+03  0.00000000000E+00 0.  1.
         25    1    1    2    0    0 -0.17817112715E+02 -0.20319325907E+03  0.13831701541E+02  0.23962734820E+03  0.12500000000E+03 0.  0.
         25    1    1    2    0    0  0.82293247363E+02  0.34211207517E+02 -0.41855645135E+02  0.15912096126E+03  0.12500000000E+03 0.  0.
         25    1    1    2    0    0 -0.64476134648E+02  0.16898205155E+03  0.14855194947E+03  0.26533900463E+03  0.12500000000E+03 0.  0.
</event>
<event>
 5    0  0.5550393E-005  0.2691847E+03  0.7546771E-02  0.1101747E+00
         21   -1    0    0  502  501  0.00000000000E+00  0.00000000000E+00  0.30804098213E+03  0.30804098213E+03  0.00000000000E+00 0. -1.
         21   -1    0    0  501  502 -0.00000000000E+00 -0.00000000000E+00 -0.23522976484E+03  0.23522976484E+03  0.00000000000E+00 0. -1.
         25    1    1    2    0    0 -0.12921829767E+03  0.37901904363E+00  0.18793975794E+02  0.18076428197E+03  0.12500000000E+03 0.  0.
         25    1    1    2    0    0  0.44391955601E+02 -0.26508475757E+02 -0.81468932786E+02  0.15790988575E+03  0.12500000000E+03 0.  0.
         25    1    1    2    0    0  0.84826342072E+02  0.26129456714E+02  0.13548617428E+03  0.20459657925E+03  0.12500000000E+03 0.  0.
</event>
<event>
 5    0  0.5550393E-005  0.3131612E+03  0.7546771E-02  0.1078840E+00
         21   -1    0    0  502  501  0.00000000000E+00  0.00000000000E+00  0.13810717488E+03  0.13810717488E+03  0.00000000000E+00 0. -1.
         21   -1    0    0  501  502 -0.00000000000E+00 -0.00000000000E+00 -0.71010026530E+03  0.71010026530E+03  0.00000000000E+00 0. -1.
         25    1    1    2    0    0 -0.58917363665E+02 -0.92306226550E+02 -0.26600877809E+03  0.31365166224E+03  0.12500000000E+03 0.  0.
         25    1    1    2    0    0 -0.41794689673E+02 -0.62433655760E+02  0.11841880978E+02  0.14632152132E+03  0.12500000000E+03 0.  0.
         25    1    1    2    0    0  0.10071205334E+03  0.15473988231E+03 -0.31782619331E+03  0.38823425663E+03  0.12500000000E+03 0.  0.
</event>
<event>
 5    0  0.5550393E-005  0.2638815E+03  0.7546771E-02  0.1104833E+00
         21   -1    0    0  502  501  0.00000000000E+00  0.00000000000E+00  0.16515815830E+03  0.16515815830E+03  0.00000000000E+00 0. -1.
         21   -1    0    0  501  502 -0.00000000000E+00 -0.00000000000E+00 -0.42161661918E+03  0.42161661918E+03  0.00000000000E+00 0. -1.
         25    1    1    2    0    0 -0.70545921594E+02 -0.66524716372E+01 -0.27429124347E+03  0.30964765247E+03  0.12500000000E+03 0.  0.
         25    1    1    2    0    0  0.12501393202E+02 -0.11099326938E+02 -0.30949735960E+02  0.12985517335E+03  0.12500000000E+03 0.  0.
         25    1    1    2    0    0  0.58044528392E+02  0.17751798575E+02  0.48782518555E+02  0.14727195166E+03  0.12500000000E+03 0.  0.
</event>
<event>
 5    0  0.5550393E-005  0.2638661E+03  0.7546771E-02  0.1104842E+00
         21   -1    0    0  502  501  0.00000000000E+00  0.00000000000E+00  0.16811443396E+03  0.16811443396E+03  0.00000000000E+00 0. -1.
         21   -1    0    0  501  502 -0.00000000000E+00 -0.00000000000E+00 -0.41415428380E+03  0.41415428380E+03  0.00000000000E+00 0. -1.
         25    1    1    2    0    0 -0.75780549578E+02 -0.54905040658E+02 -0.22044300741E+03  0.27014324848E+03  0.12500000000E+03 0.  0.
         25    1    1    2    0    0  0.57682737620E+02 -0.50268751665E+02 -0.71232726559E+01  0.14673100091E+03  0.12500000000E+03 0.  0.
         25    1    1    2    0    0  0.18097811958E+02  0.10517379232E+03 -0.18473569779E+02  0.16539446838E+03  0.12500000000E+03 0.  0.
</event>
<event>
 5    0  0.5550393E-005  0.2743611E+03  0.7546771E-02  0.1098809E+00
         21   -1    0    0  502  501  0.00000000000E+00  0.00000000000E+00  0.24750952575E+02  0.24750952575E+02  0.00000000000E+00 0. -1.
         21   -1    0    0  501  502 -0.00000000000E+00 -0.00000000000E+00 -0.30412563096E+04  0.30412563096E+04  0.00000000000E+00 0. -1.
         25    1    1    2    0    0 -0.66082242512E+02  0.41423489510E+02 -0.43330412200E+03  0.45766825365E+03  0.12500000000E+03 0.  0.
         25    1    1    2    0    0  0.14241173037E+03  0.24431890314E+02 -0.16953717793E+04  0.17061033053E+04  0.12500000000E+03 0.  0.
         25    1    1    2    0    0 -0.76329487863E+02 -0.65855379823E+02 -0.88782945572E+03  0.90223570324E+03  0.12500000000E+03 0.  0.
</event>
<event>
 5    0  0.5550393E-005  0.2328760E+03  0.7546771E-02  0.1124632E+00
         21   -1    0    0  502  501  0.00000000000E+00  0.00000000000E+00  0.92955082853E+02  0.92955082853E+02  0.00000000000E+00 0.  1.
         21   -1    0    0  501  502 -0.00000000000E+00 -0.00000000000E+00 -0.58341311075E+03  0.58341311075E+03  0.00000000000E+00 0.  1.
         25    1    1    2    0    0  0.28680636057E+02 -0.72066906002E+02 -0.29429899897E+03  0.32901841684E+03  0.12500000000E+03 0.  0.
         25    1    1    2    0    0 -0.66445819597E+02  0.42640787126E+02 -0.13490977923E+03  0.20014727628E+03  0.12500000000E+03 0.  0.
         25    1    1    2    0    0  0.37765183540E+02  0.29426118876E+02 -0.61249249689E+02  0.14720250048E+03  0.12500000000E+03 0.  0.
</event>
<event>
 5    0  0.5550393E-005  0.2620890E+03  0.7546771E-02  0.1105895E+00
         21   -1    0    0  502  501  0.00000000000E+00  0.00000000000E+00  0.15615883396E+03  0.15615883396E+03  0.00000000000E+00 0.  1.
         21   -1    0    0  501  502 -0.00000000000E+00 -0.00000000000E+00 -0.43987684426E+03  0.43987684426E+03  0.00000000000E+00 0.  1.
         25    1    1    2    0    0  0.24821505731E+02 -0.75645783415E+00 -0.89618348287E+02  0.15579835598E+03  0.12500000000E+03 0.  0.
         25    1    1    2    0    0 -0.12739833449E+03 -0.21641956530E+02 -0.20973365362E+03  0.27624611377E+03  0.12500000000E+03 0.  0.
         25    1    1    2    0    0  0.10257682876E+03  0.22398414364E+02  0.15633991610E+02  0.16399120848E+03  0.12500000000E+03 0.  0.
</event>
<event>
 5    0  0.5550393E-005  0.2983827E+03  0.7546771E-02  0.1086052E+00
         21   -1    0    0  502  501  0.00000000000E+00  0.00000000000E+00  0.56691020417E+03  0.56691020417E+03  0.00000000000E+00 0.  1.
         21   -1    0    0  501  502 -0.00000000000E+00 -0.00000000000E+00 -0.15704824051E+03  0.15704824051E+03  0.00000000000E+00 0.  1.
         25    1    1    2    0    0 -0.11423789292E+03  0.63766927451E+02  0.35691055407E+03  0.40015829471E+03  0.12500000000E+03 0.  0.
         25    1    1    2    0    0 -0.46311966727E+01  0.53138187237E+01  0.57857593424E+02  0.13792094028E+03  0.12500000000E+03 0.  0.
         25    1    1    2    0    0  0.11886908960E+03 -0.69080746175E+02 -0.49061838325E+01  0.18587920968E+03  0.12500000000E+03 0.  0.
</event>
<event>
 5    0  0.5550393E-005  0.3196787E+03  0.7546771E-02  0.1075797E+00
         21   -1    0    0  502  501  0.00000000000E+00  0.00000000000E+00  0.19844009381E+03  0.19844009381E+03  0.00000000000E+00 0.  1.
         21   -1    0    0  501  502 -0.00000000000E+00 -0.00000000000E+00 -0.51498909938E+03  0.51498909938E+03  0.00000000000E+00 0.  1.
         25    1    1    2    0    0 -0.72339344169E+02 -0.12896088263E+02 -0.22200341507E+03  0.26515996325E+03  0.12500000000E+03 0.  0.
         25    1    1    2    0    0 -0.11523867608E+03 -0.41209839544E+02  0.41077813901E+02  0.17969582670E+03  0.12500000000E+03 0.  0.
         25    1    1    2    0    0  0.18757802025E+03  0.54105927808E+02 -0.13562340440E+03  0.26857340323E+03  0.12500000000E+03 0.  0.
</event>
<event>
 5    0  0.5550393E-005  0.3315964E+03  0.7546771E-02  0.1070433E+00
         21   -1    0    0  502  501  0.00000000000E+00  0.00000000000E+00  0.29612863460E+03  0.29612863460E+03  0.00000000000E+00 0.  1.
         21   -1    0    0  501  502 -0.00000000000E+00 -0.00000000000E+00 -0.37131214423E+03  0.37131214423E+03  0.00000000000E+00 0.  1.
         25    1    1    2    0    0 -0.99297334874E+02  0.78490037191E+02 -0.50975519342E+02  0.18505175012E+03  0.12500000000E+03 0.  0.
         25    1    1    2    0    0  0.22681334109E+03 -0.13199715262E+03  0.18100254243E+02  0.29123900700E+03  0.12500000000E+03 0.  0.
         25    1    1    2    0    0 -0.12751600621E+03  0.53507115430E+02 -0.42308244526E+02  0.19115002170E+03  0.12500000000E+03 0.  0.
</event>
<event>
 5    0  0.5550393E-005  0.2639225E+03  0.7546771E-02  0.1104809E+00
         21   -1    0    0  502  501  0.00000000000E+00  0.00000000000E+00  0.36120294095E+03  0.36120294095E+03  0.00000000000E+00 0.  1.
         21   -1    0    0  501  502 -0.00000000000E+00 -0.00000000000E+00 -0.19284203632E+03  0.19284203632E+03  0.00000000000E+00 0.  1.
         25    1    1    2    0    0 -0.50424133762E+02 -0.70251249955E+02 -0.36485387225E+02  0.15631383453E+03  0.12500000000E+03 0.  0.
         25    1    1    2    0    0 -0.86468251244E+01 -0.56473661054E+02  0.28630558797E+02  0.14038785872E+03  0.12500000000E+03 0.  0.
         25    1    1    2    0    0  0.59070958886E+02  0.12672491101E+03  0.17621573305E+03  0.25734328402E+03  0.12500000000E+03 0.  0.
</event>
<event>
 5    0  0.5550393E-005  0.3869451E+03  0.7546771E-02  0.1048396E+00
         21   -1    0    0  502  501  0.00000000000E+00  0.00000000000E+00  0.88380441195E+03  0.88380441195E+03  0.00000000000E+00 0.  1.
         21   -1    0    0  501  502 -0.00000000000E+00 -0.00000000000E+00 -0.16941134148E+03  0.16941134148E+03  0.00000000000E+00 0.  1.
         25    1    1    2    0    0 -0.12238342578E+03 -0.36831092139E+02 -0.73071669378E+02  0.19312871646E+03  0.12500000000E+03 0.  0.
         25    1    1    2    0    0  0.89494486649E+00  0.72262084718E+02  0.20269976302E+03  0.24886704029E+03  0.12500000000E+03 0.  0.
         25    1    1    2    0    0  0.12148848092E+03 -0.35430992580E+02  0.58476497683E+03  0.61121999669E+03  0.12500000000E+03 0.  0.
</event>
<event>
 5    0  0.5550393E-005  0.3016474E+03  0.7546771E-02  0.1084420E+00
         21   -1    0    0  502  501  0.00000000000E+00  0.00000000000E+00  0.12650096480E+04  0.12650096480E+04  0.00000000000E+00 0. -1.
         21   -1    0    0  501  502 -0.00000000000E+00 -0.00000000000E+00 -0.71929230960E+02  0.71929230960E+02  0.00000000000E+00 0. -1.
         25    1    1    2    0    0  0.14594618887E+03  0.10581411202E+02  0.77582313049E+03  0.79933646614E+03  0.12500000000E+03 0.  0.
         25    1    1    2    0    0 -0.88460466020E+02 -0.63487602945E+02  0.32179372628E+03  0.36198360743E+03  0.12500000000E+03 0.  0.
         25    1    1    2    0    0 -0.57485722853E+02  0.52906191743E+02  0.95463560223E+02  0.17561880533E+03  0.12500000000E+03 0.  0.
</event>
<event>
 5    0  0.5550393E-005  0.2369052E+03  0.7546771E-02  0.1121872E+00
         21   -1    0    0  502  501  0.00000000000E+00  0.00000000000E+00  0.15622473165E+03  0.15622473165E+03  0.00000000000E+00 0.  1.
         21   -1    0    0  501  502 -0.00000000000E+00 -0.00000000000E+00 -0.35925228259E+03  0.35925228259E+03  0.00000000000E+00 0.  1.
         25    1    1    2    0    0  0.84462430637E+02  0.40290493958E+02 -0.44735539263E+02  0.16242996819E+03  0.12500000000E+03 0.  0.
         25    1    1    2    0    0  0.23362893337E+02  0.41768836692E+01 -0.11573541111E+02  0.12775843611E+03  0.12500000000E+03 0.  0.
         25    1    1    2    0    0 -0.10782532397E+03 -0.44467377628E+02 -0.14671847057E+03  0.22528860994E+03  0.12500000000E+03 0.  0.
</event>
<event>
 5    0  0.5550393E-005  0.3653743E+03  0.7546771E-02  0.1056476E+00
         21   -1    0    0  502  501  0.00000000000E+00  0.00000000000E+00  0.24418230178E+03  0.24418230178E+03  0.00000000000E+00 0.  1.
         21   -1    0    0  501  502 -0.00000000000E+00 -0.00000000000E+00 -0.54671590939E+03  0.54671590939E+03  0.00000000000E+00 0.  1.
         25    1    1    2    0    0  0.89211725925E+02  0.79935020763E+02 -0.36600901860E+03  0.40489003603E+03  0.12500000000E+03 0.  0.
         25    1    1    2    0    0 -0.19145722942E+02 -0.10869663350E+03  0.14295285147E+03  0.21964069428E+03  0.12500000000E+03 0.  0.
         25    1    1    2    0    0 -0.70066002983E+02  0.28761612733E+02 -0.79477440479E+02  0.16636748085E+03  0.12500000000E+03 0.  0.
</event>
<event>
 5    0  0.5550393E-005  0.3625163E+03  0.7546771E-02  0.1057592E+00
         21   -1    0    0  502  501  0.00000000000E+00  0.00000000000E+00  0.16924934427E+04  0.16924934427E+04  0.00000000000E+00 0.  1.
         21   -1    0    0  501  502 -0.00000000000E+00 -0.00000000000E+00 -0.77647629024E+02  0.77647629024E+02  0.00000000000E+00 0.  1.
         25    1    1    2    0    0 -0.62840229228E+02 -0.63270101811E+02  0.54123913276E+03  0.56259825721E+03  0.12500000000E+03 0.  0.
         25    1    1    2    0    0 -0.10389704179E+03 -0.16520953872E+03  0.34058332486E+03  0.41195969239E+03  0.12500000000E+03 0.  0.
         25    1    1    2    0    0  0.16673727102E+03  0.22847964053E+03  0.73302335607E+03  0.79558312213E+03  0.12500000000E+03 0.  0.
</event>
<event>
 5    0  0.5550393E-005  0.2468163E+03  0.7546771E-02  0.1115334E+00
         21   -1    0    0  502  501  0.00000000000E+00  0.00000000000E+00  0.12780595544E+03  0.12780595544E+03  0.00000000000E+00 0.  1.
         21   -1    0    0  501  502 -0.00000000000E+00 -0.00000000000E+00 -0.47664678125E+03  0.47664678125E+03  0.00000000000E+00 0.  1.
         25    1    1    2    0    0 -0.28844528221E+02 -0.83017243301E+02 -0.43326201565E+02  0.15882704189E+03  0.12500000000E+03 0.  0.
         25    1    1    2    0    0  0.38669879769E+02  0.13436453706E+03 -0.15695992193E+03  0.24456206884E+03  0.12500000000E+03 0.  0.
         25    1    1    2    0    0 -0.98253515486E+01 -0.51347293760E+02 -0.14855470231E+03  0.20106362597E+03  0.12500000000E+03 0.  0.
</event>
<event>
 5    0  0.5550393E-005  0.3288692E+03  0.7546771E-02  0.1071638E+00
         21   -1    0    0  502  501  0.00000000000E+00  0.00000000000E+00  0.13126902605E+03  0.13126902605E+03  0.00000000000E+00 0. -1.
         21   -1    0    0  501  502 -0.00000000000E+00 -0.00000000000E+00 -0.82391809572E+03  0.82391809572E+03  0.00000000000E+00 0. -1.
         25    1    1    2    0    0  0.10611218082E+03  0.80605096745E+02 -0.23627857852E+02  0.18422880395E+03  0.12500000000E+03 0.  0.
         25    1    1    2    0    0  0.73792870136E+02 -0.74399122325E+02 -0.31122610345E+03  0.35137914644E+03  0.12500000000E+03 0.  0.
         25    1    1    2    0    0 -0.17990505096E+03 -0.62059744196E+01 -0.35779510837E+03  0.41957917137E+03  0.12500000000E+03 0.  0.
</event>
<event>
 5    0  0.5550393E-005  0.3874291E+03  0.7546771E-02  0.1048222E+00
         21   -1    0    0  502  501  0.00000000000E+00  0.00000000000E+00  0.95718406852E+03  0.95718406852E+03  0.00000000000E+00 0. -1.
         21   -1    0    0  501  502 -0.00000000000E+00 -0.00000000000E+00 -0.15681547719E+03  0.15681547719E+03  0.00000000000E+00 0. -1.
         25    1    1    2    0    0  0.10277100108E+03 -0.59109992631E+02  0.11058855362E+03  0.20472102501E+03  0.12500000000E+03 0.  0.
         25    1    1    2    0    0 -0.27722761637E+03  0.15692470656E+03  0.30734768016E+03  0.45996533707E+03  0.12500000000E+03 0.  0.
         25    1    1    2    0    0  0.17445661529E+03 -0.97814713934E+02  0.38243235755E+03  0.44931318363E+03  0.12500000000E+03 0.  0.
</event>
<event>
 5    0  0.5550393E-005  0.4274258E+03  0.7546771E-02  0.1034676E+00
         21   -1    0    0  502  501  0.00000000000E+00  0.00000000000E+00  0.63512103560E+03  0.63512103560E+03  0.00000000000E+00 0.  1.
         21   -1    0    0  501  502 -0.00000000000E+00 -0.00000000000E+00 -0.28765040528E+03  0.28765040528E+03  0.00000000000E+00 0.  1.
         25    1    1    2    0    0 -0.10362428952E+03 -0.15023117992E+03  0.39582402865E+03  0.45344135504E+03  0.12500000000E+03 0.  0.
         25    1    1    2    0    0  0.13357039228E+03  0.19641006420E+03  0.81871076186E+02  0.28061688497E+03  0.12500000000E+03 0.  0.
         25    1    1    2    0    0 -0.29946102754E+02 -0.46178884279E+02 -0.13022447451E+03  0.18871320088E+03  0.12500000000E+03 0.  0.
</event>
<event>
 5    0  0.5550393E-005  0.4560660E+03  0.7546771E-02  0.1025928E+00
         21   -1    0    0  502  501  0.00000000000E+00  0.00000000000E+00  0.62926624736E+03  0.62926624736E+03  0.00000000000E+00 0.  1.
         21   -1    0    0  501  502 -0.00000000000E+00 -0.00000000000E+00 -0.33053770676E+03  0.33053770676E+03  0.00000000000E+00 0.  1.
         25    1    1    2    0    0 -0.50658945470E+02  0.23207298184E+03  0.31878112022E+03  0.41673804754E+03  0.12500000000E+03 0.  0.
         25    1    1    2    0    0  0.10977856987E+03 -0.33148908462E+03  0.50129302053E+01  0.37092651171E+03  0.12500000000E+03 0.  0.
         25    1    1    2    0    0 -0.59119624400E+02  0.99416102777E+02 -0.25065509833E+02  0.17213939486E+03  0.12500000000E+03 0.  0.
</event>
<event>
 5    0  0.5550393E-005  0.4269617E+03  0.7546771E-02  0.1034824E+00
         21   -1    0    0  502  501  0.00000000000E+00  0.00000000000E+00  0.48779529753E+03  0.48779529753E+03  0.00000000000E+00 0. -1.
         21   -1    0    0  501  502 -0.00000000000E+00 -0.00000000000E+00 -0.37371481249E+03  0.37371481249E+03  0.00000000000E+00 0. -1.
         25    1    1    2    0    0  0.33585435651E+02  0.28654333962E+03  0.23141233343E+03  0.39039945572E+03  0.12500000000E+03 0.  0.
         25    1    1    2    0    0 -0.13208379103E+03 -0.19828796517E+03 -0.34805604288E+02  0.27129444350E+03  0.12500000000E+03 0.  0.
         25    1    1    2    0    0  0.98498355376E+02 -0.88255374449E+02 -0.82526244097E+02  0.19981621079E+03  0.12500000000E+03 0.  0.
</event>
<event>
 5    0  0.5550393E-005  0.2663584E+03  0.7546771E-02  0.1103382E+00
         21   -1    0    0  502  501  0.00000000000E+00  0.00000000000E+00  0.81211748810E+03  0.81211748810E+03  0.00000000000E+00 0. -1.
         21   -1    0    0  501  502 -0.00000000000E+00 -0.00000000000E+00 -0.87360272897E+02  0.87360272897E+02  0.00000000000E+00 0. -1.
         25    1    1    2    0    0 -0.14386606289E+02 -0.95940005427E+02  0.43869018112E+03  0.46635344331E+03  0.12500000000E+03 0.  0.
         25    1    1    2    0    0 -0.54965370776E+02  0.11796504454E+03  0.16474898987E+03  0.24434437457E+03  0.12500000000E+03 0.  0.
         25    1    1    2    0    0  0.69351977066E+02 -0.22025039115E+02  0.12131804421E+03  0.18877994311E+03  0.12500000000E+03 0.  0.
</event>
<event>
 5    0  0.5550393E-005  0.4440638E+03  0.7546771E-02  0.1029507E+00
         21   -1    0    0  502  501  0.00000000000E+00  0.00000000000E+00  0.10557343919E+03  0.10557343919E+03  0.00000000000E+00 0. -1.
         21   -1    0    0  501  502 -0.00000000000E+00 -0.00000000000E+00 -0.18678246033E+04  0.18678246033E+04  0.00000000000E+00 0. -1.
         25    1    1    2    0    0 -0.11408773008E+03  0.19274667495E+02 -0.40717124702E+02  0.17512968682E+03  0.12500000000E+03 0.  0.
         25    1    1    2    0    0 -0.13249706736E+03  0.93246390446E+02 -0.48865059580E+03  0.52976859757E+03  0.12500000000E+03 0.  0.
         25    1    1    2    0    0  0.24658479744E+03 -0.11252105794E+03 -0.12328834436E+04  0.12684997581E+04  0.12500000000E+03 0.  0.
</event>
<event>
 5    0  0.5550393E-005  0.3084701E+03  0.7546771E-02  0.1081081E+00
         21   -1    0    0  502  501  0.00000000000E+00  0.00000000000E+00  0.80202030533E+03  0.80202030533E+03  0.00000000000E+00 0. -1.
         21   -1    0    0  501  502 -0.00000000000E+00 -0.00000000000E+00 -0.11864265135E+03  0.11864265135E+03  0.00000000000E+00 0. -1.
         25    1    1    2    0    0  0.41760023061E+01 -0.37714004006E+02  0.13722526283E+03  0.18946123047E+03  0.12500000000E+03 0.  0.
         25    1    1    2    0    0 -0.11197396768E+03  0.12523195737E+03  0.71766297231E+02  0.22135178789E+03  0.12500000000E+03 0.  0.
         25    1    1    2    0    0  0.10779796537E+03 -0.87517953363E+02  0.47438609392E+03  0.50984993832E+03  0.12500000000E+03 0.  0.
</event>
<event>
 5    0  0.5550393E-005  0.3990182E+03  0.7546771E-02  0.1044120E+00
         21   -1    0    0  502  501  0.00000000000E+00  0.00000000000E+00  0.19611902600E+04  0.19611902600E+04  0.00000000000E+00 0. -1.
         21   -1    0    0  501  502 -0.00000000000E+00 -0.00000000000E+00 -0.81183125020E+02  0.81183125020E+02  0.00000000000E+00 0. -1.
         25    1    1    2    0    0  0.40608691238E+02 -0.19339990821E+03  0.14142043683E+04  0.14334055900E+04  0.12500000000E+03 0.  0.
         25    1    1    2    0    0 -0.65464313211E+02  0.44177288925E+02  0.35276741936E+03  0.38250106055E+03  0.12500000000E+03 0.  0.
         25    1    1    2    0    0  0.24855621973E+02  0.14922261929E+03  0.11303534732E+03  0.22646673441E+03  0.12500000000E+03 0.  0.
</event>
<event>
 5    0  0.5550393E-005  0.3219481E+03  0.7546771E-02  0.1074756E+00
         21   -1    0    0  502  501  0.00000000000E+00  0.00000000000E+00  0.72324106093E+03  0.72324106093E+03  0.00000000000E+00 0.  1.
         21   -1    0    0  501  502 -0.00000000000E+00 -0.00000000000E+00 -0.14331403220E+03  0.14331403220E+03  0.00000000000E+00 0.  1.
         25    1    1    2    0    0 -0.33365786153E+02  0.16550589930E+03  0.19529062640E+03  0.28682556921E+03  0.12500000000E+03 0.  0.
         25    1    1    2    0    0  0.74831679446E+02 -0.18946532171E+03  0.37607730441E+03  0.44559626039E+03  0.12500000000E+03 0.  0.
         25    1    1    2    0    0 -0.41465893293E+02  0.23959422404E+02  0.85590979117E+01  0.13413326353E+03  0.12500000000E+03 0.  0.
</event>
<event>
 5    0  0.5550393E-005  0.3718789E+03  0.7546771E-02  0.1053977E+00
         21   -1    0    0  502  501  0.00000000000E+00  0.00000000000E+00  0.42379636394E+03  0.42379636394E+03  0.00000000000E+00 0. -1.
         21   -1    0    0  501  502 -0.00000000000E+00 -0.00000000000E+00 -0.32632160503E+03  0.32632160503E+03  0.00000000000E+00 0. -1.
         25    1    1    2    0    0  0.19414435382E+02  0.23138258747E+03 -0.63593477767E+02  0.27126362178E+03  0.12500000000E+03 0.  0.
         25    1    1    2    0    0 -0.64411745032E+02 -0.25845097570E+03  0.17535741042E+03  0.34252153382E+03  0.12500000000E+03 0.  0.
         25    1    1    2    0    0  0.44997309650E+02  0.27068388236E+02 -0.14289173742E+02  0.13633281338E+03  0.12500000000E+03 0.  0.
</event>
<event>
 5    0  0.5550393E-005  0.4565257E+03  0.7546771E-02  0.1025794E+00
         21   -1    0    0  502  501  0.00000000000E+00  0.00000000000E+00  0.12433232625E+04  0.12433232625E+04  0.00000000000E+00 0.  1.
         21   -1    0    0  501  502 -0.00000000000E+00 -0.00000000000E+00 -0.16762791759E+03  0.16762791759E+03  0.00000000000E+00 0.  1.
         25    1    1    2    0    0  0.88386393739E+01  0.78516361093E+01  0.60410200084E+03  0.61701215316E+03  0.12500000000E+03 0.  0.
         25    1    1    2    0    0 -0.11252382873E+03 -0.22376251876E+01 -0.10271446643E+03  0.19708343566E+03  0.12500000000E+03 0.  0.
         25    1    1    2    0    0  0.10368518936E+03 -0.56140109217E+01  0.57430781055E+03  0.59685559130E+03  0.12500000000E+03 0.  0.
</event>
<event>
 5    0  0.5550393E-005  0.2125999E+03  0.7546771E-02  0.1139524E+00
         21   -1    0    0  502  501  0.00000000000E+00  0.00000000000E+00  0.49833000166E+02  0.49833000166E+02  0.00000000000E+00 0.  1.
         21   -1    0    0  501  502 -0.00000000000E+00 -0.00000000000E+00 -0.90700369526E+03  0.90700369526E+03  0.00000000000E+00 0.  1.
         25    1    1    2    0    0 -0.51489016143E+02  0.34478135371E+02 -0.31841036315E+03  0.34763489463E+03  0.12500000000E+03 0.  0.
         25    1    1    2    0    0  0.70878241621E+02 -0.39545882948E+02 -0.21532141010E+03  0.26187002815E+03  0.12500000000E+03 0.  0.
         25    1    1    2    0    0 -0.19389225478E+02  0.50677475770E+01 -0.32343892184E+03  0.34733177265E+03  0.12500000000E+03 0.  0.
</event>
<event>
 5    0  0.5550393E-005  0.2929029E+03  0.7546771E-02  0.1088843E+00
         21   -1    0    0  502  501  0.00000000000E+00  0.00000000000E+00  0.70649157121E+03  0.70649157121E+03  0.00000000000E+00 0. -1.
         21   -1    0    0  501  502 -0.00000000000E+00 -0.00000000000E+00 -0.12143400185E+03  0.12143400185E+03  0.00000000000E+00 0. -1.
         25    1    1    2    0    0 -0.16133761811E+03 -0.11400576213E+03  0.28279117714E+03  0.36691005803E+03  0.12500000000E+03 0.  0.
         25    1    1    2    0    0  0.88157745326E+02  0.47757738356E+02  0.60053809979E+02  0.17112583010E+03  0.12500000000E+03 0.  0.
         25    1    1    2    0    0  0.73179872783E+02  0.66248023773E+02  0.24221258225E+03  0.28988968494E+03  0.12500000000E+03 0.  0.
</event>
<event>
 5    0  0.5550393E-005  0.2584741E+03  0.7546771E-02  0.1108063E+00
         21   -1    0    0  502  501  0.00000000000E+00  0.00000000000E+00  0.81077356508E+02  0.81077356508E+02  0.00000000000E+00 0. -1.
         21   -1    0    0  501  502 -0.00000000000E+00 -0.00000000000E+00 -0.82401402950E+03  0.82401402950E+03  0.00000000000E+00 0. -1.
         25    1    1    2    0    0  0.45960458289E+02 -0.91918623970E+02 -0.20423899410E+03  0.26057621509E+03  0.12500000000E+03 0.  0.
         25    1    1    2    0    0  0.85684047771E+02  0.17621325276E+02 -0.18243464094E+03  0.23782276040E+03  0.12500000000E+03 0.  0.
         25    1    1    2    0    0 -0.13164450606E+03  0.74297298695E+02 -0.35626303795E+03  0.40669241052E+03  0.12500000000E+03 0.  0.
</event>
<event>
 5    0  0.5550393E-005  0.2240149E+03  0.7546771E-02  0.1130925E+00
         21   -1    0    0  502  501  0.00000000000E+00  0.00000000000E+00  0.47306796272E+03  0.47306796272E+03  0.00000000000E+00 0.  1.
         21   -1    0    0  501  502 -0.00000000000E+00 -0.00000000000E+00 -0.10607920151E+03  0.10607920151E+03  0.00000000000E+00 0.  1.
         25    1    1    2    0    0 -0.49978838276E+01  0.38431826368E+02  0.12714196218E+03  0.18246112646E+03  0.12500000000E+03 0.  0.
         25    1    1    2    0    0  0.74145061622E+02 -0.80921439326E+02  0.11445692423E+03  0.20191868911E+03  0.12500000000E+03 0.  0.
         25    1    1    2    0    0 -0.69147177794E+02  0.42489612958E+02  0.12538987479E+03  0.19476734867E+03  0.12500000000E+03 0.  0.
</event>
<event>
 5    0  0.6067146E-005  0.3045569E+03  0.7546771E-02  0.1082985E+00
         21   -1    0    0  502  501  0.00000000000E+00  0.00000000000E+00  0.31484328950E+03  0.31484328950E+03  0.00000000000E+00 0. -1.
         21   -1    0    0  501  502 -0.00000000000E+00 -0.00000000000E+00 -0.29460660830E+03  0.29460660830E+03  0.00000000000E+00 0. -1.
         25    1    1    2    0    0  0.38676578049E+02  0.12913002063E+03 -0.19244930737E+02  0.18483995043E+03  0.12500000000E+03 0.  0.
         25    1    1    2    0    0  0.11216969187E+03  0.66604549865E+01 -0.41023829236E+02  0.17301547908E+03  0.12500000000E+03 0.  0.
         25    1    1    2    0    0 -0.15084626992E+03 -0.13579047562E+03  0.80505441167E+02  0.25159446829E+03  0.12500000000E+03 0.  0.
</event>
<event>
 5    0  0.5550393E-005  0.2630034E+03  0.7546771E-02  0.1105352E+00
         21   -1    0    0  502  501  0.00000000000E+00  0.00000000000E+00  0.30457704364E+04  0.30457704364E+04  0.00000000000E+00 0.  1.
         21   -1    0    0  501  502 -0.00000000000E+00 -0.00000000000E+00 -0.22710443164E+02  0.22710443164E+02  0.00000000000E+00 0.  1.
         25    1    1    2    0    0 -0.11244604180E+03 -0.13973392365E+02  0.48878343708E+03  0.51708182754E+03  0.12500000000E+03 0.  0.
         25    1    1    2    0    0  0.10927735797E+03  0.22333713286E+02  0.12915271000E+04  0.13023469529E+04  0.12500000000E+03 0.  0.
         25    1    1    2    0    0  0.31686838387E+01 -0.83603209209E+01  0.12427494562E+04  0.12490520992E+04  0.12500000000E+03 0.  0.
</event>
<event>
 5    0  0.5550393E-005  0.4032576E+03  0.7546771E-02  0.1042657E+00
         21   -1    0    0  502  501  0.00000000000E+00  0.00000000000E+00  0.64853923085E+03  0.64853923085E+03  0.00000000000E+00 0. -1.
         21   -1    0    0  501  502 -0.00000000000E+00 -0.00000000000E+00 -0.25074304798E+03  0.25074304798E+03  0.00000000000E+00 0. -1.
         25    1    1    2    0    0  0.15497505912E+03 -0.77872804311E+02 -0.31953110892E+02  0.21616531613E+03  0.12500000000E+03 0.  0.
         25    1    1    2    0    0 -0.33768513724E+02 -0.16508318857E+03  0.83789316805E+02  0.22591684594E+03  0.12500000000E+03 0.  0.
         25    1    1    2    0    0 -0.12120654540E+03  0.24295599288E+03  0.34595997696E+03  0.45720011678E+03  0.12500000000E+03 0.  0.
</event>
<event>
 5    0  0.5550393E-005  0.4080098E+03  0.7546771E-02  0.1041041E+00
         21   -1    0    0  502  501  0.00000000000E+00  0.00000000000E+00  0.28649013636E+03  0.28649013636E+03  0.00000000000E+00 0.  1.
         21   -1    0    0  501  502 -0.00000000000E+00 -0.00000000000E+00 -0.58107403014E+03  0.58107403014E+03  0.00000000000E+00 0.  1.
         25    1    1    2    0    0  0.26974459623E+03 -0.53473064114E+01  0.65374290371E+02  0.30444956680E+03  0.12500000000E+03 0.  0.
         25    1    1    2    0    0 -0.14097992521E+03  0.42427393675E+02 -0.32275566859E+03  0.37612716554E+03  0.12500000000E+03 0.  0.
         25    1    1    2    0    0 -0.12876467102E+03 -0.37080087264E+02 -0.37202515554E+02  0.18698743417E+03  0.12500000000E+03 0.  0.
</event>
<event>
 5    0  0.5550393E-005  0.3764985E+03  0.7546771E-02  0.1052236E+00
         21   -1    0    0  502  501  0.00000000000E+00  0.00000000000E+00  0.75929016140E+03  0.75929016140E+03  0.00000000000E+00 0.  1.
         21   -1    0    0  501  502 -0.00000000000E+00 -0.00000000000E+00 -0.18668901363E+03  0.18668901363E+03  0.00000000000E+00 0.  1.
         25    1    1    2    0    0  0.20793879091E+03 -0.14112200694E+03  0.44681559357E+02  0.28421013943E+03  0.12500000000E+03 0.  0.
         25    1    1    2    0    0 -0.69659135611E+00  0.73162762659E+02  0.23187448268E+03  0.27339358222E+03  0.12500000000E+03 0.  0.
         25    1    1    2    0    0 -0.20724219955E+03  0.67959244280E+02  0.29604510574E+03  0.38837545338E+03  0.12500000000E+03 0.  0.
</event>
<event>
 5    0  0.5550393E-005  0.3595743E+03  0.7546771E-02  0.1058753E+00
         21   -1    0    0  502  501  0.00000000000E+00  0.00000000000E+00  0.20685663403E+04  0.20685663403E+04  0.00000000000E+00 0. -1.
         21   -1    0    0  501  502 -0.00000000000E+00 -0.00000000000E+00 -0.62504012444E+02  0.62504012444E+02  0.00000000000E+00 0. -1.
         25    1    1    2    0    0  0.17547346661E+03 -0.21636924665E+03  0.59821819738E+03  0.67163725333E+03  0.12500000000E+03 0.  0.
         25    1    1    2    0    0 -0.12873399635E+03  0.90028078364E+02  0.74968389277E+03  0.77609821272E+03  0.12500000000E+03 0.  0.
         25    1    1    2    0    0 -0.46739470262E+02  0.12634116828E+03  0.65816023772E+03  0.68333488671E+03  0.12500000000E+03 0.  0.
</event>
<event>
 5    0  0.5550393E-005  0.3907219E+03  0.7546771E-02  0.1047041E+00
         21   -1    0    0  502  501  0.00000000000E+00  0.00000000000E+00  0.16102962399E+03  0.16102962399E+03  0.00000000000E+00 0.  1.
         21   -1    0    0  501  502 -0.00000000000E+00 -0.00000000000E+00 -0.94804678701E+03  0.94804678701E+03  0.00000000000E+00 0.  1.
         25    1    1    2    0    0  0.62181771168E+02  0.94632871279E+02 -0.26888652288E+03  0.31740654558E+03  0.12500000000E+03 0.  0.
         25    1    1    2    0    0 -0.19681656291E+03  0.72187008308E+02 -0.48283315012E+03  0.54101809069E+03  0.12500000000E+03 0.  0.
         25    1    1    2    0    0  0.13463479174E+03 -0.16681987959E+03 -0.35297490028E+02  0.25065177473E+03  0.12500000000E+03 0.  0.
</event>
<event>
 5    0  0.5550393E-005  0.3051796E+03  0.7546771E-02  0.1082680E+00
         21   -1    0    0  502  501  0.00000000000E+00  0.00000000000E+00  0.43369716609E+03  0.43369716609E+03  0.00000000000E+00 0.  1.
         21   -1    0    0  501  502 -0.00000000000E+00 -0.00000000000E+00 -0.21474564547E+03  0.21474564547E+03  0.00000000000E+00 0. -1.
         25    1    1    2    0    0  0.29284780443E+02 -0.10239943830E+03  0.19735031088E+03  0.25673992392E+03  0.12500000000E+03 0.  0.
         25    1    1    2    0    0 -0.61855064095E+02  0.14199544158E+03 -0.88109195567E+02  0.21766254783E+03  0.12500000000E+03 0.  0.
         25    1    1    2    0    0  0.32570283651E+02 -0.39596003281E+02  0.10971040530E+03  0.17404033982E+03  0.12500000000E+03 0.  0.
</event>
<event>
 5    0  0.6280631E-005  0.2982772E+03  0.7546771E-02  0.1086105E+00
         21   -1    0    0  502  501  0.00000000000E+00  0.00000000000E+00  0.32032404147E+03  0.32032404147E+03  0.00000000000E+00 0. -1.
         21   -1    0    0  501  502 -0.00000000000E+00 -0.00000000000E+00 -0.27774781680E+03  0.27774781680E+03  0.00000000000E+00 0.  1.
         25    1    1    2    0    0 -0.10198590200E+03  0.12652359325E+02  0.44914235319E+02  0.16793896194E+03  0.12500000000E+03 0.  0.
         25    1    1    2    0    0  0.19773793383E+03 -0.94448301208E+02 -0.10594707749E+02  0.25250350474E+03  0.12500000000E+03 0.  0.
         25    1    1    2    0    0 -0.95752031827E+02  0.81795941884E+02  0.82566971075E+01  0.17762939158E+03  0.12500000000E+03 0.  0.
</event>
<event>
 5    0  0.6868323E-005  0.4600281E+03  0.7546771E-02  0.1024773E+00
         21   -1    0    0  502  501  0.00000000000E+00  0.00000000000E+00  0.99154918315E+03  0.99154918315E+03  0.00000000000E+00 0.  1.
         21   -1    0    0  501  502 -0.00000000000E+00 -0.00000000000E+00 -0.21342947300E+03  0.21342947300E+03  0.00000000000E+00 0.  1.
         25    1    1    2    0    0  0.11055320017E+03  0.20582270531E+03  0.85160943883E+02  0.27832064683E+03  0.12500000000E+03 0.  0.
         25    1    1    2    0    0 -0.16287076994E+03 -0.13835380198E+03  0.33241980253E+02  0.24979730077E+03  0.12500000000E+03 0.  0.
         25    1    1    2    0    0  0.52317569772E+02 -0.67468903327E+02  0.65971678601E+03  0.67686070854E+03  0.12500000000E+03 0.  0.
</event>
<event>
 5    0  0.5550393E-005  0.2435106E+03  0.7546771E-02  0.1117476E+00
         21   -1    0    0  502  501  0.00000000000E+00  0.00000000000E+00  0.56246670396E+03  0.56246670396E+03  0.00000000000E+00 0.  1.
         21   -1    0    0  501  502 -0.00000000000E+00 -0.00000000000E+00 -0.10542389244E+03  0.10542389244E+03  0.00000000000E+00 0.  1.
         25    1    1    2    0    0  0.69876069895E+02 -0.67463327783E+02  0.14238008216E+03  0.21291090516E+03  0.12500000000E+03 0.  0.
         25    1    1    2    0    0  0.12662392829E+02  0.37439182230E+02  0.34006794469E+02  0.13543814318E+03  0.12500000000E+03 0.  0.
         25    1    1    2    0    0 -0.82538462724E+02  0.30024145553E+02  0.28065593489E+03  0.31954154805E+03  0.12500000000E+03 0.  0.
</event>
<event>
 5    0  0.5550393E-005  0.2787895E+03  0.7546771E-02  0.1096352E+00
         21   -1    0    0  502  501  0.00000000000E+00  0.00000000000E+00  0.23742345196E+03  0.23742345196E+03  0.00000000000E+00 0.  1.
         21   -1    0    0  501  502 -0.00000000000E+00 -0.00000000000E+00 -0.32736273891E+03  0.32736273891E+03  0.00000000000E+00 0.  1.
         25    1    1    2    0    0  0.36802835939E+02 -0.18327429129E+03 -0.46497167716E+02  0.22963209964E+03  0.12500000000E+03 0.  0.
         25    1    1    2    0    0 -0.73487686375E+02  0.79008642948E+02 -0.14057511103E+02  0.16572694207E+03  0.12500000000E+03 0.  0.
         25    1    1    2    0    0  0.36684850435E+02  0.10426564834E+03 -0.29384608133E+02  0.16942714916E+03  0.12500000000E+03 0.  0.
</event>
<event>
 5    0  0.5550393E-005  0.2672633E+03  0.7546771E-02  0.1102856E+00
         21   -1    0    0  502  501  0.00000000000E+00  0.00000000000E+00  0.34724409335E+03  0.34724409335E+03  0.00000000000E+00 0.  1.
         21   -1    0    0  501  502 -0.00000000000E+00 -0.00000000000E+00 -0.20570447471E+03  0.20570447471E+03  0.00000000000E+00 0.  1.
         25    1    1    2    0    0 -0.24542860784E+02 -0.59545504403E+02 -0.41679591099E+01  0.14067832453E+03  0.12500000000E+03 0.  0.
         25    1    1    2    0    0 -0.10385025738E+03  0.10765667166E+03  0.40913305378E+02  0.19918266357E+03  0.12500000000E+03 0.  0.
         25    1    1    2    0    0  0.12839311816E+03 -0.48111167257E+02  0.10479427237E+03  0.21308757995E+03  0.12500000000E+03 0.  0.
</event>
<event>
 5    0  0.5550393E-005  0.4985741E+03  0.7546771E-02  0.1014152E+00
         21   -1    0    0  502  501  0.00000000000E+00  0.00000000000E+00  0.35307774118E+03  0.35307774118E+03  0.00000000000E+00 0.  1.
         21   -1    0    0  501  502 -0.00000000000E+00 -0.00000000000E+00 -0.70402676969E+03  0.70402676969E+03  0.00000000000E+00 0.  1.
         25    1    1    2    0    0 -0.12687719047E+03  0.18990795265E+03 -0.52455481053E+02  0.26559260048E+03  0.12500000000E+03 0.  0.
         25    1    1    2    0    0 -0.18448188665E+03 -0.45722526310E+01  0.94908557121E+02  0.24225421815E+03  0.12500000000E+03 0.  0.
         25    1    1    2    0    0  0.31135907712E+03 -0.18533570002E+03 -0.39340210458E+03  0.54925769224E+03  0.12500000000E+03 0.  0.
</event>
<event>
 5    0  0.5550393E-005  0.2541234E+03  0.7546771E-02  0.1110726E+00
         21   -1    0    0  502  501  0.00000000000E+00  0.00000000000E+00  0.56205882764E+03  0.56205882764E+03  0.00000000000E+00 0. -1.
         21   -1    0    0  501  502 -0.00000000000E+00 -0.00000000000E+00 -0.11489670408E+03  0.11489670408E+03  0.00000000000E+00 0. -1.
         25    1    1    2    0    0  0.14750757514E+02  0.77856482652E+02  0.20816545979E+03  0.25541549559E+03  0.12500000000E+03 0.  0.
         25    1    1    2    0    0 -0.15880517046E+02 -0.88746970782E+02  0.28741390536E+01  0.15414757968E+03  0.12500000000E+03 0.  0.
         25    1    1    2    0    0  0.11297595327E+01  0.10890488131E+02  0.23612252471E+03  0.26739245645E+03  0.12500000000E+03 0.  0.
</event>
<event>
 5    0  0.5550393E-005  0.2457185E+03  0.7546771E-02  0.1116041E+00
         21   -1    0    0  502  501  0.00000000000E+00  0.00000000000E+00  0.67326536271E+03  0.67326536271E+03  0.00000000000E+00 0.  1.
         21   -1    0    0  501  502 -0.00000000000E+00 -0.00000000000E+00 -0.89678696517E+02  0.89678696517E+02  0.00000000000E+00 0.  1.
         25    1    1    2    0    0  0.38408780325E+02 -0.40846910732E+02  0.15201864463E+03  0.20464206028E+03  0.12500000000E+03 0.  0.
         25    1    1    2    0    0 -0.71756017705E+02 -0.88036853396E+02  0.24175688104E+03  0.29490812665E+03  0.12500000000E+03 0.  0.
         25    1    1    2    0    0  0.33347237380E+02  0.12888376413E+03  0.18981114053E+03  0.26339387230E+03  0.12500000000E+03 0.  0.
</event>
<event>
 5    0  0.5550393E-005  0.3303065E+03  0.7546771E-02  0.1071001E+00
         21   -1    0    0  502  501  0.00000000000E+00  0.00000000000E+00  0.75399475089E+02  0.75399475089E+02  0.00000000000E+00 0. -1.
         21   -1    0    0  501  502 -0.00000000000E+00 -0.00000000000E+00 -0.14469914559E+04  0.14469914559E+04  0.00000000000E+00 0. -1.
         25    1    1    2    0    0  0.26061716800E+02 -0.15552787631E+03 -0.23862103453E+03  0.31214280628E+03  0.12500000000E+03 0.  0.
         25    1    1    2    0    0  0.51100638424E+01  0.23820924919E+03 -0.79301391122E+03  0.83741615851E+03  0.12500000000E+03 0.  0.
         25    1    1    2    0    0 -0.31171780643E+02 -0.82681372880E+02 -0.33995703510E+03  0.37283196623E+03  0.12500000000E+03 0.  0.
</event>
<event>
 5    0  0.5550393E-005  0.3654207E+03  0.7546771E-02  0.1056458E+00
         21   -1    0    0  502  501  0.00000000000E+00  0.00000000000E+00  0.11772557656E+04  0.11772557656E+04  0.00000000000E+00 0. -1.
         21   -1    0    0  501  502 -0.00000000000E+00 -0.00000000000E+00 -0.11342672935E+03  0.11342672935E+03  0.00000000000E+00 0. -1.
         25    1    1    2    0    0 -0.77063151707E+02  0.13182196678E+03  0.13289265413E+03  0.23791010445E+03  0.12500000000E+03 0.  0.
         25    1    1    2    0    0  0.13274612052E+03 -0.59443749161E+02  0.11788596849E+03  0.22511595544E+03  0.12500000000E+03 0.  0.
         25    1    1    2    0    0 -0.55682968810E+02 -0.72378217624E+02  0.81305041360E+03  0.82765643504E+03  0.12500000000E+03 0.  0.
</event>
<event>
 5    0  0.5550393E-005  0.2477008E+03  0.7546771E-02  0.1114767E+00
         21   -1    0    0  502  501  0.00000000000E+00  0.00000000000E+00  0.10434915594E+04  0.10434915594E+04  0.00000000000E+00 0.  1.
         21   -1    0    0  501  502 -0.00000000000E+00 -0.00000000000E+00 -0.58798443945E+02  0.58798443945E+02  0.00000000000E+00 0.  1.
         25    1    1    2    0    0  0.97401682821E+02 -0.17407779360E+01  0.28667974517E+03  0.32756738912E+03  0.12500000000E+03 0.  0.
         25    1    1    2    0    0 -0.49048705034E+02  0.66002746198E+02  0.17132548155E+03  0.22746331265E+03  0.12500000000E+03 0.  0.
         25    1    1    2    0    0 -0.48352977787E+02 -0.64261968262E+02  0.52668788870E+03  0.54725930154E+03  0.12500000000E+03 0.  0.
</event>
<event>
 5    0  0.5550393E-005  0.3202884E+03  0.7546771E-02  0.1075517E+00
         21   -1    0    0  502  501  0.00000000000E+00  0.00000000000E+00  0.15269467073E+03  0.15269467073E+03  0.00000000000E+00 0. -1.
         21   -1    0    0  501  502 -0.00000000000E+00 -0.00000000000E+00 -0.67182857409E+03  0.67182857409E+03  0.00000000000E+00 0. -1.
         25    1    1    2    0    0  0.68912496911E+02  0.15802438807E+03 -0.30501142268E+02  0.21511847697E+03  0.12500000000E+03 0.  0.
         25    1    1    2    0    0 -0.45035401721E+02 -0.81402479969E+02 -0.81136828884E+02  0.17567793303E+03  0.12500000000E+03 0.  0.
         25    1    1    2    0    0 -0.23877095190E+02 -0.76621908103E+02 -0.40749593220E+03  0.43372683481E+03  0.12500000000E+03 0.  0.
</event>
<event>
 5    0  0.7170337E-005  0.2613808E+03  0.7546771E-02  0.1106316E+00
         21   -1    0    0  502  501  0.00000000000E+00  0.00000000000E+00  0.68022980950E+03  0.68022980950E+03  0.00000000000E+00 0.  1.
         21   -1    0    0  501  502 -0.00000000000E+00 -0.00000000000E+00 -0.10043655808E+03  0.10043655808E+03  0.00000000000E+00 0.  1.
         25    1    1    2    0    0 -0.51239918891E+02  0.47160366401E+02  0.27538221066E+03  0.31033851097E+03  0.12500000000E+03 0.  0.
         25    1    1    2    0    0  0.14773482102E+03  0.59244660957E+00  0.16124728420E+03  0.25189604005E+03  0.12500000000E+03 0.  0.
         25    1    1    2    0    0 -0.96494902124E+02 -0.47752813011E+02  0.14316375656E+03  0.21843181655E+03  0.12500000000E+03 0.  0.
</event>
<event>
 5    0  0.5550393E-005  0.2814842E+03  0.7546771E-02  0.1094881E+00
         21   -1    0    0  502  501  0.00000000000E+00  0.00000000000E+00  0.43325811616E+02  0.43325811616E+02  0.00000000000E+00 0. -1.
         21   -1    0    0  501  502 -0.00000000000E+00 -0.00000000000E+00 -0.18287795541E+04  0.18287795541E+04  0.00000000000E+00 0.  1.
         25    1    1    2    0    0 -0.92930882945E+02 -0.15368061152E+02 -0.46387619510E+03  0.48956965867E+03  0.12500000000E+03 0.  0.
         25    1    1    2    0    0 -0.30898717594E+02 -0.12430285476E+03 -0.66118493684E+03  0.68497916111E+03  0.12500000000E+03 0.  0.
         25    1    1    2    0    0  0.12382960054E+03  0.13967091591E+03 -0.66039261058E+03  0.69755654597E+03  0.12500000000E+03 0.  0.
</event>
<event>
 5    0  0.5631968E-005  0.3442166E+03  0.7546771E-02  0.1065014E+00
         21   -1    0    0  502  501  0.00000000000E+00  0.00000000000E+00  0.40648991000E+03  0.40648991000E+03  0.00000000000E+00 0.  1.
         21   -1    0    0  501  502 -0.00000000000E+00 -0.00000000000E+00 -0.29148347279E+03  0.29148347279E+03  0.00000000000E+00 0.  1.
         25    1    1    2    0    0 -0.29909471861E+02  0.81070144963E+02  0.10778905948E+03  0.18630734353E+03  0.12500000000E+03 0.  0.
         25    1    1    2    0    0  0.82373919724E+02  0.28827081063E+02  0.20009689842E+03  0.25155562409E+03  0.12500000000E+03 0.  0.
         25    1    1    2    0    0 -0.52464447862E+02 -0.10989722603E+03 -0.19287952069E+03  0.26011041517E+03  0.12500000000E+03 0.  0.
</event>
<event>
 5    0  0.5550393E-005  0.3564129E+03  0.7546771E-02  0.1060013E+00
         21   -1    0    0  502  501  0.00000000000E+00  0.00000000000E+00  0.52486907891E+03  0.52486907891E+03  0.00000000000E+00 0.  1.
         21   -1    0    0  501  502 -0.00000000000E+00 -0.00000000000E+00 -0.24202249888E+03  0.24202249888E+03  0.00000000000E+00 0.  1.
         25    1    1    2    0    0 -0.55836427662E+01 -0.14116960638E+03  0.24223467905E+03  0.30702227047E+03  0.12500000000E+03 0.  0.
         25    1    1    2    0    0  0.13330843817E+03  0.18540048204E+03 -0.31334500493E+02  0.26220474700E+03  0.12500000000E+03 0.  0.
         25    1    1    2    0    0 -0.12772479541E+03 -0.44230875659E+02  0.71946401483E+02  0.19766456033E+03  0.12500000000E+03 0.  0.
</event>
<event>
 5    0  0.5550393E-005  0.2462918E+03  0.7546771E-02  0.1115671E+00
         21   -1    0    0  502  501  0.00000000000E+00  0.00000000000E+00  0.26147543408E+04  0.26147543408E+04  0.00000000000E+00 0.  1.
         21   -1    0    0  501  502 -0.00000000000E+00 -0.00000000000E+00 -0.23198981332E+02  0.23198981332E+02  0.00000000000E+00 0.  1.
         25    1    1    2    0    0 -0.96508529686E+02  0.46207374331E+01  0.44172841483E+03  0.46913136751E+03  0.12500000000E+03 0.  0.
         25    1    1    2    0    0  0.19074862081E+02  0.30908287957E+02  0.79646450443E+03  0.80703152320E+03  0.12500000000E+03 0.  0.
         25    1    1    2    0    0  0.77433667605E+02 -0.35529025390E+02  0.13533624402E+04  0.13617904314E+04  0.12500000000E+03 0.  0.
</event>
<event>
 5    0  0.5550393E-005  0.2559075E+03  0.7546771E-02  0.1109627E+00
         21   -1    0    0  502  501  0.00000000000E+00  0.00000000000E+00  0.13281853769E+03  0.13281853769E+03  0.00000000000E+00 0. -1.
         21   -1    0    0  501  502 -0.00000000000E+00 -0.00000000000E+00 -0.49306874500E+03  0.49306874500E+03  0.00000000000E+00 0. -1.
         25    1    1    2    0    0 -0.13317483295E+02 -0.12898986677E+01 -0.10202362557E+03  0.16190379667E+03  0.12500000000E+03 0.  0.
         25    1    1    2    0    0 -0.24139241131E+02  0.11206882545E+03 -0.23708978956E+03  0.29151105110E+03  0.12500000000E+03 0.  0.
         25    1    1    2    0    0  0.37456724426E+02 -0.11077892678E+03 -0.21136792167E+02  0.17247243492E+03  0.12500000000E+03 0.  0.
</event>
<event>
 5    0  0.6437818E-005  0.2783351E+03  0.7546771E-02  0.1096602E+00
         21   -1    0    0  502  501  0.00000000000E+00  0.00000000000E+00  0.14076540219E+03  0.14076540219E+03  0.00000000000E+00 0.  1.
         21   -1    0    0  501  502 -0.00000000000E+00 -0.00000000000E+00 -0.55035120735E+03  0.55035120735E+03  0.00000000000E+00 0.  1.
         25    1    1    2    0    0  0.33833521132E+02  0.68926934829E+02 -0.19065216116E+02  0.14793279543E+03  0.12500000000E+03 0.  0.
         25    1    1    2    0    0  0.41375383101E+02 -0.24831194765E+02 -0.11276961504E+02  0.13446442065E+03  0.12500000000E+03 0.  0.
         25    1    1    2    0    0 -0.75208904233E+02 -0.44095740064E+02 -0.37924362754E+03  0.40871939347E+03  0.12500000000E+03 0.  0.
</event>
<event>
 5    0  0.5550393E-005  0.2085217E+03  0.7546771E-02  0.1142742E+00
         21   -1    0    0  502  501  0.00000000000E+00  0.00000000000E+00  0.42140013065E+03  0.42140013065E+03  0.00000000000E+00 0.  1.
         21   -1    0    0  501  502 -0.00000000000E+00 -0.00000000000E+00 -0.10318289372E+03  0.10318289372E+03  0.00000000000E+00 0.  1.
         25    1    1    2    0    0 -0.19784355928E+02  0.22883208546E+02  0.11394967521E+03  0.17182721104E+03  0.12500000000E+03 0.  0.
         25    1    1    2    0    0  0.61481565932E+02 -0.37177348567E+02  0.58106016132E+02  0.15544596266E+03  0.12500000000E+03 0.  0.
         25    1    1    2    0    0 -0.41697210004E+02  0.14294140021E+02  0.14616154559E+03  0.19730985067E+03  0.12500000000E+03 0.  0.
</event>
<event>
 5    0  0.5550393E-005  0.4137540E+03  0.7546771E-02  0.1039119E+00
         21   -1    0    0  502  501  0.00000000000E+00  0.00000000000E+00  0.55171990732E+03  0.55171990732E+03  0.00000000000E+00 0. -1.
         21   -1    0    0  501  502 -0.00000000000E+00 -0.00000000000E+00 -0.31028859822E+03  0.31028859822E+03  0.00000000000E+00 0. -1.
         25    1    1    2    0    0 -0.87388248956E+02 -0.32614232988E+03  0.14398366061E+03  0.38776516079E+03  0.12500000000E+03 0.  0.
         25    1    1    2    0    0 -0.53466310524E+02  0.99267572195E+02  0.49939085206E+02  0.17558932052E+03  0.12500000000E+03 0.  0.
         25    1    1    2    0    0  0.14085455948E+03  0.22687475769E+03  0.47508563287E+02  0.29865402423E+03  0.12500000000E+03 0.  0.
</event>
<event>
 5    0  0.5550393E-005  0.2527106E+03  0.7546771E-02  0.1111604E+00
         21   -1    0    0  502  501  0.00000000000E+00  0.00000000000E+00  0.16360724319E+04  0.16360724319E+04  0.00000000000E+00 0.  1.
         21   -1    0    0  501  502 -0.00000000000E+00 -0.00000000000E+00 -0.39034109124E+02  0.39034109124E+02  0.00000000000E+00 0.  1.
         25    1    1    2    0    0 -0.41972154428E+02  0.53966518364E+02  0.37591831393E+03  0.40201197196E+03  0.12500000000E+03 0.  0.
         25    1    1    2    0    0  0.92150163221E+01  0.12969384847E+02  0.16819973957E+03  0.21016487304E+03  0.12500000000E+03 0.  0.
         25    1    1    2    0    0  0.32757138106E+02 -0.66935903211E+02  0.10529202693E+04  0.10629296960E+04  0.12500000000E+03 0.  0.
</event>
<event>
 5    0  0.5550393E-005  0.2936079E+03  0.7546771E-02  0.1088480E+00
         21   -1    0    0  502  501  0.00000000000E+00  0.00000000000E+00  0.27853987083E+03  0.27853987083E+03  0.00000000000E+00 0. -1.
         21   -1    0    0  501  502 -0.00000000000E+00 -0.00000000000E+00 -0.30949106729E+03  0.30949106729E+03  0.00000000000E+00 0. -1.
         25    1    1    2    0    0 -0.76605444439E+01  0.46662955674E+02  0.69944709846E+02  0.15084222820E+03  0.12500000000E+03 0.  0.
         25    1    1    2    0    0 -0.44412879628E+02 -0.16799192007E+03  0.25771425844E+02  0.21559906186E+03  0.12500000000E+03 0.  0.
         25    1    1    2    0    0  0.52073424072E+02  0.12132896439E+03 -0.12666733215E+03  0.22158964806E+03  0.12500000000E+03 0.  0.
</event>
<event>
 5    0  0.5550393E-005  0.4636900E+03  0.7546771E-02  0.1023716E+00
         21   -1    0    0  502  501  0.00000000000E+00  0.00000000000E+00  0.40604633687E+03  0.40604633687E+03  0.00000000000E+00 0.  1.
         21   -1    0    0  501  502 -0.00000000000E+00 -0.00000000000E+00 -0.52951700342E+03  0.52951700342E+03  0.00000000000E+00 0.  1.
         25    1    1    2    0    0  0.19888027131E+03  0.29366315698E+03  0.32505917408E+02  0.37745601963E+03  0.12500000000E+03 0.  0.
         25    1    1    2    0    0  0.17816164197E+02 -0.18802972767E+03  0.30725827824E+02  0.22856436881E+03  0.12500000000E+03 0.  0.
         25    1    1    2    0    0 -0.21669643551E+03 -0.10563342932E+03 -0.18670241178E+03  0.32954295185E+03  0.12500000000E+03 0.  0.
</event>
<event>
 5    0  0.5550393E-005  0.4322158E+03  0.7546771E-02  0.1033162E+00
         21   -1    0    0  502  501  0.00000000000E+00  0.00000000000E+00  0.35943209709E+03  0.35943209709E+03  0.00000000000E+00 0.  1.
         21   -1    0    0  501  502 -0.00000000000E+00 -0.00000000000E+00 -0.51973788994E+03  0.51973788994E+03  0.00000000000E+00 0.  1.
         25    1    1    2    0    0 -0.80343622935E+02  0.38170834598E+02 -0.12788477171E+03  0.19972887923E+03  0.12500000000E+03 0.  0.
         25    1    1    2    0    0  0.11500375681E+01 -0.63757945841E+02  0.29088353506E+03  0.32296227212E+03  0.12500000000E+03 0.  0.
         25    1    1    2    0    0  0.79193585367E+02  0.25587111243E+02 -0.32330455620E+03  0.35647883568E+03  0.12500000000E+03 0.  0.
</event>
<event>
 5    0  0.5550393E-005  0.3072339E+03  0.7546771E-02  0.1081679E+00
         21   -1    0    0  502  501  0.00000000000E+00  0.00000000000E+00  0.41899679972E+03  0.41899679972E+03  0.00000000000E+00 0.  1.
         21   -1    0    0  501  502 -0.00000000000E+00 -0.00000000000E+00 -0.22528255101E+03  0.22528255101E+03  0.00000000000E+00 0.  1.
         25    1    1    2    0    0  0.15610685333E+03  0.63914415012E+02  0.19375232633E+03  0.28569103251E+03  0.12500000000E+03 0.  0.
         25    1    1    2    0    0  0.10129034937E+02  0.32180548551E+02  0.33875921508E+00  0.12947316251E+03  0.12500000000E+03 0.  0.
         25    1    1    2    0    0 -0.16623588826E+03 -0.96094963563E+02 -0.37683683307E+00  0.22911515571E+03  0.12500000000E+03 0.  0.
</event>
<event>
 5    0  0.5550393E-005  0.3580335E+03  0.7546771E-02  0.1059365E+00
         21   -1    0    0  502  501  0.00000000000E+00  0.00000000000E+00  0.49541664489E+02  0.49541664489E+02  0.00000000000E+00 0.  1.
         21   -1    0    0  501  502 -0.00000000000E+00 -0.00000000000E+00 -0.25874786876E+04  0.25874786876E+04  0.00000000000E+00 0.  1.
         25    1    1    2    0    0 -0.11029312665E+03  0.33312932465E+02 -0.25070606783E+03  0.30290734178E+03  0.12500000000E+03 0.  0.
         25    1    1    2    0    0  0.17645235266E+03 -0.29300981151E+02 -0.55874056560E+03  0.59984164568E+03  0.12500000000E+03 0.  0.
         25    1    1    2    0    0 -0.66159226009E+02 -0.40119513132E+01 -0.17284903896E+04  0.17342713646E+04  0.12500000000E+03 0.  0.
</event>
<event>
 5    0  0.5550393E-005  0.2361497E+03  0.7546771E-02  0.1122385E+00
         21   -1    0    0  502  501  0.00000000000E+00  0.00000000000E+00  0.45624044886E+02  0.45624044886E+02  0.00000000000E+00 0.  1.
         21   -1    0    0  501  502 -0.00000000000E+00 -0.00000000000E+00 -0.12223085547E+04  0.12223085547E+04  0.00000000000E+00 0.  1.
         25    1    1    2    0    0 -0.44303025827E+02  0.19150481835E+02 -0.64691635943E+03  0.66064761798E+03  0.12500000000E+03 0.  0.
         25    1    1    2    0    0  0.33791920137E+02  0.63233079833E+02 -0.21869166303E+03  0.26189952220E+03  0.12500000000E+03 0.  0.
         25    1    1    2    0    0  0.10511105689E+02 -0.82383561668E+02 -0.31107648733E+03  0.34538545938E+03  0.12500000000E+03 0.  0.
</event>
<event>
 5    0  0.5550393E-005  0.2748286E+03  0.7546771E-02  0.1098547E+00
         21   -1    0    0  502  501  0.00000000000E+00  0.00000000000E+00  0.32544210723E+03  0.32544210723E+03  0.00000000000E+00 0.  1.
         21   -1    0    0  501  502 -0.00000000000E+00 -0.00000000000E+00 -0.23208654721E+03  0.23208654721E+03  0.00000000000E+00 0.  1.
         25    1    1    2    0    0  0.20631135368E+02  0.69125105491E+02  0.11933977202E+03  0.18727227542E+03  0.12500000000E+03 0.  0.
         25    1    1    2    0    0 -0.38550438766E+02  0.88375158933E+02 -0.53133264429E+02  0.16656664983E+03  0.12500000000E+03 0.  0.
         25    1    1    2    0    0  0.17919303398E+02 -0.15750026442E+03  0.27149052422E+02  0.20368972918E+03  0.12500000000E+03 0.  0.
</event>
<event>
 5    0  0.5550393E-005  0.2757805E+03  0.7546771E-02  0.1098016E+00
         21   -1    0    0  502  501  0.00000000000E+00  0.00000000000E+00  0.23675107096E+04  0.23675107096E+04  0.00000000000E+00 0.  1.
         21   -1    0    0  501  502 -0.00000000000E+00 -0.00000000000E+00 -0.32124418621E+02  0.32124418621E+02  0.00000000000E+00 0.  1.
         25    1    1    2    0    0 -0.45948712234E+02  0.96751844920E+01  0.25336053672E+03  0.28639388073E+03  0.12500000000E+03 0.  0.
         25    1    1    2    0    0 -0.16981549471E+02 -0.16727031324E+02  0.30208508537E+03  0.32779347980E+03  0.12500000000E+03 0.  0.
         25    1    1    2    0    0  0.62930261705E+02  0.70518468318E+01  0.17799406689E+04  0.17854477677E+04  0.12500000000E+03 0.  0.
</event>
<event>
 5    0  0.5550393E-005  0.3928201E+03  0.7546771E-02  0.1046295E+00
         21   -1    0    0  502  501  0.00000000000E+00  0.00000000000E+00  0.20353524235E+03  0.20353524235E+03  0.00000000000E+00 0. -1.
         21   -1    0    0  501  502 -0.00000000000E+00 -0.00000000000E+00 -0.75813708939E+03  0.75813708939E+03  0.00000000000E+00 0. -1.
         25    1    1    2    0    0 -0.17513596076E+03 -0.14302244255E+03 -0.49546585269E+03  0.55878388936E+03  0.12500000000E+03 0.  0.
         25    1    1    2    0    0  0.10170009627E+03 -0.38939559969E+02 -0.20458730706E+02  0.16704118826E+03  0.12500000000E+03 0.  0.
         25    1    1    2    0    0  0.73435864491E+02  0.18196200252E+03 -0.38677263637E+02  0.23584725412E+03  0.12500000000E+03 0.  0.
</event>
<event>
 5    0  0.5550393E-005  0.4563727E+03  0.7546771E-02  0.1025839E+00
         21   -1    0    0  502  501  0.00000000000E+00  0.00000000000E+00  0.11377149610E+04  0.11377149610E+04  0.00000000000E+00 0. -1.
         21   -1    0    0  501  502 -0.00000000000E+00 -0.00000000000E+00 -0.18306523001E+03  0.18306523001E+03  0.00000000000E+00 0. -1.
         25    1    1    2    0    0 -0.30448837218E+03 -0.10114235648E+03  0.51237037072E+03  0.61732596078E+03  0.12500000000E+03 0.  0.
         25    1    1    2    0    0  0.80881948932E+02 -0.72077881849E+02  0.33937444343E+03  0.37754088993E+03  0.12500000000E+03 0.  0.
         25    1    1    2    0    0  0.22360642325E+03  0.17322023833E+03  0.10290491686E+03  0.32591334032E+03  0.12500000000E+03 0.  0.
</event>
<event>
 5    0  0.5550393E-005  0.3500225E+03  0.7546771E-02  0.1062606E+00
         21   -1    0    0  502  501  0.00000000000E+00  0.00000000000E+00  0.34727112593E+03  0.34727112593E+03  0.00000000000E+00 0.  1.
         21   -1    0    0  501  502 -0.00000000000E+00 -0.00000000000E+00 -0.35279572432E+03  0.35279572432E+03  0.00000000000E+00 0.  1.
         25    1    1    2    0    0 -0.37355824664E+02 -0.77868692192E+02 -0.18087615057E+03  0.23622060178E+03  0.12500000000E+03 0.  0.
         25    1    1    2    0    0  0.11400818760E+03  0.44266139853E+02  0.24260574476E+03  0.29906505207E+03  0.12500000000E+03 0.  0.
         25    1    1    2    0    0 -0.76652362937E+02  0.33602552339E+02 -0.67254192578E+02  0.16478119640E+03  0.12500000000E+03 0.  0.
</event>
<event>
 5    0  0.5550393E-005  0.3481695E+03  0.7546771E-02  0.1063369E+00
         21   -1    0    0  502  501  0.00000000000E+00  0.00000000000E+00  0.46233523614E+03  0.46233523614E+03  0.00000000000E+00 0.  1.
         21   -1    0    0  501  502 -0.00000000000E+00 -0.00000000000E+00 -0.26219500723E+03  0.26219500723E+03  0.00000000000E+00 0.  1.
         25    1    1    2    0    0  0.18671706360E+01  0.12583781633E+03  0.32132281959E+03  0.36703132936E+03  0.12500000000E+03 0.  0.
         25    1    1    2    0    0  0.85688037226E+02 -0.50729613884E+02 -0.93526858838E+02  0.18517075032E+03  0.12500000000E+03 0.  0.
         25    1    1    2    0    0 -0.87555207861E+02 -0.75108202441E+02 -0.27655731839E+02  0.17232816369E+03  0.12500000000E+03 0.  0.
</event>
<event>
 5    0  0.5550393E-005  0.5769718E+03  0.7546771E-02  0.9954369E-01
         21   -1    0    0  502  501  0.00000000000E+00  0.00000000000E+00  0.12993147178E+04  0.12993147178E+04  0.00000000000E+00 0. -1.
         21   -1    0    0  501  502 -0.00000000000E+00 -0.00000000000E+00 -0.25620928954E+03  0.25620928954E+03  0.00000000000E+00 0. -1.
         25    1    1    2    0    0  0.17070531377E+03  0.49651758767E+02  0.73740717624E+03  0.76876520790E+03  0.12500000000E+03 0.  0.
         25    1    1    2    0    0  0.59132147270E+02 -0.27430331386E+03  0.31740766404E+03  0.44171432400E+03  0.12500000000E+03 0.  0.
         25    1    1    2    0    0 -0.22983746104E+03  0.22465155510E+03 -0.11709412029E+02  0.34504447544E+03  0.12500000000E+03 0.  0.
</event>
<event>
 5    0  0.5550393E-005  0.3753267E+03  0.7546771E-02  0.1052675E+00
         21   -1    0    0  502  501  0.00000000000E+00  0.00000000000E+00  0.14355555488E+03  0.14355555488E+03  0.00000000000E+00 0. -1.
         21   -1    0    0  501  502 -0.00000000000E+00 -0.00000000000E+00 -0.98129368094E+03  0.98129368094E+03  0.00000000000E+00 0. -1.
         25    1    1    2    0    0 -0.10501888364E+03 -0.99194372235E+01 -0.29682322132E+03  0.33890468553E+03  0.12500000000E+03 0.  0.
         25    1    1    2    0    0 -0.62737071158E+02  0.18647359197E+03 -0.43288027284E+03  0.49164893086E+03  0.12500000000E+03 0.  0.
         25    1    1    2    0    0  0.16775595480E+03 -0.17655415475E+03 -0.10803463189E+03  0.29429561943E+03  0.12500000000E+03 0.  0.
</event>
<event>
 5    0  0.5550393E-005  0.4541323E+03  0.7546771E-02  0.1026497E+00
         21   -1    0    0  502  501  0.00000000000E+00  0.00000000000E+00  0.14211038183E+03  0.14211038183E+03  0.00000000000E+00 0.  1.
         21   -1    0    0  501  502 -0.00000000000E+00 -0.00000000000E+00 -0.14512392712E+04  0.14512392712E+04  0.00000000000E+00 0.  1.
         25    1    1    2    0    0  0.25440537574E+03  0.15566145125E+01 -0.57108042745E+03  0.63755970142E+03  0.12500000000E+03 0.  0.
         25    1    1    2    0    0  0.10093392459E+03  0.57785745930E+02 -0.43947773781E+03  0.47147908924E+03  0.12500000000E+03 0.  0.
         25    1    1    2    0    0 -0.35533930033E+03 -0.59342360443E+02 -0.29857072410E+03  0.48431086235E+03  0.12500000000E+03 0.  0.
</event>
<event>
 5    0  0.5550393E-005  0.4528091E+03  0.7546771E-02  0.1026888E+00
         21   -1    0    0  502  501  0.00000000000E+00  0.00000000000E+00  0.18446930031E+04  0.18446930031E+04  0.00000000000E+00 0. -1.
         21   -1    0    0  501  502 -0.00000000000E+00 -0.00000000000E+00 -0.11114914652E+03  0.11114914652E+03  0.00000000000E+00 0. -1.
         25    1    1    2    0    0 -0.33423144407E+03  0.10875385983E+03  0.70587385700E+03  0.79838647423E+03  0.12500000000E+03 0.  0.
         25    1    1    2    0    0  0.79065343706E+01  0.65590575621E+02  0.24884696166E+03  0.28620700065E+03  0.12500000000E+03 0.  0.
         25    1    1    2    0    0  0.32632490970E+03 -0.17434443545E+03  0.77882303796E+03  0.87124867479E+03  0.12500000000E+03 0.  0.
</event>
<event>
 5    0  0.5550393E-005  0.3064411E+03  0.7546771E-02  0.1082064E+00
         21   -1    0    0  502  501  0.00000000000E+00  0.00000000000E+00  0.79625070897E+03  0.79625070897E+03  0.00000000000E+00 0. -1.
         21   -1    0    0  501  502 -0.00000000000E+00 -0.00000000000E+00 -0.11793536459E+03  0.11793536459E+03  0.00000000000E+00 0. -1.
         25    1    1    2    0    0 -0.11401992228E+03 -0.34438650468E+01  0.25239907755E+03  0.30387941232E+03  0.12500000000E+03 0.  0.
         25    1    1    2    0    0  0.17596408382E+03  0.19934366398E+02  0.41648058329E+03  0.46951231509E+03  0.12500000000E+03 0.  0.
         25    1    1    2    0    0 -0.61944161545E+02 -0.16490501351E+02  0.94356835338E+01  0.14079434615E+03  0.12500000000E+03 0.  0.
</event>
<event>
 5    0  0.5550393E-005  0.3101289E+03  0.7546771E-02  0.1080284E+00
         21   -1    0    0  502  501  0.00000000000E+00  0.00000000000E+00  0.65799513771E+03  0.65799513771E+03  0.00000000000E+00 0. -1.
         21   -1    0    0  501  502 -0.00000000000E+00 -0.00000000000E+00 -0.14617118408E+03  0.14617118408E+03  0.00000000000E+00 0.  1.
         25    1    1    2    0    0  0.28084161033E+02  0.55698940066E+02  0.36032392184E+03  0.38645752765E+03  0.12500000000E+03 0.  0.
         25    1    1    2    0    0 -0.11270021155E+03  0.75562069308E+02  0.40286010645E+02  0.18883571340E+03  0.12500000000E+03 0.  0.
         25    1    1    2    0    0  0.84616050517E+02 -0.13126100937E+03  0.11121402114E+03  0.22887308074E+03  0.12500000000E+03 0.  0.
</event>
<event>
 5    0  0.5550393E-005  0.4077790E+03  0.7546771E-02  0.1041119E+00
         21   -1    0    0  502  501  0.00000000000E+00  0.00000000000E+00  0.17234771819E+03  0.17234771819E+03  0.00000000000E+00 0.  1.
         21   -1    0    0  501  502 -0.00000000000E+00 -0.00000000000E+00 -0.96481546448E+03  0.96481546448E+03  0.00000000000E+00 0.  1.
         25    1    1    2    0    0  0.51825398468E+02  0.42753970225E+02 -0.14191274739E+03  0.20069380102E+03  0.12500000000E+03 0.  0.
         25    1    1    2    0    0 -0.86535546464E+02  0.84814964766E+02 -0.72073310010E+03  0.74146016793E+03  0.12500000000E+03 0.  0.
         25    1    1    2    0    0  0.34710147995E+02 -0.12756893499E+03  0.70178101203E+02  0.19500921372E+03  0.12500000000E+03 0.  0.
</event>
<event>
 5    0  0.5550393E-005  0.4165776E+03  0.7546771E-02  0.1038186E+00
         21   -1    0    0  502  501  0.00000000000E+00  0.00000000000E+00  0.31133937898E+03  0.31133937898E+03  0.00000000000E+00 0. -1.
         21   -1    0    0  501  502 -0.00000000000E+00 -0.00000000000E+00 -0.55738819744E+03  0.55738819744E+03  0.00000000000E+00 0. -1.
         25    1    1    2    0    0  0.22729439250E+03 -0.88304651452E+02 -0.96537888885E+02  0.29052541424E+03  0.12500000000E+03 0.  0.
         25    1    1    2    0    0  0.71966373932E+02 -0.68188138443E+02  0.49145419548E+02  0.16694026915E+03  0.12500000000E+03 0.  0.
         25    1    1    2    0    0 -0.29926076643E+03  0.15649278990E+03 -0.19865634912E+03  0.41126189303E+03  0.12500000000E+03 0.  0.
</event>
<event>
 5    0  0.5550393E-005  0.2771950E+03  0.7546771E-02  0.1097231E+00
         21   -1    0    0  502  501  0.00000000000E+00  0.00000000000E+00  0.10508138371E+03  0.10508138371E+03  0.00000000000E+00 0. -1.
         21   -1    0    0  501  502 -0.00000000000E+00 -0.00000000000E+00 -0.73121508417E+03  0.73121508417E+03  0.00000000000E+00 0. -1.
         25    1    1    2    0    0 -0.42388341679E+01  0.10211536625E+03 -0.46620971991E+03  0.49337817004E+03  0.12500000000E+03 0.  0.
         25    1    1    2    0    0  0.26487674005E+02 -0.15620270655E+02 -0.11393661137E+02  0.12923004776E+03  0.12500000000E+03 0.  0.
         25    1    1    2    0    0 -0.22248839837E+02 -0.86495095596E+02 -0.14853031941E+03  0.21368825008E+03  0.12500000000E+03 0.  0.
</event>
<event>
 5    0  0.5550393E-005  0.2893517E+03  0.7546771E-02  0.1090688E+00
         21   -1    0    0  502  501  0.00000000000E+00  0.00000000000E+00  0.13184574753E+03  0.13184574753E+03  0.00000000000E+00 0.  1.
         21   -1    0    0  501  502 -0.00000000000E+00 -0.00000000000E+00 -0.63501797767E+03  0.63501797767E+03  0.00000000000E+00 0.  1.
         25    1    1    2    0    0 -0.45342961232E+02 -0.14532490060E+03 -0.31085898783E+03  0.36801307203E+03  0.12500000000E+03 0.  0.
         25    1    1    2    0    0 -0.40923948905E+01  0.71460169330E+02 -0.19860786224E+03  0.24534340513E+03  0.12500000000E+03 0.  0.
         25    1    1    2    0    0  0.49435356122E+02  0.73864731274E+02  0.62946199305E+01  0.15350724804E+03  0.12500000000E+03 0.  0.
</event>
<event>
 5    0  0.5550393E-005  0.5244375E+03  0.7546771E-02  0.1007590E+00
         21   -1    0    0  502  501  0.00000000000E+00  0.00000000000E+00  0.69900719538E+03  0.69900719538E+03  0.00000000000E+00 0. -1.
         21   -1    0    0  501  502 -0.00000000000E+00 -0.00000000000E+00 -0.39346476137E+03  0.39346476137E+03  0.00000000000E+00 0. -1.
         25    1    1    2    0    0 -0.10068523384E+03 -0.12092682793E+03  0.14741296878E+03  0.24923161395E+03  0.12500000000E+03 0.  0.
         25    1    1    2    0    0 -0.25651303265E+03 -0.27600887999E+02 -0.15883217485E+03  0.32773984303E+03  0.12500000000E+03 0.  0.
         25    1    1    2    0    0  0.35719826649E+03  0.14852771592E+03  0.31696164008E+03  0.51550049977E+03  0.12500000000E+03 0.  0.
</event>
<event>
 5    0  0.5550393E-005  0.9910167E+03  0.7546771E-02  0.9318453E-01
         21   -1    0    0  502  501  0.00000000000E+00  0.00000000000E+00  0.76341936633E+03  0.76341936633E+03  0.00000000000E+00 0.  1.
         21   -1    0    0  501  502 -0.00000000000E+00 -0.00000000000E+00 -0.12864674869E+04  0.12864674869E+04  0.00000000000E+00 0.  1.
         25    1    1    2    0    0  0.17987824435E+03 -0.26061389557E+03  0.36564659337E+03  0.49959805504E+03  0.12500000000E+03 0.  0.
         25    1    1    2    0    0  0.44063580320E+02 -0.25437350543E+03  0.17854234635E+03  0.33786069439E+03  0.12500000000E+03 0.  0.
         25    1    1    2    0    0 -0.22394182467E+03  0.51498740099E+03 -0.10672370603E+04  0.12124281038E+04  0.12500000000E+03 0.  0.
</event>
<event>
 5    0  0.5550393E-005  0.3175284E+03  0.7546771E-02  0.1076792E+00
         21   -1    0    0  502  501  0.00000000000E+00  0.00000000000E+00  0.10130108262E+03  0.10130108262E+03  0.00000000000E+00 0. -1.
         21   -1    0    0  501  502 -0.00000000000E+00 -0.00000000000E+00 -0.99529318019E+03  0.99529318019E+03  0.00000000000E+00 0. -1.
         25    1    1    2    0    0  0.12178681623E+03  0.82196341156E+02 -0.12825083106E+03  0.23164961208E+03  0.12500000000E+03 0.  0.
         25    1    1    2    0    0 -0.15530836794E+03 -0.92011003173E+02 -0.24822701448E+03  0.33140362788E+03  0.12500000000E+03 0.  0.
         25    1    1    2    0    0  0.33521551705E+02  0.98146620175E+01 -0.51751425203E+03  0.53354102286E+03  0.12500000000E+03 0.  0.
</event>
<event>
 5    0  0.5550393E-005  0.3417199E+03  0.7546771E-02  0.1066066E+00
         21   -1    0    0  502  501  0.00000000000E+00  0.00000000000E+00  0.53377883909E+03  0.53377883909E+03  0.00000000000E+00 0.  1.
         21   -1    0    0  501  502 -0.00000000000E+00 -0.00000000000E+00 -0.21876561627E+03  0.21876561627E+03  0.00000000000E+00 0.  1.
         25    1    1    2    0    0 -0.16275143970E+03 -0.62877494833E+02  0.18480226837E+03  0.28322868654E+03  0.12500000000E+03 0.  0.
         25    1    1    2    0    0  0.25203434203E+03  0.61671455258E+02  0.38938515926E+02  0.29063015325E+03  0.12500000000E+03 0.  0.
         25    1    1    2    0    0 -0.89282902325E+02  0.12060395755E+01  0.91272438520E+02  0.17868561557E+03  0.12500000000E+03 0.  0.
</event>
<event>
 5    0  0.5550393E-005  0.2883770E+03  0.7546771E-02  0.1091200E+00
         21   -1    0    0  502  501  0.00000000000E+00  0.00000000000E+00  0.14484581564E+03  0.14484581564E+03  0.00000000000E+00 0.  1.
         21   -1    0    0  501  502 -0.00000000000E+00 -0.00000000000E+00 -0.57413650663E+03  0.57413650663E+03  0.00000000000E+00 0.  1.
         25    1    1    2    0    0 -0.29930353110E+02 -0.14760677254E+03 -0.47149573978E+02  0.20132478154E+03  0.12500000000E+03 0.  0.
         25    1    1    2    0    0  0.65455454598E+02  0.69586934022E+02 -0.73168549607E+02  0.17350906194E+03  0.12500000000E+03 0.  0.
         25    1    1    2    0    0 -0.35525101488E+02  0.78019838521E+02 -0.30897256741E+03  0.34414847879E+03  0.12500000000E+03 0.  0.
</event>
<event>
 5    0  0.5550393E-005  0.2815983E+03  0.7546771E-02  0.1094819E+00
         21   -1    0    0  502  501  0.00000000000E+00  0.00000000000E+00  0.11537092604E+03  0.11537092604E+03  0.00000000000E+00 0. -1.
         21   -1    0    0  501  502 -0.00000000000E+00 -0.00000000000E+00 -0.68732757096E+03  0.68732757096E+03  0.00000000000E+00 0. -1.
         25    1    1    2    0    0  0.43688434630E+02  0.42424933424E+02 -0.70363656111E+02  0.15583516419E+03  0.12500000000E+03 0.  0.
         25    1    1    2    0    0 -0.14948037072E+03 -0.11621242429E+03 -0.24823560976E+03  0.33629693240E+03  0.12500000000E+03 0.  0.
         25    1    1    2    0    0  0.10579193609E+03  0.73787490863E+02 -0.25335737904E+03  0.31056640041E+03  0.12500000000E+03 0.  0.
</event>
<event>
 5    0  0.5550393E-005  0.4230545E+03  0.7546771E-02  0.1036077E+00
         21   -1    0    0  502  501  0.00000000000E+00  0.00000000000E+00  0.47054341143E+03  0.47054341143E+03  0.00000000000E+00 0. -1.
         21   -1    0    0  501  502 -0.00000000000E+00 -0.00000000000E+00 -0.38035835446E+03  0.38035835446E+03  0.00000000000E+00 0. -1.
         25    1    1    2    0    0  0.24706662662E+00  0.76282240850E+02  0.11450544504E+03  0.18589120005E+03  0.12500000000E+03 0.  0.
         25    1    1    2    0    0 -0.19553356005E+03  0.17963040582E+03  0.80157679591E+02  0.30422148083E+03  0.12500000000E+03 0.  0.
         25    1    1    2    0    0  0.19528649342E+03 -0.25591264667E+03 -0.10447806766E+03  0.36078908501E+03  0.12500000000E+03 0.  0.
</event>
<event>
 5    0  0.5550393E-005  0.3855294E+03  0.7546771E-02  0.1048909E+00
         21   -1    0    0  502  501  0.00000000000E+00  0.00000000000E+00  0.19081631055E+03  0.19081631055E+03  0.00000000000E+00 0. -1.
         21   -1    0    0  501  502 -0.00000000000E+00 -0.00000000000E+00 -0.77893180221E+03  0.77893180221E+03  0.00000000000E+00 0. -1.
         25    1    1    2    0    0  0.20798174703E+03 -0.10453655249E+03 -0.20164836877E+02  0.26498286463E+03  0.12500000000E+03 0.  0.
         25    1    1    2    0    0 -0.70689713216E+02 -0.48345655320E+02 -0.10914479279E+03  0.18674025741E+03  0.12500000000E+03 0.  0.
         25    1    1    2    0    0 -0.13729203381E+03  0.15288220780E+03 -0.45880586199E+03  0.51802499072E+03  0.12500000000E+03 0.  0.
</event>
<event>
 5    0  0.5550393E-005  0.3954041E+03  0.7546771E-02  0.1045383E+00
         21   -1    0    0  502  501  0.00000000000E+00  0.00000000000E+00  0.10631261758E+04  0.10631261758E+04  0.00000000000E+00 0.  1.
         21   -1    0    0  501  502 -0.00000000000E+00 -0.00000000000E+00 -0.14706101886E+03  0.14706101886E+03  0.00000000000E+00 0.  1.
         25    1    1    2    0    0 -0.17050651651E+03 -0.77416230110E+02  0.19929378859E+03  0.30068049326E+03  0.12500000000E+03 0.  0.
         25    1    1    2    0    0  0.25726447389E+03 -0.11996125276E+03  0.41602988559E+03  0.51892347933E+03  0.12500000000E+03 0.  0.
         25    1    1    2    0    0 -0.86757957387E+02  0.19737748287E+03  0.30074148276E+03  0.39058322207E+03  0.12500000000E+03 0.  0.
</event>
<event>
 5    0  0.6506865E-005  0.2656635E+03  0.7546771E-02  0.1103787E+00
         21   -1    0    0  502  501  0.00000000000E+00  0.00000000000E+00  0.20885811912E+03  0.20885811912E+03  0.00000000000E+00 0. -1.
         21   -1    0    0  501  502 -0.00000000000E+00 -0.00000000000E+00 -0.33791877861E+03  0.33791877861E+03  0.00000000000E+00 0. -1.
         25    1    1    2    0    0  0.27620845801E+01 -0.74163709324E+02  0.16795223456E+02  0.14633852679E+03  0.12500000000E+03 0.  0.
         25    1    1    2    0    0 -0.11789893434E+03  0.77390488471E+02 -0.13162267626E+03  0.22986729939E+03  0.12500000000E+03 0.  0.
         25    1    1    2    0    0  0.11513684976E+03 -0.32267791468E+01 -0.14233206690E+02  0.17057107155E+03  0.12500000000E+03 0.  0.
</event>
<event>
 5    0  0.5550393E-005  0.2271216E+03  0.7546771E-02  0.1128682E+00
         21   -1    0    0  502  501  0.00000000000E+00  0.00000000000E+00  0.12665791863E+04  0.12665791863E+04  0.00000000000E+00 0. -1.
         21   -1    0    0  501  502 -0.00000000000E+00 -0.00000000000E+00 -0.40727196682E+02  0.40727196682E+02  0.00000000000E+00 0. -1.
         25    1    1    2    0    0 -0.54914061059E+02 -0.27835708409E+01  0.50474634387E+03  0.52289308087E+03  0.12500000000E+03 0.  0.
         25    1    1    2    0    0 -0.23958321031E+02 -0.33152958299E+02  0.49300423393E+03  0.51024630764E+03  0.12500000000E+03 0.  0.
         25    1    1    2    0    0  0.78872382090E+02  0.35936529140E+02  0.22810141180E+03  0.27416699446E+03  0.12500000000E+03 0.  0.
</event>
<event>
 5    0  0.5550393E-005  0.2958496E+03  0.7546771E-02  0.1087334E+00
         21   -1    0    0  502  501  0.00000000000E+00  0.00000000000E+00  0.23087927906E+03  0.23087927906E+03  0.00000000000E+00 0.  1.
         21   -1    0    0  501  502 -0.00000000000E+00 -0.00000000000E+00 -0.37910273871E+03  0.37910273871E+03  0.00000000000E+00 0.  1.
         25    1    1    2    0    0 -0.18144634146E+03  0.99540445826E+02 -0.15394791843E+02  0.24226653669E+03  0.12500000000E+03 0.  0.
         25    1    1    2    0    0  0.10201238059E+03 -0.26458461872E+02 -0.13681701293E+02  0.16406939065E+03  0.12500000000E+03 0.  0.
         25    1    1    2    0    0  0.79433960877E+02 -0.73081983954E+02 -0.11914696651E+03  0.20364609043E+03  0.12500000000E+03 0.  0.
</event>
<event>
 5    0  0.5550393E-005  0.3275454E+03  0.7546771E-02  0.1072228E+00
         21   -1    0    0  502  501  0.00000000000E+00  0.00000000000E+00  0.15444930973E+03  0.15444930973E+03  0.00000000000E+00 0.  1.
         21   -1    0    0  501  502 -0.00000000000E+00 -0.00000000000E+00 -0.69463572022E+03  0.69463572022E+03  0.00000000000E+00 0.  1.
         25    1    1    2    0    0 -0.22124170438E+02  0.12332756948E+03 -0.48665001889E+02  0.18355503458E+03  0.12500000000E+03 0.  0.
         25    1    1    2    0    0 -0.94054479397E+02 -0.81453535427E+02 -0.45232853343E+03  0.48549667937E+03  0.12500000000E+03 0.  0.
         25    1    1    2    0    0  0.11617864984E+03 -0.41874034051E+02 -0.39192875164E+02  0.18003331600E+03  0.12500000000E+03 0.  0.
</event>
<event>
 5    0  0.5550393E-005  0.2622696E+03  0.7546771E-02  0.1105787E+00
         21   -1    0    0  502  501  0.00000000000E+00  0.00000000000E+00  0.10810600980E+03  0.10810600980E+03  0.00000000000E+00 0. -1.
         21   -1    0    0  501  502 -0.00000000000E+00 -0.00000000000E+00 -0.63627683959E+03  0.63627683959E+03  0.00000000000E+00 0. -1.
         25    1    1    2    0    0  0.57819266498E+02  0.58509048467E+02 -0.10949844764E+03  0.18542191447E+03  0.12500000000E+03 0.  0.
         25    1    1    2    0    0 -0.51052449091E+02 -0.12616570042E+03 -0.10035519300E+03  0.21028623655E+03  0.12500000000E+03 0.  0.
         25    1    1    2    0    0 -0.67668174073E+01  0.67656651950E+02 -0.31831718915E+03  0.34867469836E+03  0.12500000000E+03 0.  0.
</event>
<event>
 5    0  0.5550393E-005  0.3850934E+03  0.7546771E-02  0.1049067E+00
         21   -1    0    0  502  501  0.00000000000E+00  0.00000000000E+00  0.23620942200E+03  0.23620942200E+03  0.00000000000E+00 0.  1.
         21   -1    0    0  501  502 -0.00000000000E+00 -0.00000000000E+00 -0.62781984287E+03  0.62781984287E+03  0.00000000000E+00 0.  1.
         25    1    1    2    0    0 -0.17447321590E+02 -0.23175785318E+02 -0.50064831615E+03  0.51683194805E+03  0.12500000000E+03 0.  0.
         25    1    1    2    0    0 -0.30156036661E+02  0.23082362805E+02 -0.49559862104E+02  0.13972602460E+03  0.12500000000E+03 0.  0.
         25    1    1    2    0    0  0.47603358252E+02  0.93422513302E-01  0.15859775739E+03  0.20747129222E+03  0.12500000000E+03 0.  0.
</event>
<event>
 5    0  0.5550393E-005  0.2666943E+03  0.7546771E-02  0.1103187E+00
         21   -1    0    0  502  501  0.00000000000E+00  0.00000000000E+00  0.10127608733E+03  0.10127608733E+03  0.00000000000E+00 0.  1.
         21   -1    0    0  501  502 -0.00000000000E+00 -0.00000000000E+00 -0.70229679453E+03  0.70229679453E+03  0.00000000000E+00 0.  1.
         25    1    1    2    0    0  0.66876417206E+02 -0.40945172740E+02 -0.21672998355E+03  0.26219429460E+03  0.12500000000E+03 0.  0.
         25    1    1    2    0    0  0.21356101137E+01  0.13993255504E+03 -0.28511748631E+03  0.34132486255E+03  0.12500000000E+03 0.  0.
         25    1    1    2    0    0 -0.69012027320E+02 -0.98987382299E+02 -0.99173237332E+02  0.20005372471E+03  0.12500000000E+03 0.  0.
</event>
<event>
 5    0  0.5550393E-005  0.3997096E+03  0.7546771E-02  0.1043880E+00
         21   -1    0    0  502  501  0.00000000000E+00  0.00000000000E+00  0.24664503627E+03  0.24664503627E+03  0.00000000000E+00 0.  1.
         21   -1    0    0  501  502 -0.00000000000E+00 -0.00000000000E+00 -0.64776410480E+03  0.64776410480E+03  0.00000000000E+00 0.  1.
         25    1    1    2    0    0 -0.13250279618E+03 -0.15618201350E+03  0.64652474861E+02  0.24850503987E+03  0.12500000000E+03 0.  0.
         25    1    1    2    0    0  0.14501691917E+03  0.11767621728E+03 -0.46279995737E+03  0.51447682115E+03  0.12500000000E+03 0.  0.
         25    1    1    2    0    0 -0.12514122996E+02  0.38505796217E+02 -0.29715860201E+01  0.13142728005E+03  0.12500000000E+03 0.  0.
</event>
<event>
 5    0  0.5550393E-005  0.3015375E+03  0.7546771E-02  0.1084475E+00
         21   -1    0    0  502  501  0.00000000000E+00  0.00000000000E+00  0.10960834999E+04  0.10960834999E+04  0.00000000000E+00 0.  1.
         21   -1    0    0  501  502 -0.00000000000E+00 -0.00000000000E+00 -0.82954307580E+02  0.82954307580E+02  0.00000000000E+00 0.  1.
         25    1    1    2    0    0 -0.11297767453E+03 -0.13425100950E+03  0.54014392020E+03  0.58152191964E+03  0.12500000000E+03 0.  0.
         25    1    1    2    0    0  0.77824665660E+02  0.15730827696E+03  0.37761467666E+03  0.43476478309E+03  0.12500000000E+03 0.  0.
         25    1    1    2    0    0  0.35153008868E+02 -0.23057267462E+02  0.95370595432E+02  0.16275110472E+03  0.12500000000E+03 0.  0.
</event>
<event>
 5    0  0.6062811E-005  0.4083122E+03  0.7546771E-02  0.1040939E+00
         21   -1    0    0  502  501  0.00000000000E+00  0.00000000000E+00  0.99576583786E+02  0.99576583786E+02  0.00000000000E+00 0. -1.
         21   -1    0    0  501  502 -0.00000000000E+00 -0.00000000000E+00 -0.16742777311E+04  0.16742777311E+04  0.00000000000E+00 0. -1.
         25    1    1    2    0    0 -0.45760983778E+01  0.10720637621E+03 -0.10175189638E+04  0.10307686401E+04  0.12500000000E+03 0.  0.
         25    1    1    2    0    0  0.15233661987E+03 -0.13682192819E+03 -0.47219722487E+03  0.52964318646E+03  0.12500000000E+03 0.  0.
         25    1    1    2    0    0 -0.14776052149E+03  0.29615551987E+02 -0.84984958704E+02  0.21344248836E+03  0.12500000000E+03 0.  0.
</event>
<event>
 5    0  0.5550393E-005  0.3144545E+03  0.7546771E-02  0.1078230E+00
         21   -1    0    0  502  501  0.00000000000E+00  0.00000000000E+00  0.13731389543E+04  0.13731389543E+04  0.00000000000E+00 0.  1.
         21   -1    0    0  501  502 -0.00000000000E+00 -0.00000000000E+00 -0.72011364083E+02  0.72011364083E+02  0.00000000000E+00 0.  1.
         25    1    1    2    0    0 -0.22816461252E+03 -0.49214679105E+02  0.46610234590E+03  0.53605743340E+03  0.12500000000E+03 0.  0.
         25    1    1    2    0    0  0.18004459396E+03  0.15386705150E+02  0.47079647275E+03  0.51954511379E+03  0.12500000000E+03 0.  0.
         25    1    1    2    0    0  0.48120018566E+02  0.33827973955E+02  0.36422877157E+03  0.38954777120E+03  0.12500000000E+03 0.  0.
</event>
<event>
 5    0  0.5550393E-005  0.4714592E+03  0.7546771E-02  0.1021509E+00
         21   -1    0    0  502  501  0.00000000000E+00  0.00000000000E+00  0.21970119452E+03  0.21970119452E+03  0.00000000000E+00 0. -1.
         21   -1    0    0  501  502 -0.00000000000E+00 -0.00000000000E+00 -0.10117093601E+04  0.10117093601E+04  0.00000000000E+00 0. -1.
         25    1    1    2    0    0  0.14311512515E+03 -0.10435897340E+03  0.40142007554E+02  0.22047474945E+03  0.12500000000E+03 0.  0.
         25    1    1    2    0    0 -0.30610949378E+03 -0.24501800484E+02 -0.48045928001E+03  0.58375464037E+03  0.12500000000E+03 0.  0.
         25    1    1    2    0    0  0.16299436863E+03  0.12886077388E+03 -0.35169089316E+03  0.42718116483E+03  0.12500000000E+03 0.  0.
</event>
<event>
 5    0  0.5550393E-005  0.2160803E+03  0.7546771E-02  0.1136840E+00
         21   -1    0    0  502  501  0.00000000000E+00  0.00000000000E+00  0.38559813338E+03  0.38559813338E+03  0.00000000000E+00 0. -1.
         21   -1    0    0  501  502 -0.00000000000E+00 -0.00000000000E+00 -0.12108641487E+03  0.12108641487E+03  0.00000000000E+00 0. -1.
         25    1    1    2    0    0 -0.26487982060E+02  0.19380484579E+02  0.94033388391E+02  0.15982645122E+03  0.12500000000E+03 0.  0.
         25    1    1    2    0    0  0.16782778652E+02  0.27831025394E+02 -0.11144071836E+01  0.12916063463E+03  0.12500000000E+03 0.  0.
         25    1    1    2    0    0  0.97052034074E+01 -0.47211509974E+02  0.17159273730E+03  0.21769746241E+03  0.12500000000E+03 0.  0.
</event>
<event>
 5    0  0.5550393E-005  0.3221492E+03  0.7546771E-02  0.1074664E+00
         21   -1    0    0  502  501  0.00000000000E+00  0.00000000000E+00  0.23175233869E+03  0.23175233869E+03  0.00000000000E+00 0. -1.
         21   -1    0    0  501  502 -0.00000000000E+00 -0.00000000000E+00 -0.44780599360E+03  0.44780599360E+03  0.00000000000E+00 0. -1.
         25    1    1    2    0    0  0.13143431721E+03 -0.10365577115E+03  0.31786120540E+02  0.21131695647E+03  0.12500000000E+03 0.  0.
         25    1    1    2    0    0 -0.13095944942E+03 -0.18448318965E+02 -0.22913259204E+02  0.18341410882E+03  0.12500000000E+03 0.  0.
         25    1    1    2    0    0 -0.47486778493E+00  0.12210409011E+03 -0.22492651625E+03  0.28482726701E+03  0.12500000000E+03 0.  0.
</event>
<event>
 5    0  0.5662500E-005  0.2915002E+03  0.7546771E-02  0.1089568E+00
         21   -1    0    0  502  501  0.00000000000E+00  0.00000000000E+00  0.13763883083E+03  0.13763883083E+03  0.00000000000E+00 0. -1.
         21   -1    0    0  501  502 -0.00000000000E+00 -0.00000000000E+00 -0.61735764204E+03  0.61735764204E+03  0.00000000000E+00 0. -1.
         25    1    1    2    0    0 -0.79459959241E+02  0.15121771004E+02 -0.30287007131E+03  0.33748753040E+03  0.12500000000E+03 0.  0.
         25    1    1    2    0    0 -0.65895562371E+02 -0.87983795883E+02 -0.11833670001E+03  0.20423503139E+03  0.12500000000E+03 0.  0.
         25    1    1    2    0    0  0.14535552161E+03  0.72862024878E+02 -0.58512039891E+02  0.21327391107E+03  0.12500000000E+03 0.  0.
</event>
<event>
 5    0  0.5550393E-005  0.2414465E+03  0.7546771E-02  0.1118833E+00
         21   -1    0    0  502  501  0.00000000000E+00  0.00000000000E+00  0.68531682765E+03  0.68531682765E+03  0.00000000000E+00 0.  1.
         21   -1    0    0  501  502 -0.00000000000E+00 -0.00000000000E+00 -0.85064940105E+02  0.85064940105E+02  0.00000000000E+00 0.  1.
         25    1    1    2    0    0 -0.84533621762E+02 -0.12400977943E+01  0.33668844857E+03  0.36896013667E+03  0.12500000000E+03 0.  0.
         25    1    1    2    0    0  0.11792081995E+03  0.21411530714E+01  0.13019372163E+03  0.21560452098E+03  0.12500000000E+03 0.  0.
         25    1    1    2    0    0 -0.33387198190E+02 -0.90105527706E+00  0.13336971734E+03  0.18581711010E+03  0.12500000000E+03 0.  0.
</event>
<event>
 5    0  0.5550393E-005  0.2876018E+03  0.7546771E-02  0.1091608E+00
         21   -1    0    0  502  501  0.00000000000E+00  0.00000000000E+00  0.14129963538E+03  0.14129963538E+03  0.00000000000E+00 0. -1.
         21   -1    0    0  501  502 -0.00000000000E+00 -0.00000000000E+00 -0.58538596835E+03  0.58538596835E+03  0.00000000000E+00 0. -1.
         25    1    1    2    0    0 -0.55365634338E+02  0.10531303021E+03 -0.27253458178E+03  0.32257756596E+03  0.12500000000E+03 0.  0.
         25    1    1    2    0    0  0.10155954759E+03 -0.15373252077E+03 -0.87126801458E+02  0.23909016956E+03  0.12500000000E+03 0.  0.
         25    1    1    2    0    0 -0.46193913252E+02  0.48419490564E+02 -0.84424949733E+02  0.16501786820E+03  0.12500000000E+03 0.  0.
</event>
<event>
 5    0  0.5918534E-005  0.5176267E+03  0.7546771E-02  0.1009278E+00
         21   -1    0    0  502  501  0.00000000000E+00  0.00000000000E+00  0.20667191883E+03  0.20667191883E+03  0.00000000000E+00 0. -1.
         21   -1    0    0  501  502 -0.00000000000E+00 -0.00000000000E+00 -0.12964384112E+04  0.12964384112E+04  0.00000000000E+00 0. -1.
         25    1    1    2    0    0 -0.12883720633E+03  0.26137437141E+03 -0.16574858067E+03  0.35778929519E+03  0.12500000000E+03 0.  0.
         25    1    1    2    0    0 -0.48265113032E+02 -0.28504583282E+03 -0.16494071382E+03  0.35554336869E+03  0.12500000000E+03 0.  0.
         25    1    1    2    0    0  0.17710231936E+03  0.23671461416E+02 -0.75907719788E+03  0.78977766615E+03  0.12500000000E+03 0.  0.
</event>
<event>
 5    0  0.6125131E-005  0.3525995E+03  0.7546771E-02  0.1061553E+00
         21   -1    0    0  502  501  0.00000000000E+00  0.00000000000E+00  0.14179886710E+03  0.14179886710E+03  0.00000000000E+00 0. -1.
         21   -1    0    0  501  502 -0.00000000000E+00 -0.00000000000E+00 -0.87677992335E+03  0.87677992335E+03  0.00000000000E+00 0. -1.
         25    1    1    2    0    0  0.43497658283E+01  0.14053918651E+03 -0.43237030602E+02  0.19304047302E+03  0.12500000000E+03 0.  0.
         25    1    1    2    0    0  0.12708668265E+03 -0.12851190559E+03 -0.18527357000E+03  0.28743282785E+03  0.12500000000E+03 0.  0.
         25    1    1    2    0    0 -0.13143644848E+03 -0.12027280921E+02 -0.50647045566E+03  0.53810548959E+03  0.12500000000E+03 0.  0.
</event>
<event>
 5    0  0.5550393E-005  0.2727022E+03  0.7546771E-02  0.1099743E+00
         21   -1    0    0  502  501  0.00000000000E+00  0.00000000000E+00  0.66826751751E+03  0.66826751751E+03  0.00000000000E+00 0. -1.
         21   -1    0    0  501  502 -0.00000000000E+00 -0.00000000000E+00 -0.11128252130E+03  0.11128252130E+03  0.00000000000E+00 0. -1.
         25    1    1    2    0    0 -0.29603698525E+02  0.25725859726E+01  0.23094113980E+03  0.26427600576E+03  0.12500000000E+03 0.  0.
         25    1    1    2    0    0  0.25174897756E+02  0.14337854574E+03  0.93111506350E+02  0.21327431977E+03  0.12500000000E+03 0.  0.
         25    1    1    2    0    0  0.44288007685E+01 -0.14595113172E+03  0.23293235005E+03  0.30199971329E+03  0.12500000000E+03 0.  0.
</event>
<event>
 5    0  0.5550393E-005  0.2515867E+03  0.7546771E-02  0.1112306E+00
         21   -1    0    0  502  501  0.00000000000E+00  0.00000000000E+00  0.71650188936E+02  0.71650188936E+02  0.00000000000E+00 0. -1.
         21   -1    0    0  501  502 -0.00000000000E+00 -0.00000000000E+00 -0.88340101222E+03  0.88340101222E+03  0.00000000000E+00 0.  1.
         25    1    1    2    0    0  0.10977104114E+03  0.40803210560E+02 -0.35178341129E+03  0.39126864419E+03  0.12500000000E+03 0.  0.
         25    1    1    2    0    0 -0.85114077819E+02 -0.92180732859E+02 -0.18328924530E+03  0.25487573678E+03  0.12500000000E+03 0.  0.
         25    1    1    2    0    0 -0.24656963325E+02  0.51377522299E+02 -0.27667816669E+03  0.30890682019E+03  0.12500000000E+03 0.  0.
</event>
<event>
 5    0  0.5550393E-005  0.2488748E+03  0.7546771E-02  0.1114018E+00
         21   -1    0    0  502  501  0.00000000000E+00  0.00000000000E+00  0.52576881575E+02  0.52576881575E+02  0.00000000000E+00 0.  1.
         21   -1    0    0  501  502 -0.00000000000E+00 -0.00000000000E+00 -0.11780593524E+04  0.11780593524E+04  0.00000000000E+00 0.  1.
         25    1    1    2    0    0  0.32813508379E+02  0.50575318881E+02 -0.14063065890E+03  0.19757674822E+03  0.12500000000E+03 0.  0.
         25    1    1    2    0    0 -0.95227148181E+02  0.73215971091E+01 -0.57737542297E+03  0.59842225442E+03  0.12500000000E+03 0.  0.
         25    1    1    2    0    0  0.62413639802E+02 -0.57896915991E+02 -0.40747638896E+03  0.43463723135E+03  0.12500000000E+03 0.  0.
</event>
<event>
 5    0  0.5550393E-005  0.6160417E+03  0.7546771E-02  0.9872672E-01
         21   -1    0    0  502  501  0.00000000000E+00  0.00000000000E+00  0.35076520209E+03  0.35076520209E+03  0.00000000000E+00 0. -1.
         21   -1    0    0  501  502 -0.00000000000E+00 -0.00000000000E+00 -0.10819413339E+04  0.10819413339E+04  0.00000000000E+00 0. -1.
         25    1    1    2    0    0 -0.83180152704E+02  0.27511915507E+03 -0.18372631925E+03  0.36330407054E+03  0.12500000000E+03 0.  0.
         25    1    1    2    0    0 -0.86758364821E+02 -0.49928941169E+03 -0.55446911649E+03  0.76149716456E+03  0.12500000000E+03 0.  0.
         25    1    1    2    0    0  0.16993851752E+03  0.22417025661E+03  0.70193039146E+01  0.30790530089E+03  0.12500000000E+03 0.  0.
</event>
<event>
 5    0  0.5550393E-005  0.2306466E+03  0.7546771E-02  0.1126185E+00
         21   -1    0    0  502  501  0.00000000000E+00  0.00000000000E+00  0.66315271262E+02  0.66315271262E+02  0.00000000000E+00 0. -1.
         21   -1    0    0  501  502 -0.00000000000E+00 -0.00000000000E+00 -0.80219621434E+03  0.80219621434E+03  0.00000000000E+00 0. -1.
         25    1    1    2    0    0 -0.11577319183E+02 -0.85699032024E+01 -0.41914720977E+03  0.43762639433E+03  0.12500000000E+03 0.  0.
         25    1    1    2    0    0 -0.65415490150E+02 -0.18792240880E+02 -0.16675507513E+03  0.21923637871E+03  0.12500000000E+03 0.  0.
         25    1    1    2    0    0  0.76992809333E+02  0.27362144083E+02 -0.14997865818E+03  0.21164871256E+03  0.12500000000E+03 0.  0.
</event>
<event>
 5    0  0.5550393E-005  0.2319351E+03  0.7546771E-02  0.1125285E+00
         21   -1    0    0  502  501  0.00000000000E+00  0.00000000000E+00  0.21788203710E+03  0.21788203710E+03  0.00000000000E+00 0. -1.
         21   -1    0    0  501  502 -0.00000000000E+00 -0.00000000000E+00 -0.24689446077E+03  0.24689446077E+03  0.00000000000E+00 0. -1.
         25    1    1    2    0    0  0.11111721887E+02  0.63462947713E+02 -0.13455081965E+01  0.14063366058E+03  0.12500000000E+03 0.  0.
         25    1    1    2    0    0  0.70975273561E+02  0.18149878916E+02  0.22324021076E+02  0.14659559843E+03  0.12500000000E+03 0.  0.
         25    1    1    2    0    0 -0.82086995448E+02 -0.81612826628E+02 -0.49990936553E+02  0.17754723887E+03  0.12500000000E+03 0.  0.
</event>
<event>
 5    0  0.5550393E-005  0.2296382E+03  0.7546771E-02  0.1126895E+00
         21   -1    0    0  502  501  0.00000000000E+00  0.00000000000E+00  0.24796896286E+03  0.24796896286E+03  0.00000000000E+00 0. -1.
         21   -1    0    0  501  502 -0.00000000000E+00 -0.00000000000E+00 -0.21266247674E+03  0.21266247674E+03  0.00000000000E+00 0. -1.
         25    1    1    2    0    0 -0.92377551625E+02 -0.49356505947E+02  0.46375079509E+00  0.16307940332E+03  0.12500000000E+03 0.  0.
         25    1    1    2    0    0  0.15300383584E+02  0.45868905492E+01  0.63913797237E+02  0.14129796453E+03  0.12500000000E+03 0.  0.
         25    1    1    2    0    0  0.77077168041E+02  0.44769615398E+02 -0.29071061919E+02  0.15625407175E+03  0.12500000000E+03 0.  0.
</event>
<event>
 5    0  0.5550393E-005  0.2749276E+03  0.7546771E-02  0.1098492E+00
         21   -1    0    0  502  501  0.00000000000E+00  0.00000000000E+00  0.80640706927E+02  0.80640706927E+02  0.00000000000E+00 0. -1.
         21   -1    0    0  501  502 -0.00000000000E+00 -0.00000000000E+00 -0.93730808583E+03  0.93730808583E+03  0.00000000000E+00 0. -1.
         25    1    1    2    0    0  0.85049746902E+02 -0.55580597675E+02 -0.16564361796E+03  0.23105296028E+03  0.12500000000E+03 0.  0.
         25    1    1    2    0    0 -0.10373027037E+03  0.28272032358E+01 -0.12623288443E+03  0.20573697572E+03  0.12500000000E+03 0.  0.
         25    1    1    2    0    0  0.18680523464E+02  0.52753394439E+02 -0.56479087651E+03  0.58115885674E+03  0.12500000000E+03 0.  0.
</event>
<event>
 5    0  0.5550393E-005  0.4999994E+03  0.7546771E-02  0.1013779E+00
         21   -1    0    0  502  501  0.00000000000E+00  0.00000000000E+00  0.11699439833E+03  0.11699439833E+03  0.00000000000E+00 0. -1.
         21   -1    0    0  501  502 -0.00000000000E+00 -0.00000000000E+00 -0.21368489772E+04  0.21368489772E+04  0.00000000000E+00 0. -1.
         25    1    1    2    0    0 -0.69077572067E+02  0.96751113764E+02 -0.29475921784E+03  0.34152669805E+03  0.12500000000E+03 0.  0.
         25    1    1    2    0    0  0.35979210166E+03  0.15345139956E+03 -0.71315364927E+03  0.82292819608E+03  0.12500000000E+03 0.  0.
         25    1    1    2    0    0 -0.29071452960E+03 -0.25020251332E+03 -0.10119417117E+04  0.10893884814E+04  0.12500000000E+03 0.  0.
</event>
<event>
 5    0  0.5550393E-005  0.2965412E+03  0.7546771E-02  0.1086982E+00
         21   -1    0    0  502  501  0.00000000000E+00  0.00000000000E+00  0.52283527666E+03  0.52283527666E+03  0.00000000000E+00 0.  1.
         21   -1    0    0  501  502 -0.00000000000E+00 -0.00000000000E+00 -0.16819200063E+03  0.16819200063E+03  0.00000000000E+00 0.  1.
         25    1    1    2    0    0  0.20137656264E+01  0.13306024863E+03  0.17523425643E+03  0.25306348935E+03  0.12500000000E+03 0.  0.
         25    1    1    2    0    0 -0.25005793834E+02 -0.17393089991E+03  0.16469936066E+01  0.21565008754E+03  0.12500000000E+03 0.  0.
         25    1    1    2    0    0  0.22992028208E+02  0.40870651277E+02  0.17776202599E+03  0.22231370039E+03  0.12500000000E+03 0.  0.
</event>
<event>
 5    0  0.5550393E-005  0.5158912E+03  0.7546771E-02  0.1009712E+00
         21   -1    0    0  502  501  0.00000000000E+00  0.00000000000E+00  0.49042194048E+03  0.49042194048E+03  0.00000000000E+00 0. -1.
         21   -1    0    0  501  502 -0.00000000000E+00 -0.00000000000E+00 -0.54268313243E+03  0.54268313243E+03  0.00000000000E+00 0. -1.
         25    1    1    2    0    0  0.76484517342E+02 -0.27848462345E+03 -0.29178507792E+03  0.42914694288E+03  0.12500000000E+03 0.  0.
         25    1    1    2    0    0  0.12105818891E+03 -0.73849182811E+01  0.22474229313E+02  0.17561239451E+03  0.12500000000E+03 0.  0.
         25    1    1    2    0    0 -0.19754270625E+03  0.28586954173E+03  0.21704965666E+03  0.42834573552E+03  0.12500000000E+03 0.  0.
</event>
<event>
 5    0  0.5550393E-005  0.2092179E+03  0.7546771E-02  0.1142187E+00
         21   -1    0    0  502  501  0.00000000000E+00  0.00000000000E+00  0.25394045826E+03  0.25394045826E+03  0.00000000000E+00 0. -1.
         21   -1    0    0  501  502 -0.00000000000E+00 -0.00000000000E+00 -0.17237157030E+03  0.17237157030E+03  0.00000000000E+00 0. -1.
         25    1    1    2    0    0  0.13581314610E+02 -0.48254209993E+02  0.18095919022E+02  0.13588739152E+03  0.12500000000E+03 0.  0.
         25    1    1    2    0    0  0.62983099906E+01  0.84198872545E+02  0.45943585659E+02  0.15768618173E+03  0.12500000000E+03 0.  0.
         25    1    1    2    0    0 -0.19879624601E+02 -0.35944662553E+02  0.17529383280E+02  0.13273845531E+03  0.12500000000E+03 0.  0.
</event>
<event>
 5    0  0.5550393E-005  0.3168610E+03  0.7546771E-02  0.1077103E+00
         21   -1    0    0  502  501  0.00000000000E+00  0.00000000000E+00  0.63117431289E+03  0.63117431289E+03  0.00000000000E+00 0. -1.
         21   -1    0    0  501  502 -0.00000000000E+00 -0.00000000000E+00 -0.15906994933E+03  0.15906994933E+03  0.00000000000E+00 0. -1.
         25    1    1    2    0    0  0.16419161418E+03  0.58376159071E+02  0.34406213915E+03  0.40542621734E+03  0.12500000000E+03 0.  0.
         25    1    1    2    0    0 -0.22408616146E+02 -0.41526423214E+02 -0.31067974719E+02  0.13717437427E+03  0.12500000000E+03 0.  0.
         25    1    1    2    0    0 -0.14178299803E+03 -0.16849735857E+02  0.15911019914E+03  0.24764367062E+03  0.12500000000E+03 0.  0.
</event>
<event>
 5    0  0.5550393E-005  0.2776780E+03  0.7546771E-02  0.1096964E+00
         21   -1    0    0  502  501  0.00000000000E+00  0.00000000000E+00  0.63175614661E+02  0.63175614661E+02  0.00000000000E+00 0.  1.
         21   -1    0    0  501  502 -0.00000000000E+00 -0.00000000000E+00 -0.12204877908E+04  0.12204877908E+04  0.00000000000E+00 0.  1.
         25    1    1    2    0    0 -0.69006059908E+02 -0.91634587586E+02 -0.50246300262E+03  0.53033272853E+03  0.12500000000E+03 0.  0.
         25    1    1    2    0    0  0.10243847162E+02 -0.26700211833E+02 -0.81773648087E+02  0.15208473703E+03  0.12500000000E+03 0.  0.
         25    1    1    2    0    0  0.58762212746E+02  0.11833479942E+03 -0.57307552547E+03  0.60124593994E+03  0.12500000000E+03 0.  0.
</event>
<event>
 5    0  0.5550393E-005  0.4166455E+03  0.7546771E-02  0.1038164E+00
         21   -1    0    0  502  501  0.00000000000E+00  0.00000000000E+00  0.42201525052E+03  0.42201525052E+03  0.00000000000E+00 0.  1.
         21   -1    0    0  501  502 -0.00000000000E+00 -0.00000000000E+00 -0.41134415343E+03  0.41134415343E+03  0.00000000000E+00 0.  1.
         25    1    1    2    0    0 -0.12505690238E+03  0.32769514807E+03  0.93572302164E+02  0.38393243498E+03  0.12500000000E+03 0.  0.
         25    1    1    2    0    0  0.10158546418E+02 -0.15396853263E+03 -0.30255088588E+02  0.20087278435E+03  0.12500000000E+03 0.  0.
         25    1    1    2    0    0  0.11489835596E+03 -0.17372661544E+03 -0.52646116482E+02  0.24855418462E+03  0.12500000000E+03 0.  0.
</event>
<event>
 5    0  0.5550393E-005  0.3557511E+03  0.7546771E-02  0.1060279E+00
         21   -1    0    0  502  501  0.00000000000E+00  0.00000000000E+00  0.15720332626E+03  0.15720332626E+03  0.00000000000E+00 0. -1.
         21   -1    0    0  501  502 -0.00000000000E+00 -0.00000000000E+00 -0.80506481763E+03  0.80506481763E+03  0.00000000000E+00 0. -1.
         25    1    1    2    0    0 -0.10613754066E+02 -0.76687129449E+02 -0.90324194724E+02  0.17256021486E+03  0.12500000000E+03 0.  0.
         25    1    1    2    0    0 -0.14686114893E+03  0.19790873274E+03 -0.45756988942E+03  0.53453836837E+03  0.12500000000E+03 0.  0.
         25    1    1    2    0    0  0.15747490300E+03 -0.12122160329E+03 -0.99967407231E+02  0.25516956066E+03  0.12500000000E+03 0.  0.
</event>
<event>
 5    0  0.5550393E-005  0.3749071E+03  0.7546771E-02  0.1052832E+00
         21   -1    0    0  502  501  0.00000000000E+00  0.00000000000E+00  0.61157535546E+03  0.61157535546E+03  0.00000000000E+00 0.  1.
         21   -1    0    0  501  502 -0.00000000000E+00 -0.00000000000E+00 -0.22982507279E+03  0.22982507279E+03  0.00000000000E+00 0.  1.
         25    1    1    2    0    0 -0.19577651569E+03 -0.20807569140E+02 -0.85756635429E+02  0.24847655735E+03  0.12500000000E+03 0.  0.
         25    1    1    2    0    0  0.16544566680E+03 -0.60190715568E+01  0.38625403762E+03  0.43843549065E+03  0.12500000000E+03 0.  0.
         25    1    1    2    0    0  0.30330848897E+02  0.26826640697E+02  0.81252880484E+02  0.15448838025E+03  0.12500000000E+03 0.  0.
</event>
<event>
 5    0  0.5629459E-005  0.3168698E+03  0.7546771E-02  0.1077099E+00
         21   -1    0    0  502  501  0.00000000000E+00  0.00000000000E+00  0.17576701824E+03  0.17576701824E+03  0.00000000000E+00 0. -1.
         21   -1    0    0  501  502 -0.00000000000E+00 -0.00000000000E+00 -0.57124753989E+03  0.57124753989E+03  0.00000000000E+00 0. -1.
         25    1    1    2    0    0  0.11258174625E+03  0.95381368832E+02 -0.16661521540E+03  0.25526042606E+03  0.12500000000E+03 0.  0.
         25    1    1    2    0    0  0.82106714751E+02 -0.20031086133E+02 -0.19426811726E+03  0.24598345148E+03  0.12500000000E+03 0.  0.
         25    1    1    2    0    0 -0.19468846100E+03 -0.75350282700E+02 -0.34597188987E+02  0.24577068059E+03  0.12500000000E+03 0.  0.
</event>
<event>
 5    0  0.5550393E-005  0.5220514E+03  0.7546771E-02  0.1008178E+00
         21   -1    0    0  502  501  0.00000000000E+00  0.00000000000E+00  0.13554864337E+03  0.13554864337E+03  0.00000000000E+00 0. -1.
         21   -1    0    0  501  502 -0.00000000000E+00 -0.00000000000E+00 -0.20106259467E+04  0.20106259467E+04  0.00000000000E+00 0. -1.
         25    1    1    2    0    0 -0.29998898740E+03 -0.24678116729E+02 -0.60406439196E+03  0.68638268600E+03  0.12500000000E+03 0.  0.
         25    1    1    2    0    0  0.30347030118E+03 -0.12721989616E+03 -0.12000939889E+04  0.12506517132E+04  0.12500000000E+03 0.  0.
         25    1    1    2    0    0 -0.34813137835E+01  0.15189801288E+03 -0.70918922538E+02  0.20914019087E+03  0.12500000000E+03 0.  0.
</event>
<event>
 5    0  0.5550393E-005  0.2602325E+03  0.7546771E-02  0.1107004E+00
         21   -1    0    0  502  501  0.00000000000E+00  0.00000000000E+00  0.60681596891E+03  0.60681596891E+03  0.00000000000E+00 0. -1.
         21   -1    0    0  501  502 -0.00000000000E+00 -0.00000000000E+00 -0.11160050953E+03  0.11160050953E+03  0.00000000000E+00 0. -1.
         25    1    1    2    0    0  0.26445883764E+01 -0.85759892494E+02  0.10203847358E+03  0.18275284703E+03  0.12500000000E+03 0.  0.
         25    1    1    2    0    0 -0.28741678333E+02  0.16679629867E+03  0.19969730707E+03  0.29008809658E+03  0.12500000000E+03 0.  0.
         25    1    1    2    0    0  0.26097089957E+02 -0.81036406174E+02  0.19347967872E+03  0.24557553483E+03  0.12500000000E+03 0.  0.
</event>
<event>
 5    0  0.5550393E-005  0.3248814E+03  0.7546771E-02  0.1073424E+00
         21   -1    0    0  502  501  0.00000000000E+00  0.00000000000E+00  0.30498599163E+03  0.30498599163E+03  0.00000000000E+00 0. -1.
         21   -1    0    0  501  502 -0.00000000000E+00 -0.00000000000E+00 -0.34607461935E+03  0.34607461935E+03  0.00000000000E+00 0. -1.
         25    1    1    2    0    0  0.14846294484E+02  0.21763573954E+02  0.28055767109E+02  0.13079064064E+03  0.12500000000E+03 0.  0.
         25    1    1    2    0    0 -0.14450980058E+03 -0.41862280072E+01  0.14500593080E+03  0.23990066055E+03  0.12500000000E+03 0.  0.
         25    1    1    2    0    0  0.12966350609E+03 -0.17577345946E+02 -0.21415032563E+03  0.28036930979E+03  0.12500000000E+03 0.  0.
</event>
<event>
 5    0  0.5550393E-005  0.2265862E+03  0.7546771E-02  0.1129066E+00
         21   -1    0    0  502  501  0.00000000000E+00  0.00000000000E+00  0.24786116142E+02  0.24786116142E+02  0.00000000000E+00 0. -1.
         21   -1    0    0  501  502 -0.00000000000E+00 -0.00000000000E+00 -0.20713739264E+04  0.20713739264E+04  0.00000000000E+00 0. -1.
         25    1    1    2    0    0  0.23894245999E+02  0.29318170818E+02 -0.49737726810E+03  0.51423694631E+03  0.12500000000E+03 0.  0.
         25    1    1    2    0    0  0.76322823772E+02  0.28304207349E+02 -0.67482398468E+03  0.69111410916E+03  0.12500000000E+03 0.  0.
         25    1    1    2    0    0 -0.10021706977E+03 -0.57622378167E+02 -0.87438655743E+03  0.89080898702E+03  0.12500000000E+03 0.  0.
</event>
<event>
 5    0  0.5550393E-005  0.2805437E+03  0.7546771E-02  0.1095392E+00
         21   -1    0    0  502  501  0.00000000000E+00  0.00000000000E+00  0.75331970858E+03  0.75331970858E+03  0.00000000000E+00 0.  1.
         21   -1    0    0  501  502 -0.00000000000E+00 -0.00000000000E+00 -0.10447723585E+03  0.10447723585E+03  0.00000000000E+00 0.  1.
         25    1    1    2    0    0  0.67331012144E+02  0.43693038101E+02  0.34360399761E+02  0.15247355130E+03  0.12500000000E+03 0.  0.
         25    1    1    2    0    0  0.51570251121E+02 -0.65431643291E+02  0.16375799094E+03  0.22222166937E+03  0.12500000000E+03 0.  0.
         25    1    1    2    0    0 -0.11890126327E+03  0.21738605190E+02  0.45072408204E+03  0.48310172375E+03  0.12500000000E+03 0.  0.
</event>
<event>
 5    0  0.5550393E-005  0.4278144E+03  0.7546771E-02  0.1034553E+00
         21   -1    0    0  502  501  0.00000000000E+00  0.00000000000E+00  0.46251547883E+03  0.46251547883E+03  0.00000000000E+00 0. -1.
         21   -1    0    0  501  502 -0.00000000000E+00 -0.00000000000E+00 -0.39571686266E+03  0.39571686266E+03  0.00000000000E+00 0. -1.
         25    1    1    2    0    0  0.92066038022E+02 -0.15311122641E+02  0.23978525326E+02  0.15783078125E+03  0.12500000000E+03 0.  0.
         25    1    1    2    0    0 -0.59446095182E+02  0.29626676498E+03 -0.12317142139E+03  0.34943387545E+03  0.12500000000E+03 0.  0.
         25    1    1    2    0    0 -0.32619942840E+02 -0.28095564234E+03  0.16599151224E+03  0.35096768479E+03  0.12500000000E+03 0.  0.
</event>
<event>
 5    0  0.5550393E-005  0.3795792E+03  0.7546771E-02  0.1051089E+00
         21   -1    0    0  502  501  0.00000000000E+00  0.00000000000E+00  0.11137802447E+04  0.11137802447E+04  0.00000000000E+00 0. -1.
         21   -1    0    0  501  502 -0.00000000000E+00 -0.00000000000E+00 -0.12936158465E+03  0.12936158465E+03  0.00000000000E+00 0. -1.
         25    1    1    2    0    0  0.40175956697E+02  0.10052733349E+03 -0.18352725278E+02  0.16637810794E+03  0.12500000000E+03 0.  0.
         25    1    1    2    0    0  0.50369882304E+02 -0.14275856629E+03  0.76763064948E+03  0.79233764729E+03  0.12500000000E+03 0.  0.
         25    1    1    2    0    0 -0.90545839001E+02  0.42231232800E+02  0.23514073582E+03  0.28442607410E+03  0.12500000000E+03 0.  0.
</event>
<event>
 5    0  0.5795354E-005  0.2882153E+03  0.7546771E-02  0.1091285E+00
         21   -1    0    0  502  501  0.00000000000E+00  0.00000000000E+00  0.47480361737E+03  0.47480361737E+03  0.00000000000E+00 0.  1.
         21   -1    0    0  501  502 -0.00000000000E+00 -0.00000000000E+00 -0.17495251041E+03  0.17495251041E+03  0.00000000000E+00 0.  1.
         25    1    1    2    0    0  0.73316965191E+02 -0.50995949464E+01  0.28176736535E+03  0.31688993583E+03  0.12500000000E+03 0.  0.
         25    1    1    2    0    0  0.22803119787E+02  0.75034445923E+02 -0.36368169607E+02  0.15197958451E+03  0.12500000000E+03 0.  0.
         25    1    1    2    0    0 -0.96120084978E+02 -0.69934850977E+02  0.54451911220E+02  0.18088660744E+03  0.12500000000E+03 0.  0.
</event>
<event>
 5    0  0.5550393E-005  0.3595637E+03  0.7546771E-02  0.1058757E+00
         21   -1    0    0  502  501  0.00000000000E+00  0.00000000000E+00  0.30778723168E+03  0.30778723168E+03  0.00000000000E+00 0.  1.
         21   -1    0    0  501  502 -0.00000000000E+00 -0.00000000000E+00 -0.42005002814E+03  0.42005002814E+03  0.00000000000E+00 0.  1.
         25    1    1    2    0    0 -0.18159486256E+03 -0.20485098211E+03 -0.14044165000E+03  0.33209859384E+03  0.12500000000E+03 0.  0.
         25    1    1    2    0    0  0.61259356218E+02  0.16171334479E+03 -0.71282982644E+01  0.21349409182E+03  0.12500000000E+03 0.  0.
         25    1    1    2    0    0  0.12033550634E+03  0.43137637316E+02  0.35307151800E+02  0.18224457415E+03  0.12500000000E+03 0.  0.
</event>
<event>
 5    0  0.5550393E-005  0.3276070E+03  0.7546771E-02  0.1072201E+00
         21   -1    0    0  502  501  0.00000000000E+00  0.00000000000E+00  0.27544360103E+03  0.27544360103E+03  0.00000000000E+00 0. -1.
         21   -1    0    0  501  502 -0.00000000000E+00 -0.00000000000E+00 -0.38964898262E+03  0.38964898262E+03  0.00000000000E+00 0. -1.
         25    1    1    2    0    0 -0.14125403276E+03 -0.11720133622E+03  0.13581705265E+03  0.26030775396E+03  0.12500000000E+03 0.  0.
         25    1    1    2    0    0  0.92530654312E+02  0.50750515166E+02 -0.94569382598E+02  0.18896006166E+03  0.12500000000E+03 0.  0.
         25    1    1    2    0    0  0.48723378449E+02  0.66450821050E+02 -0.15545305165E+03  0.21582476802E+03  0.12500000000E+03 0.  0.
</event>
<event>
 5    0  0.5550393E-005  0.6366360E+03  0.7546771E-02  0.9832184E-01
         21   -1    0    0  502  501  0.00000000000E+00  0.00000000000E+00  0.10946384132E+04  0.10946384132E+04  0.00000000000E+00 0.  1.
         21   -1    0    0  501  502 -0.00000000000E+00 -0.00000000000E+00 -0.37026419510E+03  0.37026419510E+03  0.00000000000E+00 0.  1.
         25    1    1    2    0    0  0.12782888595E+03  0.16457212833E+03 -0.12262040449E+02  0.24330961169E+03  0.12500000000E+03 0.  0.
         25    1    1    2    0    0  0.15946961002E+03 -0.13103269210E+03  0.85240139979E+03  0.88589687283E+03  0.12500000000E+03 0.  0.
         25    1    1    2    0    0 -0.28729849597E+03 -0.33539436231E+02 -0.11576514127E+03  0.33569612376E+03  0.12500000000E+03 0.  0.
</event>
<event>
 5    0  0.5550393E-005  0.2216990E+03  0.7546771E-02  0.1132623E+00
         21   -1    0    0  502  501  0.00000000000E+00  0.00000000000E+00  0.30995878027E+03  0.30995878027E+03  0.00000000000E+00 0.  1.
         21   -1    0    0  501  502 -0.00000000000E+00 -0.00000000000E+00 -0.15857088880E+03  0.15857088880E+03  0.00000000000E+00 0.  1.
         25    1    1    2    0    0 -0.16454893015E+02 -0.28846913109E+02  0.34394207867E+02  0.13383149642E+03  0.12500000000E+03 0.  0.
         25    1    1    2    0    0 -0.56838522039E+02 -0.47104563879E+02  0.25956008988E+02  0.14747261416E+03  0.12500000000E+03 0.  0.
         25    1    1    2    0    0  0.73293415055E+02  0.75951476988E+02  0.91037674615E+02  0.18722555848E+03  0.12500000000E+03 0.  0.
</event>
<event>
 5    0  0.5550393E-005  0.2937966E+03  0.7546771E-02  0.1088383E+00
         21   -1    0    0  502  501  0.00000000000E+00  0.00000000000E+00  0.11843027298E+03  0.11843027298E+03  0.00000000000E+00 0. -1.
         21   -1    0    0  501  502 -0.00000000000E+00 -0.00000000000E+00 -0.72883768694E+03  0.72883768694E+03  0.00000000000E+00 0. -1.
         25    1    1    2    0    0 -0.18472282500E+02  0.36249080356E+01 -0.20858513235E+02  0.12811886182E+03  0.12500000000E+03 0.  0.
         25    1    1    2    0    0  0.32984330204E+02  0.15779824530E+03 -0.33876865004E+03  0.39544588821E+03  0.12500000000E+03 0.  0.
         25    1    1    2    0    0 -0.14512047704E+02 -0.16142315333E+03 -0.25078025069E+03  0.32370320989E+03  0.12500000000E+03 0.  0.
</event>
<event>
 5    0  0.5550393E-005  0.2268745E+03  0.7546771E-02  0.1128859E+00
         21   -1    0    0  502  501  0.00000000000E+00  0.00000000000E+00  0.78698879756E+03  0.78698879756E+03  0.00000000000E+00 0.  1.
         21   -1    0    0  501  502 -0.00000000000E+00 -0.00000000000E+00 -0.65403803773E+02  0.65403803773E+02  0.00000000000E+00 0.  1.
         25    1    1    2    0    0  0.50233865223E+02  0.44776852650E+02  0.30699241880E+03  0.33822736872E+03  0.12500000000E+03 0.  0.
         25    1    1    2    0    0 -0.65387414852E+02 -0.14114056527E+02  0.33064114630E+03  0.35975448328E+03  0.12500000000E+03 0.  0.
         25    1    1    2    0    0  0.15153549629E+02 -0.30662796123E+02  0.83951428686E+02  0.15441074934E+03  0.12500000000E+03 0.  0.
</event>
<event>
 5    0  0.5648585E-005  0.3258972E+03  0.7546771E-02  0.1072967E+00
         21   -1    0    0  502  501  0.00000000000E+00  0.00000000000E+00  0.25219754392E+03  0.25219754392E+03  0.00000000000E+00 0. -1.
         21   -1    0    0  501  502 -0.00000000000E+00 -0.00000000000E+00 -0.42113420806E+03  0.42113420806E+03  0.00000000000E+00 0. -1.
         25    1    1    2    0    0  0.16386918526E+03 -0.67349696478E+02 -0.44362518865E+02  0.22131905606E+03  0.12500000000E+03 0.  0.
         25    1    1    2    0    0 -0.83391498263E+02  0.21899864943E+02  0.97849255881E+02  0.18064667986E+03  0.12500000000E+03 0.  0.
         25    1    1    2    0    0 -0.80477686997E+02  0.45449831535E+02 -0.22242340116E+03  0.27136601606E+03  0.12500000000E+03 0.  0.
</event>
<event>
 5    0  0.5550393E-005  0.3592236E+03  0.7546771E-02  0.1058892E+00
         21   -1    0    0  502  501  0.00000000000E+00  0.00000000000E+00  0.15203329796E+04  0.15203329796E+04  0.00000000000E+00 0.  1.
         21   -1    0    0  501  502 -0.00000000000E+00 -0.00000000000E+00 -0.84877205875E+02  0.84877205875E+02  0.00000000000E+00 0.  1.
         25    1    1    2    0    0  0.18812226675E+03 -0.31159644960E+01  0.30148047564E+03  0.37671630397E+03  0.12500000000E+03 0.  0.
         25    1    1    2    0    0 -0.97195594811E+02 -0.29495640279E+02  0.11638569487E+03  0.19871488725E+03  0.12500000000E+03 0.  0.
         25    1    1    2    0    0 -0.90926671939E+02  0.32611604775E+02  0.10175896032E+04  0.10297789943E+04  0.12500000000E+03 0.  0.
</event>
<event>
 5    0  0.5550393E-005  0.2661830E+03  0.7546771E-02  0.1103484E+00
         21   -1    0    0  502  501  0.00000000000E+00  0.00000000000E+00  0.64832071136E+03  0.64832071136E+03  0.00000000000E+00 0. -1.
         21   -1    0    0  501  502 -0.00000000000E+00 -0.00000000000E+00 -0.10928752760E+03  0.10928752760E+03  0.00000000000E+00 0. -1.
         25    1    1    2    0    0  0.46313988240E+02 -0.13577702273E+03  0.22022071292E+03  0.29103702137E+03  0.12500000000E+03 0.  0.
         25    1    1    2    0    0 -0.10904951867E+03  0.51724974651E+02  0.19869249032E+03  0.26395260225E+03  0.12500000000E+03 0.  0.
         25    1    1    2    0    0  0.62735530430E+02  0.84052048081E+02  0.12011998052E+03  0.20261861535E+03  0.12500000000E+03 0.  0.
</event>
<event>
 5    0  0.5550393E-005  0.3191397E+03  0.7546771E-02  0.1076046E+00
         21   -1    0    0  502  501  0.00000000000E+00  0.00000000000E+00  0.69268435565E+03  0.69268435565E+03  0.00000000000E+00 0. -1.
         21   -1    0    0  501  502 -0.00000000000E+00 -0.00000000000E+00 -0.14703688467E+03  0.14703688467E+03  0.00000000000E+00 0. -1.
         25    1    1    2    0    0  0.15835017395E+03  0.15129251465E+03  0.12026354584E+03  0.27937881637E+03  0.12500000000E+03 0.  0.
         25    1    1    2    0    0 -0.27662574970E+02 -0.12864678779E+03  0.23283428123E+03  0.29521520384E+03  0.12500000000E+03 0.  0.
         25    1    1    2    0    0 -0.13068759898E+03 -0.22645726858E+02  0.19254964391E+03  0.26512722010E+03  0.12500000000E+03 0.  0.
</event>
<event>
 5    0  0.5550393E-005  0.4246828E+03  0.7546771E-02  0.1035553E+00
         21   -1    0    0  502  501  0.00000000000E+00  0.00000000000E+00  0.41949550338E+03  0.41949550338E+03  0.00000000000E+00 0. -1.
         21   -1    0    0  501  502 -0.00000000000E+00 -0.00000000000E+00 -0.42993422624E+03  0.42993422624E+03  0.00000000000E+00 0. -1.
         25    1    1    2    0    0 -0.10712593156E+03 -0.10500684333E+03 -0.80081256141E+02  0.21104599011E+03  0.12500000000E+03 0.  0.
         25    1    1    2    0    0 -0.18101355244E+03  0.19368371963E+03  0.10219775793E+03  0.31040082336E+03  0.12500000000E+03 0.  0.
         25    1    1    2    0    0  0.28813948400E+03 -0.88676876303E+02 -0.32555224645E+02  0.32798291614E+03  0.12500000000E+03 0.  0.
</event>
<event>
 5    0  0.5550393E-005  0.4366736E+03  0.7546771E-02  0.1031772E+00
         21   -1    0    0  502  501  0.00000000000E+00  0.00000000000E+00  0.16994194012E+03  0.16994194012E+03  0.00000000000E+00 0. -1.
         21   -1    0    0  501  502 -0.00000000000E+00 -0.00000000000E+00 -0.11220528562E+04  0.11220528562E+04  0.00000000000E+00 0. -1.
         25    1    1    2    0    0  0.20264039748E+03  0.19507190076E+03 -0.73840435761E+03  0.79998885774E+03  0.12500000000E+03 0.  0.
         25    1    1    2    0    0 -0.21709531323E+03 -0.18642864199E+03 -0.18392616353E+03  0.36240839837E+03  0.12500000000E+03 0.  0.
         25    1    1    2    0    0  0.14454915751E+02 -0.86432587751E+01 -0.29780394956E+02  0.12959754024E+03  0.12500000000E+03 0.  0.
</event>
<event>
 5    0  0.5550393E-005  0.2653351E+03  0.7546771E-02  0.1103980E+00
         21   -1    0    0  502  501  0.00000000000E+00  0.00000000000E+00  0.10054285795E+04  0.10054285795E+04  0.00000000000E+00 0.  1.
         21   -1    0    0  501  502 -0.00000000000E+00 -0.00000000000E+00 -0.70022571226E+02  0.70022571226E+02  0.00000000000E+00 0.  1.
         25    1    1    2    0    0 -0.10369253709E+03  0.65490423310E+02  0.13881432069E+03  0.22346264435E+03  0.12500000000E+03 0.  0.
         25    1    1    2    0    0  0.68092647976E+02 -0.70521951376E+02  0.55889200581E+03  0.58102945578E+03  0.12500000000E+03 0.  0.
         25    1    1    2    0    0  0.35599889116E+02  0.50315280653E+01  0.23769968181E+03  0.27095905062E+03  0.12500000000E+03 0.  0.
</event>
<event>
 5    0  0.5550393E-005  0.3040331E+03  0.7546771E-02  0.1083242E+00
         21   -1    0    0  502  501  0.00000000000E+00  0.00000000000E+00  0.32219915105E+03  0.32219915105E+03  0.00000000000E+00 0.  1.
         21   -1    0    0  501  502 -0.00000000000E+00 -0.00000000000E+00 -0.28689128387E+03  0.28689128387E+03  0.00000000000E+00 0.  1.
         25    1    1    2    0    0  0.70005376740E+02  0.44837273763E+02 -0.45608507859E+02  0.15689572932E+03  0.12500000000E+03 0.  0.
         25    1    1    2    0    0 -0.11962286147E+03 -0.67019972217E+02 -0.11144244035E+03  0.21643872845E+03  0.12500000000E+03 0.  0.
         25    1    1    2    0    0  0.49617484726E+02  0.22182698455E+02  0.19235881539E+03  0.23575597715E+03  0.12500000000E+03 0.  0.
</event>
<event>
 5    0  0.5550393E-005  0.3022198E+03  0.7546771E-02  0.1084136E+00
         21   -1    0    0  502  501  0.00000000000E+00  0.00000000000E+00  0.15797806318E+04  0.15797806318E+04  0.00000000000E+00 0.  1.
         21   -1    0    0  501  502 -0.00000000000E+00 -0.00000000000E+00 -0.57816115452E+02  0.57816115452E+02  0.00000000000E+00 0.  1.
         25    1    1    2    0    0  0.81640393292E+01 -0.11309692492E+03  0.39862941070E+03  0.43288332497E+03  0.12500000000E+03 0.  0.
         25    1    1    2    0    0 -0.66618024420E+02  0.19350133749E+03  0.42154735743E+03  0.48498237426E+03  0.12500000000E+03 0.  0.
         25    1    1    2    0    0  0.58453985091E+02 -0.80404412563E+02  0.70178774818E+03  0.71973104799E+03  0.12500000000E+03 0.  0.
</event>
<event>
 5    0  0.5550393E-005  0.2651811E+03  0.7546771E-02  0.1104070E+00
         21   -1    0    0  502  501  0.00000000000E+00  0.00000000000E+00  0.99932156694E+02  0.99932156694E+02  0.00000000000E+00 0. -1.
         21   -1    0    0  501  502 -0.00000000000E+00 -0.00000000000E+00 -0.70368765150E+03  0.70368765150E+03  0.00000000000E+00 0. -1.
         25    1    1    2    0    0 -0.56530133619E+02  0.49766446351E+01 -0.15435144544E+03  0.20656667618E+03  0.12500000000E+03 0.  0.
         25    1    1    2    0    0  0.17099854728E+03 -0.44577108218E+02 -0.28261564465E+03  0.35598346078E+03  0.12500000000E+03 0.  0.
         25    1    1    2    0    0 -0.11446841366E+03  0.39600463583E+02 -0.16678840472E+03  0.24106967124E+03  0.12500000000E+03 0.  0.
</event>
<event>
 5    0  0.5550393E-005  0.4595333E+03  0.7546771E-02  0.1024917E+00
         21   -1    0    0  502  501  0.00000000000E+00  0.00000000000E+00  0.15838506490E+03  0.15838506490E+03  0.00000000000E+00 0. -1.
         21   -1    0    0  501  502 -0.00000000000E+00 -0.00000000000E+00 -0.13332748517E+04  0.13332748517E+04  0.00000000000E+00 0. -1.
         25    1    1    2    0    0  0.27151002748E+03 -0.20870982807E+02 -0.14651516933E+03  0.33353408790E+03  0.12500000000E+03 0.  0.
         25    1    1    2    0    0 -0.20721112491E+03 -0.33183447488E+02 -0.96378720732E+03  0.99425769922E+03  0.12500000000E+03 0.  0.
         25    1    1    2    0    0 -0.64298902573E+02  0.54054430294E+02 -0.64587410148E+02  0.16386812947E+03  0.12500000000E+03 0.  0.
</event>
<event>
 5    0  0.5550393E-005  0.2901602E+03  0.7546771E-02  0.1090266E+00
         21   -1    0    0  502  501  0.00000000000E+00  0.00000000000E+00  0.47956718372E+03  0.47956718372E+03  0.00000000000E+00 0. -1.
         21   -1    0    0  501  502 -0.00000000000E+00 -0.00000000000E+00 -0.17556020603E+03  0.17556020603E+03  0.00000000000E+00 0. -1.
         25    1    1    2    0    0  0.18112314625E+02  0.58282116869E+02  0.16992494545E+03  0.21960042845E+03  0.12500000000E+03 0.  0.
         25    1    1    2    0    0  0.27411840897E+02  0.53384988919E+02 -0.79817397938E+02  0.15999119687E+03  0.12500000000E+03 0.  0.
         25    1    1    2    0    0 -0.45524155522E+02 -0.11166710579E+03  0.21389943017E+03  0.27553576443E+03  0.12500000000E+03 0.  0.
</event>
<event>
 5    0  0.5550393E-005  0.4017199E+03  0.7546771E-02  0.1043186E+00
         21   -1    0    0  502  501  0.00000000000E+00  0.00000000000E+00  0.22660391507E+03  0.22660391507E+03  0.00000000000E+00 0.  1.
         21   -1    0    0  501  502 -0.00000000000E+00 -0.00000000000E+00 -0.71216274695E+03  0.71216274695E+03  0.00000000000E+00 0.  1.
         25    1    1    2    0    0  0.12002207431E+03 -0.11233157036E+03  0.16907415105E+01  0.20652248940E+03  0.12500000000E+03 0.  0.
         25    1    1    2    0    0 -0.17252495470E+03 -0.12955309454E+03 -0.32953563259E+03  0.41324036280E+03  0.12500000000E+03 0.  0.
         25    1    1    2    0    0  0.52502880387E+02  0.24188466489E+03 -0.15771394079E+03  0.31900380982E+03  0.12500000000E+03 0.  0.
</event>
<event>
 5    0  0.9796256E-005  0.7167290E+03  0.7546771E-02  0.9689044E-01
         21   -1    0    0  502  501  0.00000000000E+00  0.00000000000E+00  0.32727470781E+03  0.32727470781E+03  0.00000000000E+00 0. -1.
         21   -1    0    0  501  502 -0.00000000000E+00 -0.00000000000E+00 -0.15696306363E+04  0.15696306363E+04  0.00000000000E+00 0. -1.
         25    1    1    2    0    0  0.18174994166E+03 -0.40068523789E+03 -0.35804457639E+03  0.58086368438E+03  0.12500000000E+03 0.  0.
         25    1    1    2    0    0 -0.41201604582E+03  0.12418801781E+03 -0.12289571511E+03  0.46465927579E+03  0.12500000000E+03 0.  0.
         25    1    1    2    0    0  0.23026610416E+03  0.27649722008E+03 -0.76141563697E+03  0.85138238392E+03  0.12500000000E+03 0.  0.
</event>
<event>
 5    0  0.5550393E-005  0.2377624E+03  0.7546771E-02  0.1121292E+00
         21   -1    0    0  502  501  0.00000000000E+00  0.00000000000E+00  0.84865940019E+03  0.84865940019E+03  0.00000000000E+00 0. -1.
         21   -1    0    0  501  502 -0.00000000000E+00 -0.00000000000E+00 -0.66612087165E+02  0.66612087165E+02  0.00000000000E+00 0. -1.
         25    1    1    2    0    0 -0.54137610403E+02  0.19040075053E+02  0.40319865006E+03  0.42601356402E+03  0.12500000000E+03 0.  0.
         25    1    1    2    0    0 -0.54286343631E+02 -0.41234546587E+02  0.16445385008E+03  0.21752554733E+03  0.12500000000E+03 0.  0.
         25    1    1    2    0    0  0.10842395403E+03  0.22194471534E+02  0.21439481288E+03  0.27173237600E+03  0.12500000000E+03 0.  0.
</event>
<event>
 5    0  0.5550393E-005  0.6277995E+03  0.7546771E-02  0.9849352E-01
         21   -1    0    0  502  501  0.00000000000E+00  0.00000000000E+00  0.11090545809E+04  0.11090545809E+04  0.00000000000E+00 0.  1.
         21   -1    0    0  501  502 -0.00000000000E+00 -0.00000000000E+00 -0.35537675774E+03  0.35537675774E+03  0.00000000000E+00 0.  1.
         25    1    1    2    0    0  0.12656461922E+02  0.33037596322E+03 -0.61023624160E+02  0.35868836865E+03  0.12500000000E+03 0.  0.
         25    1    1    2    0    0  0.16582881016E+02  0.16963769296E+03  0.12965851683E+03  0.24796828386E+03  0.12500000000E+03 0.  0.
         25    1    1    2    0    0 -0.29239342939E+02 -0.50001365617E+03  0.68504293048E+03  0.85777468611E+03  0.12500000000E+03 0.  0.
</event>
<event>
 5    0  0.5550393E-005  0.4018443E+03  0.7546771E-02  0.1043143E+00
         21   -1    0    0  502  501  0.00000000000E+00  0.00000000000E+00  0.29634571097E+03  0.29634571097E+03  0.00000000000E+00 0.  1.
         21   -1    0    0  501  502 -0.00000000000E+00 -0.00000000000E+00 -0.54490028578E+03  0.54490028578E+03  0.00000000000E+00 0. -1.
         25    1    1    2    0    0 -0.17621514065E+03 -0.17324284399E+03 -0.10477731520E+03  0.29608806894E+03  0.12500000000E+03 0.  0.
         25    1    1    2    0    0 -0.23836498193E+02 -0.25852797119E+02 -0.19295848898E+03  0.23258229562E+03  0.12500000000E+03 0.  0.
         25    1    1    2    0    0  0.20005163884E+03  0.19909564111E+03  0.49181229381E+02  0.31257563219E+03  0.12500000000E+03 0.  0.
</event>
<event>
 5    0  0.5550393E-005  0.6727839E+03  0.7546771E-02  0.9764942E-01
         21   -1    0    0  502  501  0.00000000000E+00  0.00000000000E+00  0.80879070217E+03  0.80879070217E+03  0.00000000000E+00 0.  1.
         21   -1    0    0  501  502 -0.00000000000E+00 -0.00000000000E+00 -0.55964817785E+03  0.55964817785E+03  0.00000000000E+00 0.  1.
         25    1    1    2    0    0 -0.31644797451E+02  0.31846298197E+02  0.60782429337E+03  0.62216633751E+03  0.12500000000E+03 0.  0.
         25    1    1    2    0    0 -0.10296338335E+03  0.12191349235E+03  0.10208023149E+03  0.22695755460E+03  0.12500000000E+03 0.  0.
         25    1    1    2    0    0  0.13460818080E+03 -0.15375979055E+03 -0.46076200054E+03  0.51931498791E+03  0.12500000000E+03 0.  0.
</event>
<event>
 5    0  0.5550393E-005  0.4866188E+03  0.7546771E-02  0.1017332E+00
         21   -1    0    0  502  501  0.00000000000E+00  0.00000000000E+00  0.31747789675E+03  0.31747789675E+03  0.00000000000E+00 0. -1.
         21   -1    0    0  501  502 -0.00000000000E+00 -0.00000000000E+00 -0.74587181738E+03  0.74587181738E+03  0.00000000000E+00 0. -1.
         25    1    1    2    0    0 -0.18739950936E+03 -0.28853630651E+03 -0.42726887479E+03  0.56263262227E+03  0.12500000000E+03 0.  0.
         25    1    1    2    0    0  0.44943063993E+02  0.27661471180E+03 -0.31258217370E+02  0.30844392349E+03  0.12500000000E+03 0.  0.
         25    1    1    2    0    0  0.14245644537E+03  0.11921594704E+02  0.30133171524E+02  0.19227316836E+03  0.12500000000E+03 0.  0.
</event>
<event>
 5    0  0.5550393E-005  0.5453468E+03  0.7546771E-02  0.1002577E+00
         21   -1    0    0  502  501  0.00000000000E+00  0.00000000000E+00  0.11519517436E+04  0.11519517436E+04  0.00000000000E+00 0.  1.
         21   -1    0    0  501  502 -0.00000000000E+00 -0.00000000000E+00 -0.25817325770E+03  0.25817325770E+03  0.00000000000E+00 0.  1.
         25    1    1    2    0    0 -0.17554223274E+03 -0.36326733466E+03  0.33885139004E+03  0.54150115091E+03  0.12500000000E+03 0.  0.
         25    1    1    2    0    0  0.44025590997E+02 -0.15747150688E+02 -0.40846731223E+02  0.13956962732E+03  0.12500000000E+03 0.  0.
         25    1    1    2    0    0  0.13151664174E+03  0.37901448535E+03  0.59577382711E+03  0.72905422310E+03  0.12500000000E+03 0.  0.
</event>
<event>
 5    0  0.6404976E-005  0.2954324E+03  0.7546771E-02  0.1087546E+00
         21   -1    0    0  502  501  0.00000000000E+00  0.00000000000E+00  0.37081291065E+03  0.37081291065E+03  0.00000000000E+00 0. -1.
         21   -1    0    0  501  502 -0.00000000000E+00 -0.00000000000E+00 -0.23537562195E+03  0.23537562195E+03  0.00000000000E+00 0. -1.
         25    1    1    2    0    0 -0.85652923180E+02  0.85771701851E+02  0.15521174039E+03  0.23325713803E+03  0.12500000000E+03 0.  0.
         25    1    1    2    0    0 -0.22465396982E+02  0.67603291774E+02 -0.31007102040E+02  0.14717791783E+03  0.12500000000E+03 0.  0.
         25    1    1    2    0    0  0.10811832016E+03 -0.15337499362E+03  0.11232650348E+02  0.22575347674E+03  0.12500000000E+03 0.  0.
</event>
<event>
 5    0  0.5550393E-005  0.2751969E+03  0.7546771E-02  0.1098342E+00
         21   -1    0    0  502  501  0.00000000000E+00  0.00000000000E+00  0.30869670699E+03  0.30869670699E+03  0.00000000000E+00 0. -1.
         21   -1    0    0  501  502 -0.00000000000E+00 -0.00000000000E+00 -0.24533256391E+03  0.24533256391E+03  0.00000000000E+00 0. -1.
         25    1    1    2    0    0 -0.11075680599E+03  0.11678120577E+01  0.12289756989E+03  0.20735777425E+03  0.12500000000E+03 0.  0.
         25    1    1    2    0    0  0.15058570612E+03 -0.67218549925E+01 -0.84041587736E+02  0.21309440793E+03  0.12500000000E+03 0.  0.
         25    1    1    2    0    0 -0.39828900125E+02  0.55540429348E+01  0.24508160930E+02  0.13357708872E+03  0.12500000000E+03 0.  0.
</event>
<event>
 5    0  0.5550393E-005  0.3225152E+03  0.7546771E-02  0.1074498E+00
         21   -1    0    0  502  501  0.00000000000E+00  0.00000000000E+00  0.28203022256E+03  0.28203022256E+03  0.00000000000E+00 0.  1.
         21   -1    0    0  501  502 -0.00000000000E+00 -0.00000000000E+00 -0.36881164249E+03  0.36881164249E+03  0.00000000000E+00 0.  1.
         25    1    1    2    0    0  0.40972909739E+02  0.41459392237E+02 -0.19950403111E+02  0.13935809672E+03  0.12500000000E+03 0.  0.
         25    1    1    2    0    0 -0.19628772453E+03 -0.11469997331E+03 -0.12959557977E+03  0.29000856707E+03  0.12500000000E+03 0.  0.
         25    1    1    2    0    0  0.15531481479E+03  0.73240581075E+02  0.62764562959E+02  0.22147520126E+03  0.12500000000E+03 0.  0.
</event>
<event>
 5    0  0.5550393E-005  0.4121783E+03  0.7546771E-02  0.1039642E+00
         21   -1    0    0  502  501  0.00000000000E+00  0.00000000000E+00  0.11468679105E+04  0.11468679105E+04  0.00000000000E+00 0.  1.
         21   -1    0    0  501  502 -0.00000000000E+00 -0.00000000000E+00 -0.14813470155E+03  0.14813470155E+03  0.00000000000E+00 0.  1.
         25    1    1    2    0    0  0.13191563710E+03  0.42702656438E+02  0.27848008129E+03  0.33526319192E+03  0.12500000000E+03 0.  0.
         25    1    1    2    0    0 -0.30668252297E+03  0.31239524640E+02  0.63534313289E+03  0.71715826308E+03  0.12500000000E+03 0.  0.
         25    1    1    2    0    0  0.17476688586E+03 -0.73942181078E+02  0.84909994746E+02  0.24258115703E+03  0.12500000000E+03 0.  0.
</event>
<event>
 5    0  0.5550393E-005  0.2748376E+03  0.7546771E-02  0.1098542E+00
         21   -1    0    0  502  501  0.00000000000E+00  0.00000000000E+00  0.84616613223E+02  0.84616613223E+02  0.00000000000E+00 0.  1.
         21   -1    0    0  501  502 -0.00000000000E+00 -0.00000000000E+00 -0.89268170421E+03  0.89268170421E+03  0.00000000000E+00 0.  1.
         25    1    1    2    0    0 -0.80873222986E+02 -0.51859539056E+01 -0.39133170018E+03  0.41872768225E+03  0.12500000000E+03 0.  0.
         25    1    1    2    0    0  0.11791062974E+02 -0.75785510029E+02 -0.46960106076E+02  0.15398936411E+03  0.12500000000E+03 0.  0.
         25    1    1    2    0    0  0.69082160013E+02  0.80971463934E+02 -0.36977328473E+03  0.40458127107E+03  0.12500000000E+03 0.  0.
</event>
<event>
 5    0  0.5550393E-005  0.2816895E+03  0.7546771E-02  0.1094770E+00
         21   -1    0    0  502  501  0.00000000000E+00  0.00000000000E+00  0.15174301881E+03  0.15174301881E+03  0.00000000000E+00 0.  1.
         21   -1    0    0  501  502 -0.00000000000E+00 -0.00000000000E+00 -0.52291676300E+03  0.52291676300E+03  0.00000000000E+00 0.  1.
         25    1    1    2    0    0  0.79799044752E+02 -0.80953647189E+02 -0.23470149743E+03  0.28919054866E+03  0.12500000000E+03 0.  0.
         25    1    1    2    0    0  0.39066341256E+02  0.10650967309E+03 -0.12624727951E+03  0.21079341798E+03  0.12500000000E+03 0.  0.
         25    1    1    2    0    0 -0.11886538601E+03 -0.25556025902E+02 -0.10224967246E+02  0.17467581517E+03  0.12500000000E+03 0.  0.
</event>
<event>
 5    0  0.5702874E-005  0.2915642E+03  0.7546771E-02  0.1089535E+00
         21   -1    0    0  502  501  0.00000000000E+00  0.00000000000E+00  0.38977705907E+02  0.38977705907E+02  0.00000000000E+00 0. -1.
         21   -1    0    0  501  502 -0.00000000000E+00 -0.00000000000E+00 -0.21809828282E+04  0.21809828282E+04  0.00000000000E+00 0. -1.
         25    1    1    2    0    0 -0.98356162497E+02 -0.18368989086E+03 -0.76561748741E+03  0.80325030204E+03  0.12500000000E+03 0.  0.
         25    1    1    2    0    0  0.30175519406E+02  0.87360447207E+02 -0.49958034801E+03  0.52320926390E+03  0.12500000000E+03 0.  0.
         25    1    1    2    0    0  0.68180643091E+02  0.96329443650E+02 -0.87680728684E+03  0.89350096814E+03  0.12500000000E+03 0.  0.
</event>
<event>
 5    0  0.5550393E-005  0.3336378E+03  0.7546771E-02  0.1069539E+00
         21   -1    0    0  502  501  0.00000000000E+00  0.00000000000E+00  0.13923734983E+03  0.13923734983E+03  0.00000000000E+00 0.  1.
         21   -1    0    0  501  502 -0.00000000000E+00 -0.00000000000E+00 -0.79945620109E+03  0.79945620109E+03  0.00000000000E+00 0.  1.
         25    1    1    2    0    0 -0.45137012700E+02 -0.45730569902E+02 -0.23946609886E+03  0.27766463124E+03  0.12500000000E+03 0.  0.
         25    1    1    2    0    0  0.80554993479E+02 -0.11546406140E+01  0.60350049030E+02  0.16049164647E+03  0.12500000000E+03 0.  0.
         25    1    1    2    0    0 -0.35417980778E+02  0.46885210516E+02 -0.48110280143E+03  0.50053727321E+03  0.12500000000E+03 0.  0.
</event>
<event>
 5    0  0.5550393E-005  0.3055925E+03  0.7546771E-02  0.1082478E+00
         21   -1    0    0  502  501  0.00000000000E+00  0.00000000000E+00  0.13966590270E+03  0.13966590270E+03  0.00000000000E+00 0.  1.
         21   -1    0    0  501  502 -0.00000000000E+00 -0.00000000000E+00 -0.66864426165E+03  0.66864426165E+03  0.00000000000E+00 0.  1.
         25    1    1    2    0    0 -0.10422744413E+03 -0.54441163754E+02 -0.35588773034E+02  0.17526768437E+03  0.12500000000E+03 0.  0.
         25    1    1    2    0    0 -0.67854847551E+02  0.88794296936E+02 -0.13669645300E+03  0.21633221620E+03  0.12500000000E+03 0.  0.
         25    1    1    2    0    0  0.17208229168E+03 -0.34353133182E+02 -0.35669313291E+03  0.41671026377E+03  0.12500000000E+03 0.  0.
</event>
<event>
 5    0  0.5550393E-005  0.2857376E+03  0.7546771E-02  0.1092596E+00
         21   -1    0    0  502  501  0.00000000000E+00  0.00000000000E+00  0.53264135987E+02  0.53264135987E+02  0.00000000000E+00 0. -1.
         21   -1    0    0  501  502 -0.00000000000E+00 -0.00000000000E+00 -0.15328503475E+04  0.15328503475E+04  0.00000000000E+00 0. -1.
         25    1    1    2    0    0 -0.14008491638E+02  0.64937278085E+02 -0.13674551530E+03  0.19681825087E+03  0.12500000000E+03 0.  0.
         25    1    1    2    0    0  0.86713223441E+02 -0.13834092404E+02 -0.31511950372E+03  0.35019404172E+03  0.12500000000E+03 0.  0.
         25    1    1    2    0    0 -0.72704731803E+02 -0.51103185681E+02 -0.10277211925E+04  0.10391021909E+04  0.12500000000E+03 0.  0.
</event>
<event>
 5    0  0.5550393E-005  0.2254280E+03  0.7546771E-02  0.1129900E+00
         21   -1    0    0  502  501  0.00000000000E+00  0.00000000000E+00  0.59278351340E+02  0.59278351340E+02  0.00000000000E+00 0.  1.
         21   -1    0    0  501  502 -0.00000000000E+00 -0.00000000000E+00 -0.85727400790E+03  0.85727400790E+03  0.00000000000E+00 0.  1.
         25    1    1    2    0    0  0.41475658513E+02 -0.19414299790E+02 -0.47330262868E+03  0.49166810310E+03  0.12500000000E+03 0.  0.
         25    1    1    2    0    0 -0.70070185654E+02  0.14753561931E+02 -0.19502919583E+03  0.24246419475E+03  0.12500000000E+03 0.  0.
         25    1    1    2    0    0  0.28594527141E+02  0.46607378582E+01 -0.12966383205E+03  0.18242006140E+03  0.12500000000E+03 0.  0.
</event>
<event>
 5    0  0.5550393E-005  0.4055822E+03  0.7546771E-02  0.1041864E+00
         21   -1    0    0  502  501  0.00000000000E+00  0.00000000000E+00  0.10108202048E+04  0.10108202048E+04  0.00000000000E+00 0.  1.
         21   -1    0    0  501  502 -0.00000000000E+00 -0.00000000000E+00 -0.16273611911E+03  0.16273611911E+03  0.00000000000E+00 0.  1.
         25    1    1    2    0    0  0.85238584457E+02 -0.81647500863E+02  0.64617615049E+03  0.66865577702E+03  0.12500000000E+03 0.  0.
         25    1    1    2    0    0  0.40116932852E+02  0.16261703173E+03 -0.19715808389E+02  0.20992231995E+03  0.12500000000E+03 0.  0.
         25    1    1    2    0    0 -0.12535551731E+03 -0.80969530871E+02  0.22162374355E+03  0.29497822692E+03  0.12500000000E+03 0.  0.
</event>
<event>
 5    0  0.5550393E-005  0.7065699E+03  0.7546771E-02  0.9706062E-01
         21   -1    0    0  502  501  0.00000000000E+00  0.00000000000E+00  0.31506000966E+03  0.31506000966E+03  0.00000000000E+00 0.  1.
         21   -1    0    0  501  502 -0.00000000000E+00 -0.00000000000E+00 -0.15845901965E+04  0.15845901965E+04  0.00000000000E+00 0.  1.
         25    1    1    2    0    0  0.14407045964E+03 -0.29652398141E+03 -0.36335155280E+03  0.50629252395E+03  0.12500000000E+03 0.  0.
         25    1    1    2    0    0 -0.67134831926E+02  0.47645356055E+03 -0.42427546261E+02  0.49893905209E+03  0.12500000000E+03 0.  0.
         25    1    1    2    0    0 -0.76935627716E+02 -0.17992957915E+03 -0.86375108773E+03  0.89441863008E+03  0.12500000000E+03 0.  0.
</event>
<event>
 5    0  0.5550393E-005  0.4889892E+03  0.7546771E-02  0.1016694E+00
         21   -1    0    0  502  501  0.00000000000E+00  0.00000000000E+00  0.15038542042E+03  0.15038542042E+03  0.00000000000E+00 0. -1.
         21   -1    0    0  501  502 -0.00000000000E+00 -0.00000000000E+00 -0.15899839035E+04  0.15899839035E+04  0.00000000000E+00 0. -1.
         25    1    1    2    0    0 -0.27886414745E+02 -0.29561851084E+02 -0.40099160573E+03  0.42198438719E+03  0.12500000000E+03 0.  0.
         25    1    1    2    0    0 -0.13870132648E+03 -0.19235003334E+03 -0.97006664516E+03  0.10064248056E+04  0.12500000000E+03 0.  0.
         25    1    1    2    0    0  0.16658774122E+03  0.22191188443E+03 -0.68540232191E+02  0.31196013111E+03  0.12500000000E+03 0.  0.
</event>
<event>
 5    0  0.5550393E-005  0.3921022E+03  0.7546771E-02  0.1046549E+00
         21   -1    0    0  502  501  0.00000000000E+00  0.00000000000E+00  0.10379109331E+04  0.10379109331E+04  0.00000000000E+00 0.  1.
         21   -1    0    0  501  502 -0.00000000000E+00 -0.00000000000E+00 -0.14812844523E+03  0.14812844523E+03  0.00000000000E+00 0.  1.
         25    1    1    2    0    0 -0.97586400354E+02 -0.22559656679E+03  0.63915296056E+03  0.69610230820E+03  0.12500000000E+03 0.  0.
         25    1    1    2    0    0  0.13192182195E+03  0.54976264845E+02  0.49881794435E+02  0.19631339796E+03  0.12500000000E+03 0.  0.
         25    1    1    2    0    0 -0.34335421593E+02  0.17062030194E+03  0.20074773291E+03  0.29362367221E+03  0.12500000000E+03 0.  0.
</event>
<event>
 5    0  0.5550393E-005  0.2941068E+03  0.7546771E-02  0.1088224E+00
         21   -1    0    0  502  501  0.00000000000E+00  0.00000000000E+00  0.20795147411E+04  0.20795147411E+04  0.00000000000E+00 0. -1.
         21   -1    0    0  501  502 -0.00000000000E+00 -0.00000000000E+00 -0.41595671368E+02  0.41595671368E+02  0.00000000000E+00 0. -1.
         25    1    1    2    0    0  0.25771473785E+02 -0.16876595169E+03  0.96759847568E+03  0.99046349021E+03  0.12500000000E+03 0.  0.
         25    1    1    2    0    0  0.57185728665E+02  0.11604840508E+03  0.77099889214E+03  0.79170811008E+03  0.12500000000E+03 0.  0.
         25    1    1    2    0    0 -0.82957202450E+02  0.52717546608E+02  0.29932170187E+03  0.33893881213E+03  0.12500000000E+03 0.  0.
</event>
<event>
 5    0  0.5550393E-005  0.3228498E+03  0.7546771E-02  0.1074345E+00
         21   -1    0    0  502  501  0.00000000000E+00  0.00000000000E+00  0.16945176677E+04  0.16945176677E+04  0.00000000000E+00 0. -1.
         21   -1    0    0  501  502 -0.00000000000E+00 -0.00000000000E+00 -0.61511303753E+02  0.61511303753E+02  0.00000000000E+00 0. -1.
         25    1    1    2    0    0  0.26704503081E+02 -0.12514859399E+03  0.57894493389E+03  0.60595176172E+03  0.12500000000E+03 0.  0.
         25    1    1    2    0    0  0.14673550143E+03  0.14676183722E+03  0.62238048643E+03  0.66787185457E+03  0.12500000000E+03 0.  0.
         25    1    1    2    0    0 -0.17344000451E+03 -0.21613243235E+02  0.43168094363E+03  0.48220535516E+03  0.12500000000E+03 0.  0.
</event>
<event>
 5    0  0.5550393E-005  0.3683998E+03  0.7546771E-02  0.1055307E+00
         21   -1    0    0  502  501  0.00000000000E+00  0.00000000000E+00  0.11850170031E+04  0.11850170031E+04  0.00000000000E+00 0.  1.
         21   -1    0    0  501  502 -0.00000000000E+00 -0.00000000000E+00 -0.11452868097E+03  0.11452868097E+03  0.00000000000E+00 0.  1.
         25    1    1    2    0    0 -0.28397355888E+03  0.67665918279E+02  0.36738235393E+03  0.48560730289E+03  0.12500000000E+03 0.  0.
         25    1    1    2    0    0  0.66273094258E+02  0.19156656246E+02  0.28142536494E+03  0.31556985999E+03  0.12500000000E+03 0.  0.
         25    1    1    2    0    0  0.21770046462E+03 -0.86822574525E+02  0.42168060322E+03  0.49836852115E+03  0.12500000000E+03 0.  0.
</event>
<event>
 5    0  0.5550393E-005  0.3645273E+03  0.7546771E-02  0.1056806E+00
         21   -1    0    0  502  501  0.00000000000E+00  0.00000000000E+00  0.13470946763E+04  0.13470946763E+04  0.00000000000E+00 0. -1.
         21   -1    0    0  501  502 -0.00000000000E+00 -0.00000000000E+00 -0.98642003886E+02  0.98642003886E+02  0.00000000000E+00 0. -1.
         25    1    1    2    0    0 -0.60723212798E+02 -0.41609269352E+02  0.64665351016E+02  0.15882458088E+03  0.12500000000E+03 0.  0.
         25    1    1    2    0    0  0.13493398827E+02  0.23585667326E+03  0.57569157588E+03  0.63470956561E+03  0.12500000000E+03 0.  0.
         25    1    1    2    0    0  0.47229813970E+02 -0.19424740391E+03  0.60809574553E+03  0.65220253371E+03  0.12500000000E+03 0.  0.
</event>
<event>
 5    0  0.5550393E-005  0.2945649E+03  0.7546771E-02  0.1087990E+00
         21   -1    0    0  502  501  0.00000000000E+00  0.00000000000E+00  0.45014393799E+03  0.45014393799E+03  0.00000000000E+00 0.  1.
         21   -1    0    0  501  502 -0.00000000000E+00 -0.00000000000E+00 -0.19275713029E+03  0.19275713029E+03  0.00000000000E+00 0.  1.
         25    1    1    2    0    0 -0.15811797034E+03  0.46660343845E+02  0.99230335170E+02  0.22945618242E+03  0.12500000000E+03 0.  0.
         25    1    1    2    0    0  0.15851687414E+03 -0.10538907903E+03  0.39009712579E+02  0.23104375136E+03  0.12500000000E+03 0.  0.
         25    1    1    2    0    0 -0.39890380125E+00  0.58728735183E+02  0.11914675995E+03  0.18240113450E+03  0.12500000000E+03 0.  0.
</event>
<event>
 5    0  0.5550393E-005  0.6775722E+03  0.7546771E-02  0.9756375E-01
         21   -1    0    0  502  501  0.00000000000E+00  0.00000000000E+00  0.83723204875E+03  0.83723204875E+03  0.00000000000E+00 0.  1.
         21   -1    0    0  501  502 -0.00000000000E+00 -0.00000000000E+00 -0.54835936752E+03  0.54835936752E+03  0.00000000000E+00 0.  1.
         25    1    1    2    0    0 -0.10384711428E+03  0.20244218735E+03 -0.91170635919E+02  0.27514386640E+03  0.12500000000E+03 0.  0.
         25    1    1    2    0    0 -0.31149846342E+03 -0.28175016523E+03 -0.10940265778E+03  0.45167287925E+03  0.12500000000E+03 0.  0.
         25    1    1    2    0    0  0.41534557770E+03  0.79307977886E+02  0.48944597493E+03  0.65877467062E+03  0.12500000000E+03 0.  0.
</event>
<event>
 5    0  0.5550393E-005  0.3280782E+03  0.7546771E-02  0.1071990E+00
         21   -1    0    0  502  501  0.00000000000E+00  0.00000000000E+00  0.73045584910E+02  0.73045584910E+02  0.00000000000E+00 0. -1.
         21   -1    0    0  501  502 -0.00000000000E+00 -0.00000000000E+00 -0.14735365254E+04  0.14735365254E+04  0.00000000000E+00 0. -1.
         25    1    1    2    0    0 -0.13017291410E+03 -0.97419827503E+02 -0.58198103913E+03  0.61705959215E+03  0.12500000000E+03 0.  0.
         25    1    1    2    0    0  0.71396556776E+02 -0.55447560828E+02 -0.63548072064E+03  0.65393627107E+03  0.12500000000E+03 0.  0.
         25    1    1    2    0    0  0.58776357322E+02  0.15286738833E+03 -0.18302918076E+03  0.27558624712E+03  0.12500000000E+03 0.  0.
</event>
<event>
 5    0  0.8441688E-005  0.4100940E+03  0.7546771E-02  0.1040339E+00
         21   -1    0    0  502  501  0.00000000000E+00  0.00000000000E+00  0.38876474884E+03  0.38876474884E+03  0.00000000000E+00 0.  1.
         21   -1    0    0  501  502 -0.00000000000E+00 -0.00000000000E+00 -0.43259338283E+03  0.43259338283E+03  0.00000000000E+00 0.  1.
         25    1    1    2    0    0 -0.35552907106E+02  0.23731025198E+03  0.56736645638E+02  0.27644929346E+03  0.12500000000E+03 0.  0.
         25    1    1    2    0    0  0.10587766479E+03 -0.12099795621E+03 -0.23908778479E+03  0.31406775406E+03  0.12500000000E+03 0.  0.
         25    1    1    2    0    0 -0.70324757681E+02 -0.11631229577E+03  0.13852250516E+03  0.23084108414E+03  0.12500000000E+03 0.  0.
</event>
<event>
 5    0  0.5550393E-005  0.3243943E+03  0.7546771E-02  0.1073645E+00
         21   -1    0    0  502  501  0.00000000000E+00  0.00000000000E+00  0.11622561719E+04  0.11622561719E+04  0.00000000000E+00 0. -1.
         21   -1    0    0  501  502 -0.00000000000E+00 -0.00000000000E+00 -0.90540831524E+02  0.90540831524E+02  0.00000000000E+00 0. -1.
         25    1    1    2    0    0 -0.92013749520E+02  0.63367399793E+01  0.20818625526E+03  0.25975604180E+03  0.12500000000E+03 0.  0.
         25    1    1    2    0    0  0.93424504909E+02 -0.20275493432E+03  0.41103032168E+03  0.48415764669E+03  0.12500000000E+03 0.  0.
         25    1    1    2    0    0 -0.14107553895E+01  0.19641819434E+03  0.45249876341E+03  0.50888331491E+03  0.12500000000E+03 0.  0.
</event>
<event>
 5    0  0.5550393E-005  0.3277311E+03  0.7546771E-02  0.1072145E+00
         21   -1    0    0  502  501  0.00000000000E+00  0.00000000000E+00  0.79219145394E+02  0.79219145394E+02  0.00000000000E+00 0.  1.
         21   -1    0    0  501  502 -0.00000000000E+00 -0.00000000000E+00 -0.13558295338E+04  0.13558295338E+04  0.00000000000E+00 0.  1.
         25    1    1    2    0    0 -0.48205249311E+02  0.21717155299E+03 -0.50195521115E+03  0.56309081282E+03  0.12500000000E+03 0.  0.
         25    1    1    2    0    0  0.28479013232E+02 -0.82024073137E+02 -0.59433115715E+03  0.61350919074E+03  0.12500000000E+03 0.  0.
         25    1    1    2    0    0  0.19726236079E+02 -0.13514747986E+03 -0.18032402010E+03  0.25844867561E+03  0.12500000000E+03 0.  0.
</event>
<event>
 5    0  0.5550393E-005  0.2781916E+03  0.7546771E-02  0.1096681E+00
         21   -1    0    0  502  501  0.00000000000E+00  0.00000000000E+00  0.10330735998E+03  0.10330735998E+03  0.00000000000E+00 0.  1.
         21   -1    0    0  501  502 -0.00000000000E+00 -0.00000000000E+00 -0.74912936791E+03  0.74912936791E+03  0.00000000000E+00 0.  1.
         25    1    1    2    0    0  0.13686405987E+03 -0.10610987088E+02 -0.25528996618E+03  0.31566173472E+03  0.12500000000E+03 0.  0.
         25    1    1    2    0    0  0.43419983968E+02  0.26963094477E+01 -0.22800493573E+03  0.26363576353E+03  0.12500000000E+03 0.  0.
         25    1    1    2    0    0 -0.18028404384E+03  0.79146776406E+01 -0.16252710601E+03  0.27313922965E+03  0.12500000000E+03 0.  0.
</event>
<event>
 5    0  0.5550393E-005  0.3208381E+03  0.7546771E-02  0.1075264E+00
         21   -1    0    0  502  501  0.00000000000E+00  0.00000000000E+00  0.85131764255E+03  0.85131764255E+03  0.00000000000E+00 0. -1.
         21   -1    0    0  501  502 -0.00000000000E+00 -0.00000000000E+00 -0.12091502754E+03  0.12091502754E+03  0.00000000000E+00 0. -1.
         25    1    1    2    0    0 -0.52790081106E+02  0.81517835873E+02  0.50944645776E+03  0.53347225190E+03  0.12500000000E+03 0.  0.
         25    1    1    2    0    0 -0.91488992324E+02 -0.37553378936E+02  0.17662839412E+03  0.23791402143E+03  0.12500000000E+03 0.  0.
         25    1    1    2    0    0  0.14427907343E+03 -0.43964456937E+02  0.44327763143E+02  0.20084639675E+03  0.12500000000E+03 0.  0.
</event>
<event>
 5    0  0.5550393E-005  0.4417838E+03  0.7546771E-02  0.1030201E+00
         21   -1    0    0  502  501  0.00000000000E+00  0.00000000000E+00  0.54399831474E+03  0.54399831474E+03  0.00000000000E+00 0. -1.
         21   -1    0    0  501  502 -0.00000000000E+00 -0.00000000000E+00 -0.35877492305E+03  0.35877492305E+03  0.00000000000E+00 0. -1.
         25    1    1    2    0    0  0.88239848954E+02  0.14278015553E+03 -0.15553600439E+02  0.20985556520E+03  0.12500000000E+03 0.  0.
         25    1    1    2    0    0  0.19390422313E+03  0.99204394424E+02  0.16200418637E+03  0.29884898531E+03  0.12500000000E+03 0.  0.
         25    1    1    2    0    0 -0.28214407209E+03 -0.24198454996E+03  0.38772805754E+02  0.39406868728E+03  0.12500000000E+03 0.  0.
</event>
<event>
 5    0  0.5550393E-005  0.3148510E+03  0.7546771E-02  0.1078044E+00
         21   -1    0    0  502  501  0.00000000000E+00  0.00000000000E+00  0.25516620772E+04  0.25516620772E+04  0.00000000000E+00 0. -1.
         21   -1    0    0  501  502 -0.00000000000E+00 -0.00000000000E+00 -0.38849636185E+02  0.38849636185E+02  0.00000000000E+00 0. -1.
         25    1    1    2    0    0 -0.31219838285E+02 -0.55417590772E+02  0.12363418819E+04  0.12442716892E+04  0.12500000000E+03 0.  0.
         25    1    1    2    0    0  0.14678980378E+03 -0.34736066618E+02  0.36109684227E+03  0.41081598108E+03  0.12500000000E+03 0.  0.
         25    1    1    2    0    0 -0.11556996550E+03  0.90153657390E+02  0.91537371685E+03  0.93542404308E+03  0.12500000000E+03 0.  0.
</event>
<event>
 5    0  0.5550393E-005  0.3015816E+03  0.7546771E-02  0.1084453E+00
         21   -1    0    0  502  501  0.00000000000E+00  0.00000000000E+00  0.48439228928E+03  0.48439228928E+03  0.00000000000E+00 0.  1.
         21   -1    0    0  501  502 -0.00000000000E+00 -0.00000000000E+00 -0.18776402167E+03  0.18776402167E+03  0.00000000000E+00 0.  1.
         25    1    1    2    0    0 -0.11670506594E+03 -0.98299298677E+01  0.11765540834E+03  0.20780879445E+03  0.12500000000E+03 0.  0.
         25    1    1    2    0    0  0.15393018239E+03 -0.10305194202E+03  0.18740599086E+03  0.29165083441E+03  0.12500000000E+03 0.  0.
         25    1    1    2    0    0 -0.37225116446E+02  0.11288187189E+03 -0.84331315867E+01  0.17269668209E+03  0.12500000000E+03 0.  0.
</event>
<event>
 5    0  0.5550393E-005  0.2214518E+03  0.7546771E-02  0.1132805E+00
         21   -1    0    0  502  501  0.00000000000E+00  0.00000000000E+00  0.53668194108E+03  0.53668194108E+03  0.00000000000E+00 0.  1.
         21   -1    0    0  501  502 -0.00000000000E+00 -0.00000000000E+00 -0.91377942535E+02  0.91377942535E+02  0.00000000000E+00 0.  1.
         25    1    1    2    0    0 -0.91391039142E+01  0.44903362588E+02  0.87665548087E+02  0.15940540616E+03  0.12500000000E+03 0.  0.
         25    1    1    2    0    0  0.10003853400E+02  0.78034978172E+01  0.29213514080E+03  0.31800772342E+03  0.12500000000E+03 0.  0.
         25    1    1    2    0    0 -0.86474948591E+00 -0.52706860406E+02  0.65503309652E+02  0.15064675403E+03  0.12500000000E+03 0.  0.
</event>
<event>
 5    0  0.5550393E-005  0.2798601E+03  0.7546771E-02  0.1095765E+00
         21   -1    0    0  502  501  0.00000000000E+00  0.00000000000E+00  0.27936360795E+03  0.27936360795E+03  0.00000000000E+00 0. -1.
         21   -1    0    0  501  502 -0.00000000000E+00 -0.00000000000E+00 -0.28035746237E+03  0.28035746237E+03  0.00000000000E+00 0. -1.
         25    1    1    2    0    0  0.89624689435E+02 -0.13172569722E+03 -0.53223872139E+00  0.20250809253E+03  0.12500000000E+03 0.  0.
         25    1    1    2    0    0 -0.83565569577E+02  0.12932484235E+02  0.75423685264E+02  0.16871332451E+03  0.12500000000E+03 0.  0.
         25    1    1    2    0    0 -0.60591198582E+01  0.11879321298E+03 -0.75885300966E+02  0.18849965328E+03  0.12500000000E+03 0.  0.
</event>
<event>
 5    0  0.5550393E-005  0.2785671E+03  0.7546771E-02  0.1096474E+00
         21   -1    0    0  502  501  0.00000000000E+00  0.00000000000E+00  0.61787191767E+02  0.61787191767E+02  0.00000000000E+00 0.  1.
         21   -1    0    0  501  502 -0.00000000000E+00 -0.00000000000E+00 -0.12559180102E+04  0.12559180102E+04  0.00000000000E+00 0.  1.
         25    1    1    2    0    0 -0.48597900327E+02 -0.55634856380E+02 -0.17237416174E+03  0.22537711684E+03  0.12500000000E+03 0.  0.
         25    1    1    2    0    0  0.13983777710E+03  0.92734807045E+02 -0.41120914551E+03  0.46138087270E+03  0.12500000000E+03 0.  0.
         25    1    1    2    0    0 -0.91239876778E+02 -0.37099950664E+02 -0.61054751115E+03  0.63094721239E+03  0.12500000000E+03 0.  0.
</event>
<event>
 5    0  0.5809197E-005  0.4577356E+03  0.7546771E-02  0.1025440E+00
         21   -1    0    0  502  501  0.00000000000E+00  0.00000000000E+00  0.83165590703E+03  0.83165590703E+03  0.00000000000E+00 0. -1.
         21   -1    0    0  501  502 -0.00000000000E+00 -0.00000000000E+00 -0.25193342298E+03  0.25193342298E+03  0.00000000000E+00 0. -1.
         25    1    1    2    0    0  0.46043457572E+01 -0.20482974791E+03  0.21850162274E+03  0.32456799715E+03  0.12500000000E+03 0.  0.
         25    1    1    2    0    0 -0.11205045946E+03  0.22918248569E+03  0.47765359335E+03  0.55574982902E+03  0.12500000000E+03 0.  0.
         25    1    1    2    0    0  0.10744611370E+03 -0.24352737779E+02 -0.11643273204E+03  0.20327150385E+03  0.12500000000E+03 0.  0.
</event>
<event>
 5    0  0.5550393E-005  0.4115566E+03  0.7546771E-02  0.1039850E+00
         21   -1    0    0  502  501  0.00000000000E+00  0.00000000000E+00  0.58261222634E+03  0.58261222634E+03  0.00000000000E+00 0. -1.
         21   -1    0    0  501  502 -0.00000000000E+00 -0.00000000000E+00 -0.29072316730E+03  0.29072316730E+03  0.00000000000E+00 0. -1.
         25    1    1    2    0    0  0.83295410671E+02  0.31851892792E+03  0.83345837557E+02  0.36188943273E+03  0.12500000000E+03 0.  0.
         25    1    1    2    0    0 -0.11585697940E+03 -0.25609721680E+03  0.20163122293E+03  0.36781622339E+03  0.12500000000E+03 0.  0.
         25    1    1    2    0    0  0.32561568730E+02 -0.62421711119E+02  0.69119985417E+01  0.14362973752E+03  0.12500000000E+03 0.  0.
</event>
<event>
 5    0  0.5550393E-005  0.5249561E+03  0.7546771E-02  0.1007463E+00
         21   -1    0    0  502  501  0.00000000000E+00  0.00000000000E+00  0.19212672634E+03  0.19212672634E+03  0.00000000000E+00 0. -1.
         21   -1    0    0  501  502 -0.00000000000E+00 -0.00000000000E+00 -0.14343598298E+04  0.14343598298E+04  0.00000000000E+00 0. -1.
         25    1    1    2    0    0 -0.13941670849E+03  0.25549512686E+03 -0.72488709461E+03  0.79107589926E+03  0.12500000000E+03 0.  0.
         25    1    1    2    0    0 -0.55858587501E+02  0.95027058643E+02 -0.34119299622E+03  0.37972092955E+03  0.12500000000E+03 0.  0.
         25    1    1    2    0    0  0.19527529599E+03 -0.35052218550E+03 -0.17615301264E+03  0.45568972735E+03  0.12500000000E+03 0.  0.
</event>
<event>
 5    0  0.5550393E-005  0.2742970E+03  0.7546771E-02  0.1098845E+00
         21   -1    0    0  502  501  0.00000000000E+00  0.00000000000E+00  0.43014467561E+02  0.43014467561E+02  0.00000000000E+00 0.  1.
         21   -1    0    0  501  502 -0.00000000000E+00 -0.00000000000E+00 -0.17491526638E+04  0.17491526638E+04  0.00000000000E+00 0.  1.
         25    1    1    2    0    0 -0.82077234062E+02  0.27658787647E+02 -0.35514023473E+03  0.38633051551E+03  0.12500000000E+03 0.  0.
         25    1    1    2    0    0  0.17333990111E+03 -0.20942626552E+02 -0.98969575003E+03  0.10127230582E+04  0.12500000000E+03 0.  0.
         25    1    1    2    0    0 -0.91262667053E+02 -0.67161610949E+01 -0.36130221148E+03  0.39311355769E+03  0.12500000000E+03 0.  0.
</event>
<event>
 5    0  0.5550393E-005  0.3127047E+03  0.7546771E-02  0.1079057E+00
         21   -1    0    0  502  501  0.00000000000E+00  0.00000000000E+00  0.48590615750E+03  0.48590615750E+03  0.00000000000E+00 0. -1.
         21   -1    0    0  501  502 -0.00000000000E+00 -0.00000000000E+00 -0.20124098958E+03  0.20124098958E+03  0.00000000000E+00 0. -1.
         25    1    1    2    0    0 -0.64855762146E+02 -0.14827090964E+03 -0.23000993839E+02  0.20577798290E+03  0.12500000000E+03 0.  0.
         25    1    1    2    0    0  0.40502468060E+02  0.10415292313E+03  0.30325526848E+03  0.34652134015E+03  0.12500000000E+03 0.  0.
         25    1    1    2    0    0  0.24353294086E+02  0.44117986506E+02  0.44108932807E+01  0.13484782403E+03  0.12500000000E+03 0.  0.
</event>
<event>
 5    0  0.5550393E-005  0.2233345E+03  0.7546771E-02  0.1131421E+00
         21   -1    0    0  502  501  0.00000000000E+00  0.00000000000E+00  0.34549538205E+03  0.34549538205E+03  0.00000000000E+00 0. -1.
         21   -1    0    0  501  502 -0.00000000000E+00 -0.00000000000E+00 -0.14436750666E+03  0.14436750666E+03  0.00000000000E+00 0. -1.
         25    1    1    2    0    0  0.50298063834E+02 -0.74377004536E+02  0.91098855376E+02  0.17884584278E+03  0.12500000000E+03 0.  0.
         25    1    1    2    0    0  0.29406956764E+02  0.86014809316E+01  0.50393581600E+02  0.13821457104E+03  0.12500000000E+03 0.  0.
         25    1    1    2    0    0 -0.79705020598E+02  0.65775523605E+02  0.59635438409E+02  0.17280247489E+03  0.12500000000E+03 0.  0.
</event>
<event>
 5    0  0.5550393E-005  0.2361140E+03  0.7546771E-02  0.1122409E+00
         21   -1    0    0  502  501  0.00000000000E+00  0.00000000000E+00  0.10079329076E+03  0.10079329076E+03  0.00000000000E+00 0. -1.
         21   -1    0    0  501  502 -0.00000000000E+00 -0.00000000000E+00 -0.55311052425E+03  0.55311052425E+03  0.00000000000E+00 0. -1.
         25    1    1    2    0    0 -0.26389509148E+02  0.48611983871E+02 -0.24710409371E+03  0.28239150890E+03  0.12500000000E+03 0.  0.
         25    1    1    2    0    0  0.45053429987E+02  0.42451275142E+02 -0.41500734235E+02  0.14553086702E+03  0.12500000000E+03 0.  0.
         25    1    1    2    0    0 -0.18663920839E+02 -0.91063259013E+02 -0.16371240555E+03  0.22598143909E+03  0.12500000000E+03 0.  0.
</event>
<event>
 5    0  0.5550393E-005  0.2620499E+03  0.7546771E-02  0.1105918E+00
         21   -1    0    0  502  501  0.00000000000E+00  0.00000000000E+00  0.37570842536E+03  0.37570842536E+03  0.00000000000E+00 0.  1.
         21   -1    0    0  501  502 -0.00000000000E+00 -0.00000000000E+00 -0.18277510769E+03  0.18277510769E+03  0.00000000000E+00 0.  1.
         25    1    1    2    0    0 -0.27018698162E+02 -0.49665006510E+02 -0.33229847382E+02  0.14115893765E+03  0.12500000000E+03 0.  0.
         25    1    1    2    0    0 -0.10448658516E+03  0.41248410714E+02  0.12475382991E+03  0.20930216421E+03  0.12500000000E+03 0.  0.
         25    1    1    2    0    0  0.13150528332E+03  0.84165957950E+01  0.10140933515E+03  0.20802243120E+03  0.12500000000E+03 0.  0.
</event>
<event>
 5    0  0.5816296E-005  0.2951095E+03  0.7546771E-02  0.1087711E+00
         21   -1    0    0  502  501  0.00000000000E+00  0.00000000000E+00  0.13704143975E+03  0.13704143975E+03  0.00000000000E+00 0. -1.
         21   -1    0    0  501  502 -0.00000000000E+00 -0.00000000000E+00 -0.63549830674E+03  0.63549830674E+03  0.00000000000E+00 0. -1.
         25    1    1    2    0    0 -0.35187411388E+02  0.16213893682E+03 -0.13713981506E+03  0.24891668813E+03  0.12500000000E+03 0.  0.
         25    1    1    2    0    0 -0.33418115121E+02 -0.84096025273E+02 -0.33783780407E+02  0.15797232575E+03  0.12500000000E+03 0.  0.
         25    1    1    2    0    0  0.68605526509E+02 -0.78042911545E+02 -0.32753327152E+03  0.36565073262E+03  0.12500000000E+03 0.  0.
</event>
<event>
 5    0  0.5931944E-005  0.3125346E+03  0.7546771E-02  0.1079137E+00
         21   -1    0    0  502  501  0.00000000000E+00  0.00000000000E+00  0.21155422526E+03  0.21155422526E+03  0.00000000000E+00 0. -1.
         21   -1    0    0  501  502 -0.00000000000E+00 -0.00000000000E+00 -0.46171553189E+03  0.46171553189E+03  0.00000000000E+00 0. -1.
         25    1    1    2    0    0 -0.23919743565E+02 -0.20049172301E+02  0.11857505396E+03  0.17509759240E+03  0.12500000000E+03 0.  0.
         25    1    1    2    0    0 -0.15794324577E+02 -0.95297230235E+02 -0.14590084115E+03  0.21504203828E+03  0.12500000000E+03 0.  0.
         25    1    1    2    0    0  0.39714068142E+02  0.11534640254E+03 -0.22283551945E+03  0.28313012647E+03  0.12500000000E+03 0.  0.
</event>
<event>
 5    0  0.5550393E-005  0.2249212E+03  0.7546771E-02  0.1130266E+00
         21   -1    0    0  502  501  0.00000000000E+00  0.00000000000E+00  0.97804215003E+02  0.97804215003E+02  0.00000000000E+00 0.  1.
         21   -1    0    0  501  502 -0.00000000000E+00 -0.00000000000E+00 -0.51725337947E+03  0.51725337947E+03  0.00000000000E+00 0.  1.
         25    1    1    2    0    0 -0.55061660238E+02 -0.41260220359E+02 -0.20696201937E+03  0.25138112434E+03  0.12500000000E+03 0.  0.
         25    1    1    2    0    0  0.91957707463E+01 -0.22004728410E+02 -0.16588024900E+03  0.20906943173E+03  0.12500000000E+03 0.  0.
         25    1    1    2    0    0  0.45865889491E+02  0.63264948769E+02 -0.46606896089E+02  0.15460703841E+03  0.12500000000E+03 0.  0.
</event>
<event>
 5    0  0.5550393E-005  0.3962963E+03  0.7546771E-02  0.1045070E+00
         21   -1    0    0  502  501  0.00000000000E+00  0.00000000000E+00  0.18691846537E+03  0.18691846537E+03  0.00000000000E+00 0. -1.
         21   -1    0    0  501  502 -0.00000000000E+00 -0.00000000000E+00 -0.84020999643E+03  0.84020999643E+03  0.00000000000E+00 0. -1.
         25    1    1    2    0    0  0.13660248837E+03  0.10371270184E+03  0.72355215039E+02  0.22422497964E+03  0.12500000000E+03 0.  0.
         25    1    1    2    0    0 -0.39680253374E+02 -0.64372116994E+01 -0.46289950652E+03  0.48116204478E+03  0.12500000000E+03 0.  0.
         25    1    1    2    0    0 -0.96922234998E+02 -0.97275490143E+02 -0.26274723957E+03  0.32174143737E+03  0.12500000000E+03 0.  0.
</event>
<event>
 5    0  0.5550393E-005  0.3121327E+03  0.7546771E-02  0.1079328E+00
         21   -1    0    0  502  501  0.00000000000E+00  0.00000000000E+00  0.15134867855E+03  0.15134867855E+03  0.00000000000E+00 0. -1.
         21   -1    0    0  501  502 -0.00000000000E+00 -0.00000000000E+00 -0.64372413559E+03  0.64372413559E+03  0.00000000000E+00 0. -1.
         25    1    1    2    0    0 -0.15366497381E+03 -0.63664173439E+01 -0.15840644218E+02  0.19881997247E+03  0.12500000000E+03 0.  0.
         25    1    1    2    0    0  0.15904952140E+02 -0.32221316222E+02 -0.70427974185E+02  0.14790632261E+03  0.12500000000E+03 0.  0.
         25    1    1    2    0    0  0.13776002167E+03  0.38587733566E+02 -0.40610683864E+03  0.44834651905E+03  0.12500000000E+03 0.  0.
</event>
<event>
 5    0  0.5550393E-005  0.2917951E+03  0.7546771E-02  0.1089416E+00
         21   -1    0    0  502  501  0.00000000000E+00  0.00000000000E+00  0.11921002663E+03  0.11921002663E+03  0.00000000000E+00 0. -1.
         21   -1    0    0  501  502 -0.00000000000E+00 -0.00000000000E+00 -0.71423839591E+03  0.71423839591E+03  0.00000000000E+00 0. -1.
         25    1    1    2    0    0  0.52737614904E+02 -0.14158929934E+03 -0.21826431603E+03  0.29341625273E+03  0.12500000000E+03 0.  0.
         25    1    1    2    0    0  0.61665301019E+02 -0.49022464579E+01 -0.24001665828E+03  0.27759617725E+03  0.12500000000E+03 0.  0.
         25    1    1    2    0    0 -0.11440291592E+03  0.14649154580E+03 -0.13674739498E+03  0.26243599257E+03  0.12500000000E+03 0.  0.
</event>
<event>
 5    0  0.5550393E-005  0.4791939E+03  0.7546771E-02  0.1019357E+00
         21   -1    0    0  502  501  0.00000000000E+00  0.00000000000E+00  0.60067008606E+03  0.60067008606E+03  0.00000000000E+00 0. -1.
         21   -1    0    0  501  502 -0.00000000000E+00 -0.00000000000E+00 -0.38228441066E+03  0.38228441066E+03  0.00000000000E+00 0. -1.
         25    1    1    2    0    0  0.16537864676E+03 -0.67845838401E+02 -0.96271153363E+02  0.23842459932E+03  0.12500000000E+03 0.  0.
         25    1    1    2    0    0  0.18896369576E+03  0.11815043895E+03  0.25458933168E+03  0.36070421725E+03  0.12500000000E+03 0.  0.
         25    1    1    2    0    0 -0.35434234252E+03 -0.50304600545E+02  0.60067497086E+02  0.38382568015E+03  0.12500000000E+03 0.  0.
</event>
<event>
 5    0  0.5550393E-005  0.2553876E+03  0.7546771E-02  0.1109947E+00
         21   -1    0    0  502  501  0.00000000000E+00  0.00000000000E+00  0.30604583011E+03  0.30604583011E+03  0.00000000000E+00 0. -1.
         21   -1    0    0  501  502 -0.00000000000E+00 -0.00000000000E+00 -0.21311457013E+03  0.21311457013E+03  0.00000000000E+00 0. -1.
         25    1    1    2    0    0 -0.10286601327E+02  0.23566080119E+02  0.62289974314E+02  0.14200779978E+03  0.12500000000E+03 0.  0.
         25    1    1    2    0    0 -0.15439994969E+02 -0.30307032032E+02 -0.12208702081E+03  0.17800884890E+03  0.12500000000E+03 0.  0.
         25    1    1    2    0    0  0.25726596296E+02  0.67409519129E+01  0.15272830647E+03  0.19914375156E+03  0.12500000000E+03 0.  0.
</event>
<event>
 5    0  0.6644387E-005  0.2917025E+03  0.7546771E-02  0.1089464E+00
         21   -1    0    0  502  501  0.00000000000E+00  0.00000000000E+00  0.20543405739E+03  0.20543405739E+03  0.00000000000E+00 0.  1.
         21   -1    0    0  501  502 -0.00000000000E+00 -0.00000000000E+00 -0.41419788677E+03  0.41419788677E+03  0.00000000000E+00 0.  1.
         25    1    1    2    0    0  0.96027850667E+02  0.92812769102E+02 -0.91961946125E+02  0.20473777802E+03  0.12500000000E+03 0.  0.
         25    1    1    2    0    0  0.33420291013E+02  0.26281473467E+02  0.50999346700E+02  0.14153997691E+03  0.12500000000E+03 0.  0.
         25    1    1    2    0    0 -0.12944814168E+03 -0.11909424257E+03 -0.16780122996E+03  0.27335418923E+03  0.12500000000E+03 0.  0.
</event>
<event>
 5    0  0.5550393E-005  0.4095619E+03  0.7546771E-02  0.1040518E+00
         21   -1    0    0  502  501  0.00000000000E+00  0.00000000000E+00  0.72513429521E+03  0.72513429521E+03  0.00000000000E+00 0.  1.
         21   -1    0    0  501  502 -0.00000000000E+00 -0.00000000000E+00 -0.23132396831E+03  0.23132396831E+03  0.00000000000E+00 0.  1.
         25    1    1    2    0    0  0.13242348565E+03 -0.12353703109E+03 -0.11672098175E+03  0.24909067663E+03  0.12500000000E+03 0.  0.
         25    1    1    2    0    0 -0.45697073039E+02  0.18741831409E+02  0.42418169060E+03  0.44496582494E+03  0.12500000000E+03 0.  0.
         25    1    1    2    0    0 -0.86726412611E+02  0.10479519968E+03  0.18634961806E+03  0.26240176194E+03  0.12500000000E+03 0.  0.
</event>
<event>
 5    0  0.5550393E-005  0.2676705E+03  0.7546771E-02  0.1102620E+00
         21   -1    0    0  502  501  0.00000000000E+00  0.00000000000E+00  0.11497874990E+03  0.11497874990E+03  0.00000000000E+00 0. -1.
         21   -1    0    0  501  502 -0.00000000000E+00 -0.00000000000E+00 -0.62313699674E+03  0.62313699674E+03  0.00000000000E+00 0. -1.
         25    1    1    2    0    0 -0.87732459010E+01  0.34133939648E+02 -0.36029821549E+03  0.38299073066E+03  0.12500000000E+03 0.  0.
         25    1    1    2    0    0  0.58335163402E+01 -0.43591546835E+02  0.31572464178E+02  0.13622067891E+03  0.12500000000E+03 0.  0.
         25    1    1    2    0    0  0.29397295608E+01  0.94576071864E+01 -0.17943249552E+03  0.21890433708E+03  0.12500000000E+03 0.  0.
</event>
<event>
 5    0  0.5732352E-005  0.3690480E+03  0.7546771E-02  0.1055058E+00
         21   -1    0    0  502  501  0.00000000000E+00  0.00000000000E+00  0.48851390460E+03  0.48851390460E+03  0.00000000000E+00 0. -1.
         21   -1    0    0  501  502 -0.00000000000E+00 -0.00000000000E+00 -0.27879737031E+03  0.27879737031E+03  0.00000000000E+00 0. -1.
         25    1    1    2    0    0  0.11628315363E+03  0.81263330182E+02  0.11210232721E+03  0.21981226630E+03  0.12500000000E+03 0.  0.
         25    1    1    2    0    0 -0.13084504281E+03  0.33933877166E+02 -0.15635529260E+03  0.24154484216E+03  0.12500000000E+03 0.  0.
         25    1    1    2    0    0  0.14561889180E+02 -0.11519720735E+03  0.25396949968E+03  0.30595416645E+03  0.12500000000E+03 0.  0.
</event>
<event>
 5    0  0.5550393E-005  0.2419969E+03  0.7546771E-02  0.1118470E+00
         21   -1    0    0  502  501  0.00000000000E+00  0.00000000000E+00  0.33546275254E+03  0.33546275254E+03  0.00000000000E+00 0.  1.
         21   -1    0    0  501  502 -0.00000000000E+00 -0.00000000000E+00 -0.17457235742E+03  0.17457235742E+03  0.00000000000E+00 0.  1.
         25    1    1    2    0    0  0.85372512573E+02  0.15455916483E+02  0.60188087953E+02  0.16363055090E+03  0.12500000000E+03 0.  0.
         25    1    1    2    0    0 -0.89475594791E+02 -0.97341507121E+02  0.56064485561E+02  0.19039295579E+03  0.12500000000E+03 0.  0.
         25    1    1    2    0    0  0.41030822179E+01  0.81885590638E+02  0.44637821610E+02  0.15601160327E+03  0.12500000000E+03 0.  0.
</event>
<event>
 5    0  0.5550393E-005  0.4249772E+03  0.7546771E-02  0.1035458E+00
         21   -1    0    0  502  501  0.00000000000E+00  0.00000000000E+00  0.10017177700E+03  0.10017177700E+03  0.00000000000E+00 0.  1.
         21   -1    0    0  501  502 -0.00000000000E+00 -0.00000000000E+00 -0.18029587751E+04  0.18029587751E+04  0.00000000000E+00 0.  1.
         25    1    1    2    0    0  0.10833249394E+03 -0.11173468903E+03 -0.70934667903E+03  0.73689774123E+03  0.12500000000E+03 0.  0.
         25    1    1    2    0    0 -0.27141930337E+03 -0.94211136669E+02 -0.60040822755E+03  0.67724383808E+03  0.12500000000E+03 0.  0.
         25    1    1    2    0    0  0.16308680943E+03  0.20594582570E+03 -0.39303209151E+03  0.48898897277E+03  0.12500000000E+03 0.  0.
</event>
<event>
 5    0  0.5550393E-005  0.2983295E+03  0.7546771E-02  0.1086079E+00
         21   -1    0    0  502  501  0.00000000000E+00  0.00000000000E+00  0.11410860224E+03  0.11410860224E+03  0.00000000000E+00 0. -1.
         21   -1    0    0  501  502 -0.00000000000E+00 -0.00000000000E+00 -0.77996279214E+03  0.77996279214E+03  0.00000000000E+00 0. -1.
         25    1    1    2    0    0  0.16934428959E+03  0.65570976331E+02 -0.23868749523E+03  0.32492116233E+03  0.12500000000E+03 0.  0.
         25    1    1    2    0    0 -0.64649940913E+02  0.62033668694E+02 -0.26402493762E+03  0.30555189183E+03  0.12500000000E+03 0.  0.
         25    1    1    2    0    0 -0.10469434868E+03 -0.12760464502E+03 -0.16314175705E+03  0.26359834022E+03  0.12500000000E+03 0.  0.
</event>
<event>
 5    0  0.5550393E-005  0.2307170E+03  0.7546771E-02  0.1126136E+00
         21   -1    0    0  502  501  0.00000000000E+00  0.00000000000E+00  0.68726636568E+03  0.68726636568E+03  0.00000000000E+00 0. -1.
         21   -1    0    0  501  502 -0.00000000000E+00 -0.00000000000E+00 -0.77452257840E+02  0.77452257840E+02  0.00000000000E+00 0. -1.
         25    1    1    2    0    0  0.41805130678E+02  0.83005177635E+00  0.33833892394E+03  0.36310685120E+03  0.12500000000E+03 0.  0.
         25    1    1    2    0    0 -0.25198397384E+02  0.74437999470E+02  0.15599636270E+03  0.21479255148E+03  0.12500000000E+03 0.  0.
         25    1    1    2    0    0 -0.16606733294E+02 -0.75268051246E+02  0.11547882120E+03  0.18681922084E+03  0.12500000000E+03 0.  0.
</event>
<event>
 5    0  0.5550393E-005  0.3868236E+03  0.7546771E-02  0.1048440E+00
         21   -1    0    0  502  501  0.00000000000E+00  0.00000000000E+00  0.17340491181E+04  0.17340491181E+04  0.00000000000E+00 0.  1.
         21   -1    0    0  501  502 -0.00000000000E+00 -0.00000000000E+00 -0.86290787658E+02  0.86290787658E+02  0.00000000000E+00 0.  1.
         25    1    1    2    0    0 -0.61838684022E+02  0.29944130232E+02  0.14169877646E+03  0.20105774551E+03  0.12500000000E+03 0.  0.
         25    1    1    2    0    0 -0.14578520080E+03  0.12446623416E+03  0.28834396665E+03  0.36812010448E+03  0.12500000000E+03 0.  0.
         25    1    1    2    0    0  0.20762388482E+03 -0.15441036439E+03  0.12177155874E+04  0.12511620558E+04  0.12500000000E+03 0.  0.
</event>
<event>
 5    0  0.5550393E-005  0.2148693E+03  0.7546771E-02  0.1137767E+00
         21   -1    0    0  502  501  0.00000000000E+00  0.00000000000E+00  0.12324806165E+04  0.12324806165E+04  0.00000000000E+00 0.  1.
         21   -1    0    0  501  502 -0.00000000000E+00 -0.00000000000E+00 -0.37460073509E+02  0.37460073509E+02  0.00000000000E+00 0.  1.
         25    1    1    2    0    0  0.41195114735E+02  0.45214899617E+02  0.43004797183E+03  0.45200407376E+03  0.12500000000E+03 0.  0.
         25    1    1    2    0    0 -0.11101370853E+02  0.16135329501E+02  0.51407254122E+03  0.52941398445E+03  0.12500000000E+03 0.  0.
         25    1    1    2    0    0 -0.30093743882E+02 -0.61350229118E+02  0.25090002995E+03  0.28852263180E+03  0.12500000000E+03 0.  0.
</event>
<event>
 5    0  0.5550393E-005  0.3002270E+03  0.7546771E-02  0.1085127E+00
         21   -1    0    0  502  501  0.00000000000E+00  0.00000000000E+00  0.29606347129E+02  0.29606347129E+02  0.00000000000E+00 0.  1.
         21   -1    0    0  501  502 -0.00000000000E+00 -0.00000000000E+00 -0.30444910583E+04  0.30444910583E+04  0.00000000000E+00 0.  1.
         25    1    1    2    0    0  0.55441354077E+02 -0.12105998708E+03 -0.49782069718E+03  0.53026381241E+03  0.12500000000E+03 0.  0.
         25    1    1    2    0    0  0.59844463202E+02  0.13954931701E+03 -0.14015018569E+04  0.14152341950E+04  0.12500000000E+03 0.  0.
         25    1    1    2    0    0 -0.11528581728E+03 -0.18489329925E+02 -0.11155621571E+04  0.11285993980E+04  0.12500000000E+03 0.  0.
</event>
<event>
 5    0  0.5550393E-005  0.2690399E+03  0.7546771E-02  0.1101830E+00
         21   -1    0    0  502  501  0.00000000000E+00  0.00000000000E+00  0.14116340856E+04  0.14116340856E+04  0.00000000000E+00 0. -1.
         21   -1    0    0  501  502 -0.00000000000E+00 -0.00000000000E+00 -0.51275667856E+02  0.51275667856E+02  0.00000000000E+00 0. -1.
         25    1    1    2    0    0 -0.10928464624E+03  0.11115143813E+03  0.81122569655E+03  0.83546987189E+03  0.12500000000E+03 0.  0.
         25    1    1    2    0    0  0.60351058162E+02 -0.94607610942E+02  0.29023557929E+03  0.33534242463E+03  0.12500000000E+03 0.  0.
         25    1    1    2    0    0  0.48933588076E+02 -0.16543827184E+02  0.25889714189E+03  0.29209745692E+03  0.12500000000E+03 0.  0.
</event>
<event>
 5    0  0.5550393E-005  0.3683037E+03  0.7546771E-02  0.1055343E+00
         21   -1    0    0  502  501  0.00000000000E+00  0.00000000000E+00  0.44533639193E+03  0.44533639193E+03  0.00000000000E+00 0.  1.
         21   -1    0    0  501  502 -0.00000000000E+00 -0.00000000000E+00 -0.30459585184E+03  0.30459585184E+03  0.00000000000E+00 0.  1.
         25    1    1    2    0    0 -0.80847660801E+02 -0.22468368489E+03 -0.63558264038E+02  0.27691831908E+03  0.12500000000E+03 0.  0.
         25    1    1    2    0    0 -0.69795732808E+02  0.80764241174E+02  0.15327644743E+03  0.22475092060E+03  0.12500000000E+03 0.  0.
         25    1    1    2    0    0  0.15064339361E+03  0.14391944372E+03  0.51022356694E+02  0.24826300409E+03  0.12500000000E+03 0.  0.
</event>
<event>
 5    0  0.5550393E-005  0.3768079E+03  0.7546771E-02  0.1052120E+00
         21   -1    0    0  502  501  0.00000000000E+00  0.00000000000E+00  0.12154677051E+04  0.12154677051E+04  0.00000000000E+00 0.  1.
         21   -1    0    0  501  502 -0.00000000000E+00 -0.00000000000E+00 -0.11681442462E+03  0.11681442462E+03  0.00000000000E+00 0.  1.
         25    1    1    2    0    0  0.67856040950E+02 -0.32070273934E+02  0.42361511781E+03  0.44800414373E+03  0.12500000000E+03 0.  0.
         25    1    1    2    0    0 -0.21076527546E+03  0.98210604179E+02  0.62296126604E+03  0.67658928686E+03  0.12500000000E+03 0.  0.
         25    1    1    2    0    0  0.14290923451E+03 -0.66140330246E+02  0.52076896664E+02  0.20768869916E+03  0.12500000000E+03 0.  0.
</event>
<event>
 5    0  0.5550393E-005  0.2628834E+03  0.7546771E-02  0.1105423E+00
         21   -1    0    0  502  501  0.00000000000E+00  0.00000000000E+00  0.17228446399E+03  0.17228446399E+03  0.00000000000E+00 0. -1.
         21   -1    0    0  501  502 -0.00000000000E+00 -0.00000000000E+00 -0.40112542801E+03  0.40112542801E+03  0.00000000000E+00 0. -1.
         25    1    1    2    0    0  0.62522544696E+02  0.10185541335E+03  0.11290909948E+02  0.17330919904E+03  0.12500000000E+03 0.  0.
         25    1    1    2    0    0 -0.99997411679E+02 -0.35187579342E+02 -0.17491462544E+03  0.23970351327E+03  0.12500000000E+03 0.  0.
         25    1    1    2    0    0  0.37474866983E+02 -0.66667834005E+02 -0.65217248534E+02  0.16039717969E+03  0.12500000000E+03 0.  0.
</event>
<event>
 5    0  0.5550393E-005  0.2097721E+03  0.7546771E-02  0.1141747E+00
         21   -1    0    0  502  501  0.00000000000E+00  0.00000000000E+00  0.66970578495E+02  0.66970578495E+02  0.00000000000E+00 0.  1.
         21   -1    0    0  501  502 -0.00000000000E+00 -0.00000000000E+00 -0.65706974791E+03  0.65706974791E+03  0.00000000000E+00 0.  1.
         25    1    1    2    0    0 -0.14735547977E+02  0.20101280745E+02 -0.18694368026E+03  0.22626121508E+03  0.12500000000E+03 0.  0.
         25    1    1    2    0    0  0.58004786335E+02  0.38260858215E+02 -0.24346196569E+03  0.28236001354E+03  0.12500000000E+03 0.  0.
         25    1    1    2    0    0 -0.43269238358E+02 -0.58362138960E+02 -0.15969352347E+03  0.21541909779E+03  0.12500000000E+03 0.  0.
</event>
<event>
 5    0  0.5550393E-005  0.2338383E+03  0.7546771E-02  0.1123967E+00
         21   -1    0    0  502  501  0.00000000000E+00  0.00000000000E+00  0.67572190418E+02  0.67572190418E+02  0.00000000000E+00 0.  1.
         21   -1    0    0  501  502 -0.00000000000E+00 -0.00000000000E+00 -0.80921353359E+03  0.80921353359E+03  0.00000000000E+00 0.  1.
         25    1    1    2    0    0  0.40860142644E+02 -0.29464683349E+02 -0.20208069171E+03  0.24289776611E+03  0.12500000000E+03 0.  0.
         25    1    1    2    0    0  0.31629619247E+02  0.37472868178E+02 -0.90098794888E+02  0.16170170532E+03  0.12500000000E+03 0.  0.
         25    1    1    2    0    0 -0.72489761890E+02 -0.80081848296E+01 -0.44946185658E+03  0.47218625257E+03  0.12500000000E+03 0.  0.
</event>
<event>
 5    0  0.5550393E-005  0.3506225E+03  0.7546771E-02  0.1062360E+00
         21   -1    0    0  502  501  0.00000000000E+00  0.00000000000E+00  0.59973229773E+02  0.59973229773E+02  0.00000000000E+00 0.  1.
         21   -1    0    0  501  502 -0.00000000000E+00 -0.00000000000E+00 -0.20498497702E+04  0.20498497702E+04  0.00000000000E+00 0.  1.
         25    1    1    2    0    0 -0.13838246378E+03  0.87785700906E+02 -0.28116167288E+03  0.34861572234E+03  0.12500000000E+03 0.  0.
         25    1    1    2    0    0  0.66030108635E+02  0.62276091791E+01 -0.21376709298E+03  0.25635937354E+03  0.12500000000E+03 0.  0.
         25    1    1    2    0    0  0.72352355142E+02 -0.94013310085E+02 -0.14949477746E+04  0.15048479041E+04  0.12500000000E+03 0.  0.
</event>
<event>
 5    0  0.5550393E-005  0.4297516E+03  0.7546771E-02  0.1033938E+00
         21   -1    0    0  502  501  0.00000000000E+00  0.00000000000E+00  0.12039248959E+04  0.12039248959E+04  0.00000000000E+00 0.  1.
         21   -1    0    0  501  502 -0.00000000000E+00 -0.00000000000E+00 -0.15340358557E+03  0.15340358557E+03  0.00000000000E+00 0. -1.
         25    1    1    2    0    0 -0.12853512233E+03  0.24826762138E+03  0.10197710168E+03  0.32277301431E+03  0.12500000000E+03 0.  0.
         25    1    1    2    0    0 -0.59442064362E+01 -0.16545852696E+03  0.55413796295E+03  0.59169733793E+03  0.12500000000E+03 0.  0.
         25    1    1    2    0    0  0.13447932877E+03 -0.82809094415E+02  0.39440624569E+03  0.44285812923E+03  0.12500000000E+03 0.  0.
</event>
<event>
 5    0  0.5550393E-005  0.3067582E+03  0.7546771E-02  0.1081910E+00
         21   -1    0    0  502  501  0.00000000000E+00  0.00000000000E+00  0.53150110516E+03  0.53150110516E+03  0.00000000000E+00 0.  1.
         21   -1    0    0  501  502 -0.00000000000E+00 -0.00000000000E+00 -0.17704687728E+03  0.17704687728E+03  0.00000000000E+00 0.  1.
         25    1    1    2    0    0 -0.10726077052E+03  0.64141978126E+01  0.16033373493E+02  0.16561426235E+03  0.12500000000E+03 0.  0.
         25    1    1    2    0    0  0.17819652052E+03  0.95147582172E+02  0.13232646258E+03  0.27192343594E+03  0.12500000000E+03 0.  0.
         25    1    1    2    0    0 -0.70935749995E+02 -0.10156177998E+03  0.20609439181E+03  0.27101028415E+03  0.12500000000E+03 0.  0.
</event>
<event>
 5    0  0.5550393E-005  0.2871358E+03  0.7546771E-02  0.1091854E+00
         21   -1    0    0  502  501  0.00000000000E+00  0.00000000000E+00  0.63826007410E+02  0.63826007410E+02  0.00000000000E+00 0. -1.
         21   -1    0    0  501  502 -0.00000000000E+00 -0.00000000000E+00 -0.12917452664E+04  0.12917452664E+04  0.00000000000E+00 0. -1.
         25    1    1    2    0    0 -0.75469882071E+02  0.10882942717E+03 -0.37405363744E+03  0.41602965159E+03  0.12500000000E+03 0.  0.
         25    1    1    2    0    0  0.84926508597E+02 -0.25283245924E+02 -0.72585996389E+03  0.74185540476E+03  0.12500000000E+03 0.  0.
         25    1    1    2    0    0 -0.94566265258E+01 -0.83546181242E+02 -0.12800565767E+03  0.19768621748E+03  0.12500000000E+03 0.  0.
</event>
<event>
 5    0  0.5550393E-005  0.4205337E+03  0.7546771E-02  0.1036893E+00
         21   -1    0    0  502  501  0.00000000000E+00  0.00000000000E+00  0.23452173790E+04  0.23452173790E+04  0.00000000000E+00 0. -1.
         21   -1    0    0  501  502 -0.00000000000E+00 -0.00000000000E+00 -0.75408172855E+02  0.75408172855E+02  0.00000000000E+00 0. -1.
         25    1    1    2    0    0 -0.11076917606E+03  0.45778338354E+02  0.26043893396E+03  0.31276013965E+03  0.12500000000E+03 0.  0.
         25    1    1    2    0    0  0.25573818971E+03 -0.11350382334E+03  0.51133545612E+03  0.59613260964E+03  0.12500000000E+03 0.  0.
         25    1    1    2    0    0 -0.14496901365E+03  0.67725484988E+02  0.14980348161E+04  0.15117328026E+04  0.12500000000E+03 0.  0.
</event>
<event>
 5    0  0.5550393E-005  0.3278150E+03  0.7546771E-02  0.1072108E+00
         21   -1    0    0  502  501  0.00000000000E+00  0.00000000000E+00  0.20147737833E+03  0.20147737833E+03  0.00000000000E+00 0.  1.
         21   -1    0    0  501  502 -0.00000000000E+00 -0.00000000000E+00 -0.53337348376E+03  0.53337348376E+03  0.00000000000E+00 0.  1.
         25    1    1    2    0    0 -0.12138677315E+03  0.16770431556E+03 -0.13486487053E+03  0.27689893365E+03  0.12500000000E+03 0.  0.
         25    1    1    2    0    0 -0.38871456885E+01  0.38126486572E+02 -0.11568438093E+03  0.17457552770E+03  0.12500000000E+03 0.  0.
         25    1    1    2    0    0  0.12527391883E+03 -0.20583080213E+03 -0.81346853971E+02  0.28337640074E+03  0.12500000000E+03 0.  0.
</event>
<event>
 5    0  0.6603841E-005  0.4490711E+03  0.7546771E-02  0.1027999E+00
         21   -1    0    0  502  501  0.00000000000E+00  0.00000000000E+00  0.37573274010E+03  0.37573274010E+03  0.00000000000E+00 0.  1.
         21   -1    0    0  501  502 -0.00000000000E+00 -0.00000000000E+00 -0.53672423130E+03  0.53672423130E+03  0.00000000000E+00 0.  1.
         25    1    1    2    0    0 -0.18277365214E+03 -0.16085026741E+03 -0.70972250807E+02  0.28273853085E+03  0.12500000000E+03 0.  0.
         25    1    1    2    0    0  0.37798069546E+02  0.26463930705E+02  0.21036768859E+03  0.24901525675E+03  0.12500000000E+03 0.  0.
         25    1    1    2    0    0  0.14497558260E+03  0.13438633670E+03 -0.30038692899E+03  0.38070318379E+03  0.12500000000E+03 0.  0.
</event>
<event>
 5    0  0.5550393E-005  0.3346689E+03  0.7546771E-02  0.1069090E+00
         21   -1    0    0  502  501  0.00000000000E+00  0.00000000000E+00  0.11356501358E+03  0.11356501358E+03  0.00000000000E+00 0.  1.
         21   -1    0    0  501  502 -0.00000000000E+00 -0.00000000000E+00 -0.98624797091E+03  0.98624797091E+03  0.00000000000E+00 0.  1.
         25    1    1    2    0    0  0.18907844335E+03 -0.78310552750E+02 -0.16252575132E+03  0.28969435661E+03  0.12500000000E+03 0.  0.
         25    1    1    2    0    0  0.67180386043E+01  0.91250139896E+02 -0.24192651961E+03  0.28727192860E+03  0.12500000000E+03 0.  0.
         25    1    1    2    0    0 -0.19579648195E+03 -0.12939587146E+02 -0.46823068639E+03  0.52284669927E+03  0.12500000000E+03 0.  0.
</event>
<event>
 5    0  0.5550393E-005  0.5198751E+03  0.7546771E-02  0.1008718E+00
         21   -1    0    0  502  501  0.00000000000E+00  0.00000000000E+00  0.40537050561E+03  0.40537050561E+03  0.00000000000E+00 0. -1.
         21   -1    0    0  501  502 -0.00000000000E+00 -0.00000000000E+00 -0.66672362908E+03  0.66672362908E+03  0.00000000000E+00 0. -1.
         25    1    1    2    0    0 -0.89195967609E+02  0.17284742229E+03  0.97940048065E+02  0.25109640588E+03  0.12500000000E+03 0.  0.
         25    1    1    2    0    0  0.94174481885E+02 -0.33797648352E+03 -0.45898683104E+03  0.59109292630E+03  0.12500000000E+03 0.  0.
         25    1    1    2    0    0 -0.49785142762E+01  0.16512906123E+03  0.99693659505E+02  0.22990480250E+03  0.12500000000E+03 0.  0.
</event>
<event>
 5    0  0.5550393E-005  0.2718662E+03  0.7546771E-02  0.1100216E+00
         21   -1    0    0  502  501  0.00000000000E+00  0.00000000000E+00  0.31941561734E+03  0.31941561734E+03  0.00000000000E+00 0.  1.
         21   -1    0    0  501  502 -0.00000000000E+00 -0.00000000000E+00 -0.23139509541E+03  0.23139509541E+03  0.00000000000E+00 0.  1.
         25    1    1    2    0    0 -0.62477584705E+02  0.69173911895E+02  0.13363595576E+03  0.20535833889E+03  0.12500000000E+03 0.  0.
         25    1    1    2    0    0 -0.35813739678E+02 -0.18393740967E+01 -0.10039508504E+03  0.16428688428E+03  0.12500000000E+03 0.  0.
         25    1    1    2    0    0  0.98291324383E+02 -0.67334537798E+02  0.54779651211E+02  0.18116548958E+03  0.12500000000E+03 0.  0.
</event>
<event>
 5    0  0.5550393E-005  0.2308313E+03  0.7546771E-02  0.1126056E+00
         21   -1    0    0  502  501  0.00000000000E+00  0.00000000000E+00  0.88544249052E+02  0.88544249052E+02  0.00000000000E+00 0.  1.
         21   -1    0    0  501  502 -0.00000000000E+00 -0.00000000000E+00 -0.60176807297E+03  0.60176807297E+03  0.00000000000E+00 0.  1.
         25    1    1    2    0    0  0.24880833983E+02 -0.41926304349E+02 -0.97580244945E+02  0.16590290865E+03  0.12500000000E+03 0.  0.
         25    1    1    2    0    0  0.19765298840E+01 -0.67981655397E+02 -0.13013473095E+03  0.19283531923E+03  0.12500000000E+03 0.  0.
         25    1    1    2    0    0 -0.26857363867E+02  0.10990795975E+03 -0.28550884802E+03  0.33157409415E+03  0.12500000000E+03 0.  0.
</event>
<event>
 5    0  0.5550393E-005  0.3873278E+03  0.7546771E-02  0.1048258E+00
         21   -1    0    0  502  501  0.00000000000E+00  0.00000000000E+00  0.78233369561E+02  0.78233369561E+02  0.00000000000E+00 0. -1.
         21   -1    0    0  501  502 -0.00000000000E+00 -0.00000000000E+00 -0.19176320284E+04  0.19176320284E+04  0.00000000000E+00 0. -1.
         25    1    1    2    0    0 -0.58978667590E+02  0.17780686343E+02 -0.73640239616E+03  0.74947189748E+03  0.12500000000E+03 0.  0.
         25    1    1    2    0    0  0.18744959239E+03 -0.48479155824E+02 -0.14722226616E+03  0.27347207150E+03  0.12500000000E+03 0.  0.
         25    1    1    2    0    0 -0.12847092480E+03  0.30698469480E+02 -0.95577399650E+03  0.97292142896E+03  0.12500000000E+03 0.  0.
</event>
<event>
 5    0  0.5550393E-005  0.2394282E+03  0.7546771E-02  0.1120174E+00
         21   -1    0    0  502  501  0.00000000000E+00  0.00000000000E+00  0.27028854674E+04  0.27028854674E+04  0.00000000000E+00 0. -1.
         21   -1    0    0  501  502 -0.00000000000E+00 -0.00000000000E+00 -0.21209134821E+02  0.21209134821E+02  0.00000000000E+00 0. -1.
         25    1    1    2    0    0 -0.47986899854E+02 -0.38042322361E+02  0.60280979270E+03  0.61867164718E+03  0.12500000000E+03 0.  0.
         25    1    1    2    0    0  0.13436075042E+02  0.16320814940E+02  0.16935288274E+04  0.16982672894E+04  0.12500000000E+03 0.  0.
         25    1    1    2    0    0  0.34550824812E+02  0.21721507421E+02  0.38533771243E+03  0.40715566556E+03  0.12500000000E+03 0.  0.
</event>
<event>
 5    0  0.5550393E-005  0.2608370E+03  0.7546771E-02  0.1106641E+00
         21   -1    0    0  502  501  0.00000000000E+00  0.00000000000E+00  0.30581214161E+04  0.30581214161E+04  0.00000000000E+00 0. -1.
         21   -1    0    0  501  502 -0.00000000000E+00 -0.00000000000E+00 -0.22247629264E+02  0.22247629264E+02  0.00000000000E+00 0. -1.
         25    1    1    2    0    0 -0.13722065357E+03 -0.32802106500E+02  0.12111144990E+04  0.12256952377E+04  0.12500000000E+03 0.  0.
         25    1    1    2    0    0  0.64299323491E+02  0.40589778589E+01  0.13552830178E+04  0.13625593333E+04  0.12500000000E+03 0.  0.
         25    1    1    2    0    0  0.72921330079E+02  0.28743128641E+02  0.46947627000E+03  0.49211447440E+03  0.12500000000E+03 0.  0.
</event>
<event>
 5    0  0.5550393E-005  0.2904615E+03  0.7546771E-02  0.1090108E+00
         21   -1    0    0  502  501  0.00000000000E+00  0.00000000000E+00  0.24045699699E+04  0.24045699699E+04  0.00000000000E+00 0. -1.
         21   -1    0    0  501  502 -0.00000000000E+00 -0.00000000000E+00 -0.35086477320E+02  0.35086477320E+02  0.00000000000E+00 0. -1.
         25    1    1    2    0    0  0.60074079478E+02  0.13617234253E+03  0.14279751437E+04  0.14411418434E+04  0.12500000000E+03 0.  0.
         25    1    1    2    0    0 -0.71224665834E+02 -0.56645185596E+02  0.27346396394E+03  0.31414832428E+03  0.12500000000E+03 0.  0.
         25    1    1    2    0    0  0.11150586356E+02 -0.79527156931E+02  0.66804438501E+03  0.68436627956E+03  0.12500000000E+03 0.  0.
</event>
<event>
 5    0  0.5550393E-005  0.2499796E+03  0.7546771E-02  0.1113318E+00
         21   -1    0    0  502  501  0.00000000000E+00  0.00000000000E+00  0.25254704578E+03  0.25254704578E+03  0.00000000000E+00 0.  1.
         21   -1    0    0  501  502 -0.00000000000E+00 -0.00000000000E+00 -0.24743824849E+03  0.24743824849E+03  0.00000000000E+00 0.  1.
         25    1    1    2    0    0  0.71603154847E+02 -0.20345163632E+02 -0.34856861301E+02  0.14960260107E+03  0.12500000000E+03 0.  0.
         25    1    1    2    0    0  0.29602929018E+02  0.69412241761E+02 -0.56456751284E+02  0.15654634291E+03  0.12500000000E+03 0.  0.
         25    1    1    2    0    0 -0.10120608386E+03 -0.49067078129E+02  0.96422409873E+02  0.19383635029E+03  0.12500000000E+03 0.  0.
</event>
<event>
 5    0  0.7425089E-005  0.4103006E+03  0.7546771E-02  0.1040270E+00
         21   -1    0    0  502  501  0.00000000000E+00  0.00000000000E+00  0.32556639694E+03  0.32556639694E+03  0.00000000000E+00 0.  1.
         21   -1    0    0  501  502 -0.00000000000E+00 -0.00000000000E+00 -0.51708840309E+03  0.51708840309E+03  0.00000000000E+00 0.  1.
         25    1    1    2    0    0  0.14360544098E+03 -0.13359565558E+03 -0.89087652364E+02  0.24906210405E+03  0.12500000000E+03 0.  0.
         25    1    1    2    0    0 -0.34554005712E+02 -0.20804677236E+02  0.18542559222E+03  0.22723218116E+03  0.12500000000E+03 0.  0.
         25    1    1    2    0    0 -0.10905143527E+03  0.15440033281E+03 -0.28785994600E+03  0.36636051482E+03  0.12500000000E+03 0.  0.
</event>
<event>
 5    0  0.5550393E-005  0.2094173E+03  0.7546771E-02  0.1142028E+00
         21   -1    0    0  502  501  0.00000000000E+00  0.00000000000E+00  0.43490287624E+03  0.43490287624E+03  0.00000000000E+00 0. -1.
         21   -1    0    0  501  502 -0.00000000000E+00 -0.00000000000E+00 -0.10083998296E+03  0.10083998296E+03  0.00000000000E+00 0. -1.
         25    1    1    2    0    0  0.89736751212E+01 -0.49716571677E+02  0.18455090074E+03  0.22855261825E+03  0.12500000000E+03 0.  0.
         25    1    1    2    0    0  0.18536873690E+02  0.16729236129E+02  0.34685927834E+02  0.13210449128E+03  0.12500000000E+03 0.  0.
         25    1    1    2    0    0 -0.27510548811E+02  0.32987335548E+02  0.11482606470E+03  0.17508574967E+03  0.12500000000E+03 0.  0.
</event>
<event>
 5    0  0.5550393E-005  0.2049916E+03  0.7546771E-02  0.1145595E+00
         21   -1    0    0  502  501  0.00000000000E+00  0.00000000000E+00  0.18973897555E+04  0.18973897555E+04  0.00000000000E+00 0. -1.
         21   -1    0    0  501  502 -0.00000000000E+00 -0.00000000000E+00 -0.22147041500E+02  0.22147041500E+02  0.00000000000E+00 0. -1.
         25    1    1    2    0    0 -0.35858004583E+02 -0.54696735457E+02  0.51252389871E+03  0.53158562444E+03  0.12500000000E+03 0.  0.
         25    1    1    2    0    0  0.21161304933E+02  0.33281573265E+02  0.55943700934E+03  0.57458700940E+03  0.12500000000E+03 0.  0.
         25    1    1    2    0    0  0.14696699650E+02  0.21415162192E+02  0.80328180592E+03  0.81336416314E+03  0.12500000000E+03 0.  0.
</event>
<event>
 5    0  0.5550393E-005  0.2369771E+03  0.7546771E-02  0.1121823E+00
         21   -1    0    0  502  501  0.00000000000E+00  0.00000000000E+00  0.12080720167E+03  0.12080720167E+03  0.00000000000E+00 0. -1.
         21   -1    0    0  501  502 -0.00000000000E+00 -0.00000000000E+00 -0.46485778467E+03  0.46485778467E+03  0.00000000000E+00 0. -1.
         25    1    1    2    0    0 -0.48419838803E+00  0.86789957425E+02 -0.39438948583E+02  0.15720420422E+03  0.12500000000E+03 0.  0.
         25    1    1    2    0    0  0.30127073240E+02 -0.92820420712E+02 -0.10224675124E+03  0.18868669583E+03  0.12500000000E+03 0.  0.
         25    1    1    2    0    0 -0.29642874852E+02  0.60304632874E+01 -0.20236488317E+03  0.23977408630E+03  0.12500000000E+03 0.  0.
</event>
<event>
 5    0  0.5550393E-005  0.2159818E+03  0.7546771E-02  0.1136915E+00
         21   -1    0    0  502  501  0.00000000000E+00  0.00000000000E+00  0.38673796653E+03  0.38673796653E+03  0.00000000000E+00 0.  1.
         21   -1    0    0  501  502 -0.00000000000E+00 -0.00000000000E+00 -0.12061953365E+03  0.12061953365E+03  0.00000000000E+00 0.  1.
         25    1    1    2    0    0 -0.31578594585E+02  0.50344572718E+02  0.89029587509E+02  0.16456928963E+03  0.12500000000E+03 0.  0.
         25    1    1    2    0    0  0.21694709301E+01 -0.51056173442E+02  0.14818038260E+02  0.13585291204E+03  0.12500000000E+03 0.  0.
         25    1    1    2    0    0  0.29409123655E+02  0.71160072312E+00  0.16227080711E+03  0.20693529851E+03  0.12500000000E+03 0.  0.
</event>
<event>
 5    0  0.5550393E-005  0.2686842E+03  0.7546771E-02  0.1102035E+00
         21   -1    0    0  502  501  0.00000000000E+00  0.00000000000E+00  0.16268423541E+04  0.16268423541E+04  0.00000000000E+00 0.  1.
         21   -1    0    0  501  502 -0.00000000000E+00 -0.00000000000E+00 -0.44375036327E+02  0.44375036327E+02  0.00000000000E+00 0.  1.
         25    1    1    2    0    0 -0.97160734820E+01 -0.67530398484E+02  0.23359665919E+03  0.27358208273E+03  0.12500000000E+03 0.  0.
         25    1    1    2    0    0  0.16001040799E+02 -0.96130477354E+02  0.64849757302E+03  0.66758610246E+03  0.12500000000E+03 0.  0.
         25    1    1    2    0    0 -0.62849673168E+01  0.16366087584E+03  0.70037308552E+03  0.73004920520E+03  0.12500000000E+03 0.  0.
</event>
<event>
 5    0  0.5550393E-005  0.6031566E+03  0.7546771E-02  0.9898879E-01
         21   -1    0    0  502  501  0.00000000000E+00  0.00000000000E+00  0.25574691457E+03  0.25574691457E+03  0.00000000000E+00 0. -1.
         21   -1    0    0  501  502 -0.00000000000E+00 -0.00000000000E+00 -0.14224917323E+04  0.14224917323E+04  0.00000000000E+00 0. -1.
         25    1    1    2    0    0  0.17207000771E+03  0.21907261242E+02 -0.62846849402E+02  0.22285139023E+03  0.12500000000E+03 0.  0.
         25    1    1    2    0    0 -0.61652964410E+02 -0.44119245189E+03 -0.75291304017E+03  0.88371653469E+03  0.12500000000E+03 0.  0.
         25    1    1    2    0    0 -0.11041704330E+03  0.41928519065E+03 -0.35098492816E+03  0.57167072196E+03  0.12500000000E+03 0.  0.
</event>
<event>
 5    0  0.5550393E-005  0.5000369E+03  0.7546771E-02  0.1013769E+00
         21   -1    0    0  502  501  0.00000000000E+00  0.00000000000E+00  0.96510527485E+03  0.96510527485E+03  0.00000000000E+00 0. -1.
         21   -1    0    0  501  502 -0.00000000000E+00 -0.00000000000E+00 -0.25907734932E+03  0.25907734932E+03  0.00000000000E+00 0. -1.
         25    1    1    2    0    0 -0.95883373998E+02 -0.40116972278E+03  0.51132469236E+03  0.66873665138E+03  0.12500000000E+03 0.  0.
         25    1    1    2    0    0  0.46460893251E+02  0.56899812141E+02  0.19001800313E+02  0.14622678154E+03  0.12500000000E+03 0.  0.
         25    1    1    2    0    0  0.49422480747E+02  0.34426991064E+03  0.17570143286E+03  0.40921919125E+03  0.12500000000E+03 0.  0.
</event>
<event>
 5    0  0.5638894E-005  0.3127574E+03  0.7546771E-02  0.1079032E+00
         21   -1    0    0  502  501  0.00000000000E+00  0.00000000000E+00  0.18669987231E+03  0.18669987231E+03  0.00000000000E+00 0. -1.
         21   -1    0    0  501  502 -0.00000000000E+00 -0.00000000000E+00 -0.52392733610E+03  0.52392733610E+03  0.00000000000E+00 0. -1.
         25    1    1    2    0    0 -0.99591827714E+02 -0.18845011459E+02 -0.23280849326E+03  0.28301671530E+03  0.12500000000E+03 0.  0.
         25    1    1    2    0    0 -0.37991757546E+00  0.15729174762E+03 -0.29262476081E+02  0.20303233908E+03  0.12500000000E+03 0.  0.
         25    1    1    2    0    0  0.99971745290E+02 -0.13844673616E+03 -0.75156494451E+02  0.22457815403E+03  0.12500000000E+03 0.  0.
</event>
<event>
 5    0  0.5550393E-005  0.2522130E+03  0.7546771E-02  0.1111914E+00
         21   -1    0    0  502  501  0.00000000000E+00  0.00000000000E+00  0.15093802173E+03  0.15093802173E+03  0.00000000000E+00 0.  1.
         21   -1    0    0  501  502 -0.00000000000E+00 -0.00000000000E+00 -0.42144042538E+03  0.42144042538E+03  0.00000000000E+00 0.  1.
         25    1    1    2    0    0  0.14970596673E+02 -0.20914684236E+02 -0.15367294150E+03  0.19975463882E+03  0.12500000000E+03 0.  0.
         25    1    1    2    0    0  0.46848509702E+02  0.46448406976E+02  0.53399380734E+02  0.15109179738E+03  0.12500000000E+03 0.  0.
         25    1    1    2    0    0 -0.61819106375E+02 -0.25533722740E+02 -0.17022884287E+03  0.22153201091E+03  0.12500000000E+03 0.  0.
</event>
<event>
 5    0  0.5550393E-005  0.4338788E+03  0.7546771E-02  0.1032642E+00
         21   -1    0    0  502  501  0.00000000000E+00  0.00000000000E+00  0.51815535589E+03  0.51815535589E+03  0.00000000000E+00 0. -1.
         21   -1    0    0  501  502 -0.00000000000E+00 -0.00000000000E+00 -0.36330960121E+03  0.36330960121E+03  0.00000000000E+00 0. -1.
         25    1    1    2    0    0  0.10713490670E+03 -0.98533054805E+02 -0.43015294039E+02  0.19662646476E+03  0.12500000000E+03 0.  0.
         25    1    1    2    0    0  0.69053974260E+01 -0.20597953927E+03  0.23232080819E+03  0.33477337562E+03  0.12500000000E+03 0.  0.
         25    1    1    2    0    0 -0.11404030413E+03  0.30451259407E+03 -0.34459759468E+02  0.35006511671E+03  0.12500000000E+03 0.  0.
</event>
<event>
 5    0  0.5831204E-005  0.4198681E+03  0.7546771E-02  0.1037109E+00
         21   -1    0    0  502  501  0.00000000000E+00  0.00000000000E+00  0.85919417479E+03  0.85919417479E+03  0.00000000000E+00 0. -1.
         21   -1    0    0  501  502 -0.00000000000E+00 -0.00000000000E+00 -0.20517972524E+03  0.20517972524E+03  0.00000000000E+00 0.  1.
         25    1    1    2    0    0 -0.60607945298E+02 -0.13231803001E+03  0.10540058136E+03  0.21889647474E+03  0.12500000000E+03 0.  0.
         25    1    1    2    0    0  0.15456004779E+03 -0.17907116570E+01 -0.56169470961E+02  0.20657208061E+03  0.12500000000E+03 0.  0.
         25    1    1    2    0    0 -0.93952102491E+02  0.13410874167E+03  0.60478333915E+03  0.63890534469E+03  0.12500000000E+03 0.  0.
</event>
<event>
 5    0  0.8969624E-005  0.3953576E+03  0.7546771E-02  0.1045399E+00
         21   -1    0    0  502  501  0.00000000000E+00  0.00000000000E+00  0.69536824429E+03  0.69536824429E+03  0.00000000000E+00 0. -1.
         21   -1    0    0  501  502 -0.00000000000E+00 -0.00000000000E+00 -0.22478400847E+03  0.22478400847E+03  0.00000000000E+00 0. -1.
         25    1    1    2    0    0 -0.90592587273E+02 -0.10983337124E+03  0.40694568334E+03  0.44888770922E+03  0.12500000000E+03 0.  0.
         25    1    1    2    0    0  0.21794771747E+03  0.48933093181E+02  0.10757734188E+03  0.27765723409E+03  0.12500000000E+03 0.  0.
         25    1    1    2    0    0 -0.12735513020E+03  0.60900278058E+02 -0.43938789390E+02  0.19360730944E+03  0.12500000000E+03 0.  0.
</event>
<event>
 5    0  0.5550393E-005  0.2692347E+03  0.7546771E-02  0.1101718E+00
         21   -1    0    0  502  501  0.00000000000E+00  0.00000000000E+00  0.12109435963E+03  0.12109435963E+03  0.00000000000E+00 0. -1.
         21   -1    0    0  501  502 -0.00000000000E+00 -0.00000000000E+00 -0.59860211719E+03  0.59860211719E+03  0.00000000000E+00 0. -1.
         25    1    1    2    0    0  0.91411014896E+02 -0.41650923234E+02 -0.17267209975E+03  0.23565107062E+03  0.12500000000E+03 0.  0.
         25    1    1    2    0    0 -0.12690324428E+03  0.23347806471E+02 -0.30365230505E+03  0.35281620689E+03  0.12500000000E+03 0.  0.
         25    1    1    2    0    0  0.35492229386E+02  0.18303116763E+02 -0.11833527601E+01  0.13122919932E+03  0.12500000000E+03 0.  0.
</event>
<event>
 5    0  0.5550393E-005  0.2748058E+03  0.7546771E-02  0.1098560E+00
         21   -1    0    0  502  501  0.00000000000E+00  0.00000000000E+00  0.20317555976E+04  0.20317555976E+04  0.00000000000E+00 0. -1.
         21   -1    0    0  501  502 -0.00000000000E+00 -0.00000000000E+00 -0.37168941912E+02  0.37168941912E+02  0.00000000000E+00 0. -1.
         25    1    1    2    0    0  0.42435904071E+01  0.14203425251E+02  0.19797880499E+03  0.23460680419E+03  0.12500000000E+03 0.  0.
         25    1    1    2    0    0  0.54406778404E+02 -0.13034987549E+03  0.85132516003E+03  0.87196944653E+03  0.12500000000E+03 0.  0.
         25    1    1    2    0    0 -0.58650368811E+02  0.11614645023E+03  0.94528269063E+03  0.96234828875E+03  0.12500000000E+03 0.  0.
</event>
<event>
 5    0  0.5550393E-005  0.3150939E+03  0.7546771E-02  0.1077930E+00
         21   -1    0    0  502  501  0.00000000000E+00  0.00000000000E+00  0.10020225699E+03  0.10020225699E+03  0.00000000000E+00 0. -1.
         21   -1    0    0  501  502 -0.00000000000E+00 -0.00000000000E+00 -0.99083732158E+03  0.99083732158E+03  0.00000000000E+00 0. -1.
         25    1    1    2    0    0 -0.14205301495E+03  0.78352342328E+02 -0.19010964039E+03  0.27943661888E+03  0.12500000000E+03 0.  0.
         25    1    1    2    0    0 -0.66284031860E+01  0.15017935358E+02 -0.67734287841E+02  0.14311676303E+03  0.12500000000E+03 0.  0.
         25    1    1    2    0    0  0.14868141814E+03 -0.93370277687E+02 -0.63279113637E+03  0.66848619665E+03  0.12500000000E+03 0.  0.
</event>
<event>
 5    0  0.8251409E-005  0.3796272E+03  0.7546771E-02  0.1051072E+00
         21   -1    0    0  502  501  0.00000000000E+00  0.00000000000E+00  0.30592967423E+03  0.30592967423E+03  0.00000000000E+00 0. -1.
         21   -1    0    0  501  502 -0.00000000000E+00 -0.00000000000E+00 -0.47107831999E+03  0.47107831999E+03  0.00000000000E+00 0. -1.
         25    1    1    2    0    0  0.12166551449E+03 -0.82163478576E+01 -0.22240061776E+03  0.28276676001E+03  0.12500000000E+03 0.  0.
         25    1    1    2    0    0  0.68284862487E+02  0.12820365610E+03  0.12445058819E+03  0.22849934088E+03  0.12500000000E+03 0.  0.
         25    1    1    2    0    0 -0.18995037698E+03 -0.11998730824E+03 -0.67198616184E+02  0.26574189333E+03  0.12500000000E+03 0.  0.
</event>
<event>
 5    0  0.5550393E-005  0.2716057E+03  0.7546771E-02  0.1100364E+00
         21   -1    0    0  502  501  0.00000000000E+00  0.00000000000E+00  0.11026448881E+03  0.11026448881E+03  0.00000000000E+00 0. -1.
         21   -1    0    0  501  502 -0.00000000000E+00 -0.00000000000E+00 -0.66902479927E+03  0.66902479927E+03  0.00000000000E+00 0. -1.
         25    1    1    2    0    0  0.59056445237E+02 -0.81232617212E+02 -0.47346964384E+02  0.16719191625E+03  0.12500000000E+03 0.  0.
         25    1    1    2    0    0 -0.10398489110E+03 -0.14184251986E+02 -0.32794771541E+03  0.36631783280E+03  0.12500000000E+03 0.  0.
         25    1    1    2    0    0  0.44928445865E+02  0.95416869198E+02 -0.18346563067E+03  0.24577953904E+03  0.12500000000E+03 0.  0.
</event>
<event>
 5    0  0.5550393E-005  0.2772016E+03  0.7546771E-02  0.1097227E+00
         21   -1    0    0  502  501  0.00000000000E+00  0.00000000000E+00  0.21719520167E+03  0.21719520167E+03  0.00000000000E+00 0.  1.
         21   -1    0    0  501  502 -0.00000000000E+00 -0.00000000000E+00 -0.35378654883E+03  0.35378654883E+03  0.00000000000E+00 0.  1.
         25    1    1    2    0    0 -0.35245159292E+02  0.12537966714E+03 -0.65713561435E+02  0.19210818395E+03  0.12500000000E+03 0.  0.
         25    1    1    2    0    0  0.17673512296E+02  0.64350288849E+02 -0.49045570955E+02  0.14994592606E+03  0.12500000000E+03 0.  0.
         25    1    1    2    0    0  0.17571646996E+02 -0.18972995599E+03 -0.21832214766E+02  0.22892764049E+03  0.12500000000E+03 0.  0.
</event>
<event>
 5    0  0.5550393E-005  0.2539924E+03  0.7546771E-02  0.1110807E+00
         21   -1    0    0  502  501  0.00000000000E+00  0.00000000000E+00  0.19279620635E+03  0.19279620635E+03  0.00000000000E+00 0.  1.
         21   -1    0    0  501  502 -0.00000000000E+00 -0.00000000000E+00 -0.33461306992E+03  0.33461306992E+03  0.00000000000E+00 0.  1.
         25    1    1    2    0    0 -0.77275574015E+02  0.28219132694E+02 -0.92760492157E+02  0.17606062221E+03  0.12500000000E+03 0.  0.
         25    1    1    2    0    0  0.50753363497E+01 -0.12243595681E+03 -0.15481807346E+02  0.17572993177E+03  0.12500000000E+03 0.  0.
         25    1    1    2    0    0  0.72200237666E+02  0.94216824117E+02 -0.33574564064E+02  0.17561872229E+03  0.12500000000E+03 0.  0.
</event>
<event>
 5    0  0.5550393E-005  0.3406750E+03  0.7546771E-02  0.1066509E+00
         21   -1    0    0  502  501  0.00000000000E+00  0.00000000000E+00  0.71001598399E+03  0.71001598399E+03  0.00000000000E+00 0. -1.
         21   -1    0    0  501  502 -0.00000000000E+00 -0.00000000000E+00 -0.16346035775E+03  0.16346035775E+03  0.00000000000E+00 0. -1.
         25    1    1    2    0    0 -0.89211112795E+02 -0.17829962030E+02  0.36153638983E+03  0.39320489743E+03  0.12500000000E+03 0.  0.
         25    1    1    2    0    0  0.20852894706E+03 -0.23211362108E+02  0.17855917959E+03  0.30254168260E+03  0.12500000000E+03 0.  0.
         25    1    1    2    0    0 -0.11931783427E+03  0.41041324138E+02  0.64600568197E+01  0.17772976170E+03  0.12500000000E+03 0.  0.
</event>
<event>
 5    0  0.5550393E-005  0.2712237E+03  0.7546771E-02  0.1100581E+00
         21   -1    0    0  502  501  0.00000000000E+00  0.00000000000E+00  0.75739111026E+02  0.75739111026E+02  0.00000000000E+00 0.  1.
         21   -1    0    0  501  502 -0.00000000000E+00 -0.00000000000E+00 -0.97125928413E+03  0.97125928413E+03  0.00000000000E+00 0.  1.
         25    1    1    2    0    0 -0.25977488714E+02  0.44716023364E+01 -0.17307945018E+03  0.21511931857E+03  0.12500000000E+03 0.  0.
         25    1    1    2    0    0  0.10572048092E+03  0.11850876873E+03 -0.24866140776E+03  0.32043508557E+03  0.12500000000E+03 0.  0.
         25    1    1    2    0    0 -0.79742992209E+02 -0.12298037107E+03 -0.47377931516E+03  0.51144399102E+03  0.12500000000E+03 0.  0.
</event>
<event>
 5    0  0.5550393E-005  0.4315648E+03  0.7546771E-02  0.1033367E+00
         21   -1    0    0  502  501  0.00000000000E+00  0.00000000000E+00  0.25700109177E+03  0.25700109177E+03  0.00000000000E+00 0.  1.
         21   -1    0    0  501  502 -0.00000000000E+00 -0.00000000000E+00 -0.72469788127E+03  0.72469788127E+03  0.00000000000E+00 0.  1.
         25    1    1    2    0    0 -0.24033255765E+03 -0.23487004466E+02  0.65755583255E+02  0.27975019995E+03  0.12500000000E+03 0.  0.
         25    1    1    2    0    0  0.12122368649E+03  0.14517441644E+03 -0.17704452176E+03  0.28764658183E+03  0.12500000000E+03 0.  0.
         25    1    1    2    0    0  0.11910887116E+03 -0.12168741197E+03 -0.35640785101E+03  0.41430219126E+03  0.12500000000E+03 0.  0.
</event>
<event>
 5    0  0.5550393E-005  0.3331783E+03  0.7546771E-02  0.1069739E+00
         21   -1    0    0  502  501  0.00000000000E+00  0.00000000000E+00  0.75983726556E+02  0.75983726556E+02  0.00000000000E+00 0. -1.
         21   -1    0    0  501  502 -0.00000000000E+00 -0.00000000000E+00 -0.14609411532E+04  0.14609411532E+04  0.00000000000E+00 0. -1.
         25    1    1    2    0    0  0.12024514400E+03  0.42068641677E+02 -0.32129375177E+03  0.36753685556E+03  0.12500000000E+03 0.  0.
         25    1    1    2    0    0  0.23508749607E+01 -0.78548784938E+02 -0.76760976876E+02  0.16641119493E+03  0.12500000000E+03 0.  0.
         25    1    1    2    0    0 -0.12259601897E+03  0.36480143262E+02 -0.98690269805E+03  0.10029768293E+04  0.12500000000E+03 0.  0.
</event>
<event>
 5    0  0.5550393E-005  0.5542176E+03  0.7546771E-02  0.1000522E+00
         21   -1    0    0  502  501  0.00000000000E+00  0.00000000000E+00  0.21127979829E+04  0.21127979829E+04  0.00000000000E+00 0.  1.
         21   -1    0    0  501  502 -0.00000000000E+00 -0.00000000000E+00 -0.14537931196E+03  0.14537931196E+03  0.00000000000E+00 0.  1.
         25    1    1    2    0    0  0.49192748952E+00  0.29946032422E+03  0.79727234552E+03  0.86078157549E+03  0.12500000000E+03 0.  0.
         25    1    1    2    0    0 -0.13267739703E+03 -0.47619580131E+03  0.76220445155E+03  0.91703127472E+03  0.12500000000E+03 0.  0.
         25    1    1    2    0    0  0.13218546954E+03  0.17673547708E+03  0.40794187391E+03  0.48036444467E+03  0.12500000000E+03 0.  0.
</event>
<event>
 5    0  0.5550393E-005  0.4405924E+03  0.7546771E-02  0.1030565E+00
         21   -1    0    0  502  501  0.00000000000E+00  0.00000000000E+00  0.68150602095E+03  0.68150602095E+03  0.00000000000E+00 0. -1.
         21   -1    0    0  501  502 -0.00000000000E+00 -0.00000000000E+00 -0.28484217285E+03  0.28484217285E+03  0.00000000000E+00 0. -1.
         25    1    1    2    0    0  0.94429895435E+01 -0.10935288689E+03  0.70277971506E+02  0.18058576135E+03  0.12500000000E+03 0.  0.
         25    1    1    2    0    0 -0.29909570834E+03 -0.94022086411E+02  0.18314604547E+03  0.38401285064E+03  0.12500000000E+03 0.  0.
         25    1    1    2    0    0  0.28965271880E+03  0.20337497330E+03  0.14323983112E+03  0.40174958182E+03  0.12500000000E+03 0.  0.
</event>
<event>
 5    0  0.5627611E-005  0.3871431E+03  0.7546771E-02  0.1048325E+00
         21   -1    0    0  502  501  0.00000000000E+00  0.00000000000E+00  0.69422005907E+03  0.69422005907E+03  0.00000000000E+00 0. -1.
         21   -1    0    0  501  502 -0.00000000000E+00 -0.00000000000E+00 -0.21589668720E+03  0.21589668720E+03  0.00000000000E+00 0. -1.
         25    1    1    2    0    0  0.12061379416E+03  0.21782282131E+03  0.34232213937E+03  0.44136596599E+03  0.12500000000E+03 0.  0.
         25    1    1    2    0    0  0.32589881577E+02 -0.21244901844E+03  0.52914232773E+02  0.25420779266E+03  0.12500000000E+03 0.  0.
         25    1    1    2    0    0 -0.15320367574E+03 -0.53738028704E+01  0.83086999715E+02  0.21454298763E+03  0.12500000000E+03 0.  0.
</event>
<event>
 5    0  0.5550393E-005  0.2554655E+03  0.7546771E-02  0.1109899E+00
         21   -1    0    0  502  501  0.00000000000E+00  0.00000000000E+00  0.43680165590E+03  0.43680165590E+03  0.00000000000E+00 0. -1.
         21   -1    0    0  501  502 -0.00000000000E+00 -0.00000000000E+00 -0.14941019125E+03  0.14941019125E+03  0.00000000000E+00 0. -1.
         25    1    1    2    0    0 -0.93456920341E+02 -0.69679244702E+02  0.11381700839E+02  0.17130071867E+03  0.12500000000E+03 0.  0.
         25    1    1    2    0    0  0.26089470118E+02  0.76628380882E+02  0.21180264761E+03  0.25891684136E+03  0.12500000000E+03 0.  0.
         25    1    1    2    0    0  0.67367450223E+02 -0.69491361798E+01  0.64207116207E+02  0.15599428712E+03  0.12500000000E+03 0.  0.
</event>
<event>
 5    0  0.5550393E-005  0.2298530E+03  0.7546771E-02  0.1126743E+00
         21   -1    0    0  502  501  0.00000000000E+00  0.00000000000E+00  0.48109685352E+03  0.48109685352E+03  0.00000000000E+00 0.  1.
         21   -1    0    0  501  502 -0.00000000000E+00 -0.00000000000E+00 -0.10981656888E+03  0.10981656888E+03  0.00000000000E+00 0.  1.
         25    1    1    2    0    0 -0.88450468804E+02  0.44795844447E+02  0.14370025683E+03  0.21472055543E+03  0.12500000000E+03 0.  0.
         25    1    1    2    0    0 -0.23970689526E+02 -0.12537679343E+02  0.86960532578E+02  0.15465743301E+03  0.12500000000E+03 0.  0.
         25    1    1    2    0    0  0.11242115833E+03 -0.32258165104E+02  0.14061949523E+03  0.22153543395E+03  0.12500000000E+03 0.  0.
</event>
<event>
 5    0  0.6157390E-005  0.3844643E+03  0.7546771E-02  0.1049296E+00
         21   -1    0    0  502  501  0.00000000000E+00  0.00000000000E+00  0.11201559300E+04  0.11201559300E+04  0.00000000000E+00 0. -1.
         21   -1    0    0  501  502 -0.00000000000E+00 -0.00000000000E+00 -0.13195736447E+03  0.13195736447E+03  0.00000000000E+00 0. -1.
         25    1    1    2    0    0 -0.94370002981E+02  0.53585798356E+02  0.23755227790E+02  0.16723171378E+03  0.12500000000E+03 0.  0.
         25    1    1    2    0    0  0.19907933820E+03  0.86870097371E+02  0.32634084210E+03  0.41146365810E+03  0.12500000000E+03 0.  0.
         25    1    1    2    0    0 -0.10470933522E+03 -0.14045589573E+03  0.63810249563E+03  0.67341792258E+03  0.12500000000E+03 0.  0.
</event>
<event>
 5    0  0.5550393E-005  0.4342218E+03  0.7546771E-02  0.1032535E+00
         21   -1    0    0  502  501  0.00000000000E+00  0.00000000000E+00  0.19622771058E+03  0.19622771058E+03  0.00000000000E+00 0.  1.
         21   -1    0    0  501  502 -0.00000000000E+00 -0.00000000000E+00 -0.96086624056E+03  0.96086624056E+03  0.00000000000E+00 0.  1.
         25    1    1    2    0    0  0.53660992014E+02 -0.19662211087E+03 -0.71417272684E+03  0.75313175495E+03  0.12500000000E+03 0.  0.
         25    1    1    2    0    0 -0.40097292553E+01  0.65034513176E+02 -0.13725522457E+03  0.19674745870E+03  0.12500000000E+03 0.  0.
         25    1    1    2    0    0 -0.49651262758E+02  0.13158759770E+03  0.86789421437E+02  0.20721473749E+03  0.12500000000E+03 0.  0.
</event>
<event>
 5    0  0.5898658E-005  0.3089758E+03  0.7546771E-02  0.1080838E+00
         21   -1    0    0  502  501  0.00000000000E+00  0.00000000000E+00  0.28798128405E+03  0.28798128405E+03  0.00000000000E+00 0. -1.
         21   -1    0    0  501  502 -0.00000000000E+00 -0.00000000000E+00 -0.33150078164E+03  0.33150078164E+03  0.00000000000E+00 0. -1.
         25    1    1    2    0    0  0.18573203492E+02  0.83550514877E+02  0.12327383492E+03  0.19531280245E+03  0.12500000000E+03 0.  0.
         25    1    1    2    0    0  0.58446999034E+02 -0.58761493088E+02  0.52670822117E+02  0.15895968127E+03  0.12500000000E+03 0.  0.
         25    1    1    2    0    0 -0.77020202526E+02 -0.24789021789E+02 -0.21946415464E+03  0.26520958197E+03  0.12500000000E+03 0.  0.
</event>
<event>
 5    0  0.6608487E-005  0.2644663E+03  0.7546771E-02  0.1104489E+00
         21   -1    0    0  502  501  0.00000000000E+00  0.00000000000E+00  0.15332522624E+03  0.15332522624E+03  0.00000000000E+00 0. -1.
         21   -1    0    0  501  502 -0.00000000000E+00 -0.00000000000E+00 -0.45617049325E+03  0.45617049325E+03  0.00000000000E+00 0. -1.
         25    1    1    2    0    0  0.88364437121E+02  0.13389978432E+03 -0.20679126791E+03  0.29004319415E+03  0.12500000000E+03 0.  0.
         25    1    1    2    0    0 -0.63378534881E+02 -0.97728012225E+02 -0.39392680265E+02  0.17534077197E+03  0.12500000000E+03 0.  0.
         25    1    1    2    0    0 -0.24985902240E+02 -0.36171772095E+02 -0.56661318825E+02  0.14411175337E+03  0.12500000000E+03 0.  0.
</event>
<event>
 5    0  0.5550393E-005  0.3375076E+03  0.7546771E-02  0.1067862E+00
         21   -1    0    0  502  501  0.00000000000E+00  0.00000000000E+00  0.12433527472E+03  0.12433527472E+03  0.00000000000E+00 0. -1.
         21   -1    0    0  501  502 -0.00000000000E+00 -0.00000000000E+00 -0.91616304669E+03  0.91616304669E+03  0.00000000000E+00 0. -1.
         25    1    1    2    0    0  0.29407627461E+02  0.14932656201E+03 -0.66963118769E+03  0.69799294997E+03  0.12500000000E+03 0.  0.
         25    1    1    2    0    0 -0.28607038929E+02 -0.30747495262E+02 -0.10339045646E+01  0.13187054296E+03  0.12500000000E+03 0.  0.
         25    1    1    2    0    0 -0.80058853134E+00 -0.11857906675E+03 -0.12116267972E+03  0.21063482848E+03  0.12500000000E+03 0.  0.
</event>
<event>
 5    0  0.5550393E-005  0.2953880E+03  0.7546771E-02  0.1087569E+00
         21   -1    0    0  502  501  0.00000000000E+00  0.00000000000E+00  0.30081606280E+03  0.30081606280E+03  0.00000000000E+00 0.  1.
         21   -1    0    0  501  502 -0.00000000000E+00 -0.00000000000E+00 -0.29005792100E+03  0.29005792100E+03  0.00000000000E+00 0.  1.
         25    1    1    2    0    0 -0.78670347568E+02 -0.73235442945E+02  0.10873309790E+03  0.19748503809E+03  0.12500000000E+03 0.  0.
         25    1    1    2    0    0  0.17392695254E+03  0.26769775069E+02 -0.39831312379E+02  0.21949655834E+03  0.12500000000E+03 0.  0.
         25    1    1    2    0    0 -0.95256604971E+02  0.46465667876E+02 -0.58143643721E+02  0.17389238737E+03  0.12500000000E+03 0.  0.
</event>
<event>
 5    0  0.5550393E-005  0.2668355E+03  0.7546771E-02  0.1103104E+00
         21   -1    0    0  502  501  0.00000000000E+00  0.00000000000E+00  0.10159580410E+04  0.10159580410E+04  0.00000000000E+00 0.  1.
         21   -1    0    0  501  502 -0.00000000000E+00 -0.00000000000E+00 -0.70082809668E+02  0.70082809668E+02  0.00000000000E+00 0.  1.
         25    1    1    2    0    0 -0.13457104358E+03 -0.12148541015E+03  0.45094099672E+03  0.50183747685E+03  0.12500000000E+03 0.  0.
         25    1    1    2    0    0  0.69326002497E+02  0.57907966316E+02  0.21860924919E+03  0.26753398105E+03  0.12500000000E+03 0.  0.
         25    1    1    2    0    0  0.65245041084E+02  0.63577443834E+02  0.27632498546E+03  0.31666939281E+03  0.12500000000E+03 0.  0.
</event>
<event>
 5    0  0.6877359E-005  0.5600874E+03  0.7546771E-02  0.9991857E-01
         21   -1    0    0  502  501  0.00000000000E+00  0.00000000000E+00  0.78276714227E+03  0.78276714227E+03  0.00000000000E+00 0. -1.
         21   -1    0    0  501  502 -0.00000000000E+00 -0.00000000000E+00 -0.40075513475E+03  0.40075513475E+03  0.00000000000E+00 0. -1.
         25    1    1    2    0    0 -0.21497606075E+02 -0.40988389591E+03  0.13158923467E+03  0.44878467205E+03  0.12500000000E+03 0.  0.
         25    1    1    2    0    0 -0.23632312595E+03  0.18245437163E+03  0.95467690833E+02  0.33745710480E+03  0.12500000000E+03 0.  0.
         25    1    1    2    0    0  0.25782073203E+03  0.22742952427E+03  0.15495508201E+03  0.39728050017E+03  0.12500000000E+03 0.  0.
</event>
<event>
 5    0  0.5550393E-005  0.8345939E+03  0.7546771E-02  0.9511251E-01
         21   -1    0    0  502  501  0.00000000000E+00  0.00000000000E+00  0.13049932430E+04  0.13049932430E+04  0.00000000000E+00 0. -1.
         21   -1    0    0  501  502 -0.00000000000E+00 -0.00000000000E+00 -0.53375522013E+03  0.53375522013E+03  0.00000000000E+00 0. -1.
         25    1    1    2    0    0  0.11723197135E+03 -0.25256064813E+02  0.34454211991E+02  0.17661624116E+03  0.12500000000E+03 0.  0.
         25    1    1    2    0    0  0.17861495293E+03  0.70365370533E+03  0.41473625631E+03  0.84537743094E+03  0.12500000000E+03 0.  0.
         25    1    1    2    0    0 -0.29584692429E+03 -0.67839764052E+03  0.32204755456E+03  0.81675479103E+03  0.12500000000E+03 0.  0.
</event>
<event>
 5    0  0.5550393E-005  0.3465491E+03  0.7546771E-02  0.1064040E+00
         21   -1    0    0  502  501  0.00000000000E+00  0.00000000000E+00  0.23504891298E+04  0.23504891298E+04  0.00000000000E+00 0.  1.
         21   -1    0    0  501  502 -0.00000000000E+00 -0.00000000000E+00 -0.51094160815E+02  0.51094160815E+02  0.00000000000E+00 0.  1.
         25    1    1    2    0    0 -0.12723167377E+03 -0.24153107827E+02  0.88548987651E+03  0.90359758346E+03  0.12500000000E+03 0.  0.
         25    1    1    2    0    0  0.25484792409E+03  0.62293972743E+02  0.10677664955E+04  0.11066066565E+04  0.12500000000E+03 0.  0.
         25    1    1    2    0    0 -0.12761625032E+03 -0.38140864916E+02  0.34613859699E+03  0.39137905060E+03  0.12500000000E+03 0.  0.
</event>
<event>
 5    0  0.5550393E-005  0.3501698E+03  0.7546771E-02  0.1062545E+00
         21   -1    0    0  502  501  0.00000000000E+00  0.00000000000E+00  0.31302437523E+04  0.31302437523E+04  0.00000000000E+00 0.  1.
         21   -1    0    0  501  502 -0.00000000000E+00 -0.00000000000E+00 -0.39172316827E+02  0.39172316827E+02  0.00000000000E+00 0.  1.
         25    1    1    2    0    0 -0.16902675104E+03  0.83406230000E+02  0.46273199355E+03  0.51504615290E+03  0.12500000000E+03 0.  0.
         25    1    1    2    0    0  0.13779106166E+03  0.40703953143E+02  0.12362588451E+04  0.12508413651E+04  0.12500000000E+03 0.  0.
         25    1    1    2    0    0  0.31235689373E+02 -0.12411018314E+03  0.13920805968E+04  0.14035285511E+04  0.12500000000E+03 0.  0.
</event>
<event>
 5    0  0.5550393E-005  0.2778240E+03  0.7546771E-02  0.1096883E+00
         21   -1    0    0  502  501  0.00000000000E+00  0.00000000000E+00  0.83440084018E+02  0.83440084018E+02  0.00000000000E+00 0.  1.
         21   -1    0    0  501  502 -0.00000000000E+00 -0.00000000000E+00 -0.92504888374E+03  0.92504888374E+03  0.00000000000E+00 0.  1.
         25    1    1    2    0    0 -0.46723959655E+02  0.10689490337E+02 -0.11481382890E+03  0.17636498779E+03  0.12500000000E+03 0.  0.
         25    1    1    2    0    0 -0.80353450159E+02  0.16830427405E+02 -0.10001930546E+03  0.17991331720E+03  0.12500000000E+03 0.  0.
         25    1    1    2    0    0  0.12707740981E+03 -0.27519917742E+02 -0.62677566535E+03  0.65221066278E+03  0.12500000000E+03 0.  0.
</event>
<event>
 5    0  0.5550393E-005  0.2225302E+03  0.7546771E-02  0.1132011E+00
         21   -1    0    0  502  501  0.00000000000E+00  0.00000000000E+00  0.11919637453E+03  0.11919637453E+03  0.00000000000E+00 0. -1.
         21   -1    0    0  501  502 -0.00000000000E+00 -0.00000000000E+00 -0.41544637254E+03  0.41544637254E+03  0.00000000000E+00 0. -1.
         25    1    1    2    0    0  0.68492958890E+02 -0.21167566572E+02 -0.11801632137E+03  0.18625843176E+03  0.12500000000E+03 0.  0.
         25    1    1    2    0    0 -0.41254008996E+02 -0.61038522336E+02 -0.10801732494E+03  0.18088763627E+03  0.12500000000E+03 0.  0.
         25    1    1    2    0    0 -0.27238949894E+02  0.82206088908E+02 -0.70216351701E+02  0.16749667904E+03  0.12500000000E+03 0.  0.
</event>
<event>
 5    0  0.5550393E-005  0.2814061E+03  0.7546771E-02  0.1094923E+00
         21   -1    0    0  502  501  0.00000000000E+00  0.00000000000E+00  0.43035298166E+02  0.43035298166E+02  0.00000000000E+00 0. -1.
         21   -1    0    0  501  502 -0.00000000000E+00 -0.00000000000E+00 -0.18401029253E+04  0.18401029253E+04  0.00000000000E+00 0. -1.
         25    1    1    2    0    0  0.12898076036E+03 -0.13511747407E+03 -0.76810471270E+03  0.80031407461E+03  0.12500000000E+03 0.  0.
         25    1    1    2    0    0 -0.57170724249E+02  0.92878549001E+02 -0.34838947970E+03  0.38586933818E+03  0.12500000000E+03 0.  0.
         25    1    1    2    0    0 -0.71810036106E+02  0.42238925070E+02 -0.68057343475E+03  0.69695481070E+03  0.12500000000E+03 0.  0.
</event>
<event>
 5    0  0.5550393E-005  0.3643826E+03  0.7546771E-02  0.1056862E+00
         21   -1    0    0  502  501  0.00000000000E+00  0.00000000000E+00  0.10584757036E+04  0.10584757036E+04  0.00000000000E+00 0. -1.
         21   -1    0    0  501  502 -0.00000000000E+00 -0.00000000000E+00 -0.12543950264E+03  0.12543950264E+03  0.00000000000E+00 0. -1.
         25    1    1    2    0    0 -0.35622765091E+00  0.16579713588E+03  0.10090946945E+03  0.23086043011E+03  0.12500000000E+03 0.  0.
         25    1    1    2    0    0 -0.10079652497E+03 -0.27805589930E+02  0.10073415921E+03  0.19158669345E+03  0.12500000000E+03 0.  0.
         25    1    1    2    0    0  0.10115275262E+03 -0.13799154595E+03  0.73139257226E+03  0.76146808263E+03  0.12500000000E+03 0.  0.
</event>
<event>
 5    0  0.5854205E-005  0.5323389E+03  0.7546771E-02  0.1005666E+00
         21   -1    0    0  502  501  0.00000000000E+00  0.00000000000E+00  0.22235264420E+03  0.22235264420E+03  0.00000000000E+00 0.  1.
         21   -1    0    0  501  502 -0.00000000000E+00 -0.00000000000E+00 -0.12744833124E+04  0.12744833124E+04  0.00000000000E+00 0.  1.
         25    1    1    2    0    0 -0.57587673634E+02  0.14937532956E+03  0.10118705038E+03  0.22692101798E+03  0.12500000000E+03 0.  0.
         25    1    1    2    0    0  0.16331787948E+03 -0.25681100593E+03 -0.81670491447E+03  0.88048653586E+03  0.12500000000E+03 0.  0.
         25    1    1    2    0    0 -0.10573020584E+03  0.10743567637E+03 -0.33661280409E+03  0.38942840274E+03  0.12500000000E+03 0.  0.
</event>
<event>
 5    0  0.5550393E-005  0.2119002E+03  0.7546771E-02  0.1140070E+00
         21   -1    0    0  502  501  0.00000000000E+00  0.00000000000E+00  0.64398219746E+02  0.64398219746E+02  0.00000000000E+00 0.  1.
         21   -1    0    0  501  502 -0.00000000000E+00 -0.00000000000E+00 -0.69725088825E+03  0.69725088825E+03  0.00000000000E+00 0.  1.
         25    1    1    2    0    0 -0.42141866145E+02 -0.15861758537E+02 -0.85571667565E+02  0.15803494093E+03  0.12500000000E+03 0.  0.
         25    1    1    2    0    0  0.26620506668E+02  0.52364559715E+01 -0.29006115629E+03  0.31701190235E+03  0.12500000000E+03 0.  0.
         25    1    1    2    0    0  0.15521359476E+02  0.10625302565E+02 -0.25721984465E+03  0.28660226471E+03  0.12500000000E+03 0.  0.
</event>
<event>
 5    0  0.5550393E-005  0.3058567E+03  0.7546771E-02  0.1082349E+00
         21   -1    0    0  502  501  0.00000000000E+00  0.00000000000E+00  0.10896133289E+03  0.10896133289E+03  0.00000000000E+00 0.  1.
         21   -1    0    0  501  502 -0.00000000000E+00 -0.00000000000E+00 -0.85854579545E+03  0.85854579545E+03  0.00000000000E+00 0.  1.
         25    1    1    2    0    0  0.36965862556E+02 -0.34343294105E+02 -0.19094059661E+03  0.23372900607E+03  0.12500000000E+03 0.  0.
         25    1    1    2    0    0  0.17543025582E+03  0.70310651258E+02 -0.27390932132E+03  0.35548653792E+03  0.12500000000E+03 0.  0.
         25    1    1    2    0    0 -0.21239611838E+03 -0.35967357152E+02 -0.28473454462E+03  0.37829158434E+03  0.12500000000E+03 0.  0.
</event>
<event>
 5    0  0.5550393E-005  0.2231707E+03  0.7546771E-02  0.1131541E+00
         21   -1    0    0  502  501  0.00000000000E+00  0.00000000000E+00  0.87254448530E+03  0.87254448530E+03  0.00000000000E+00 0. -1.
         21   -1    0    0  501  502 -0.00000000000E+00 -0.00000000000E+00 -0.57080356738E+02  0.57080356738E+02  0.00000000000E+00 0. -1.
         25    1    1    2    0    0  0.60585068757E+02 -0.54169384758E+02  0.38312963686E+03  0.41111822076E+03  0.12500000000E+03 0.  0.
         25    1    1    2    0    0 -0.63156221490E+02  0.18249656436E+01  0.14942766076E+03  0.20480640765E+03  0.12500000000E+03 0.  0.
         25    1    1    2    0    0  0.25711527330E+01  0.52344419115E+02  0.28290683094E+03  0.31370021363E+03  0.12500000000E+03 0.  0.
</event>
<event>
 5    0  0.5550393E-005  0.2318144E+03  0.7546771E-02  0.1125369E+00
         21   -1    0    0  502  501  0.00000000000E+00  0.00000000000E+00  0.35233920755E+03  0.35233920755E+03  0.00000000000E+00 0.  1.
         21   -1    0    0  501  502 -0.00000000000E+00 -0.00000000000E+00 -0.15251757096E+03  0.15251757096E+03  0.00000000000E+00 0.  1.
         25    1    1    2    0    0 -0.35702901268E+01 -0.10120723551E+03  0.86106500429E+01  0.16110491856E+03  0.12500000000E+03 0.  0.
         25    1    1    2    0    0  0.13610189245E+02  0.11054869056E+02  0.11816958003E+03  0.17290603525E+03  0.12500000000E+03 0.  0.
         25    1    1    2    0    0 -0.10039899119E+02  0.90152366453E+02  0.73041406514E+02  0.17084582470E+03  0.12500000000E+03 0.  0.
</event>
<event>
 5    0  0.5691867E-005  0.3146709E+03  0.7546771E-02  0.1078128E+00
         21   -1    0    0  502  501  0.00000000000E+00  0.00000000000E+00  0.22916738703E+03  0.22916738703E+03  0.00000000000E+00 0. -1.
         21   -1    0    0  501  502 -0.00000000000E+00 -0.00000000000E+00 -0.43207621658E+03  0.43207621658E+03  0.00000000000E+00 0. -1.
         25    1    1    2    0    0 -0.24942615413E+02  0.68524008365E+02 -0.22867433734E+03  0.27061896893E+03  0.12500000000E+03 0.  0.
         25    1    1    2    0    0  0.11105846883E+02 -0.32256330993E+01  0.15457236048E+03  0.19912649037E+03  0.12500000000E+03 0.  0.
         25    1    1    2    0    0  0.13836768530E+02 -0.65298375265E+02 -0.12880685269E+03  0.19149814431E+03  0.12500000000E+03 0.  0.
</event>
<event>
 5    0  0.5550393E-005  0.4400841E+03  0.7546771E-02  0.1030721E+00
         21   -1    0    0  502  501  0.00000000000E+00  0.00000000000E+00  0.40500804145E+03  0.40500804145E+03  0.00000000000E+00 0.  1.
         21   -1    0    0  501  502 -0.00000000000E+00 -0.00000000000E+00 -0.47819804758E+03  0.47819804758E+03  0.00000000000E+00 0.  1.
         25    1    1    2    0    0 -0.15046809503E+03  0.11515066475E+03  0.14700087856E+03  0.27043406130E+03  0.12500000000E+03 0.  0.
         25    1    1    2    0    0  0.15216951862E+03 -0.29340630512E+03 -0.15146924804E+03  0.38446164358E+03  0.12500000000E+03 0.  0.
         25    1    1    2    0    0 -0.17014235884E+01  0.17825564037E+03 -0.68721636654E+02  0.22831038415E+03  0.12500000000E+03 0.  0.
</event>
<event>
 5    0  0.6048042E-005  0.2589369E+03  0.7546771E-02  0.1107784E+00
         21   -1    0    0  502  501  0.00000000000E+00  0.00000000000E+00  0.14047287197E+03  0.14047287197E+03  0.00000000000E+00 0.  1.
         21   -1    0    0  501  502 -0.00000000000E+00 -0.00000000000E+00 -0.47730446223E+03  0.47730446223E+03  0.00000000000E+00 0.  1.
         25    1    1    2    0    0 -0.46505498225E+02  0.40447696044E+01 -0.46462191586E+02  0.14128997407E+03  0.12500000000E+03 0.  0.
         25    1    1    2    0    0  0.15690229994E+03 -0.33252885053E+02 -0.19708173473E+03  0.28317891210E+03  0.12500000000E+03 0.  0.
         25    1    1    2    0    0 -0.11039680171E+03  0.29208115449E+02 -0.93287663936E+02  0.19330844803E+03  0.12500000000E+03 0.  0.
</event>
<event>
 5    0  0.5550393E-005  0.3631213E+03  0.7546771E-02  0.1057355E+00
         21   -1    0    0  502  501  0.00000000000E+00  0.00000000000E+00  0.64165227502E+03  0.64165227502E+03  0.00000000000E+00 0. -1.
         21   -1    0    0  501  502 -0.00000000000E+00 -0.00000000000E+00 -0.20549612053E+03  0.20549612053E+03  0.00000000000E+00 0. -1.
         25    1    1    2    0    0 -0.12112038266E+03 -0.21967586394E+03  0.39458180733E+03  0.48399115175E+03  0.12500000000E+03 0.  0.
         25    1    1    2    0    0  0.57276611026E+02  0.92026765749E+02  0.51186811798E+02  0.17318956518E+03  0.12500000000E+03 0.  0.
         25    1    1    2    0    0  0.63843771637E+02  0.12764909819E+03 -0.96124646373E+01  0.18996767862E+03  0.12500000000E+03 0.  0.
</event>
<event>
 5    0  0.5550393E-005  0.2800425E+03  0.7546771E-02  0.1095666E+00
         21   -1    0    0  502  501  0.00000000000E+00  0.00000000000E+00  0.14145070563E+04  0.14145070563E+04  0.00000000000E+00 0.  1.
         21   -1    0    0  501  502 -0.00000000000E+00 -0.00000000000E+00 -0.55442514487E+02  0.55442514487E+02  0.00000000000E+00 0.  1.
         25    1    1    2    0    0  0.94023102797E+01  0.93187588514E+02  0.46771957296E+03  0.49311147728E+03  0.12500000000E+03 0.  0.
         25    1    1    2    0    0 -0.10832009331E+03  0.48449321347E+02  0.52939432081E+03  0.55674404017E+03  0.12500000000E+03 0.  0.
         25    1    1    2    0    0  0.98917783029E+02 -0.14163690986E+03  0.36195064801E+03  0.42009405331E+03  0.12500000000E+03 0.  0.
</event>
<event>
 5    0  0.5550393E-005  0.2723604E+03  0.7546771E-02  0.1099936E+00
         21   -1    0    0  502  501  0.00000000000E+00  0.00000000000E+00  0.49786122371E+03  0.49786122371E+03  0.00000000000E+00 0.  1.
         21   -1    0    0  501  502 -0.00000000000E+00 -0.00000000000E+00 -0.14899777442E+03  0.14899777442E+03  0.00000000000E+00 0.  1.
         25    1    1    2    0    0  0.10960100942E+02  0.27228650284E+02  0.31043319513E+03  0.33593941693E+03  0.12500000000E+03 0.  0.
         25    1    1    2    0    0  0.45747814964E+01 -0.69175565928E+02 -0.49968064071E+02  0.15141992925E+03  0.12500000000E+03 0.  0.
         25    1    1    2    0    0 -0.15534882439E+02  0.41946915645E+02  0.88398318226E+02  0.15949965194E+03  0.12500000000E+03 0.  0.
</event>
<event>
 5    0  0.5550393E-005  0.3162340E+03  0.7546771E-02  0.1077396E+00
         21   -1    0    0  502  501  0.00000000000E+00  0.00000000000E+00  0.26503463431E+03  0.26503463431E+03  0.00000000000E+00 0. -1.
         21   -1    0    0  501  502 -0.00000000000E+00 -0.00000000000E+00 -0.37732409421E+03  0.37732409421E+03  0.00000000000E+00 0. -1.
         25    1    1    2    0    0  0.12099993489E+03 -0.93679401323E+02  0.55331227985E+02  0.20519103115E+03  0.12500000000E+03 0.  0.
         25    1    1    2    0    0 -0.14266896442E+03 -0.63943896119E+02 -0.66176349461E+02  0.21082591038E+03  0.12500000000E+03 0.  0.
         25    1    1    2    0    0  0.21669029530E+02  0.15762329744E+03 -0.10144433843E+03  0.22634178699E+03  0.12500000000E+03 0.  0.
</event>
<event>
 5    0  0.5550393E-005  0.2630597E+03  0.7546771E-02  0.1105319E+00
         21   -1    0    0  502  501  0.00000000000E+00  0.00000000000E+00  0.84113000648E+03  0.84113000648E+03  0.00000000000E+00 0.  1.
         21   -1    0    0  501  502 -0.00000000000E+00 -0.00000000000E+00 -0.82270742398E+02  0.82270742398E+02  0.00000000000E+00 0.  1.
         25    1    1    2    0    0 -0.79060160192E+02 -0.14368647429E+03  0.25717886770E+03  0.32963962416E+03  0.12500000000E+03 0.  0.
         25    1    1    2    0    0  0.28898743415E+02  0.86534883644E+02  0.16265391622E+03  0.22450995506E+03  0.12500000000E+03 0.  0.
         25    1    1    2    0    0  0.50161416777E+02  0.57151590648E+02  0.33902648015E+03  0.36925116965E+03  0.12500000000E+03 0.  0.
</event>
<event>
 5    0  0.5605953E-005  0.3438727E+03  0.7546771E-02  0.1065158E+00
         21   -1    0    0  502  501  0.00000000000E+00  0.00000000000E+00  0.34045281350E+03  0.34045281350E+03  0.00000000000E+00 0.  1.
         21   -1    0    0  501  502 -0.00000000000E+00 -0.00000000000E+00 -0.34732699719E+03  0.34732699719E+03  0.00000000000E+00 0.  1.
         25    1    1    2    0    0  0.18853950354E+03  0.80252604084E+02  0.13258542678E+03  0.27421072235E+03  0.12500000000E+03 0.  0.
         25    1    1    2    0    0 -0.58731403462E+02  0.36334579672E+02 -0.13849100026E+03  0.19893299522E+03  0.12500000000E+03 0.  0.
         25    1    1    2    0    0 -0.12980810008E+03 -0.11658718376E+03 -0.96861021649E+00  0.21463609312E+03  0.12500000000E+03 0.  0.
</event>
<event>
 5    0  0.5550393E-005  0.2369167E+03  0.7546771E-02  0.1121864E+00
         21   -1    0    0  502  501  0.00000000000E+00  0.00000000000E+00  0.55718307459E+03  0.55718307459E+03  0.00000000000E+00 0. -1.
         21   -1    0    0  501  502 -0.00000000000E+00 -0.00000000000E+00 -0.10073799810E+03  0.10073799810E+03  0.00000000000E+00 0. -1.
         25    1    1    2    0    0 -0.78939845366E+01  0.40994326990E+02  0.15967634542E+03  0.20703715880E+03  0.12500000000E+03 0.  0.
         25    1    1    2    0    0  0.47419187364E+02 -0.55050712603E+02  0.28366033635E+03  0.31838239070E+03  0.12500000000E+03 0.  0.
         25    1    1    2    0    0 -0.39525202828E+02  0.14056385613E+02  0.13108394722E+02  0.13250152319E+03  0.12500000000E+03 0.  0.
</event>
<event>
 5    0  0.5550393E-005  0.2145473E+03  0.7546771E-02  0.1138015E+00
         21   -1    0    0  502  501  0.00000000000E+00  0.00000000000E+00  0.21015766608E+04  0.21015766608E+04  0.00000000000E+00 0.  1.
         21   -1    0    0  501  502 -0.00000000000E+00 -0.00000000000E+00 -0.21902867921E+02  0.21902867921E+02  0.00000000000E+00 0.  1.
         25    1    1    2    0    0 -0.34669799592E+02  0.50899062217E+02  0.63001374327E+03  0.64524028567E+03  0.12500000000E+03 0.  0.
         25    1    1    2    0    0 -0.21839450579E+02  0.20005413533E+02  0.50736602262E+03  0.52337602074E+03  0.12500000000E+03 0.  0.
         25    1    1    2    0    0  0.56509250171E+02 -0.70904475751E+02  0.94229402701E+03  0.95486322234E+03  0.12500000000E+03 0.  0.
</event>
<event>
 5    0  0.5550393E-005  0.4589771E+03  0.7546771E-02  0.1025078E+00
         21   -1    0    0  502  501  0.00000000000E+00  0.00000000000E+00  0.45947891746E+03  0.45947891746E+03  0.00000000000E+00 0.  1.
         21   -1    0    0  501  502 -0.00000000000E+00 -0.00000000000E+00 -0.45847582746E+03  0.45847582746E+03  0.00000000000E+00 0.  1.
         25    1    1    2    0    0 -0.42266501703E+01 -0.23800115884E+03 -0.64214937973E+02  0.27642535057E+03  0.12500000000E+03 0.  0.
         25    1    1    2    0    0  0.13473000064E+03  0.32522945815E+03  0.17530491193E+03  0.41265383273E+03  0.12500000000E+03 0.  0.
         25    1    1    2    0    0 -0.13050335047E+03 -0.87228299309E+02 -0.11008688395E+03  0.22887556161E+03  0.12500000000E+03 0.  0.
</event>
<event>
 5    0  0.5550393E-005  0.4014259E+03  0.7546771E-02  0.1043287E+00
         21   -1    0    0  502  501  0.00000000000E+00  0.00000000000E+00  0.20077706375E+04  0.20077706375E+04  0.00000000000E+00 0. -1.
         21   -1    0    0  501  502 -0.00000000000E+00 -0.00000000000E+00 -0.80259546067E+02  0.80259546067E+02  0.00000000000E+00 0. -1.
         25    1    1    2    0    0 -0.74012929846E+02 -0.14994465073E+03  0.93820150335E+02  0.22888541385E+03  0.12500000000E+03 0.  0.
         25    1    1    2    0    0  0.63103201930E+02  0.97105280250E+02  0.10041451781E+04  0.10185008534E+04  0.12500000000E+03 0.  0.
         25    1    1    2    0    0  0.10909727916E+02  0.52839370476E+02  0.82954576298E+03  0.84064391636E+03  0.12500000000E+03 0.  0.
</event>
<event>
 5    0  0.5550393E-005  0.2854886E+03  0.7546771E-02  0.1092728E+00
         21   -1    0    0  502  501  0.00000000000E+00  0.00000000000E+00  0.37012006127E+03  0.37012006127E+03  0.00000000000E+00 0. -1.
         21   -1    0    0  501  502 -0.00000000000E+00 -0.00000000000E+00 -0.22020891515E+03  0.22020891515E+03  0.00000000000E+00 0. -1.
         25    1    1    2    0    0  0.80690514248E+02  0.10400681860E+03  0.10919445139E+03  0.21184146341E+03  0.12500000000E+03 0.  0.
         25    1    1    2    0    0 -0.20499354089E+02 -0.16879351312E+03 -0.23714812585E+02  0.21236493572E+03  0.12500000000E+03 0.  0.
         25    1    1    2    0    0 -0.60191160160E+02  0.64786694520E+02  0.64431507322E+02  0.16612257729E+03  0.12500000000E+03 0.  0.
</event>
<event>
 5    0  0.5550393E-005  0.3129381E+03  0.7546771E-02  0.1078946E+00
         21   -1    0    0  502  501  0.00000000000E+00  0.00000000000E+00  0.33461418003E+03  0.33461418003E+03  0.00000000000E+00 0. -1.
         21   -1    0    0  501  502 -0.00000000000E+00 -0.00000000000E+00 -0.29266621723E+03  0.29266621723E+03  0.00000000000E+00 0. -1.
         25    1    1    2    0    0 -0.22448845087E+03 -0.85603867127E+02  0.11090729467E+02  0.27105551262E+03  0.12500000000E+03 0.  0.
         25    1    1    2    0    0  0.13572691790E+03  0.30030457879E+02 -0.12886354135E+02  0.18738912126E+03  0.12500000000E+03 0.  0.
         25    1    1    2    0    0  0.88761532965E+02  0.55573409249E+02  0.43743587469E+02  0.16883576338E+03  0.12500000000E+03 0.  0.
</event>
<event>
 5    0  0.5550393E-005  0.4069146E+03  0.7546771E-02  0.1041411E+00
         21   -1    0    0  502  501  0.00000000000E+00  0.00000000000E+00  0.76820728741E+02  0.76820728741E+02  0.00000000000E+00 0.  1.
         21   -1    0    0  501  502 -0.00000000000E+00 -0.00000000000E+00 -0.21554015909E+04  0.21554015909E+04  0.00000000000E+00 0.  1.
         25    1    1    2    0    0  0.21035280098E+02 -0.19522191028E+03 -0.60241531441E+03  0.64581985747E+03  0.12500000000E+03 0.  0.
         25    1    1    2    0    0  0.28154977112E+00  0.15940734778E+03 -0.14337334079E+04  0.14479735035E+04  0.12500000000E+03 0.  0.
         25    1    1    2    0    0 -0.21316829869E+02  0.35814562508E+02 -0.42432139876E+02  0.13842895874E+03  0.12500000000E+03 0.  0.
</event>
<event>
 5    0  0.6059559E-005  0.2786032E+03  0.7546771E-02  0.1096454E+00
         21   -1    0    0  502  501  0.00000000000E+00  0.00000000000E+00  0.13363657891E+04  0.13363657891E+04  0.00000000000E+00 0.  1.
         21   -1    0    0  501  502 -0.00000000000E+00 -0.00000000000E+00 -0.58082689636E+02  0.58082689636E+02  0.00000000000E+00 0.  1.
         25    1    1    2    0    0 -0.37364752159E+01  0.99353848071E+02  0.89023720313E+03  0.90445145044E+03  0.12500000000E+03 0.  0.
         25    1    1    2    0    0 -0.62133877139E+02 -0.34881676858E+02  0.18540915085E+03  0.23468895007E+03  0.12500000000E+03 0.  0.
         25    1    1    2    0    0  0.65870352355E+02 -0.64472171213E+02  0.20263674547E+03  0.25530807820E+03  0.12500000000E+03 0.  0.
</event>
<event>
 5    0  0.5550393E-005  0.2652210E+03  0.7546771E-02  0.1104046E+00
         21   -1    0    0  502  501  0.00000000000E+00  0.00000000000E+00  0.29935617055E+03  0.29935617055E+03  0.00000000000E+00 0.  1.
         21   -1    0    0  501  502 -0.00000000000E+00 -0.00000000000E+00 -0.23497813698E+03  0.23497813698E+03  0.00000000000E+00 0.  1.
         25    1    1    2    0    0  0.13218717327E+03  0.56163370100E+01 -0.71436857314E+02  0.19553315985E+03  0.12500000000E+03 0.  0.
         25    1    1    2    0    0 -0.99163989290E+02 -0.55563989999E+02  0.51768645821E+02  0.17670836553E+03  0.12500000000E+03 0.  0.
         25    1    1    2    0    0 -0.33023183980E+02  0.49947652989E+02  0.84046245064E+02  0.16209278216E+03  0.12500000000E+03 0.  0.
</event>
<event>
 5    0  0.5550393E-005  0.3282569E+03  0.7546771E-02  0.1071911E+00
         21   -1    0    0  502  501  0.00000000000E+00  0.00000000000E+00  0.33404868449E+03  0.33404868449E+03  0.00000000000E+00 0. -1.
         21   -1    0    0  501  502 -0.00000000000E+00 -0.00000000000E+00 -0.32256546818E+03  0.32256546818E+03  0.00000000000E+00 0. -1.
         25    1    1    2    0    0  0.91758631459E+02  0.98318613221E+02  0.88931296229E+02  0.20400973409E+03  0.12500000000E+03 0.  0.
         25    1    1    2    0    0 -0.72752151695E+02  0.93650779858E+02  0.62731048067E+02  0.18336719591E+03  0.12500000000E+03 0.  0.
         25    1    1    2    0    0 -0.19006479764E+02 -0.19196939308E+03 -0.14017912798E+03  0.26923722267E+03  0.12500000000E+03 0.  0.
</event>
<event>
 5    0  0.5550393E-005  0.3470992E+03  0.7546771E-02  0.1063812E+00
         21   -1    0    0  502  501  0.00000000000E+00  0.00000000000E+00  0.11350348994E+04  0.11350348994E+04  0.00000000000E+00 0.  1.
         21   -1    0    0  501  502 -0.00000000000E+00 -0.00000000000E+00 -0.10614461408E+03  0.10614461408E+03  0.00000000000E+00 0.  1.
         25    1    1    2    0    0  0.15350558358E+02  0.48867174600E+02  0.75712828728E+02  0.15485823462E+03  0.12500000000E+03 0.  0.
         25    1    1    2    0    0 -0.10278242118E+03  0.56277093980E+02  0.86378438273E+03  0.88061330745E+03  0.12500000000E+03 0.  0.
         25    1    1    2    0    0  0.87431862817E+02 -0.10514426858E+03  0.89393073859E+02  0.20570797142E+03  0.12500000000E+03 0.  0.
</event>
<event>
 5    0  0.5550393E-005  0.4831901E+03  0.7546771E-02  0.1018262E+00
         21   -1    0    0  502  501  0.00000000000E+00  0.00000000000E+00  0.22694996633E+03  0.22694996633E+03  0.00000000000E+00 0.  1.
         21   -1    0    0  501  502 -0.00000000000E+00 -0.00000000000E+00 -0.10287405329E+04  0.10287405329E+04  0.00000000000E+00 0.  1.
         25    1    1    2    0    0 -0.18473139857E+03  0.38129208985E+02 -0.48599392025E+03  0.53609198531E+03  0.12500000000E+03 0.  0.
         25    1    1    2    0    0  0.34927851699E+03 -0.14132736587E+03 -0.11436519229E+03  0.41312625671E+03  0.12500000000E+03 0.  0.
         25    1    1    2    0    0 -0.16454711841E+03  0.10319815689E+03 -0.20143145398E+03  0.30647225717E+03  0.12500000000E+03 0.  0.
</event>
<event>
 5    0  0.5550393E-005  0.2192014E+03  0.7546771E-02  0.1134480E+00
         21   -1    0    0  502  501  0.00000000000E+00  0.00000000000E+00  0.47103335193E+02  0.47103335193E+02  0.00000000000E+00 0.  1.
         21   -1    0    0  501  502 -0.00000000000E+00 -0.00000000000E+00 -0.10200820144E+04  0.10200820144E+04  0.00000000000E+00 0.  1.
         25    1    1    2    0    0  0.60762688113E+02 -0.55937519904E+01 -0.27301202244E+03  0.30640489344E+03  0.12500000000E+03 0.  0.
         25    1    1    2    0    0 -0.77300940811E+01 -0.29448292464E+02 -0.17373824330E+03  0.21618726481E+03  0.12500000000E+03 0.  0.
         25    1    1    2    0    0 -0.53032594032E+02  0.35042044454E+02 -0.52622841347E+03  0.54459319134E+03  0.12500000000E+03 0.  0.
</event>
<event>
 5    0  0.5550393E-005  0.2758477E+03  0.7546771E-02  0.1097979E+00
         21   -1    0    0  502  501  0.00000000000E+00  0.00000000000E+00  0.30594952213E+03  0.30594952213E+03  0.00000000000E+00 0.  1.
         21   -1    0    0  501  502 -0.00000000000E+00 -0.00000000000E+00 -0.24870750870E+03  0.24870750870E+03  0.00000000000E+00 0.  1.
         25    1    1    2    0    0  0.12485500119E+02 -0.14243178796E+03  0.10878684030E+03  0.21886589172E+03  0.12500000000E+03 0.  0.
         25    1    1    2    0    0  0.70430015954E+02  0.38646215456E+02 -0.11438325940E+02  0.14902936763E+03  0.12500000000E+03 0.  0.
         25    1    1    2    0    0 -0.82915516073E+02  0.10378557251E+03 -0.40106500926E+02  0.18676177147E+03  0.12500000000E+03 0.  0.
</event>
<event>
 5    0  0.5550393E-005  0.3377594E+03  0.7546771E-02  0.1067754E+00
         21   -1    0    0  502  501  0.00000000000E+00  0.00000000000E+00  0.69547844888E+02  0.69547844888E+02  0.00000000000E+00 0.  1.
         21   -1    0    0  501  502 -0.00000000000E+00 -0.00000000000E+00 -0.16403299284E+04  0.16403299284E+04  0.00000000000E+00 0.  1.
         25    1    1    2    0    0 -0.45591033501E+02 -0.21930153238E+03 -0.10385722531E+04  0.10697798976E+04  0.12500000000E+03 0.  0.
         25    1    1    2    0    0 -0.35918174321E+02  0.10284807996E+03 -0.26614269675E+03  0.31356782015E+03  0.12500000000E+03 0.  0.
         25    1    1    2    0    0  0.81509207822E+02  0.11645345242E+03 -0.26606713363E+03  0.32653005549E+03  0.12500000000E+03 0.  0.
</event>
<event>
 5    0  0.5550393E-005  0.3437095E+03  0.7546771E-02  0.1065227E+00
         21   -1    0    0  502  501  0.00000000000E+00  0.00000000000E+00  0.91089929502E+02  0.91089929502E+02  0.00000000000E+00 0. -1.
         21   -1    0    0  501  502 -0.00000000000E+00 -0.00000000000E+00 -0.12969183707E+04  0.12969183707E+04  0.00000000000E+00 0. -1.
         25    1    1    2    0    0 -0.73084793928E+01 -0.16987675349E+03 -0.89374817919E+02  0.22918198735E+03  0.12500000000E+03 0.  0.
         25    1    1    2    0    0 -0.19310651572E+02  0.11655680750E+03 -0.61172846432E+03  0.63544874278E+03  0.12500000000E+03 0.  0.
         25    1    1    2    0    0  0.26619130965E+02  0.53319945981E+02 -0.50472515893E+03  0.52337757005E+03  0.12500000000E+03 0.  0.
</event>
<event>
 5    0  0.5550393E-005  0.3131520E+03  0.7546771E-02  0.1078845E+00
         21   -1    0    0  502  501  0.00000000000E+00  0.00000000000E+00  0.37336276098E+03  0.37336276098E+03  0.00000000000E+00 0. -1.
         21   -1    0    0  501  502 -0.00000000000E+00 -0.00000000000E+00 -0.26265119144E+03  0.26265119144E+03  0.00000000000E+00 0. -1.
         25    1    1    2    0    0 -0.54093145489E+01 -0.16190129213E+03  0.97295528621E+02  0.22656722836E+03  0.12500000000E+03 0.  0.
         25    1    1    2    0    0  0.18354735353E+02  0.10287147764E+03 -0.13104141169E+03  0.20908440592E+03  0.12500000000E+03 0.  0.
         25    1    1    2    0    0 -0.12945420804E+02  0.59029814489E+02  0.14445745261E+03  0.20036231815E+03  0.12500000000E+03 0.  0.
</event>
<event>
 5    0  0.5839142E-005  0.5873411E+03  0.7546771E-02  0.9932023E-01
         21   -1    0    0  502  501  0.00000000000E+00  0.00000000000E+00  0.38759305357E+03  0.38759305357E+03  0.00000000000E+00 0. -1.
         21   -1    0    0  501  502 -0.00000000000E+00 -0.00000000000E+00 -0.89003040657E+03  0.89003040657E+03  0.00000000000E+00 0. -1.
         25    1    1    2    0    0  0.36161631630E+03 -0.24061535514E+03 -0.16710362434E+03  0.48188248631E+03  0.12500000000E+03 0.  0.
         25    1    1    2    0    0 -0.36079664446E+03  0.11488572665E+02 -0.37075128997E+03  0.53234173701E+03  0.12500000000E+03 0.  0.
         25    1    1    2    0    0 -0.81967183819E+00  0.22912678248E+03  0.35417561301E+02  0.26339923682E+03  0.12500000000E+03 0.  0.
</event>
<event>
 5    0  0.5550393E-005  0.3025258E+03  0.7546771E-02  0.1083985E+00
         21   -1    0    0  502  501  0.00000000000E+00  0.00000000000E+00  0.45565457141E+03  0.45565457141E+03  0.00000000000E+00 0. -1.
         21   -1    0    0  501  502 -0.00000000000E+00 -0.00000000000E+00 -0.20085801146E+03  0.20085801146E+03  0.00000000000E+00 0. -1.
         25    1    1    2    0    0  0.46687186377E+02 -0.14457371345E+02 -0.55128718167E+02  0.14509612167E+03  0.12500000000E+03 0.  0.
         25    1    1    2    0    0  0.81259651245E+02 -0.43222576131E+02  0.28132552174E+03  0.32131039695E+03  0.12500000000E+03 0.  0.
         25    1    1    2    0    0 -0.12794683762E+03  0.57679947476E+02  0.28599756377E+02  0.19010606425E+03  0.12500000000E+03 0.  0.
</event>
<event>
 5    0  0.6040277E-005  0.3264728E+03  0.7546771E-02  0.1072708E+00
         21   -1    0    0  502  501  0.00000000000E+00  0.00000000000E+00  0.80035524074E+03  0.80035524074E+03  0.00000000000E+00 0.  1.
         21   -1    0    0  501  502 -0.00000000000E+00 -0.00000000000E+00 -0.13317150409E+03  0.13317150409E+03  0.00000000000E+00 0.  1.
         25    1    1    2    0    0 -0.70837896168E+01  0.10632622781E+03  0.44893415658E+03  0.47804008592E+03  0.12500000000E+03 0.  0.
         25    1    1    2    0    0 -0.12807429923E+03 -0.18178853850E+00  0.54094550159E+02  0.18696063630E+03  0.12500000000E+03 0.  0.
         25    1    1    2    0    0  0.13515808885E+03 -0.10614443927E+03  0.16415502991E+03  0.26852602260E+03  0.12500000000E+03 0.  0.
</event>
<event>
 5    0  0.5550393E-005  0.3435365E+03  0.7546771E-02  0.1065300E+00
         21   -1    0    0  502  501  0.00000000000E+00  0.00000000000E+00  0.66348277341E+03  0.66348277341E+03  0.00000000000E+00 0. -1.
         21   -1    0    0  501  502 -0.00000000000E+00 -0.00000000000E+00 -0.17787551274E+03  0.17787551274E+03  0.00000000000E+00 0. -1.
         25    1    1    2    0    0 -0.95641386703E+02  0.24617571229E+02  0.36334525795E+03  0.39673426388E+03  0.12500000000E+03 0.  0.
         25    1    1    2    0    0  0.91335161934E+02 -0.16836464935E+03  0.10969521039E+03  0.25366672257E+03  0.12500000000E+03 0.  0.
         25    1    1    2    0    0  0.43062247693E+01  0.14374707812E+03  0.12566792331E+02  0.19095729970E+03  0.12500000000E+03 0.  0.
</event>
<event>
 5    0  0.5550393E-005  0.3976321E+03  0.7546771E-02  0.1044603E+00
         21   -1    0    0  502  501  0.00000000000E+00  0.00000000000E+00  0.38366114294E+03  0.38366114294E+03  0.00000000000E+00 0. -1.
         21   -1    0    0  501  502 -0.00000000000E+00 -0.00000000000E+00 -0.41211183203E+03  0.41211183203E+03  0.00000000000E+00 0. -1.
         25    1    1    2    0    0  0.22871830852E+03 -0.16020309384E+03  0.33977141327E+02  0.30782550587E+03  0.12500000000E+03 0.  0.
         25    1    1    2    0    0 -0.17566626226E+03  0.20305946058E+03 -0.13799875672E+03  0.32674215689E+03  0.12500000000E+03 0.  0.
         25    1    1    2    0    0 -0.53052046262E+02 -0.42856366744E+02  0.75570926304E+02  0.16120531221E+03  0.12500000000E+03 0.  0.
</event>
<event>
 5    0  0.5550393E-005  0.3296453E+03  0.7546771E-02  0.1071294E+00
         21   -1    0    0  502  501  0.00000000000E+00  0.00000000000E+00  0.13297159770E+04  0.13297159770E+04  0.00000000000E+00 0.  1.
         21   -1    0    0  501  502 -0.00000000000E+00 -0.00000000000E+00 -0.81721207583E+02  0.81721207583E+02  0.00000000000E+00 0.  1.
         25    1    1    2    0    0  0.84818482377E+01 -0.31271479716E+02 -0.44164831170E+01  0.12920662722E+03  0.12500000000E+03 0.  0.
         25    1    1    2    0    0  0.79560354263E+00  0.23502896922E+02  0.88165256322E+03  0.89078014200E+03  0.12500000000E+03 0.  0.
         25    1    1    2    0    0 -0.92774517803E+01  0.77685827946E+01  0.37075868930E+03  0.39145041536E+03  0.12500000000E+03 0.  0.
</event>
<event>
 5    0  0.5550393E-005  0.3792445E+03  0.7546771E-02  0.1051213E+00
         21   -1    0    0  502  501  0.00000000000E+00  0.00000000000E+00  0.11036125641E+04  0.11036125641E+04  0.00000000000E+00 0. -1.
         21   -1    0    0  501  502 -0.00000000000E+00 -0.00000000000E+00 -0.13032326759E+03  0.13032326759E+03  0.00000000000E+00 0. -1.
         25    1    1    2    0    0 -0.17678781280E+03 -0.25887048895E+03  0.39067332891E+03  0.51625430819E+03  0.12500000000E+03 0.  0.
         25    1    1    2    0    0  0.11510538923E+03  0.19282363483E+03  0.29452442138E+03  0.39089620050E+03  0.12500000000E+03 0.  0.
         25    1    1    2    0    0  0.61682423575E+02  0.66046854124E+02  0.28809154626E+03  0.32678532303E+03  0.12500000000E+03 0.  0.
</event>
<event>
 5    0  0.5550393E-005  0.2391310E+03  0.7546771E-02  0.1120373E+00
         21   -1    0    0  502  501  0.00000000000E+00  0.00000000000E+00  0.87007635602E+02  0.87007635602E+02  0.00000000000E+00 0. -1.
         21   -1    0    0  501  502 -0.00000000000E+00 -0.00000000000E+00 -0.65722537146E+03  0.65722537146E+03  0.00000000000E+00 0. -1.
         25    1    1    2    0    0  0.76936807616E+02  0.34483828958E+02 -0.14861035182E+03  0.21170366906E+03  0.12500000000E+03 0.  0.
         25    1    1    2    0    0  0.45953399951E+02 -0.58010046713E+02 -0.22757731724E+03  0.26998762158E+03  0.12500000000E+03 0.  0.
         25    1    1    2    0    0 -0.12289020757E+03  0.23526217755E+02 -0.19403006680E+03  0.26254171642E+03  0.12500000000E+03 0.  0.
</event>
<event>
 5    0  0.5550393E-005  0.5433257E+03  0.7546771E-02  0.1003051E+00
         21   -1    0    0  502  501  0.00000000000E+00  0.00000000000E+00  0.44209594501E+03  0.44209594501E+03  0.00000000000E+00 0.  1.
         21   -1    0    0  501  502 -0.00000000000E+00 -0.00000000000E+00 -0.66773462546E+03  0.66773462546E+03  0.00000000000E+00 0.  1.
         25    1    1    2    0    0 -0.20843525224E+03  0.43995645394E+03 -0.10168291559E+03  0.51280732353E+03  0.12500000000E+03 0.  0.
         25    1    1    2    0    0  0.10533924023E+03 -0.29062417148E+03  0.19630382373E+02  0.33401963489E+03  0.12500000000E+03 0.  0.
         25    1    1    2    0    0  0.10309601201E+03 -0.14933228247E+03 -0.14358614723E+03  0.26300361206E+03  0.12500000000E+03 0.  0.
</event>
<event>
 5    0  0.5550393E-005  0.2766745E+03  0.7546771E-02  0.1097519E+00
         21   -1    0    0  502  501  0.00000000000E+00  0.00000000000E+00  0.32752423668E+03  0.32752423668E+03  0.00000000000E+00 0. -1.
         21   -1    0    0  501  502 -0.00000000000E+00 -0.00000000000E+00 -0.23371943278E+03  0.23371943278E+03  0.00000000000E+00 0. -1.
         25    1    1    2    0    0 -0.54315785427E+02  0.64640722218E+02  0.10478605297E+02  0.15120657619E+03  0.12500000000E+03 0.  0.
         25    1    1    2    0    0 -0.95964420578E+02 -0.10552393996E+03  0.90638952657E+02  0.21020202582E+03  0.12500000000E+03 0.  0.
         25    1    1    2    0    0  0.15028020600E+03  0.40883217738E+02 -0.73127540538E+01  0.19983506745E+03  0.12500000000E+03 0.  0.
</event>
<event>
 5    0  0.8010245E-005  0.3698296E+03  0.7546771E-02  0.1054758E+00
         21   -1    0    0  502  501  0.00000000000E+00  0.00000000000E+00  0.25817453902E+03  0.25817453902E+03  0.00000000000E+00 0. -1.
         21   -1    0    0  501  502 -0.00000000000E+00 -0.00000000000E+00 -0.52977322040E+03  0.52977322040E+03  0.00000000000E+00 0. -1.
         25    1    1    2    0    0  0.19494260538E+02  0.23593629723E+03 -0.15001306776E+03  0.30687926460E+03  0.12500000000E+03 0.  0.
         25    1    1    2    0    0  0.12259479678E+03 -0.15361405371E+03 -0.14342924419E+03  0.27353922897E+03  0.12500000000E+03 0.  0.
         25    1    1    2    0    0 -0.14208905732E+03 -0.82322243519E+02  0.21843630567E+02  0.20752926585E+03  0.12500000000E+03 0.  0.
</event>
<event>
 5    0  0.5550393E-005  0.1987234E+03  0.7546771E-02  0.1150821E+00
         21   -1    0    0  502  501  0.00000000000E+00  0.00000000000E+00  0.53543540466E+02  0.53543540466E+02  0.00000000000E+00 0.  1.
         21   -1    0    0  501  502 -0.00000000000E+00 -0.00000000000E+00 -0.73754936753E+03  0.73754936753E+03  0.00000000000E+00 0.  1.
         25    1    1    2    0    0  0.25578415426E+02  0.40093694445E+02 -0.22775158498E+03  0.26411653514E+03  0.12500000000E+03 0.  0.
         25    1    1    2    0    0 -0.41317811870E+02 -0.10168699795E+02 -0.26397909173E+03  0.29516186221E+03  0.12500000000E+03 0.  0.
         25    1    1    2    0    0  0.15739396445E+02 -0.29924994651E+02 -0.19227515035E+03  0.23181451065E+03  0.12500000000E+03 0.  0.
</event>
<event>
 5    0  0.5550393E-005  0.2847251E+03  0.7546771E-02  0.1093136E+00
         21   -1    0    0  502  501  0.00000000000E+00  0.00000000000E+00  0.18445518863E+03  0.18445518863E+03  0.00000000000E+00 0. -1.
         21   -1    0    0  501  502 -0.00000000000E+00 -0.00000000000E+00 -0.43950177974E+03  0.43950177974E+03  0.00000000000E+00 0. -1.
         25    1    1    2    0    0  0.13880642656E+03 -0.24868484854E+02 -0.11643387788E+03  0.22151188120E+03  0.12500000000E+03 0.  0.
         25    1    1    2    0    0 -0.10732522404E+03  0.13057558001E+03 -0.91015690783E+02  0.22907977165E+03  0.12500000000E+03 0.  0.
         25    1    1    2    0    0 -0.31481202525E+02 -0.10570709515E+03 -0.47597022445E+02  0.17336531552E+03  0.12500000000E+03 0.  0.
</event>
<event>
 5    0  0.5550393E-005  0.6343865E+03  0.7546771E-02  0.9836526E-01
         21   -1    0    0  502  501  0.00000000000E+00  0.00000000000E+00  0.40812917593E+03  0.40812917593E+03  0.00000000000E+00 0.  1.
         21   -1    0    0  501  502 -0.00000000000E+00 -0.00000000000E+00 -0.98607568231E+03  0.98607568231E+03  0.00000000000E+00 0.  1.
         25    1    1    2    0    0 -0.37295830387E+03 -0.41953530500E+03 -0.29146348731E+03  0.64473539766E+03  0.12500000000E+03 0.  0.
         25    1    1    2    0    0  0.30918101519E+02  0.19868949108E+03 -0.10492748678E+01  0.23676896723E+03  0.12500000000E+03 0.  0.
         25    1    1    2    0    0  0.34204020235E+03  0.22084581392E+03 -0.28543374420E+03  0.51270049335E+03  0.12500000000E+03 0.  0.
</event>
<event>
 5    0  0.5550393E-005  0.3846327E+03  0.7546771E-02  0.1049235E+00
         21   -1    0    0  502  501  0.00000000000E+00  0.00000000000E+00  0.41206890976E+03  0.41206890976E+03  0.00000000000E+00 0.  1.
         21   -1    0    0  501  502 -0.00000000000E+00 -0.00000000000E+00 -0.35902327734E+03  0.35902327734E+03  0.00000000000E+00 0.  1.
         25    1    1    2    0    0 -0.17980173858E+03  0.30310695971E+01  0.28256291205E+03  0.35749776481E+03  0.12500000000E+03 0.  0.
         25    1    1    2    0    0  0.16886085736E+03 -0.52686472675E+01 -0.18635258896E+03  0.28088082029E+03  0.12500000000E+03 0.  0.
         25    1    1    2    0    0  0.10940881214E+02  0.22375776704E+01 -0.43164690678E+02  0.13271360200E+03  0.12500000000E+03 0.  0.
</event>
<event>
 5    0  0.5550393E-005  0.2643319E+03  0.7546771E-02  0.1104568E+00
         21   -1    0    0  502  501  0.00000000000E+00  0.00000000000E+00  0.71429913668E+03  0.71429913668E+03  0.00000000000E+00 0. -1.
         21   -1    0    0  501  502 -0.00000000000E+00 -0.00000000000E+00 -0.97818020594E+02  0.97818020594E+02  0.00000000000E+00 0. -1.
         25    1    1    2    0    0 -0.58872318708E+01 -0.15931177970E+03  0.34465330735E+03  0.39978219685E+03  0.12500000000E+03 0.  0.
         25    1    1    2    0    0 -0.25554704910E+02  0.38272030684E+02  0.11400337853E+03  0.17532701330E+03  0.12500000000E+03 0.  0.
         25    1    1    2    0    0  0.31441936780E+02  0.12103974902E+03  0.15782443021E+03  0.23700794713E+03  0.12500000000E+03 0.  0.
</event>
<event>
 5    0  0.5550393E-005  0.3185769E+03  0.7546771E-02  0.1076306E+00
         21   -1    0    0  502  501  0.00000000000E+00  0.00000000000E+00  0.63591904607E+02  0.63591904607E+02  0.00000000000E+00 0.  1.
         21   -1    0    0  501  502 -0.00000000000E+00 -0.00000000000E+00 -0.15959771043E+04  0.15959771043E+04  0.00000000000E+00 0.  1.
         25    1    1    2    0    0  0.28710777125E+01  0.83441244268E+02 -0.60558904263E+03  0.62396616325E+03  0.12500000000E+03 0.  0.
         25    1    1    2    0    0 -0.47917608652E+01  0.14324331344E+03 -0.27567471119E+03  0.33490768013E+03  0.12500000000E+03 0.  0.
         25    1    1    2    0    0  0.19206831527E+01 -0.22668455770E+03 -0.65112144591E+03  0.70069516557E+03  0.12500000000E+03 0.  0.
</event>
<event>
 5    0  0.5550393E-005  0.2693905E+03  0.7546771E-02  0.1101629E+00
         21   -1    0    0  502  501  0.00000000000E+00  0.00000000000E+00  0.45081531166E+03  0.45081531166E+03  0.00000000000E+00 0. -1.
         21   -1    0    0  501  502 -0.00000000000E+00 -0.00000000000E+00 -0.16097772811E+03  0.16097772811E+03  0.00000000000E+00 0. -1.
         25    1    1    2    0    0  0.86212691415E+02  0.83486116067E+01  0.24358595002E+03  0.28716100453E+03  0.12500000000E+03 0.  0.
         25    1    1    2    0    0 -0.92717099139E+02  0.54955264810E+02  0.75257283171E+02  0.18139790592E+03  0.12500000000E+03 0.  0.
         25    1    1    2    0    0  0.65044077234E+01 -0.63303876417E+02 -0.29005649646E+02  0.14323412932E+03  0.12500000000E+03 0.  0.
</event>
<event>
 5    0  0.5550393E-005  0.3991008E+03  0.7546771E-02  0.1044091E+00
         21   -1    0    0  502  501  0.00000000000E+00  0.00000000000E+00  0.41779151371E+03  0.41779151371E+03  0.00000000000E+00 0.  1.
         21   -1    0    0  501  502 -0.00000000000E+00 -0.00000000000E+00 -0.38124621340E+03  0.38124621340E+03  0.00000000000E+00 0.  1.
         25    1    1    2    0    0 -0.20690042860E+03  0.46104754771E+01 -0.18420620878E+03  0.30395060650E+03  0.12500000000E+03 0.  0.
         25    1    1    2    0    0 -0.36279825501E+02 -0.67323599094E+02  0.15222649415E+02  0.14732760023E+03  0.12500000000E+03 0.  0.
         25    1    1    2    0    0  0.24318025410E+03  0.62713123617E+02  0.20552885968E+03  0.34775952039E+03  0.12500000000E+03 0.  0.
</event>
<event>
 5    0  0.5550393E-005  0.2080990E+03  0.7546771E-02  0.1143080E+00
         21   -1    0    0  502  501  0.00000000000E+00  0.00000000000E+00  0.47658622091E+02  0.47658622091E+02  0.00000000000E+00 0.  1.
         21   -1    0    0  501  502 -0.00000000000E+00 -0.00000000000E+00 -0.90865412555E+03  0.90865412555E+03  0.00000000000E+00 0.  1.
         25    1    1    2    0    0  0.25410543355E+02 -0.17135023369E+01 -0.36124635702E+03  0.38310907358E+03  0.12500000000E+03 0.  0.
         25    1    1    2    0    0 -0.36960034106E+02  0.29126710293E+02 -0.15130326299E+03  0.20182191845E+03  0.12500000000E+03 0.  0.
         25    1    1    2    0    0  0.11549490751E+02 -0.27413207956E+02 -0.34844588345E+03  0.37138175561E+03  0.12500000000E+03 0.  0.
</event>
<event>
 5    0  0.5550393E-005  0.3194261E+03  0.7546771E-02  0.1075914E+00
         21   -1    0    0  502  501  0.00000000000E+00  0.00000000000E+00  0.13630166972E+04  0.13630166972E+04  0.00000000000E+00 0.  1.
         21   -1    0    0  501  502 -0.00000000000E+00 -0.00000000000E+00 -0.74858222781E+02  0.74858222781E+02  0.00000000000E+00 0.  1.
         25    1    1    2    0    0  0.21694810275E+03 -0.55729498453E+02  0.42066821611E+03  0.49270579896E+03  0.12500000000E+03 0.  0.
         25    1    1    2    0    0 -0.75840399910E+02  0.12004523095E+02  0.18687378775E+03  0.23757669790E+03  0.12500000000E+03 0.  0.
         25    1    1    2    0    0 -0.14110770285E+03  0.43724975358E+02  0.68061647058E+03  0.70759242315E+03  0.12500000000E+03 0.  0.
</event>
<event>
 5    0  0.5550393E-005  0.3023584E+03  0.7546771E-02  0.1084068E+00
         21   -1    0    0  502  501  0.00000000000E+00  0.00000000000E+00  0.10912219796E+03  0.10912219796E+03  0.00000000000E+00 0. -1.
         21   -1    0    0  501  502 -0.00000000000E+00 -0.00000000000E+00 -0.83778168029E+03  0.83778168029E+03  0.00000000000E+00 0. -1.
         25    1    1    2    0    0  0.71796562591E+02  0.64753835315E+02 -0.50518493475E+03  0.52932468664E+03  0.12500000000E+03 0.  0.
         25    1    1    2    0    0  0.23897656595E+02  0.40555675500E+02 -0.17844799621E+03  0.22290030991E+03  0.12500000000E+03 0.  0.
         25    1    1    2    0    0 -0.95694219186E+02 -0.10530951081E+03 -0.45026551367E+02  0.19467888170E+03  0.12500000000E+03 0.  0.
</event>
<event>
 5    0  0.5550393E-005  0.6178330E+03  0.7546771E-02  0.9869084E-01
         21   -1    0    0  502  501  0.00000000000E+00  0.00000000000E+00  0.53374667005E+03  0.53374667005E+03  0.00000000000E+00 0. -1.
         21   -1    0    0  501  502 -0.00000000000E+00 -0.00000000000E+00 -0.71516635470E+03  0.71516635470E+03  0.00000000000E+00 0. -1.
         25    1    1    2    0    0  0.37378220609E+02  0.41245167313E+03 -0.46841572618E+03  0.63761415180E+03  0.12500000000E+03 0.  0.
         25    1    1    2    0    0  0.95496060873E+02 -0.14019349534E+03  0.13318384588E+03  0.24927224190E+03  0.12500000000E+03 0.  0.
         25    1    1    2    0    0 -0.13287428148E+03 -0.27225817779E+03  0.15381219565E+03  0.36202663104E+03  0.12500000000E+03 0.  0.
</event>
<event>
 5    0  0.5550393E-005  0.2690110E+03  0.7546771E-02  0.1101847E+00
         21   -1    0    0  502  501  0.00000000000E+00  0.00000000000E+00  0.22817434041E+04  0.22817434041E+04  0.00000000000E+00 0.  1.
         21   -1    0    0  501  502 -0.00000000000E+00 -0.00000000000E+00 -0.31715626112E+02  0.31715626112E+02  0.00000000000E+00 0.  1.
         25    1    1    2    0    0 -0.79709208140E+02  0.89759592586E+02  0.35240368290E+03  0.39271325168E+03  0.12500000000E+03 0.  0.
         25    1    1    2    0    0  0.54455275629E+02 -0.20701203936E+02  0.12204255834E+04  0.12281927868E+04  0.12500000000E+03 0.  0.
         25    1    1    2    0    0  0.25253932511E+02 -0.69058388650E+02  0.67719851174E+03  0.69255299181E+03  0.12500000000E+03 0.  0.
</event>
<event>
 5    0  0.5550393E-005  0.2655749E+03  0.7546771E-02  0.1103839E+00
         21   -1    0    0  502  501  0.00000000000E+00  0.00000000000E+00  0.32572288458E+03  0.32572288458E+03  0.00000000000E+00 0. -1.
         21   -1    0    0  501  502 -0.00000000000E+00 -0.00000000000E+00 -0.21653392139E+03  0.21653392139E+03  0.00000000000E+00 0. -1.
         25    1    1    2    0    0 -0.98430900219E+01 -0.16383029471E+03  0.89759919704E+02  0.22498687755E+03  0.12500000000E+03 0.  0.
         25    1    1    2    0    0  0.19329442200E+01  0.13998396529E+03 -0.35554030013E+01  0.18771491071E+03  0.12500000000E+03 0.  0.
         25    1    1    2    0    0  0.79101458019E+01  0.23846329412E+02  0.22984446491E+02  0.12955501771E+03  0.12500000000E+03 0.  0.
</event>
<event>
 5    0  0.5550393E-005  0.2629434E+03  0.7546771E-02  0.1105388E+00
         21   -1    0    0  502  501  0.00000000000E+00  0.00000000000E+00  0.71809724048E+03  0.71809724048E+03  0.00000000000E+00 0. -1.
         21   -1    0    0  501  502 -0.00000000000E+00 -0.00000000000E+00 -0.96281170539E+02  0.96281170539E+02  0.00000000000E+00 0. -1.
         25    1    1    2    0    0 -0.10061454337E+03 -0.11288865002E+03  0.13420284852E+03  0.23770262555E+03  0.12500000000E+03 0.  0.
         25    1    1    2    0    0  0.12630199709E+01  0.55099087587E+02  0.18979011621E+03  0.23384352221E+03  0.12500000000E+03 0.  0.
         25    1    1    2    0    0  0.99351523398E+02  0.57789562437E+02  0.29782310522E+03  0.34283226326E+03  0.12500000000E+03 0.  0.
</event>
<event>
 5    0  0.5550393E-005  0.3107749E+03  0.7546771E-02  0.1079975E+00
         21   -1    0    0  502  501  0.00000000000E+00  0.00000000000E+00  0.50416635281E+03  0.50416635281E+03  0.00000000000E+00 0. -1.
         21   -1    0    0  501  502 -0.00000000000E+00 -0.00000000000E+00 -0.19156586664E+03  0.19156586664E+03  0.00000000000E+00 0. -1.
         25    1    1    2    0    0  0.66530519897E+02  0.12433548737E+03  0.34643901466E+02  0.19160068738E+03  0.12500000000E+03 0.  0.
         25    1    1    2    0    0 -0.13242819021E+03  0.41522308226E+02  0.60596462698E+02  0.19636257010E+03  0.12500000000E+03 0.  0.
         25    1    1    2    0    0  0.65897670318E+02 -0.16585779560E+03  0.21736012201E+03  0.30776896197E+03  0.12500000000E+03 0.  0.
</event>
<event>
 5    0  0.5550393E-005  0.2457854E+03  0.7546771E-02  0.1115998E+00
         21   -1    0    0  502  501  0.00000000000E+00  0.00000000000E+00  0.67624324967E+03  0.67624324967E+03  0.00000000000E+00 0. -1.
         21   -1    0    0  501  502 -0.00000000000E+00 -0.00000000000E+00 -0.89332421949E+02  0.89332421949E+02  0.00000000000E+00 0. -1.
         25    1    1    2    0    0  0.35568744865E+02  0.78276308723E+02  0.86008311452E+02  0.17439823897E+03  0.12500000000E+03 0.  0.
         25    1    1    2    0    0  0.58221060045E+02 -0.56862917041E+02  0.18130920114E+03  0.23477885251E+03  0.12500000000E+03 0.  0.
         25    1    1    2    0    0 -0.93789804909E+02 -0.21413391682E+02  0.31959331513E+03  0.35639858014E+03  0.12500000000E+03 0.  0.
</event>
<event>
 5    0  0.5550393E-005  0.3349792E+03  0.7546771E-02  0.1068955E+00
         21   -1    0    0  502  501  0.00000000000E+00  0.00000000000E+00  0.12163883046E+04  0.12163883046E+04  0.00000000000E+00 0. -1.
         21   -1    0    0  501  502 -0.00000000000E+00 -0.00000000000E+00 -0.92249389894E+02  0.92249389894E+02  0.00000000000E+00 0. -1.
         25    1    1    2    0    0 -0.88069711697E+02 -0.37435101912E+02  0.35343611962E+03  0.38691052147E+03  0.12500000000E+03 0.  0.
         25    1    1    2    0    0  0.16125425098E+03  0.55426666384E+02  0.74385450750E+03  0.77331725517E+03  0.12500000000E+03 0.  0.
         25    1    1    2    0    0 -0.73184539288E+02 -0.17991564472E+02  0.26848287630E+02  0.14840991790E+03  0.12500000000E+03 0.  0.
</event>
<event>
 5    0  0.6476732E-005  0.2607557E+03  0.7546771E-02  0.1106690E+00
         21   -1    0    0  502  501  0.00000000000E+00  0.00000000000E+00  0.24763248946E+03  0.24763248946E+03  0.00000000000E+00 0. -1.
         21   -1    0    0  501  502 -0.00000000000E+00 -0.00000000000E+00 -0.27457445864E+03  0.27457445864E+03  0.00000000000E+00 0. -1.
         25    1    1    2    0    0  0.10896579141E+02  0.90673844928E+02  0.12990578238E+03  0.20209154828E+03  0.12500000000E+03 0.  0.
         25    1    1    2    0    0 -0.57982219962E+01 -0.89561456507E+02 -0.83067557563E+02  0.17487164719E+03  0.12500000000E+03 0.  0.
         25    1    1    2    0    0 -0.50983571443E+01 -0.11123884207E+01 -0.73780193990E+02  0.14524375263E+03  0.12500000000E+03 0.  0.
</event>
<event>
 5    0  0.6626137E-005  0.4162134E+03  0.7546771E-02  0.1038306E+00
         21   -1    0    0  502  501  0.00000000000E+00  0.00000000000E+00  0.81850063608E+03  0.81850063608E+03  0.00000000000E+00 0. -1.
         21   -1    0    0  501  502 -0.00000000000E+00 -0.00000000000E+00 -0.21164747209E+03  0.21164747209E+03  0.00000000000E+00 0. -1.
         25    1    1    2    0    0 -0.19577941899E+03 -0.75154751698E+02  0.97147039384E+02  0.26275533270E+03  0.12500000000E+03 0.  0.
         25    1    1    2    0    0  0.20455669506E+03 -0.10708579298E+03  0.47608930399E+03  0.54368817710E+03  0.12500000000E+03 0.  0.
         25    1    1    2    0    0 -0.87772760646E+01  0.18224054468E+03  0.33616820628E+02  0.22370459836E+03  0.12500000000E+03 0.  0.
</event>
<event>
 5    0  0.5550393E-005  0.4773293E+03  0.7546771E-02  0.1019872E+00
         21   -1    0    0  502  501  0.00000000000E+00  0.00000000000E+00  0.29155322495E+03  0.29155322495E+03  0.00000000000E+00 0.  1.
         21   -1    0    0  501  502 -0.00000000000E+00 -0.00000000000E+00 -0.78148078414E+03  0.78148078414E+03  0.00000000000E+00 0.  1.
         25    1    1    2    0    0  0.11858931962E+03 -0.28587783639E+03 -0.15449294211E+03  0.36780787543E+03  0.12500000000E+03 0.  0.
         25    1    1    2    0    0 -0.21082705225E+03  0.36883886455E+03 -0.21841777767E+03  0.49378282632E+03  0.12500000000E+03 0.  0.
         25    1    1    2    0    0  0.92237732633E+02 -0.82961028159E+02 -0.11701683940E+03  0.21144330734E+03  0.12500000000E+03 0.  0.
</event>
<event>
 5    0  0.5962599E-005  0.3115170E+03  0.7546771E-02  0.1079621E+00
         21   -1    0    0  502  501  0.00000000000E+00  0.00000000000E+00  0.23398608624E+03  0.23398608624E+03  0.00000000000E+00 0.  1.
         21   -1    0    0  501  502 -0.00000000000E+00 -0.00000000000E+00 -0.41473761061E+03  0.41473761061E+03  0.00000000000E+00 0.  1.
         25    1    1    2    0    0  0.46056996613E+02 -0.10864390764E+02  0.70963804370E+02  0.15132793349E+03  0.12500000000E+03 0.  0.
         25    1    1    2    0    0 -0.97485701818E+02  0.99286620304E+02 -0.27666530593E+03  0.33396105542E+03  0.12500000000E+03 0.  0.
         25    1    1    2    0    0  0.51428705205E+02 -0.88422229540E+02  0.24949977192E+02  0.16343470793E+03  0.12500000000E+03 0.  0.
</event>
<event>
 5    0  0.5550393E-005  0.2490119E+03  0.7546771E-02  0.1113931E+00
         21   -1    0    0  502  501  0.00000000000E+00  0.00000000000E+00  0.69502636730E+03  0.69502636730E+03  0.00000000000E+00 0. -1.
         21   -1    0    0  501  502 -0.00000000000E+00 -0.00000000000E+00 -0.89215247078E+02  0.89215247078E+02  0.00000000000E+00 0. -1.
         25    1    1    2    0    0 -0.90132300626E+01 -0.98162162570E+02  0.19987195595E+03  0.25552073742E+03  0.12500000000E+03 0.  0.
         25    1    1    2    0    0 -0.20935734754E+02  0.13286608591E+02  0.33638209739E+03  0.35971204373E+03  0.12500000000E+03 0.  0.
         25    1    1    2    0    0  0.29948964817E+02  0.84875553979E+02  0.69557066881E+02  0.16900883323E+03  0.12500000000E+03 0.  0.
</event>
<event>
 5    0  0.5550393E-005  0.3085337E+03  0.7546771E-02  0.1081051E+00
         21   -1    0    0  502  501  0.00000000000E+00  0.00000000000E+00  0.13398146815E+04  0.13398146815E+04  0.00000000000E+00 0.  1.
         21   -1    0    0  501  502 -0.00000000000E+00 -0.00000000000E+00 -0.71049406341E+02  0.71049406341E+02  0.00000000000E+00 0.  1.
         25    1    1    2    0    0 -0.69831190303E+02  0.21307265833E+03  0.57979463790E+03  0.63408451724E+03  0.12500000000E+03 0.  0.
         25    1    1    2    0    0 -0.15755347828E+02 -0.14589580301E+03  0.38548506637E+03  0.43099600081E+03  0.12500000000E+03 0.  0.
         25    1    1    2    0    0  0.85586538132E+02 -0.67176855321E+02  0.30348557090E+03  0.34578356980E+03  0.12500000000E+03 0.  0.
</event>
<event>
 5    0  0.5550393E-005  0.3526563E+03  0.7546771E-02  0.1061530E+00
         21   -1    0    0  502  501  0.00000000000E+00  0.00000000000E+00  0.44250088366E+03  0.44250088366E+03  0.00000000000E+00 0. -1.
         21   -1    0    0  501  502 -0.00000000000E+00 -0.00000000000E+00 -0.28105362028E+03  0.28105362028E+03  0.00000000000E+00 0. -1.
         25    1    1    2    0    0 -0.21322744485E+03 -0.11252168251E+03  0.11462809652E+02  0.27181513621E+03  0.12500000000E+03 0.  0.
         25    1    1    2    0    0  0.82571144523E+02  0.17737718847E+03  0.10288004597E+03  0.25394874435E+03  0.12500000000E+03 0.  0.
         25    1    1    2    0    0  0.13065630032E+03 -0.64855505959E+02  0.47104407756E+02  0.19779062338E+03  0.12500000000E+03 0.  0.
</event>
<event>
 5    0  0.5550393E-005  0.2843161E+03  0.7546771E-02  0.1093355E+00
         21   -1    0    0  502  501  0.00000000000E+00  0.00000000000E+00  0.18620419121E+04  0.18620419121E+04  0.00000000000E+00 0. -1.
         21   -1    0    0  501  502 -0.00000000000E+00 -0.00000000000E+00 -0.43412362877E+02  0.43412362877E+02  0.00000000000E+00 0.  1.
         25    1    1    2    0    0  0.13625660825E+03 -0.26561894958E+02  0.46037146186E+03  0.49682822026E+03  0.12500000000E+03 0.  0.
         25    1    1    2    0    0 -0.15364962007E+03  0.22946217050E+02  0.11328706412E+04  0.11502850187E+04  0.12500000000E+03 0.  0.
         25    1    1    2    0    0  0.17393011823E+02  0.36156779080E+01  0.22538744619E+03  0.25834103601E+03  0.12500000000E+03 0.  0.
</event>
<event>
 5    0  0.5550393E-005  0.3624150E+03  0.7546771E-02  0.1057632E+00
         21   -1    0    0  502  501  0.00000000000E+00  0.00000000000E+00  0.10472034174E+04  0.10472034174E+04  0.00000000000E+00 0. -1.
         21   -1    0    0  501  502 -0.00000000000E+00 -0.00000000000E+00 -0.12542419838E+03  0.12542419838E+03  0.00000000000E+00 0. -1.
         25    1    1    2    0    0  0.80486475676E+02  0.22177659513E+03  0.25225296132E+03  0.36731388131E+03  0.12500000000E+03 0.  0.
         25    1    1    2    0    0 -0.13023791213E+03 -0.24246915951E+03  0.38151719735E+03  0.48675823459E+03  0.12500000000E+03 0.  0.
         25    1    1    2    0    0  0.49751436453E+02  0.20692564380E+02  0.28800906035E+03  0.31855549987E+03  0.12500000000E+03 0.  0.
</event>
<event>
 5    0  0.5550393E-005  0.3252815E+03  0.7546771E-02  0.1073244E+00
         21   -1    0    0  502  501  0.00000000000E+00  0.00000000000E+00  0.11898529556E+03  0.11898529556E+03  0.00000000000E+00 0. -1.
         21   -1    0    0  501  502 -0.00000000000E+00 -0.00000000000E+00 -0.88925327546E+03  0.88925327546E+03  0.00000000000E+00 0. -1.
         25    1    1    2    0    0 -0.49122918788E+01 -0.70759546604E+02 -0.36679713018E+03  0.39394946219E+03  0.12500000000E+03 0.  0.
         25    1    1    2    0    0 -0.56932024896E+02  0.80785404430E+02  0.27051854775E+02  0.16163025668E+03  0.12500000000E+03 0.  0.
         25    1    1    2    0    0  0.61844316775E+02 -0.10025857826E+02 -0.43052270450E+03  0.45265885215E+03  0.12500000000E+03 0.  0.
</event>
<event>
 5    0  0.5550393E-005  0.2514165E+03  0.7546771E-02  0.1112413E+00
         21   -1    0    0  502  501  0.00000000000E+00  0.00000000000E+00  0.12007130191E+04  0.12007130191E+04  0.00000000000E+00 0.  1.
         21   -1    0    0  501  502 -0.00000000000E+00 -0.00000000000E+00 -0.52643923017E+02  0.52643923017E+02  0.00000000000E+00 0.  1.
         25    1    1    2    0    0  0.10372009658E+03  0.55756476186E+02  0.26036845132E+03  0.31190282704E+03  0.12500000000E+03 0.  0.
         25    1    1    2    0    0 -0.73213299750E+02 -0.38471989930E+02  0.68150389818E+03  0.69779140472E+03  0.12500000000E+03 0.  0.
         25    1    1    2    0    0 -0.30506796834E+02 -0.17284486256E+02  0.20619674660E+03  0.24366271037E+03  0.12500000000E+03 0.  0.
</event>
<event>
 5    0  0.5550393E-005  0.3289438E+03  0.7546771E-02  0.1071605E+00
         21   -1    0    0  502  501  0.00000000000E+00  0.00000000000E+00  0.30059533284E+03  0.30059533284E+03  0.00000000000E+00 0.  1.
         21   -1    0    0  501  502 -0.00000000000E+00 -0.00000000000E+00 -0.35996564474E+03  0.35996564474E+03  0.00000000000E+00 0.  1.
         25    1    1    2    0    0  0.24747118803E+02  0.35019535668E+02 -0.91940063062E+02  0.16098684096E+03  0.12500000000E+03 0.  0.
         25    1    1    2    0    0 -0.10356810589E+03 -0.27286865200E+02  0.21109809326E+03  0.26769073676E+03  0.12500000000E+03 0.  0.
         25    1    1    2    0    0  0.78820987085E+02 -0.77326704681E+01 -0.17852834209E+03  0.23188339985E+03  0.12500000000E+03 0.  0.
</event>
<event>
 5    0  0.5550393E-005  0.2379441E+03  0.7546771E-02  0.1121170E+00
         21   -1    0    0  502  501  0.00000000000E+00  0.00000000000E+00  0.83049697661E+03  0.83049697661E+03  0.00000000000E+00 0.  1.
         21   -1    0    0  501  502 -0.00000000000E+00 -0.00000000000E+00 -0.68172936745E+02  0.68172936745E+02  0.00000000000E+00 0.  1.
         25    1    1    2    0    0  0.20342370828E+02  0.99802471697E+02  0.20631495677E+03  0.26184958811E+03  0.12500000000E+03 0.  0.
         25    1    1    2    0    0 -0.26224958315E+02 -0.89872746578E+02  0.43610652204E+03  0.46322646469E+03  0.12500000000E+03 0.  0.
         25    1    1    2    0    0  0.58825874874E+01 -0.99297251191E+01  0.11990256105E+03  0.17359386056E+03  0.12500000000E+03 0.  0.
</event>
<event>
 5    0  0.5550393E-005  0.3172178E+03  0.7546771E-02  0.1076937E+00
         21   -1    0    0  502  501  0.00000000000E+00  0.00000000000E+00  0.52675837405E+03  0.52675837405E+03  0.00000000000E+00 0. -1.
         21   -1    0    0  501  502 -0.00000000000E+00 -0.00000000000E+00 -0.19103095792E+03  0.19103095792E+03  0.00000000000E+00 0. -1.
         25    1    1    2    0    0 -0.65294218974E+02  0.16783808388E+03  0.25686650560E+01  0.21923630053E+03  0.12500000000E+03 0.  0.
         25    1    1    2    0    0 -0.54143667247E+02 -0.13169047887E+03  0.21220028026E+03  0.28447825553E+03  0.12500000000E+03 0.  0.
         25    1    1    2    0    0  0.11943788622E+03 -0.36147605006E+02  0.12095847082E+03  0.21407477590E+03  0.12500000000E+03 0.  0.
</event>
<event>
 5    0  0.5550393E-005  0.2582471E+03  0.7546771E-02  0.1108201E+00
         21   -1    0    0  502  501  0.00000000000E+00  0.00000000000E+00  0.77643846341E+03  0.77643846341E+03  0.00000000000E+00 0.  1.
         21   -1    0    0  501  502 -0.00000000000E+00 -0.00000000000E+00 -0.85894204996E+02  0.85894204996E+02  0.00000000000E+00 0.  1.
         25    1    1    2    0    0 -0.94283070624E+02 -0.66343311138E+02  0.24369518425E+03  0.29715833349E+03  0.12500000000E+03 0.  0.
         25    1    1    2    0    0  0.14521723032E+03  0.11129839124E+02  0.19156708973E+03  0.27117313136E+03  0.12500000000E+03 0.  0.
         25    1    1    2    0    0 -0.50934159699E+02  0.55213472014E+02  0.25528198444E+03  0.29400120356E+03  0.12500000000E+03 0.  0.
</event>
<event>
 5    0  0.5550393E-005  0.2989083E+03  0.7546771E-02  0.1085788E+00
         21   -1    0    0  502  501  0.00000000000E+00  0.00000000000E+00  0.52576319243E+02  0.52576319243E+02  0.00000000000E+00 0.  1.
         21   -1    0    0  501  502 -0.00000000000E+00 -0.00000000000E+00 -0.16993611047E+04  0.16993611047E+04  0.00000000000E+00 0.  1.
         25    1    1    2    0    0 -0.15989299886E+03  0.14634027946E+03 -0.80182716539E+03  0.83996014884E+03  0.12500000000E+03 0.  0.
         25    1    1    2    0    0  0.13100547810E+03 -0.79080002239E+02 -0.51605930639E+03  0.55259233595E+03  0.12500000000E+03 0.  0.
         25    1    1    2    0    0  0.28887520758E+02 -0.67260277217E+02 -0.32889831366E+03  0.35938493913E+03  0.12500000000E+03 0.  0.
</event>
<event>
 5    0  0.5728306E-005  0.3585463E+03  0.7546771E-02  0.1059161E+00
         21   -1    0    0  502  501  0.00000000000E+00  0.00000000000E+00  0.64228764929E+03  0.64228764929E+03  0.00000000000E+00 0. -1.
         21   -1    0    0  501  502 -0.00000000000E+00 -0.00000000000E+00 -0.20015247677E+03  0.20015247677E+03  0.00000000000E+00 0. -1.
         25    1    1    2    0    0 -0.16959057457E+03 -0.99267696941E+01  0.87347885774E+02  0.22828525333E+03  0.12500000000E+03 0.  0.
         25    1    1    2    0    0 -0.77600035469E+02  0.95853819435E+02  0.25057875988E+03  0.30598110254E+03  0.12500000000E+03 0.  0.
         25    1    1    2    0    0  0.24719061003E+03 -0.85927049741E+02  0.10420852686E+03  0.30817377020E+03  0.12500000000E+03 0.  0.
</event>
<event>
 5    0  0.5550393E-005  0.6624335E+03  0.7546771E-02  0.9783724E-01
         21   -1    0    0  502  501  0.00000000000E+00  0.00000000000E+00  0.31378837302E+03  0.31378837302E+03  0.00000000000E+00 0.  1.
         21   -1    0    0  501  502 -0.00000000000E+00 -0.00000000000E+00 -0.13984526601E+04  0.13984526601E+04  0.00000000000E+00 0.  1.
         25    1    1    2    0    0 -0.19514813506E+02  0.12827975685E+03 -0.62007703155E+01  0.18027749032E+03  0.12500000000E+03 0.  0.
         25    1    1    2    0    0 -0.20267029006E+03  0.39980528632E+03 -0.67621298301E+03  0.82085839938E+03  0.12500000000E+03 0.  0.
         25    1    1    2    0    0  0.22218510357E+03 -0.52808504317E+03 -0.40225053371E+03  0.71110514338E+03  0.12500000000E+03 0.  0.
</event>
<event>
 5    0  0.5550393E-005  0.2770192E+03  0.7546771E-02  0.1097328E+00
         21   -1    0    0  502  501  0.00000000000E+00  0.00000000000E+00  0.14304497722E+03  0.14304497722E+03  0.00000000000E+00 0.  1.
         21   -1    0    0  501  502 -0.00000000000E+00 -0.00000000000E+00 -0.53647191579E+03  0.53647191579E+03  0.00000000000E+00 0.  1.
         25    1    1    2    0    0 -0.36299368261E+02  0.10284650883E+03 -0.27364760483E+03  0.32000478144E+03  0.12500000000E+03 0.  0.
         25    1    1    2    0    0  0.99339011312E+02 -0.12184418905E+02 -0.10625293187E+03  0.19217540103E+03  0.12500000000E+03 0.  0.
         25    1    1    2    0    0 -0.63039643051E+02 -0.90662089924E+02 -0.13526401882E+02  0.16733671054E+03  0.12500000000E+03 0.  0.
</event>
<event>
 5    0  0.5550393E-005  0.3052666E+03  0.7546771E-02  0.1082637E+00
         21   -1    0    0  502  501  0.00000000000E+00  0.00000000000E+00  0.24794429508E+03  0.24794429508E+03  0.00000000000E+00 0.  1.
         21   -1    0    0  501  502 -0.00000000000E+00 -0.00000000000E+00 -0.37584114965E+03  0.37584114965E+03  0.00000000000E+00 0.  1.
         25    1    1    2    0    0 -0.13326432486E+03 -0.96853618595E+02  0.88781992826E+01  0.20698750237E+03  0.12500000000E+03 0.  0.
         25    1    1    2    0    0  0.61547302494E+02  0.16721669946E+03 -0.13556265366E+03  0.25642099775E+03  0.12500000000E+03 0.  0.
         25    1    1    2    0    0  0.71717022370E+02 -0.70363080861E+02 -0.12124001945E+01  0.16037694460E+03  0.12500000000E+03 0.  0.
</event>
<event>
 5    0  0.5550393E-005  0.2411665E+03  0.7546771E-02  0.1119018E+00
         21   -1    0    0  502  501  0.00000000000E+00  0.00000000000E+00  0.58592244425E+02  0.58592244425E+02  0.00000000000E+00 0.  1.
         21   -1    0    0  501  502 -0.00000000000E+00 -0.00000000000E+00 -0.99264473343E+03  0.99264473343E+03  0.00000000000E+00 0.  1.
         25    1    1    2    0    0 -0.11274675138E+02 -0.79459754118E+02 -0.18229067082E+03  0.23515071655E+03  0.12500000000E+03 0.  0.
         25    1    1    2    0    0  0.69786946809E+02  0.10182191189E+03 -0.37177750842E+03  0.41119513063E+03  0.12500000000E+03 0.  0.
         25    1    1    2    0    0 -0.58512271671E+02 -0.22362157772E+02 -0.37998430977E+03  0.40489113068E+03  0.12500000000E+03 0.  0.
</event>
<event>
 5    0  0.5550393E-005  0.2829881E+03  0.7546771E-02  0.1094068E+00
         21   -1    0    0  502  501  0.00000000000E+00  0.00000000000E+00  0.28051604410E+03  0.28051604410E+03  0.00000000000E+00 0. -1.
         21   -1    0    0  501  502 -0.00000000000E+00 -0.00000000000E+00 -0.28548197962E+03  0.28548197962E+03  0.00000000000E+00 0. -1.
         25    1    1    2    0    0  0.12040973228E+03  0.98134601712E+02 -0.55969616522E+01  0.19946235149E+03  0.12500000000E+03 0.  0.
         25    1    1    2    0    0  0.51345672240E+02 -0.15772203953E+02 -0.21055201028E+02  0.13767157283E+03  0.12500000000E+03 0.  0.
         25    1    1    2    0    0 -0.17175540452E+03 -0.82362397760E+02  0.21686227168E+02  0.22886409940E+03  0.12500000000E+03 0.  0.
</event>
<event>
 5    0  0.5550393E-005  0.2968041E+03  0.7546771E-02  0.1086849E+00
         21   -1    0    0  502  501  0.00000000000E+00  0.00000000000E+00  0.54409187309E+03  0.54409187309E+03  0.00000000000E+00 0.  1.
         21   -1    0    0  501  502 -0.00000000000E+00 -0.00000000000E+00 -0.16190766846E+03  0.16190766846E+03  0.00000000000E+00 0.  1.
         25    1    1    2    0    0  0.22733879560E+02  0.80022786969E+01  0.22537675947E+02  0.12928191127E+03  0.12500000000E+03 0.  0.
         25    1    1    2    0    0 -0.88539301371E+02 -0.28055866739E+02 -0.32794771617E+02  0.15914407495E+03  0.12500000000E+03 0.  0.
         25    1    1    2    0    0  0.65805421811E+02  0.20053588042E+02  0.39244130030E+03  0.41757355534E+03  0.12500000000E+03 0.  0.
</event>
<event>
 5    0  0.5550393E-005  0.3026366E+03  0.7546771E-02  0.1083930E+00
         21   -1    0    0  502  501  0.00000000000E+00  0.00000000000E+00  0.67644879796E+03  0.67644879796E+03  0.00000000000E+00 0. -1.
         21   -1    0    0  501  502 -0.00000000000E+00 -0.00000000000E+00 -0.13539663642E+03  0.13539663642E+03  0.00000000000E+00 0. -1.
         25    1    1    2    0    0  0.87461899243E+02  0.10852254126E+03  0.70033117752E+02  0.19989087864E+03  0.12500000000E+03 0.  0.
         25    1    1    2    0    0 -0.11467146850E+03 -0.59026959331E+02  0.43427417707E+03  0.46994977230E+03  0.12500000000E+03 0.  0.
         25    1    1    2    0    0  0.27209569255E+02 -0.49495581932E+02  0.36744866720E+02  0.14200478344E+03  0.12500000000E+03 0.  0.
</event>
<event>
 5    0  0.5550393E-005  0.4732089E+03  0.7546771E-02  0.1021018E+00
         21   -1    0    0  502  501  0.00000000000E+00  0.00000000000E+00  0.47552966409E+03  0.47552966409E+03  0.00000000000E+00 0. -1.
         21   -1    0    0  501  502 -0.00000000000E+00 -0.00000000000E+00 -0.47089941595E+03  0.47089941595E+03  0.00000000000E+00 0. -1.
         25    1    1    2    0    0 -0.28931485743E+03 -0.16281882738E+03  0.21571521176E+03  0.41517599866E+03  0.12500000000E+03 0.  0.
         25    1    1    2    0    0  0.15409960002E+03 -0.47688156961E+02 -0.12184250934E+03  0.23767928838E+03  0.12500000000E+03 0.  0.
         25    1    1    2    0    0  0.13521525740E+03  0.21050698434E+03 -0.89242454285E+02  0.29357379300E+03  0.12500000000E+03 0.  0.
</event>
<event>
 5    0  0.5550393E-005  0.4592386E+03  0.7546771E-02  0.1025002E+00
         21   -1    0    0  502  501  0.00000000000E+00  0.00000000000E+00  0.22124678283E+04  0.22124678283E+04  0.00000000000E+00 0. -1.
         21   -1    0    0  501  502 -0.00000000000E+00 -0.00000000000E+00 -0.95323449000E+02  0.95323449000E+02  0.00000000000E+00 0. -1.
         25    1    1    2    0    0  0.14187365353E+03 -0.24867743495E+03  0.83345010896E+03  0.89007453865E+03  0.12500000000E+03 0.  0.
         25    1    1    2    0    0  0.91417426097E+02  0.28114260707E+03  0.85026493209E+03  0.90883098871E+03  0.12500000000E+03 0.  0.
         25    1    1    2    0    0 -0.23329107963E+03 -0.32465172114E+02  0.43342933823E+03  0.50888574992E+03  0.12500000000E+03 0.  0.
</event>
<event>
 5    0  0.6233403E-005  0.2641586E+03  0.7546771E-02  0.1104670E+00
         21   -1    0    0  502  501  0.00000000000E+00  0.00000000000E+00  0.82753101502E+03  0.82753101502E+03  0.00000000000E+00 0. -1.
         21   -1    0    0  501  502 -0.00000000000E+00 -0.00000000000E+00 -0.84322817376E+02  0.84322817376E+02  0.00000000000E+00 0. -1.
         25    1    1    2    0    0 -0.41291642641E+02 -0.12073894041E+03  0.22001799410E+03  0.28340043968E+03  0.12500000000E+03 0.  0.
         25    1    1    2    0    0  0.56912044425E+02 -0.34610613689E+02  0.27827329972E+03  0.31224654476E+03  0.12500000000E+03 0.  0.
         25    1    1    2    0    0 -0.15620401784E+02  0.15534955410E+03  0.24491690383E+03  0.31620684795E+03  0.12500000000E+03 0.  0.
</event>
<event>
 5    0  0.5550393E-005  0.2583580E+03  0.7546771E-02  0.1108134E+00
         21   -1    0    0  502  501  0.00000000000E+00  0.00000000000E+00  0.11230311210E+04  0.11230311210E+04  0.00000000000E+00 0. -1.
         21   -1    0    0  501  502 -0.00000000000E+00 -0.00000000000E+00 -0.59436353739E+02  0.59436353739E+02  0.00000000000E+00 0. -1.
         25    1    1    2    0    0 -0.17261888901E+02 -0.59824043797E+02  0.18060602724E+03  0.22829898401E+03  0.12500000000E+03 0.  0.
         25    1    1    2    0    0  0.50243964463E+02  0.14325171736E+03  0.37560029552E+03  0.42396473024E+03  0.12500000000E+03 0.  0.
         25    1    1    2    0    0 -0.32982075562E+02 -0.83427673558E+02  0.50738844446E+03  0.53020376045E+03  0.12500000000E+03 0.  0.
</event>
<event>
 5    0  0.7868943E-005  0.4131451E+03  0.7546771E-02  0.1039321E+00
         21   -1    0    0  502  501  0.00000000000E+00  0.00000000000E+00  0.49457781732E+03  0.49457781732E+03  0.00000000000E+00 0.  1.
         21   -1    0    0  501  502 -0.00000000000E+00 -0.00000000000E+00 -0.34512037446E+03  0.34512037446E+03  0.00000000000E+00 0.  1.
         25    1    1    2    0    0  0.26830061756E+03 -0.10543826732E+03 -0.40139936712E+01  0.31423488308E+03  0.12500000000E+03 0.  0.
         25    1    1    2    0    0 -0.10102088590E+03  0.14679706519E+03 -0.58141492710E+02  0.22529986886E+03  0.12500000000E+03 0.  0.
         25    1    1    2    0    0 -0.16727973167E+03 -0.41358797871E+02  0.21161292924E+03  0.30016343983E+03  0.12500000000E+03 0.  0.
</event>
<event>
 5    0  0.5550393E-005  0.3242721E+03  0.7546771E-02  0.1073700E+00
         21   -1    0    0  502  501  0.00000000000E+00  0.00000000000E+00  0.19417912137E+03  0.19417912137E+03  0.00000000000E+00 0. -1.
         21   -1    0    0  501  502 -0.00000000000E+00 -0.00000000000E+00 -0.54152267857E+03  0.54152267857E+03  0.00000000000E+00 0. -1.
         25    1    1    2    0    0  0.55671508832E+02  0.36534380751E+02 -0.98089912247E+02  0.17228090073E+03  0.12500000000E+03 0.  0.
         25    1    1    2    0    0  0.12901370846E+03 -0.16408170508E+01  0.51966976098E+02  0.18701014907E+03  0.12500000000E+03 0.  0.
         25    1    1    2    0    0 -0.18468521729E+03 -0.34893563700E+02 -0.30122062105E+03  0.37641075014E+03  0.12500000000E+03 0.  0.
</event>
<event>
 5    0  0.5550393E-005  0.2976828E+03  0.7546771E-02  0.1086405E+00
         21   -1    0    0  502  501  0.00000000000E+00  0.00000000000E+00  0.21400092076E+04  0.21400092076E+04  0.00000000000E+00 0.  1.
         21   -1    0    0  501  502 -0.00000000000E+00 -0.00000000000E+00 -0.41408736832E+02  0.41408736832E+02  0.00000000000E+00 0.  1.
         25    1    1    2    0    0  0.40408640498E+02 -0.95971369445E+02  0.27318655248E+03  0.31796108950E+03  0.12500000000E+03 0.  0.
         25    1    1    2    0    0  0.11074665229E+02 -0.82824777035E+02  0.71137049823E+03  0.72708704957E+03  0.12500000000E+03 0.  0.
         25    1    1    2    0    0 -0.51483305727E+02  0.17879614648E+03  0.11140434200E+04  0.11363698053E+04  0.12500000000E+03 0.  0.
</event>
<event>
 5    0  0.5550393E-005  0.3099958E+03  0.7546771E-02  0.1080348E+00
         21   -1    0    0  502  501  0.00000000000E+00  0.00000000000E+00  0.11145537200E+03  0.11145537200E+03  0.00000000000E+00 0.  1.
         21   -1    0    0  501  502 -0.00000000000E+00 -0.00000000000E+00 -0.86220526136E+03  0.86220526136E+03  0.00000000000E+00 0.  1.
         25    1    1    2    0    0 -0.39184479792E+02  0.90688263579E+02 -0.66305211008E+03  0.68192586495E+03  0.12500000000E+03 0.  0.
         25    1    1    2    0    0  0.48498953416E+02 -0.51175314761E+02 -0.68112899765E+02  0.15885662856E+03  0.12500000000E+03 0.  0.
         25    1    1    2    0    0 -0.93144736239E+01 -0.39512948818E+02 -0.19584879506E+02  0.13287813984E+03  0.12500000000E+03 0.  0.
</event>
<event>
 5    0  0.5550393E-005  0.5348854E+03  0.7546771E-02  0.1005054E+00
         21   -1    0    0  502  501  0.00000000000E+00  0.00000000000E+00  0.81114779844E+03  0.81114779844E+03  0.00000000000E+00 0.  1.
         21   -1    0    0  501  502 -0.00000000000E+00 -0.00000000000E+00 -0.35271297094E+03  0.35271297094E+03  0.00000000000E+00 0.  1.
         25    1    1    2    0    0  0.18489590312E+03  0.22476032557E+03 -0.95022814887E+02  0.33069326315E+03  0.12500000000E+03 0.  0.
         25    1    1    2    0    0  0.10626908980E+03  0.47165732189E+02  0.47564248873E+02  0.17721479484E+03  0.12500000000E+03 0.  0.
         25    1    1    2    0    0 -0.29116499292E+03 -0.27192605776E+03  0.50589339351E+03  0.65595271139E+03  0.12500000000E+03 0.  0.
</event>
<event>
 5    0  0.5550393E-005  0.3321593E+03  0.7546771E-02  0.1070185E+00
         21   -1    0    0  502  501  0.00000000000E+00  0.00000000000E+00  0.83062567370E+03  0.83062567370E+03  0.00000000000E+00 0. -1.
         21   -1    0    0  501  502 -0.00000000000E+00 -0.00000000000E+00 -0.13282731005E+03  0.13282731005E+03  0.00000000000E+00 0. -1.
         25    1    1    2    0    0 -0.54335402168E+02 -0.22487579993E+03  0.43920367645E+03  0.51190461096E+03  0.12500000000E+03 0.  0.
         25    1    1    2    0    0 -0.38664792298E+02  0.93724508889E+02  0.15335371841E+03  0.22230972241E+03  0.12500000000E+03 0.  0.
         25    1    1    2    0    0  0.93000194466E+02  0.13115129104E+03  0.10524096879E+03  0.22923865037E+03  0.12500000000E+03 0.  0.
</event>
<event>
 5    0  0.5550393E-005  0.3268556E+03  0.7546771E-02  0.1072537E+00
         21   -1    0    0  502  501  0.00000000000E+00  0.00000000000E+00  0.66927568585E+02  0.66927568585E+02  0.00000000000E+00 0.  1.
         21   -1    0    0  501  502 -0.00000000000E+00 -0.00000000000E+00 -0.15962717052E+04  0.15962717052E+04  0.00000000000E+00 0.  1.
         25    1    1    2    0    0  0.72297269556E+02 -0.50100183129E+02 -0.77150377580E+03  0.78649856936E+03  0.12500000000E+03 0.  0.
         25    1    1    2    0    0 -0.17352286237E+03  0.13237687106E+03 -0.52364964821E+03  0.58091976539E+03  0.12500000000E+03 0.  0.
         25    1    1    2    0    0  0.10122559281E+03 -0.82276687929E+02 -0.23419071257E+03  0.29578093899E+03  0.12500000000E+03 0.  0.
</event>
<event>
 5    0  0.6350971E-005  0.4795638E+03  0.7546771E-02  0.1019255E+00
         21   -1    0    0  502  501  0.00000000000E+00  0.00000000000E+00  0.99818629591E+03  0.99818629591E+03  0.00000000000E+00 0. -1.
         21   -1    0    0  501  502 -0.00000000000E+00 -0.00000000000E+00 -0.23039933827E+03  0.23039933827E+03  0.00000000000E+00 0. -1.
         25    1    1    2    0    0  0.69560775334E+02  0.14618915665E+03  0.55925668499E+03  0.59548552518E+03  0.12500000000E+03 0.  0.
         25    1    1    2    0    0  0.19567448842E+02  0.15413094827E+02 -0.15868161625E+03  0.20353207089E+03  0.12500000000E+03 0.  0.
         25    1    1    2    0    0 -0.89128224176E+02 -0.16160225148E+03  0.36721188889E+03  0.42956803812E+03  0.12500000000E+03 0.  0.
</event>
<event>
 5    0  0.5550393E-005  0.2973006E+03  0.7546771E-02  0.1086598E+00
         21   -1    0    0  502  501  0.00000000000E+00  0.00000000000E+00  0.16211333799E+03  0.16211333799E+03  0.00000000000E+00 0. -1.
         21   -1    0    0  501  502 -0.00000000000E+00 -0.00000000000E+00 -0.54522144276E+03  0.54522144276E+03  0.00000000000E+00 0. -1.
         25    1    1    2    0    0  0.22736325641E+02 -0.36798708676E+02 -0.40286513059E+03  0.42402405464E+03  0.12500000000E+03 0.  0.
         25    1    1    2    0    0 -0.68702400352E+01  0.77106004714E+02  0.31939154653E+02  0.15045811963E+03  0.12500000000E+03 0.  0.
         25    1    1    2    0    0 -0.15866085606E+02 -0.40307296038E+02 -0.12182128827E+02  0.13285260648E+03  0.12500000000E+03 0.  0.
</event>
<event>
 5    0  0.6411409E-005  0.4226690E+03  0.7546771E-02  0.1036201E+00
         21   -1    0    0  502  501  0.00000000000E+00  0.00000000000E+00  0.89185829835E+03  0.89185829835E+03  0.00000000000E+00 0.  1.
         21   -1    0    0  501  502 -0.00000000000E+00 -0.00000000000E+00 -0.20031110660E+03  0.20031110660E+03  0.00000000000E+00 0.  1.
         25    1    1    2    0    0  0.11238133631E+03  0.25712194535E+03  0.42626173818E+03  0.52541919357E+03  0.12500000000E+03 0.  0.
         25    1    1    2    0    0  0.15632722190E+02 -0.13291750575E+03 -0.44121236170E+02  0.18836966003E+03  0.12500000000E+03 0.  0.
         25    1    1    2    0    0 -0.12801405850E+03 -0.12420443960E+03  0.30940668974E+03  0.37838055136E+03  0.12500000000E+03 0.  0.
</event>
<event>
 5    0  0.5550393E-005  0.3363087E+03  0.7546771E-02  0.1068379E+00
         21   -1    0    0  502  501  0.00000000000E+00  0.00000000000E+00  0.55949504881E+03  0.55949504881E+03  0.00000000000E+00 0. -1.
         21   -1    0    0  501  502 -0.00000000000E+00 -0.00000000000E+00 -0.20215294835E+03  0.20215294835E+03  0.00000000000E+00 0. -1.
         25    1    1    2    0    0 -0.11475038576E+02 -0.94905996781E+02  0.84523408329E+02  0.17862819288E+03  0.12500000000E+03 0.  0.
         25    1    1    2    0    0 -0.90746607374E+02 -0.14999554604E+03  0.70061454436E+02  0.22642265341E+03  0.12500000000E+03 0.  0.
         25    1    1    2    0    0  0.10222164595E+03  0.24490154282E+03  0.20275723769E+03  0.35659715087E+03  0.12500000000E+03 0.  0.
</event>
<event>
 5    0  0.5663266E-005  0.3055044E+03  0.7546771E-02  0.1082521E+00
         21   -1    0    0  502  501  0.00000000000E+00  0.00000000000E+00  0.16504009702E+04  0.16504009702E+04  0.00000000000E+00 0. -1.
         21   -1    0    0  501  502 -0.00000000000E+00 -0.00000000000E+00 -0.56551683409E+02  0.56551683409E+02  0.00000000000E+00 0. -1.
         25    1    1    2    0    0  0.97582582819E+02  0.34062574059E+01  0.10064772631E+03  0.18785347447E+03  0.12500000000E+03 0.  0.
         25    1    1    2    0    0 -0.88972859604E+02 -0.10642392036E+02  0.82340260783E+03  0.83764329212E+03  0.12500000000E+03 0.  0.
         25    1    1    2    0    0 -0.86097232146E+01  0.72361346303E+01  0.66979895262E+03  0.68145588699E+03  0.12500000000E+03 0.  0.
</event>
<event>
 5    0  0.7217304E-005  0.4010642E+03  0.7546771E-02  0.1043412E+00
         21   -1    0    0  502  501  0.00000000000E+00  0.00000000000E+00  0.82206265626E+03  0.82206265626E+03  0.00000000000E+00 0.  1.
         21   -1    0    0  501  502 -0.00000000000E+00 -0.00000000000E+00 -0.19566935615E+03  0.19566935615E+03  0.00000000000E+00 0.  1.
         25    1    1    2    0    0 -0.20063452167E+03  0.11064851877E+03  0.10184677133E+03  0.28016971789E+03  0.12500000000E+03 0.  0.
         25    1    1    2    0    0  0.13990844922E+03 -0.13409820036E+03  0.41423333013E+02  0.23430235599E+03  0.12500000000E+03 0.  0.
         25    1    1    2    0    0  0.60726072450E+02  0.23449681594E+02  0.48312319576E+03  0.50325993853E+03  0.12500000000E+03 0.  0.
</event>
<event>
 5    0  0.5550393E-005  0.2408791E+03  0.7546771E-02  0.1119209E+00
         21   -1    0    0  502  501  0.00000000000E+00  0.00000000000E+00  0.33537057050E+03  0.33537057050E+03  0.00000000000E+00 0. -1.
         21   -1    0    0  501  502 -0.00000000000E+00 -0.00000000000E+00 -0.17301086559E+03  0.17301086559E+03  0.00000000000E+00 0. -1.
         25    1    1    2    0    0  0.79642614775E+02  0.85105927007E+02  0.68738060527E+02  0.18421695325E+03  0.12500000000E+03 0.  0.
         25    1    1    2    0    0 -0.40566662081E+02 -0.11632325829E+03  0.47033786245E+02  0.18169736250E+03  0.12500000000E+03 0.  0.
         25    1    1    2    0    0 -0.39075952694E+02  0.31217331285E+02  0.46587858144E+02  0.14246712034E+03  0.12500000000E+03 0.  0.
</event>
<event>
 5    0  0.5550393E-005  0.4776925E+03  0.7546771E-02  0.1019771E+00
         21   -1    0    0  502  501  0.00000000000E+00  0.00000000000E+00  0.36277319994E+03  0.36277319994E+03  0.00000000000E+00 0.  1.
         21   -1    0    0  501  502 -0.00000000000E+00 -0.00000000000E+00 -0.62901585013E+03  0.62901585013E+03  0.00000000000E+00 0.  1.
         25    1    1    2    0    0  0.50424533018E+02 -0.84685765361E+02 -0.78448051539E+02  0.17746382498E+03  0.12500000000E+03 0.  0.
         25    1    1    2    0    0  0.28365597291E+03  0.14418180468E+03 -0.27912331765E+03  0.44134332466E+03  0.12500000000E+03 0.  0.
         25    1    1    2    0    0 -0.33408050593E+03 -0.59496039315E+02  0.91328718994E+02  0.37298190043E+03  0.12500000000E+03 0.  0.
</event>
<event>
 5    0  0.5550393E-005  0.3589850E+03  0.7546771E-02  0.1058986E+00
         21   -1    0    0  502  501  0.00000000000E+00  0.00000000000E+00  0.16147105558E+04  0.16147105558E+04  0.00000000000E+00 0.  1.
         21   -1    0    0  501  502 -0.00000000000E+00 -0.00000000000E+00 -0.79810120659E+02  0.79810120659E+02  0.00000000000E+00 0.  1.
         25    1    1    2    0    0 -0.33442181569E+02  0.14800539050E+02  0.19596715238E+03  0.23529887437E+03  0.12500000000E+03 0.  0.
         25    1    1    2    0    0  0.13445652444E+03  0.19615558292E+03  0.95873999116E+03  0.99567210483E+03  0.12500000000E+03 0.  0.
         25    1    1    2    0    0 -0.10101434287E+03 -0.21095612197E+03  0.38019329160E+03  0.46354969727E+03  0.12500000000E+03 0.  0.
</event>
<event>
 5    0  0.5550393E-005  0.3160943E+03  0.7546771E-02  0.1077461E+00
         21   -1    0    0  502  501  0.00000000000E+00  0.00000000000E+00  0.35004203528E+02  0.35004203528E+02  0.00000000000E+00 0. -1.
         21   -1    0    0  501  502 -0.00000000000E+00 -0.00000000000E+00 -0.28543889331E+04  0.28543889331E+04  0.00000000000E+00 0. -1.
         25    1    1    2    0    0  0.15699216664E+03  0.35311113685E+02 -0.68392532060E+03  0.71363314055E+03  0.12500000000E+03 0.  0.
         25    1    1    2    0    0 -0.21811928892E+03  0.13105803734E+01 -0.16624254559E+04  0.16813271955E+04  0.12500000000E+03 0.  0.
         25    1    1    2    0    0  0.61127122280E+02 -0.36621694058E+02 -0.47303395311E+03  0.49443280064E+03  0.12500000000E+03 0.  0.
</event>
<event>
 5    0  0.6023370E-005  0.3071842E+03  0.7546771E-02  0.1081703E+00
         21   -1    0    0  502  501  0.00000000000E+00  0.00000000000E+00  0.26831960951E+03  0.26831960951E+03  0.00000000000E+00 0. -1.
         21   -1    0    0  501  502 -0.00000000000E+00 -0.00000000000E+00 -0.35167800680E+03  0.35167800680E+03  0.00000000000E+00 0. -1.
         25    1    1    2    0    0 -0.85626255186E+02  0.76700594426E+02 -0.13792876590E+03  0.21877884090E+03  0.12500000000E+03 0.  0.
         25    1    1    2    0    0 -0.66307594992E+02 -0.99903744384E+02  0.97134022277E+02  0.19858870456E+03  0.12500000000E+03 0.  0.
         25    1    1    2    0    0  0.15193385018E+03  0.23203149959E+02 -0.42563653678E+02  0.20263007085E+03  0.12500000000E+03 0.  0.
</event>
<event>
 5    0  0.5550393E-005  0.2412756E+03  0.7546771E-02  0.1118946E+00
         21   -1    0    0  502  501  0.00000000000E+00  0.00000000000E+00  0.10757614608E+03  0.10757614608E+03  0.00000000000E+00 0.  1.
         21   -1    0    0  501  502 -0.00000000000E+00 -0.00000000000E+00 -0.54114169475E+03  0.54114169475E+03  0.00000000000E+00 0.  1.
         25    1    1    2    0    0  0.12941223321E+02  0.11349212988E+03 -0.17450148222E+03  0.24315366767E+03  0.12500000000E+03 0.  0.
         25    1    1    2    0    0  0.14326555590E+02 -0.93706992445E+02 -0.59701826818E+02  0.16785576771E+03  0.12500000000E+03 0.  0.
         25    1    1    2    0    0 -0.27267778911E+02 -0.19785137436E+02 -0.19936223964E+03  0.23770840545E+03  0.12500000000E+03 0.  0.
</event>
<event>
 5    0  0.5550393E-005  0.2772708E+03  0.7546771E-02  0.1097189E+00
         21   -1    0    0  502  501  0.00000000000E+00  0.00000000000E+00  0.99699422842E+03  0.99699422842E+03  0.00000000000E+00 0. -1.
         21   -1    0    0  501  502 -0.00000000000E+00 -0.00000000000E+00 -0.77110867948E+02  0.77110867948E+02  0.00000000000E+00 0. -1.
         25    1    1    2    0    0  0.11030529247E+03  0.88887123969E+02  0.50196420120E+03  0.53634059854E+03  0.12500000000E+03 0.  0.
         25    1    1    2    0    0 -0.10255885008E+01  0.24557706164E+02  0.10163853027E+03  0.16297092869E+03  0.12500000000E+03 0.  0.
         25    1    1    2    0    0 -0.10927970397E+03 -0.11344483013E+03  0.31628062900E+03  0.37479356914E+03  0.12500000000E+03 0.  0.
</event>
<event>
 5    0  0.5838192E-005  0.3174294E+03  0.7546771E-02  0.1076838E+00
         21   -1    0    0  502  501  0.00000000000E+00  0.00000000000E+00  0.14215653888E+03  0.14215653888E+03  0.00000000000E+00 0.  1.
         21   -1    0    0  501  502 -0.00000000000E+00 -0.00000000000E+00 -0.70880627247E+03  0.70880627247E+03  0.00000000000E+00 0.  1.
         25    1    1    2    0    0 -0.93609689576E+02  0.14343240419E+03 -0.14243825618E+03  0.25543939668E+03  0.12500000000E+03 0.  0.
         25    1    1    2    0    0  0.62886633260E+02 -0.13161445889E+03 -0.42484878327E+03  0.46626020962E+03  0.12500000000E+03 0.  0.
         25    1    1    2    0    0  0.30723056315E+02 -0.11817945305E+02  0.63730585844E+00  0.12926320505E+03  0.12500000000E+03 0.  0.
</event>
<event>
 5    0  0.5550393E-005  0.3862411E+03  0.7546771E-02  0.1048651E+00
         21   -1    0    0  502  501  0.00000000000E+00  0.00000000000E+00  0.29184981688E+03  0.29184981688E+03  0.00000000000E+00 0.  1.
         21   -1    0    0  501  502 -0.00000000000E+00 -0.00000000000E+00 -0.51116091238E+03  0.51116091238E+03  0.00000000000E+00 0.  1.
         25    1    1    2    0    0  0.86335927579E+02  0.27761292946E+03 -0.21295613035E+03  0.38144219018E+03  0.12500000000E+03 0.  0.
         25    1    1    2    0    0  0.34986796079E+02 -0.60763404977E+02 -0.51591121338E+01  0.14341507495E+03  0.12500000000E+03 0.  0.
         25    1    1    2    0    0 -0.12132272366E+03 -0.21684952449E+03 -0.11958530215E+01  0.27815346414E+03  0.12500000000E+03 0.  0.
</event>
<event>
 5    0  0.5550393E-005  0.3866825E+03  0.7546771E-02  0.1048491E+00
         21   -1    0    0  502  501  0.00000000000E+00  0.00000000000E+00  0.44441225274E+03  0.44441225274E+03  0.00000000000E+00 0. -1.
         21   -1    0    0  501  502 -0.00000000000E+00 -0.00000000000E+00 -0.33645190611E+03  0.33645190611E+03  0.00000000000E+00 0. -1.
         25    1    1    2    0    0 -0.11859688110E+03  0.16139249911E+03  0.22421454297E+02  0.23715075498E+03  0.12500000000E+03 0.  0.
         25    1    1    2    0    0  0.19767625254E+03 -0.26342450332E+03  0.91375626344E+02  0.36392701859E+03  0.12500000000E+03 0.  0.
         25    1    1    2    0    0 -0.79079371443E+02  0.10203200420E+03 -0.58367340124E+01  0.17978638528E+03  0.12500000000E+03 0.  0.
</event>
<event>
 5    0  0.5550393E-005  0.4466678E+03  0.7546771E-02  0.1028720E+00
         21   -1    0    0  502  501  0.00000000000E+00  0.00000000000E+00  0.53101884295E+03  0.53101884295E+03  0.00000000000E+00 0. -1.
         21   -1    0    0  501  502 -0.00000000000E+00 -0.00000000000E+00 -0.37571576487E+03  0.37571576487E+03  0.00000000000E+00 0. -1.
         25    1    1    2    0    0 -0.18449275124E+03  0.12411756764E+03  0.86136297995E+02  0.26923448458E+03  0.12500000000E+03 0.  0.
         25    1    1    2    0    0  0.16645407622E+02  0.20270026959E+03 -0.19163980280E+02  0.23949264503E+03  0.12500000000E+03 0.  0.
         25    1    1    2    0    0  0.16784734362E+03 -0.32681783722E+03  0.88330760363E+02  0.39800747821E+03  0.12500000000E+03 0.  0.
</event>
<event>
 5    0  0.5550393E-005  0.3963661E+03  0.7546771E-02  0.1045045E+00
         21   -1    0    0  502  501  0.00000000000E+00  0.00000000000E+00  0.43114639875E+03  0.43114639875E+03  0.00000000000E+00 0.  1.
         21   -1    0    0  501  502 -0.00000000000E+00 -0.00000000000E+00 -0.36439157893E+03  0.36439157893E+03  0.00000000000E+00 0.  1.
         25    1    1    2    0    0  0.68190965047E+02 -0.46956952072E+01  0.23263248322E+02  0.14435454960E+03  0.12500000000E+03 0.  0.
         25    1    1    2    0    0 -0.11606363533E+03 -0.24509418725E+03 -0.12249625418E+03  0.32275727777E+03  0.12500000000E+03 0.  0.
         25    1    1    2    0    0  0.47872670280E+02  0.24978988245E+03  0.16598782568E+03  0.32842615031E+03  0.12500000000E+03 0.  0.
</event>
<event>
 5    0  0.5550393E-005  0.4137598E+03  0.7546771E-02  0.1039117E+00
         21   -1    0    0  502  501  0.00000000000E+00  0.00000000000E+00  0.72883060135E+03  0.72883060135E+03  0.00000000000E+00 0.  1.
         21   -1    0    0  501  502 -0.00000000000E+00 -0.00000000000E+00 -0.23489297749E+03  0.23489297749E+03  0.00000000000E+00 0.  1.
         25    1    1    2    0    0  0.21176063951E+03 -0.52986540717E+02 -0.21000379283E+02  0.25242059716E+03  0.12500000000E+03 0.  0.
         25    1    1    2    0    0 -0.26116383992E+02 -0.14010592382E+03  0.15041632721E+03  0.24199546875E+03  0.12500000000E+03 0.  0.
         25    1    1    2    0    0 -0.18564425551E+03  0.19309246454E+03  0.36452167593E+03  0.46930751293E+03  0.12500000000E+03 0.  0.
</event>
<event>
 5    0  0.5550393E-005  0.3154883E+03  0.7546771E-02  0.1077745E+00
         21   -1    0    0  502  501  0.00000000000E+00  0.00000000000E+00  0.37166042679E+03  0.37166042679E+03  0.00000000000E+00 0.  1.
         21   -1    0    0  501  502 -0.00000000000E+00 -0.00000000000E+00 -0.26780585173E+03  0.26780585173E+03  0.00000000000E+00 0.  1.
         25    1    1    2    0    0  0.84595734036E+02  0.21042365153E+02  0.16132699211E+03  0.22192480197E+03  0.12500000000E+03 0.  0.
         25    1    1    2    0    0 -0.11665559896E+03  0.12928899817E+03 -0.44979881780E+02  0.21902594271E+03  0.12500000000E+03 0.  0.
         25    1    1    2    0    0  0.32059864928E+02 -0.15033136332E+03 -0.12492535275E+02  0.19851553384E+03  0.12500000000E+03 0.  0.
</event>
<event>
 5    0  0.5550393E-005  0.2581218E+03  0.7546771E-02  0.1108277E+00
         21   -1    0    0  502  501  0.00000000000E+00  0.00000000000E+00  0.17830034336E+03  0.17830034336E+03  0.00000000000E+00 0. -1.
         21   -1    0    0  501  502 -0.00000000000E+00 -0.00000000000E+00 -0.37367777720E+03  0.37367777720E+03  0.00000000000E+00 0. -1.
         25    1    1    2    0    0  0.10063369547E+03  0.76923318132E+01 -0.71749915385E+01  0.16081913175E+03  0.12500000000E+03 0.  0.
         25    1    1    2    0    0 -0.76526534215E+02  0.98851435201E+02 -0.91956137976E+02  0.19927079061E+03  0.12500000000E+03 0.  0.
         25    1    1    2    0    0 -0.24107161255E+02 -0.10654376701E+03 -0.96246304325E+02  0.19188819820E+03  0.12500000000E+03 0.  0.
</event>
<event>
 5    0  0.5550393E-005  0.9156408E+03  0.7546771E-02  0.9406238E-01
         21   -1    0    0  502  501  0.00000000000E+00  0.00000000000E+00  0.18418251011E+04  0.18418251011E+04  0.00000000000E+00 0. -1.
         21   -1    0    0  501  502 -0.00000000000E+00 -0.00000000000E+00 -0.45519962591E+03  0.45519962591E+03  0.00000000000E+00 0. -1.
         25    1    1    2    0    0 -0.15784634175E+03  0.67125455531E+02  0.66935077601E+02  0.22254572339E+03  0.12500000000E+03 0.  0.
         25    1    1    2    0    0 -0.24908719990E+03 -0.24332283180E+03  0.15256127961E+04  0.15698311492E+04  0.12500000000E+03 0.  0.
         25    1    1    2    0    0  0.40693354165E+03  0.17619737626E+03 -0.20592239849E+03  0.50464785437E+03  0.12500000000E+03 0.  0.
</event>
<event>
 5    0  0.5550393E-005  0.4020994E+03  0.7546771E-02  0.1043055E+00
         21   -1    0    0  502  501  0.00000000000E+00  0.00000000000E+00  0.15512173206E+04  0.15512173206E+04  0.00000000000E+00 0. -1.
         21   -1    0    0  501  502 -0.00000000000E+00 -0.00000000000E+00 -0.10423033532E+03  0.10423033532E+03  0.00000000000E+00 0. -1.
         25    1    1    2    0    0  0.12764838827E+03  0.53098091396E+02  0.11873185299E+03  0.22098816994E+03  0.12500000000E+03 0.  0.
         25    1    1    2    0    0 -0.27944515233E+03 -0.82248834886E+02  0.58825887999E+03  0.66822748663E+03  0.12500000000E+03 0.  0.
         25    1    1    2    0    0  0.15179676406E+03  0.29150743490E+02  0.73999625225E+03  0.76623199931E+03  0.12500000000E+03 0.  0.
</event>
<event>
 5    0  0.5550393E-005  0.2471357E+03  0.7546771E-02  0.1115128E+00
         21   -1    0    0  502  501  0.00000000000E+00  0.00000000000E+00  0.38009350560E+03  0.38009350560E+03  0.00000000000E+00 0. -1.
         21   -1    0    0  501  502 -0.00000000000E+00 -0.00000000000E+00 -0.16068693064E+03  0.16068693064E+03  0.00000000000E+00 0. -1.
         25    1    1    2    0    0  0.48938283984E+02 -0.31808390314E+02 -0.14978468829E+02  0.13876629224E+03  0.12500000000E+03 0.  0.
         25    1    1    2    0    0  0.32808003041E+02 -0.14648354445E+02  0.12668409953E+02  0.13067680729E+03  0.12500000000E+03 0.  0.
         25    1    1    2    0    0 -0.81746287025E+02  0.46456744759E+02  0.22171663384E+03  0.27133733672E+03  0.12500000000E+03 0.  0.
</event>
<event>
 5    0  0.5550393E-005  0.2446033E+03  0.7546771E-02  0.1116764E+00
         21   -1    0    0  502  501  0.00000000000E+00  0.00000000000E+00  0.65337373651E+03  0.65337373651E+03  0.00000000000E+00 0. -1.
         21   -1    0    0  501  502 -0.00000000000E+00 -0.00000000000E+00 -0.91572072033E+02  0.91572072033E+02  0.00000000000E+00 0. -1.
         25    1    1    2    0    0 -0.10178831866E+03 -0.11591440973E+02  0.26411721582E+03  0.30964193355E+03  0.12500000000E+03 0.  0.
         25    1    1    2    0    0  0.23211518762E+02  0.84187489832E+02  0.15650262455E+03  0.21850487303E+03  0.12500000000E+03 0.  0.
         25    1    1    2    0    0  0.78576799903E+02 -0.72596048859E+02  0.14118182410E+03  0.21679900196E+03  0.12500000000E+03 0.  0.
</event>
<event>
 5    0  0.5550393E-005  0.6043637E+03  0.7546771E-02  0.9896394E-01
         21   -1    0    0  502  501  0.00000000000E+00  0.00000000000E+00  0.44179929768E+03  0.44179929768E+03  0.00000000000E+00 0. -1.
         21   -1    0    0  501  502 -0.00000000000E+00 -0.00000000000E+00 -0.82674533533E+03  0.82674533533E+03  0.00000000000E+00 0. -1.
         25    1    1    2    0    0 -0.89406261562E+02 -0.14906382760E+03 -0.70517473249E+02  0.22541343868E+03  0.12500000000E+03 0.  0.
         25    1    1    2    0    0 -0.66660629686E+01 -0.15922947175E+03 -0.57509437397E+03  0.60971878767E+03  0.12500000000E+03 0.  0.
         25    1    1    2    0    0  0.96072324530E+02  0.30829329935E+03  0.26066580957E+03  0.43341240665E+03  0.12500000000E+03 0.  0.
</event>
<event>
 5    0  0.5550393E-005  0.2256007E+03  0.7546771E-02  0.1129775E+00
         21   -1    0    0  502  501  0.00000000000E+00  0.00000000000E+00  0.52319480411E+03  0.52319480411E+03  0.00000000000E+00 0. -1.
         21   -1    0    0  501  502 -0.00000000000E+00 -0.00000000000E+00 -0.97278673565E+02  0.97278673565E+02  0.00000000000E+00 0. -1.
         25    1    1    2    0    0 -0.74298552646E+02  0.30251182556E+01  0.10468310979E+03  0.17920094793E+03  0.12500000000E+03 0.  0.
         25    1    1    2    0    0 -0.29509170832E+02 -0.23720120474E+02  0.19398771378E+03  0.23385822281E+03  0.12500000000E+03 0.  0.
         25    1    1    2    0    0  0.10380772348E+03  0.20695002218E+02  0.12724530697E+03  0.20741430693E+03  0.12500000000E+03 0.  0.
</event>
<event>
 5    0  0.5550393E-005  0.3182833E+03  0.7546771E-02  0.1076442E+00
         21   -1    0    0  502  501  0.00000000000E+00  0.00000000000E+00  0.44815227461E+03  0.44815227461E+03  0.00000000000E+00 0.  1.
         21   -1    0    0  501  502 -0.00000000000E+00 -0.00000000000E+00 -0.22604876314E+03  0.22604876314E+03  0.00000000000E+00 0.  1.
         25    1    1    2    0    0 -0.79535930851E+02  0.63811563130E+01  0.14710895425E+03  0.20888448452E+03  0.12500000000E+03 0.  0.
         25    1    1    2    0    0  0.15726136376E+03 -0.13959445155E+03 -0.19591015727E+02  0.24541099269E+03  0.12500000000E+03 0.  0.
         25    1    1    2    0    0 -0.77725432904E+02  0.13321329524E+03  0.94585572950E+02  0.21990556054E+03  0.12500000000E+03 0.  0.
</event>
<event>
 5    0  0.5550393E-005  0.2425294E+03  0.7546771E-02  0.1118119E+00
         21   -1    0    0  502  501  0.00000000000E+00  0.00000000000E+00  0.26643331409E+03  0.26643331409E+03  0.00000000000E+00 0.  1.
         21   -1    0    0  501  502 -0.00000000000E+00 -0.00000000000E+00 -0.22077011550E+03  0.22077011550E+03  0.00000000000E+00 0.  1.
         25    1    1    2    0    0  0.41871842697E+02  0.10635124352E+03  0.40287690519E+02  0.17410323437E+03  0.12500000000E+03 0.  0.
         25    1    1    2    0    0 -0.47229810351E+02 -0.38971238557E+02 -0.66034936696E+02  0.15406175802E+03  0.12500000000E+03 0.  0.
         25    1    1    2    0    0  0.53579676539E+01 -0.67380004966E+02  0.71410444764E+02  0.15903843720E+03  0.12500000000E+03 0.  0.
</event>
<event>
 5    0  0.5550393E-005  0.2344184E+03  0.7546771E-02  0.1123568E+00
         21   -1    0    0  502  501  0.00000000000E+00  0.00000000000E+00  0.83780662485E+02  0.83780662485E+02  0.00000000000E+00 0.  1.
         21   -1    0    0  501  502 -0.00000000000E+00 -0.00000000000E+00 -0.65590274995E+03  0.65590274995E+03  0.00000000000E+00 0.  1.
         25    1    1    2    0    0 -0.12694849426E+02 -0.43271179081E+01 -0.22869701386E+03  0.26097357586E+03  0.12500000000E+03 0.  0.
         25    1    1    2    0    0 -0.70129760968E+02  0.59846939534E+02 -0.91335844677E+02  0.18018622608E+03  0.12500000000E+03 0.  0.
         25    1    1    2    0    0  0.82824610395E+02 -0.55519821626E+02 -0.25208922893E+03  0.29852361049E+03  0.12500000000E+03 0.  0.
</event>
<event>
 5    0  0.5550393E-005  0.2481313E+03  0.7546771E-02  0.1114492E+00
         21   -1    0    0  502  501  0.00000000000E+00  0.00000000000E+00  0.31039635791E+03  0.31039635791E+03  0.00000000000E+00 0.  1.
         21   -1    0    0  501  502 -0.00000000000E+00 -0.00000000000E+00 -0.19835653705E+03  0.19835653705E+03  0.00000000000E+00 0.  1.
         25    1    1    2    0    0 -0.10899648614E+02 -0.11207603223E+03  0.43069202295E+02  0.17366575807E+03  0.12500000000E+03 0.  0.
         25    1    1    2    0    0  0.64916748712E+02  0.28229011398E+02 -0.30369476882E+02  0.14682767612E+03  0.12500000000E+03 0.  0.
         25    1    1    2    0    0 -0.54017100098E+02  0.83847020830E+02  0.99340095449E+02  0.18825946077E+03  0.12500000000E+03 0.  0.
</event>
<event>
 5    0  0.5550393E-005  0.3048656E+03  0.7546771E-02  0.1082833E+00
         21   -1    0    0  502  501  0.00000000000E+00  0.00000000000E+00  0.86671944297E+03  0.86671944297E+03  0.00000000000E+00 0. -1.
         21   -1    0    0  501  502 -0.00000000000E+00 -0.00000000000E+00 -0.10723546098E+03  0.10723546098E+03  0.00000000000E+00 0. -1.
         25    1    1    2    0    0 -0.16459023974E+03  0.12348834037E+03  0.35352820073E+03  0.42772246368E+03  0.12500000000E+03 0.  0.
         25    1    1    2    0    0  0.12844665792E+03 -0.85521958920E+02  0.12599825270E+03  0.23518739139E+03  0.12500000000E+03 0.  0.
         25    1    1    2    0    0  0.36143581827E+02 -0.37966381452E+02  0.27995752857E+03  0.31104504888E+03  0.12500000000E+03 0.  0.
</event>
<event>
 5    0  0.5550393E-005  0.2575437E+03  0.7546771E-02  0.1108628E+00
         21   -1    0    0  502  501  0.00000000000E+00  0.00000000000E+00  0.30008496382E+03  0.30008496382E+03  0.00000000000E+00 0.  1.
         21   -1    0    0  501  502 -0.00000000000E+00 -0.00000000000E+00 -0.22103323909E+03  0.22103323909E+03  0.00000000000E+00 0.  1.
         25    1    1    2    0    0  0.84380696765E+02  0.25728751535E+02  0.11633582958E+03  0.19220066567E+03  0.12500000000E+03 0.  0.
         25    1    1    2    0    0 -0.11459737100E+03  0.13913857924E+02 -0.79600311992E+02  0.18784930809E+03  0.12500000000E+03 0.  0.
         25    1    1    2    0    0  0.30216674235E+02 -0.39642609459E+02  0.42316207139E+02  0.14106822914E+03  0.12500000000E+03 0.  0.
</event>
<event>
 5    0  0.6513581E-005  0.3585351E+03  0.7546771E-02  0.1059165E+00
         21   -1    0    0  502  501  0.00000000000E+00  0.00000000000E+00  0.36464390310E+03  0.36464390310E+03  0.00000000000E+00 0.  1.
         21   -1    0    0  501  502 -0.00000000000E+00 -0.00000000000E+00 -0.35252860042E+03  0.35252860042E+03  0.00000000000E+00 0.  1.
         25    1    1    2    0    0 -0.54692706140E+02 -0.14044466334E+03 -0.41513932307E+01  0.19585257116E+03  0.12500000000E+03 0.  0.
         25    1    1    2    0    0  0.89601357706E+02  0.79660957685E+02  0.21513569912E+03  0.27619312178E+03  0.12500000000E+03 0.  0.
         25    1    1    2    0    0 -0.34908651566E+02  0.60783705654E+02 -0.19886900321E+03  0.24512681058E+03  0.12500000000E+03 0.  0.
</event>
<event>
 5    0  0.5550393E-005  0.2319458E+03  0.7546771E-02  0.1125278E+00
         21   -1    0    0  502  501  0.00000000000E+00  0.00000000000E+00  0.20635215017E+03  0.20635215017E+03  0.00000000000E+00 0.  1.
         21   -1    0    0  501  502 -0.00000000000E+00 -0.00000000000E+00 -0.26071378241E+03  0.26071378241E+03  0.00000000000E+00 0.  1.
         25    1    1    2    0    0 -0.30542639281E+01  0.48512293829E+02  0.82936610585E+02  0.15769036926E+03  0.12500000000E+03 0.  0.
         25    1    1    2    0    0  0.34778137108E+02 -0.36900377577E+02 -0.11648868432E+03  0.17822954374E+03  0.12500000000E+03 0.  0.
         25    1    1    2    0    0 -0.31723873180E+02 -0.11611916252E+02 -0.20809558498E+02  0.13114601959E+03  0.12500000000E+03 0.  0.
</event>
<event>
 5    0  0.5550393E-005  0.2246975E+03  0.7546771E-02  0.1130429E+00
         21   -1    0    0  502  501  0.00000000000E+00  0.00000000000E+00  0.28857452713E+03  0.28857452713E+03  0.00000000000E+00 0. -1.
         21   -1    0    0  501  502 -0.00000000000E+00 -0.00000000000E+00 -0.17495995475E+03  0.17495995475E+03  0.00000000000E+00 0. -1.
         25    1    1    2    0    0  0.40732457388E+02  0.80652209844E+02  0.22324951071E+02  0.15584388175E+03  0.12500000000E+03 0.  0.
         25    1    1    2    0    0  0.27827250811E+02 -0.27230619523E+02  0.83417695625E+02  0.15523973226E+03  0.12500000000E+03 0.  0.
         25    1    1    2    0    0 -0.68559708200E+02 -0.53421590321E+02  0.78719256849E+01  0.15245086787E+03  0.12500000000E+03 0.  0.
</event>
<event>
 5    0  0.5550393E-005  0.3518029E+03  0.7546771E-02  0.1061877E+00
         21   -1    0    0  502  501  0.00000000000E+00  0.00000000000E+00  0.55442227871E+03  0.55442227871E+03  0.00000000000E+00 0. -1.
         21   -1    0    0  501  502 -0.00000000000E+00 -0.00000000000E+00 -0.22323288538E+03  0.22323288538E+03  0.00000000000E+00 0. -1.
         25    1    1    2    0    0  0.13489143058E+03 -0.13555737455E+03  0.18501174644E+03  0.29398273106E+03  0.12500000000E+03 0.  0.
         25    1    1    2    0    0  0.70039104559E+02  0.91848529589E+02 -0.42285401334E+02  0.17537013349E+03  0.12500000000E+03 0.  0.
         25    1    1    2    0    0 -0.20493053514E+03  0.43708844966E+02  0.18846304822E+03  0.30830229954E+03  0.12500000000E+03 0.  0.
</event>
<event>
 5    0  0.5934175E-005  0.6093471E+03  0.7546771E-02  0.9886201E-01
         21   -1    0    0  502  501  0.00000000000E+00  0.00000000000E+00  0.15187029883E+04  0.15187029883E+04  0.00000000000E+00 0.  1.
         21   -1    0    0  501  502 -0.00000000000E+00 -0.00000000000E+00 -0.24448747640E+03  0.24448747640E+03  0.00000000000E+00 0.  1.
         25    1    1    2    0    0  0.32232689231E+03 -0.36288566564E+02  0.73228503344E+03  0.81060338994E+03  0.12500000000E+03 0.  0.
         25    1    1    2    0    0  0.86162824198E+02  0.22975317012E+03  0.63412197166E+02  0.28258920398E+03  0.12500000000E+03 0.  0.
         25    1    1    2    0    0 -0.40848971651E+03 -0.19346460356E+03  0.47851828128E+03  0.66999787078E+03  0.12500000000E+03 0.  0.
</event>
<event>
 5    0  0.5550393E-005  0.3524738E+03  0.7546771E-02  0.1061604E+00
         21   -1    0    0  502  501  0.00000000000E+00  0.00000000000E+00  0.19721506755E+03  0.19721506755E+03  0.00000000000E+00 0.  1.
         21   -1    0    0  501  502 -0.00000000000E+00 -0.00000000000E+00 -0.62996104643E+03  0.62996104643E+03  0.00000000000E+00 0. -1.
         25    1    1    2    0    0 -0.41978684335E+02 -0.16705870772E+03 -0.11769558405E+03  0.24320376697E+03  0.12500000000E+03 0.  0.
         25    1    1    2    0    0 -0.70015691730E+02 -0.99830922946E+02 -0.88710327972E+02  0.19586457708E+03  0.12500000000E+03 0.  0.
         25    1    1    2    0    0  0.11199437607E+03  0.26688963066E+03 -0.22634006685E+03  0.38810776994E+03  0.12500000000E+03 0.  0.
</event>
<event>
 5    0  0.5550393E-005  0.2839925E+03  0.7546771E-02  0.1093528E+00
         21   -1    0    0  502  501  0.00000000000E+00  0.00000000000E+00  0.18023578691E+03  0.18023578691E+03  0.00000000000E+00 0.  1.
         21   -1    0    0  501  502 -0.00000000000E+00 -0.00000000000E+00 -0.44747891960E+03  0.44747891960E+03  0.00000000000E+00 0.  1.
         25    1    1    2    0    0  0.59691546113E+02 -0.77289655552E+02  0.13020319351E+02  0.15915809828E+03  0.12500000000E+03 0.  0.
         25    1    1    2    0    0  0.20668098076E+02  0.13854646176E+03 -0.62447571950E+02  0.19785598699E+03  0.12500000000E+03 0.  0.
         25    1    1    2    0    0 -0.80359644189E+02 -0.61256806210E+02 -0.21781588009E+03  0.27070062124E+03  0.12500000000E+03 0.  0.
</event>
<event>
 5    0  0.5550393E-005  0.3078572E+03  0.7546771E-02  0.1081378E+00
         21   -1    0    0  502  501  0.00000000000E+00  0.00000000000E+00  0.19198163470E+03  0.19198163470E+03  0.00000000000E+00 0. -1.
         21   -1    0    0  501  502 -0.00000000000E+00 -0.00000000000E+00 -0.49367245334E+03  0.49367245334E+03  0.00000000000E+00 0. -1.
         25    1    1    2    0    0 -0.70691581030E+02 -0.12086246882E+03 -0.49430119357E+02  0.19409629749E+03  0.12500000000E+03 0.  0.
         25    1    1    2    0    0  0.52431118400E+02  0.14311519532E+03 -0.29635005529E+03  0.35592040764E+03  0.12500000000E+03 0.  0.
         25    1    1    2    0    0  0.18260462629E+02 -0.22252726499E+02  0.44089356005E+02  0.13563738292E+03  0.12500000000E+03 0.  0.
</event>
<event>
 5    0  0.5550393E-005  0.2602715E+03  0.7546771E-02  0.1106980E+00
         21   -1    0    0  502  501  0.00000000000E+00  0.00000000000E+00  0.39158365107E+02  0.39158365107E+02  0.00000000000E+00 0.  1.
         21   -1    0    0  501  502 -0.00000000000E+00 -0.00000000000E+00 -0.17299312002E+04  0.17299312002E+04  0.00000000000E+00 0.  1.
         25    1    1    2    0    0  0.53576604382E+02 -0.92104090739E+02 -0.25859632651E+03  0.30635057720E+03  0.12500000000E+03 0.  0.
         25    1    1    2    0    0 -0.10098928237E+02 -0.12611501183E+02 -0.51781063570E+03  0.53292953827E+03  0.12500000000E+03 0.  0.
         25    1    1    2    0    0 -0.43477676145E+02  0.10471559192E+03 -0.91436587292E+03  0.92980944987E+03  0.12500000000E+03 0.  0.
</event>
<event>
 5    0  0.5550393E-005  0.3930547E+03  0.7546771E-02  0.1046211E+00
         21   -1    0    0  502  501  0.00000000000E+00  0.00000000000E+00  0.30446773168E+03  0.30446773168E+03  0.00000000000E+00 0. -1.
         21   -1    0    0  501  502 -0.00000000000E+00 -0.00000000000E+00 -0.50741668977E+03  0.50741668977E+03  0.00000000000E+00 0. -1.
         25    1    1    2    0    0  0.14591527951E+03  0.19766411447E+03 -0.30120063910E+03  0.40830037464E+03  0.12500000000E+03 0.  0.
         25    1    1    2    0    0 -0.14271262392E+03 -0.17530025076E+03  0.31885581910E+02  0.26026671181E+03  0.12500000000E+03 0.  0.
         25    1    1    2    0    0 -0.32026555933E+01 -0.22363863702E+02  0.66366099094E+02  0.14331733500E+03  0.12500000000E+03 0.  0.
</event>
<event>
 5    0  0.5550393E-005  0.2545537E+03  0.7546771E-02  0.1110460E+00
         21   -1    0    0  502  501  0.00000000000E+00  0.00000000000E+00  0.74367162091E+03  0.74367162091E+03  0.00000000000E+00 0. -1.
         21   -1    0    0  501  502 -0.00000000000E+00 -0.00000000000E+00 -0.87131980863E+02  0.87131980863E+02  0.00000000000E+00 0. -1.
         25    1    1    2    0    0 -0.53733364800E+01 -0.15417304705E+02  0.29212496332E+03  0.31816436039E+03  0.12500000000E+03 0.  0.
         25    1    1    2    0    0  0.52337730492E+02  0.47461608120E+02  0.24009659329E+02  0.14557920875E+03  0.12500000000E+03 0.  0.
         25    1    1    2    0    0 -0.46964394012E+02 -0.32044303416E+02  0.34040501740E+03  0.36706003263E+03  0.12500000000E+03 0.  0.
</event>
<event>
 5    0  0.5550393E-005  0.2871204E+03  0.7546771E-02  0.1091862E+00
         21   -1    0    0  502  501  0.00000000000E+00  0.00000000000E+00  0.45265730410E+03  0.45265730410E+03  0.00000000000E+00 0. -1.
         21   -1    0    0  501  502 -0.00000000000E+00 -0.00000000000E+00 -0.18212038214E+03  0.18212038214E+03  0.00000000000E+00 0. -1.
         25    1    1    2    0    0 -0.35924836882E+02  0.11607042721E+03  0.13279374746E+02  0.17482642755E+03  0.12500000000E+03 0.  0.
         25    1    1    2    0    0  0.11554897195E+03 -0.10315709899E+03  0.50701892920E+02  0.20539871941E+03  0.12500000000E+03 0.  0.
         25    1    1    2    0    0 -0.79624135064E+02 -0.12913328218E+02  0.20655565429E+03  0.25455253927E+03  0.12500000000E+03 0.  0.
</event>
<event>
 5    0  0.5550393E-005  0.4212848E+03  0.7546771E-02  0.1036649E+00
         21   -1    0    0  502  501  0.00000000000E+00  0.00000000000E+00  0.55141383410E+02  0.55141383410E+02  0.00000000000E+00 0.  1.
         21   -1    0    0  501  502 -0.00000000000E+00 -0.00000000000E+00 -0.32186508769E+04  0.32186508769E+04  0.00000000000E+00 0.  1.
         25    1    1    2    0    0  0.18660879936E+03 -0.88203582938E+02 -0.22900516303E+04  0.23027297248E+04  0.12500000000E+03 0.  0.
         25    1    1    2    0    0 -0.85236248682E+02  0.15633375302E+03 -0.66143900966E+03  0.69629880362E+03  0.12500000000E+03 0.  0.
         25    1    1    2    0    0 -0.10137255068E+03 -0.68130170082E+02 -0.21201885351E+03  0.27476373187E+03  0.12500000000E+03 0.  0.
</event>
<event>
 5    0  0.5550393E-005  0.4158361E+03  0.7546771E-02  0.1038430E+00
         21   -1    0    0  502  501  0.00000000000E+00  0.00000000000E+00  0.11506830957E+03  0.11506830957E+03  0.00000000000E+00 0.  1.
         21   -1    0    0  501  502 -0.00000000000E+00 -0.00000000000E+00 -0.15027569283E+04  0.15027569283E+04  0.00000000000E+00 0.  1.
         25    1    1    2    0    0  0.34639931883E+02 -0.15943373568E+03 -0.46122154368E+03  0.50494490126E+03  0.12500000000E+03 0.  0.
         25    1    1    2    0    0  0.25206595772E+03  0.59199192744E+02 -0.45730999869E+03  0.54018443736E+03  0.12500000000E+03 0.  0.
         25    1    1    2    0    0 -0.28670588960E+03  0.10023454293E+03 -0.46915707636E+03  0.57269589926E+03  0.12500000000E+03 0.  0.
</event>
<event>
 5    0  0.5550393E-005  0.3471350E+03  0.7546771E-02  0.1063797E+00
         21   -1    0    0  502  501  0.00000000000E+00  0.00000000000E+00  0.56201980247E+03  0.56201980247E+03  0.00000000000E+00 0.  1.
         21   -1    0    0  501  502 -0.00000000000E+00 -0.00000000000E+00 -0.21441011090E+03  0.21441011090E+03  0.00000000000E+00 0.  1.
         25    1    1    2    0    0  0.13502527098E+02  0.10624906884E+03  0.18063417166E+03  0.24438675667E+03  0.12500000000E+03 0.  0.
         25    1    1    2    0    0  0.12113283525E+03  0.28719724672E+02  0.23527119100E+03  0.29406720265E+03  0.12500000000E+03 0.  0.
         25    1    1    2    0    0 -0.13463536235E+03 -0.13496879352E+03 -0.68295671083E+02  0.23797595405E+03  0.12500000000E+03 0.  0.
</event>
<event>
 5    0  0.5550393E-005  0.2928006E+03  0.7546771E-02  0.1088896E+00
         21   -1    0    0  502  501  0.00000000000E+00  0.00000000000E+00  0.16003720599E+03  0.16003720599E+03  0.00000000000E+00 0. -1.
         21   -1    0    0  501  502 -0.00000000000E+00 -0.00000000000E+00 -0.53570147882E+03  0.53570147882E+03  0.00000000000E+00 0. -1.
         25    1    1    2    0    0  0.66850146420E+02 -0.84747009891E+02 -0.10460051186E+02  0.16548537830E+03  0.12500000000E+03 0.  0.
         25    1    1    2    0    0  0.72117721634E+02 -0.48643865105E+02 -0.17579501275E+03  0.23258563562E+03  0.12500000000E+03 0.  0.
         25    1    1    2    0    0 -0.13896786805E+03  0.13339087500E+03 -0.18940920889E+03  0.29766767090E+03  0.12500000000E+03 0.  0.
</event>
<event>
 5    0  0.5550393E-005  0.2241696E+03  0.7546771E-02  0.1130812E+00
         21   -1    0    0  502  501  0.00000000000E+00  0.00000000000E+00  0.28360798028E+03  0.28360798028E+03  0.00000000000E+00 0.  1.
         21   -1    0    0  501  502 -0.00000000000E+00 -0.00000000000E+00 -0.17718821009E+03  0.17718821009E+03  0.00000000000E+00 0.  1.
         25    1    1    2    0    0  0.10346053594E+02  0.60694543045E+02 -0.21004902119E+02  0.14091513153E+03  0.12500000000E+03 0.  0.
         25    1    1    2    0    0 -0.19614263665E+02  0.34097336072E+02  0.88035746510E+02  0.15786906071E+03  0.12500000000E+03 0.  0.
         25    1    1    2    0    0  0.92682100712E+01 -0.94791879117E+02  0.39388925794E+02  0.16201199813E+03  0.12500000000E+03 0.  0.
</event>
<event>
 5    0  0.5550393E-005  0.2452592E+03  0.7546771E-02  0.1116338E+00
         21   -1    0    0  502  501  0.00000000000E+00  0.00000000000E+00  0.10180771594E+04  0.10180771594E+04  0.00000000000E+00 0.  1.
         21   -1    0    0  501  502 -0.00000000000E+00 -0.00000000000E+00 -0.59084025862E+02  0.59084025862E+02  0.00000000000E+00 0.  1.
         25    1    1    2    0    0 -0.57063248056E+02 -0.84672320249E+02  0.28684384095E+03  0.32913523844E+03  0.12500000000E+03 0.  0.
         25    1    1    2    0    0 -0.20570640142E+02  0.11835635709E+03  0.30107094582E+03  0.34741918904E+03  0.12500000000E+03 0.  0.
         25    1    1    2    0    0  0.77633888198E+02 -0.33684036836E+02  0.37107834678E+03  0.40060675778E+03  0.12500000000E+03 0.  0.
</event>
<event>
 5    0  0.5550393E-005  0.2609217E+03  0.7546771E-02  0.1106591E+00
         21   -1    0    0  502  501  0.00000000000E+00  0.00000000000E+00  0.40178095028E+03  0.40178095028E+03  0.00000000000E+00 0. -1.
         21   -1    0    0  501  502 -0.00000000000E+00 -0.00000000000E+00 -0.16944589929E+03  0.16944589929E+03  0.00000000000E+00 0. -1.
         25    1    1    2    0    0  0.13024017741E+02  0.54012201792E+02  0.62018762921E+02  0.15019410752E+03  0.12500000000E+03 0.  0.
         25    1    1    2    0    0 -0.33535717835E+02 -0.16206325065E+03  0.14395741540E+03  0.25246361922E+03  0.12500000000E+03 0.  0.
         25    1    1    2    0    0  0.20511700095E+02  0.10805104885E+03  0.26358872667E+02  0.16856912282E+03  0.12500000000E+03 0.  0.
</event>
<event>
 5    0  0.5550393E-005  0.2277184E+03  0.7546771E-02  0.1128256E+00
         21   -1    0    0  502  501  0.00000000000E+00  0.00000000000E+00  0.67121732812E+02  0.67121732812E+02  0.00000000000E+00 0.  1.
         21   -1    0    0  501  502 -0.00000000000E+00 -0.00000000000E+00 -0.77256178607E+03  0.77256178607E+03  0.00000000000E+00 0.  1.
         25    1    1    2    0    0  0.59060958823E+02 -0.52470621193E+01 -0.21291892471E+03  0.25391966647E+03  0.12500000000E+03 0.  0.
         25    1    1    2    0    0 -0.11773517189E+02 -0.88121569167E+02 -0.21988178650E+03  0.26809891214E+03  0.12500000000E+03 0.  0.
         25    1    1    2    0    0 -0.47287441635E+02  0.93368631286E+02 -0.27263934205E+03  0.31766494027E+03  0.12500000000E+03 0.  0.
</event>
<event>
 5    0  0.5550393E-005  0.2279279E+03  0.7546771E-02  0.1128107E+00
         21   -1    0    0  502  501  0.00000000000E+00  0.00000000000E+00  0.86304496668E+02  0.86304496668E+02  0.00000000000E+00 0.  1.
         21   -1    0    0  501  502 -0.00000000000E+00 -0.00000000000E+00 -0.60195135677E+03  0.60195135677E+03  0.00000000000E+00 0.  1.
         25    1    1    2    0    0 -0.74527121549E+02  0.43216237332E+02 -0.96115845949E+02  0.17968080270E+03  0.12500000000E+03 0.  0.
         25    1    1    2    0    0  0.76814667386E+02 -0.44854271520E+02 -0.29273625947E+03  0.33050252103E+03  0.12500000000E+03 0.  0.
         25    1    1    2    0    0 -0.22875458365E+01  0.16380341882E+01 -0.12679475468E+03  0.17807252971E+03  0.12500000000E+03 0.  0.
</event>
<event>
 5    0  0.5550393E-005  0.2393194E+03  0.7546771E-02  0.1120247E+00
         21   -1    0    0  502  501  0.00000000000E+00  0.00000000000E+00  0.12190915668E+03  0.12190915668E+03  0.00000000000E+00 0.  1.
         21   -1    0    0  501  502 -0.00000000000E+00 -0.00000000000E+00 -0.46980719497E+03  0.46980719497E+03  0.00000000000E+00 0.  1.
         25    1    1    2    0    0 -0.38406300472E+02 -0.91951946481E+02 -0.88378152582E+02  0.18266335766E+03  0.12500000000E+03 0.  0.
         25    1    1    2    0    0 -0.54366225855E+02  0.43841651107E+02 -0.70814732940E+02  0.15974198974E+03  0.12500000000E+03 0.  0.
         25    1    1    2    0    0  0.92772526328E+02  0.48110295374E+02 -0.18870515276E+03  0.24931100425E+03  0.12500000000E+03 0.  0.
</event>
<event>
 5    0  0.5550393E-005  0.3199152E+03  0.7546771E-02  0.1075688E+00
         21   -1    0    0  502  501  0.00000000000E+00  0.00000000000E+00  0.43679322054E+03  0.43679322054E+03  0.00000000000E+00 0.  1.
         21   -1    0    0  501  502 -0.00000000000E+00 -0.00000000000E+00 -0.23431164412E+03  0.23431164412E+03  0.00000000000E+00 0.  1.
         25    1    1    2    0    0  0.57036904069E+02  0.79274271879E+02  0.71354272531E+02  0.17393691620E+03  0.12500000000E+03 0.  0.
         25    1    1    2    0    0 -0.21905369467E+03 -0.34990095432E+02  0.13409726341E+03  0.28777752515E+03  0.12500000000E+03 0.  0.
         25    1    1    2    0    0  0.16201679060E+03 -0.44284176447E+02 -0.29699595195E+01  0.20939042332E+03  0.12500000000E+03 0.  0.
</event>
<event>
 5    0  0.5550393E-005  0.4088098E+03  0.7546771E-02  0.1040771E+00
         21   -1    0    0  502  501  0.00000000000E+00  0.00000000000E+00  0.31994492099E+03  0.31994492099E+03  0.00000000000E+00 0.  1.
         21   -1    0    0  501  502 -0.00000000000E+00 -0.00000000000E+00 -0.52235700315E+03  0.52235700315E+03  0.00000000000E+00 0.  1.
         25    1    1    2    0    0  0.11753905221E+03  0.30525667209E+03 -0.20226513847E+03  0.40439244663E+03  0.12500000000E+03 0.  0.
         25    1    1    2    0    0 -0.32939176540E+02 -0.23234687756E+03  0.30079691387E+02  0.26758148048E+03  0.12500000000E+03 0.  0.
         25    1    1    2    0    0 -0.84599875671E+02 -0.72909794523E+02 -0.30226635078E+02  0.17032799702E+03  0.12500000000E+03 0.  0.
</event>
<event>
 5    0  0.5550393E-005  0.2726236E+03  0.7546771E-02  0.1099787E+00
         21   -1    0    0  502  501  0.00000000000E+00  0.00000000000E+00  0.59472074079E+03  0.59472074079E+03  0.00000000000E+00 0. -1.
         21   -1    0    0  501  502 -0.00000000000E+00 -0.00000000000E+00 -0.12497230796E+03  0.12497230796E+03  0.00000000000E+00 0. -1.
         25    1    1    2    0    0 -0.77836990311E+02 -0.45495727938E+02  0.10959195300E+03  0.18911333767E+03  0.12500000000E+03 0.  0.
         25    1    1    2    0    0  0.43836803783E+01 -0.42726085228E+02  0.33356007426E+03  0.35879250013E+03  0.12500000000E+03 0.  0.
         25    1    1    2    0    0  0.73453309933E+02  0.88221813166E+02  0.26596405571E+02  0.17178721095E+03  0.12500000000E+03 0.  0.
</event>
<event>
 5    0  0.5550393E-005  0.3125288E+03  0.7546771E-02  0.1079140E+00
         21   -1    0    0  502  501  0.00000000000E+00  0.00000000000E+00  0.57696504567E+02  0.57696504567E+02  0.00000000000E+00 0.  1.
         21   -1    0    0  501  502 -0.00000000000E+00 -0.00000000000E+00 -0.16928975190E+04  0.16928975190E+04  0.00000000000E+00 0.  1.
         25    1    1    2    0    0 -0.28963394333E+02  0.26319234139E+02 -0.12859275033E+04  0.12925811866E+04  0.12500000000E+03 0.  0.
         25    1    1    2    0    0 -0.34324007664E+02 -0.55905854862E+02 -0.10919580711E+03  0.17847220064E+03  0.12500000000E+03 0.  0.
         25    1    1    2    0    0  0.63287401996E+02  0.29586620723E+02 -0.24007770408E+03  0.27954063636E+03  0.12500000000E+03 0.  0.
</event>
<event>
 5    0  0.5550393E-005  0.4122690E+03  0.7546771E-02  0.1039612E+00
         21   -1    0    0  502  501  0.00000000000E+00  0.00000000000E+00  0.89220118229E+03  0.89220118229E+03  0.00000000000E+00 0. -1.
         21   -1    0    0  501  502 -0.00000000000E+00 -0.00000000000E+00 -0.19050159432E+03  0.19050159432E+03  0.00000000000E+00 0. -1.
         25    1    1    2    0    0 -0.14013859692E+03 -0.14764342813E+03  0.24314186612E+03  0.34085242448E+03  0.12500000000E+03 0.  0.
         25    1    1    2    0    0  0.14624972656E+03  0.23884233296E+03  0.57633223374E+02  0.31205965931E+03  0.12500000000E+03 0.  0.
         25    1    1    2    0    0 -0.61111296435E+01 -0.91198904833E+02  0.40092449848E+03  0.42979069281E+03  0.12500000000E+03 0.  0.
</event>
<event>
 5    0  0.5550393E-005  0.2977455E+03  0.7546771E-02  0.1086373E+00
         21   -1    0    0  502  501  0.00000000000E+00  0.00000000000E+00  0.99386933601E+03  0.99386933601E+03  0.00000000000E+00 0.  1.
         21   -1    0    0  501  502 -0.00000000000E+00 -0.00000000000E+00 -0.89199254757E+02  0.89199254757E+02  0.00000000000E+00 0.  1.
         25    1    1    2    0    0 -0.60795082009E+02  0.47037950987E+02  0.31495153041E+03  0.34745946143E+03  0.12500000000E+03 0.  0.
         25    1    1    2    0    0  0.18337067150E+03  0.23722894485E+02  0.44453665334E+03  0.49741875221E+03  0.12500000000E+03 0.  0.
         25    1    1    2    0    0 -0.12257558949E+03 -0.70760845472E+02  0.14518189750E+03  0.23819037712E+03  0.12500000000E+03 0.  0.
</event>
<event>
 5    0  0.5550393E-005  0.4084504E+03  0.7546771E-02  0.1040892E+00
         21   -1    0    0  502  501  0.00000000000E+00  0.00000000000E+00  0.10492864990E+04  0.10492864990E+04  0.00000000000E+00 0.  1.
         21   -1    0    0  501  502 -0.00000000000E+00 -0.00000000000E+00 -0.15899542430E+03  0.15899542430E+03  0.00000000000E+00 0.  1.
         25    1    1    2    0    0 -0.26757071900E+03  0.82083659454E+02  0.44103917051E+03  0.53709623601E+03  0.12500000000E+03 0.  0.
         25    1    1    2    0    0  0.21650317467E+03  0.31958986614E+02  0.84417788407E+02  0.26579383828E+03  0.12500000000E+03 0.  0.
         25    1    1    2    0    0  0.51067544333E+02 -0.11404264607E+03  0.36483411576E+03  0.40539184899E+03  0.12500000000E+03 0.  0.
</event>
<event>
 5    0  0.5550393E-005  0.3006228E+03  0.7546771E-02  0.1084930E+00
         21   -1    0    0  502  501  0.00000000000E+00  0.00000000000E+00  0.74714262740E+02  0.74714262740E+02  0.00000000000E+00 0. -1.
         21   -1    0    0  501  502 -0.00000000000E+00 -0.00000000000E+00 -0.12095957681E+04  0.12095957681E+04  0.00000000000E+00 0. -1.
         25    1    1    2    0    0 -0.16429580198E+03  0.92269720765E+02 -0.45426918333E+03  0.50743699397E+03  0.12500000000E+03 0.  0.
         25    1    1    2    0    0  0.41255423333E+02  0.57745634668E+02 -0.25699109344E+03  0.29445880932E+03  0.12500000000E+03 0.  0.
         25    1    1    2    0    0  0.12304037865E+03 -0.15001535543E+03 -0.42362122863E+03  0.48241422760E+03  0.12500000000E+03 0.  0.
</event>
<event>
 5    0  0.5550393E-005  0.2860354E+03  0.7546771E-02  0.1092437E+00
         21   -1    0    0  502  501  0.00000000000E+00  0.00000000000E+00  0.15586155737E+03  0.15586155737E+03  0.00000000000E+00 0.  1.
         21   -1    0    0  501  502 -0.00000000000E+00 -0.00000000000E+00 -0.52492910313E+03  0.52492910313E+03  0.00000000000E+00 0.  1.
         25    1    1    2    0    0 -0.65356531193E+02 -0.24316524531E+02 -0.61437211364E+02  0.15576360446E+03  0.12500000000E+03 0.  0.
         25    1    1    2    0    0 -0.12196574160E+03 -0.53093770914E+02 -0.17289448767E+03  0.25142015532E+03  0.12500000000E+03 0.  0.
         25    1    1    2    0    0  0.18732227279E+03  0.77410295445E+02 -0.13473584673E+03  0.27360690071E+03  0.12500000000E+03 0.  0.
</event>
<event>
 5    0  0.5550393E-005  0.3109648E+03  0.7546771E-02  0.1079884E+00
         21   -1    0    0  502  501  0.00000000000E+00  0.00000000000E+00  0.52519430514E+02  0.52519430514E+02  0.00000000000E+00 0. -1.
         21   -1    0    0  501  502 -0.00000000000E+00 -0.00000000000E+00 -0.18412061387E+04  0.18412061387E+04  0.00000000000E+00 0. -1.
         25    1    1    2    0    0 -0.64474881084E+02  0.20042612320E+03 -0.10106037631E+04  0.10398425877E+04  0.12500000000E+03 0.  0.
         25    1    1    2    0    0  0.88598817327E+02 -0.14315717016E+03 -0.51515709010E+03  0.55619740495E+03  0.12500000000E+03 0.  0.
         25    1    1    2    0    0 -0.24123936242E+02 -0.57268953040E+02 -0.26292585495E+03  0.29768557654E+03  0.12500000000E+03 0.  0.
</event>
<event>
 5    0  0.5550393E-005  0.3132283E+03  0.7546771E-02  0.1078809E+00
         21   -1    0    0  502  501  0.00000000000E+00  0.00000000000E+00  0.81482303529E+02  0.81482303529E+02  0.00000000000E+00 0. -1.
         21   -1    0    0  501  502 -0.00000000000E+00 -0.00000000000E+00 -0.12040894692E+04  0.12040894692E+04  0.00000000000E+00 0. -1.
         25    1    1    2    0    0 -0.10831882542E+03  0.53038162616E+02 -0.39904858452E+03  0.43521349639E+03  0.12500000000E+03 0.  0.
         25    1    1    2    0    0  0.15010879108E+03 -0.26003513097E+02 -0.68145998156E+03  0.70938109527E+03  0.12500000000E+03 0.  0.
         25    1    1    2    0    0 -0.41789965657E+02 -0.27034649519E+02 -0.42098599637E+02  0.14097718112E+03  0.12500000000E+03 0.  0.
</event>
<event>
 5    0  0.5550393E-005  0.3286379E+03  0.7546771E-02  0.1071741E+00
         21   -1    0    0  502  501  0.00000000000E+00  0.00000000000E+00  0.16875197640E+04  0.16875197640E+04  0.00000000000E+00 0. -1.
         21   -1    0    0  501  502 -0.00000000000E+00 -0.00000000000E+00 -0.64000936253E+02  0.64000936253E+02  0.00000000000E+00 0. -1.
         25    1    1    2    0    0  0.64685357270E+02  0.75592438732E+02  0.70237733973E+03  0.72031752694E+03  0.12500000000E+03 0.  0.
         25    1    1    2    0    0  0.10646608394E+03  0.16559415879E+02  0.66950600171E+03  0.68954515995E+03  0.12500000000E+03 0.  0.
         25    1    1    2    0    0 -0.17115144121E+03 -0.92151854610E+02  0.25163548632E+03  0.34165801339E+03  0.12500000000E+03 0.  0.
</event>
<event>
 5    0  0.5550393E-005  0.3850662E+03  0.7546771E-02  0.1049077E+00
         21   -1    0    0  502  501  0.00000000000E+00  0.00000000000E+00  0.12432506373E+04  0.12432506373E+04  0.00000000000E+00 0. -1.
         21   -1    0    0  501  502 -0.00000000000E+00 -0.00000000000E+00 -0.11926477563E+03  0.11926477563E+03  0.00000000000E+00 0. -1.
         25    1    1    2    0    0 -0.15936285661E+03 -0.92047884155E+02  0.24411233316E+03  0.33028043273E+03  0.12500000000E+03 0.  0.
         25    1    1    2    0    0 -0.14354606056E+03 -0.13729539212E+02  0.25158108310E+03  0.31577209048E+03  0.12500000000E+03 0.  0.
         25    1    1    2    0    0  0.30290891717E+03  0.10577742337E+03  0.62829244539E+03  0.71646288971E+03  0.12500000000E+03 0.  0.
</event>
<event>
 5    0  0.5550393E-005  0.3344703E+03  0.7546771E-02  0.1069176E+00
         21   -1    0    0  502  501  0.00000000000E+00  0.00000000000E+00  0.93732814919E+03  0.93732814919E+03  0.00000000000E+00 0.  1.
         21   -1    0    0  501  502 -0.00000000000E+00 -0.00000000000E+00 -0.11935025612E+03  0.11935025612E+03  0.00000000000E+00 0.  1.
         25    1    1    2    0    0  0.14345323478E+02 -0.47296178139E+02  0.51144969788E+03  0.52881803130E+03  0.12500000000E+03 0.  0.
         25    1    1    2    0    0 -0.97924285620E+02  0.60132880601E+02  0.33379841269E+03  0.37450168138E+03  0.12500000000E+03 0.  0.
         25    1    1    2    0    0  0.83578962142E+02 -0.12836702462E+02 -0.27270217499E+02  0.15335869263E+03  0.12500000000E+03 0.  0.
</event>
<event>
 5    0  0.5550393E-005  0.5385828E+03  0.7546771E-02  0.1004172E+00
         21   -1    0    0  502  501  0.00000000000E+00  0.00000000000E+00  0.21113702211E+04  0.21113702211E+04  0.00000000000E+00 0. -1.
         21   -1    0    0  501  502 -0.00000000000E+00 -0.00000000000E+00 -0.13738539268E+03  0.13738539268E+03  0.00000000000E+00 0. -1.
         25    1    1    2    0    0 -0.66722471899E+02 -0.18747201633E+03  0.12688712034E+04  0.12904482849E+04  0.12500000000E+03 0.  0.
         25    1    1    2    0    0  0.67490779851E+02  0.24265256690E+03  0.76054112239E+03  0.81085329896E+03  0.12500000000E+03 0.  0.
         25    1    1    2    0    0 -0.76830795151E+00 -0.55180550574E+02 -0.55427497420E+02  0.14745402988E+03  0.12500000000E+03 0.  0.
</event>
<event>
 5    0  0.5550393E-005  0.4523540E+03  0.7546771E-02  0.1027022E+00
         21   -1    0    0  502  501  0.00000000000E+00  0.00000000000E+00  0.20556542936E+04  0.20556542936E+04  0.00000000000E+00 0.  1.
         21   -1    0    0  501  502 -0.00000000000E+00 -0.00000000000E+00 -0.99542085436E+02  0.99542085436E+02  0.00000000000E+00 0. -1.
         25    1    1    2    0    0  0.20092749450E+03 -0.38757246776E+02  0.46687799782E+03  0.52485621561E+03  0.12500000000E+03 0.  0.
         25    1    1    2    0    0 -0.31261489229E+03 -0.33519033451E+02  0.13726675745E+04  0.14137513454E+04  0.12500000000E+03 0.  0.
         25    1    1    2    0    0  0.11168739779E+03  0.72276280227E+02  0.11656663585E+03  0.21658881804E+03  0.12500000000E+03 0.  0.
</event>
<event>
 5    0  0.5550393E-005  0.4442978E+03  0.7546771E-02  0.1029436E+00
         21   -1    0    0  502  501  0.00000000000E+00  0.00000000000E+00  0.21528578251E+03  0.21528578251E+03  0.00000000000E+00 0.  1.
         21   -1    0    0  501  502 -0.00000000000E+00 -0.00000000000E+00 -0.91692304910E+03  0.91692304910E+03  0.00000000000E+00 0.  1.
         25    1    1    2    0    0  0.14901649352E+03  0.30071663758E+03 -0.17312992483E+03  0.39778811235E+03  0.12500000000E+03 0.  0.
         25    1    1    2    0    0 -0.10448151317E+03 -0.31691834421E+03 -0.28366460417E+03  0.45546046058E+03  0.12500000000E+03 0.  0.
         25    1    1    2    0    0 -0.44534980347E+02  0.16201706631E+02 -0.24484273759E+03  0.27896025868E+03  0.12500000000E+03 0.  0.
</event>
<event>
 5    0  0.6074428E-005  0.3216604E+03  0.7546771E-02  0.1074888E+00
         21   -1    0    0  502  501  0.00000000000E+00  0.00000000000E+00  0.34506031444E+03  0.34506031444E+03  0.00000000000E+00 0. -1.
         21   -1    0    0  501  502 -0.00000000000E+00 -0.00000000000E+00 -0.29984729936E+03  0.29984729936E+03  0.00000000000E+00 0. -1.
         25    1    1    2    0    0  0.16176837641E+03 -0.50142768642E+02  0.71420287355E+02  0.22228171832E+03  0.12500000000E+03 0.  0.
         25    1    1    2    0    0 -0.70220880617E+02  0.89900302422E+02  0.11876749808E+03  0.20674562885E+03  0.12500000000E+03 0.  0.
         25    1    1    2    0    0 -0.91547495797E+02 -0.39757533780E+02 -0.14497477035E+03  0.21588026662E+03  0.12500000000E+03 0.  0.
</event>
<event>
 5    0  0.5929263E-005  0.2515424E+03  0.7546771E-02  0.1112334E+00
         21   -1    0    0  502  501  0.00000000000E+00  0.00000000000E+00  0.95938648184E+03  0.95938648184E+03  0.00000000000E+00 0.  1.
         21   -1    0    0  501  502 -0.00000000000E+00 -0.00000000000E+00 -0.65952102468E+02  0.65952102468E+02  0.00000000000E+00 0.  1.
         25    1    1    2    0    0 -0.30651431688E+02  0.28076505215E+02  0.36767327367E+03  0.39055913327E+03  0.12500000000E+03 0.  0.
         25    1    1    2    0    0  0.29994529444E+02 -0.26151822513E+01  0.48363696374E+03  0.50043603354E+03  0.12500000000E+03 0.  0.
         25    1    1    2    0    0  0.65690224396E+00 -0.25461322964E+02  0.42124141963E+02  0.13434341749E+03  0.12500000000E+03 0.  0.
</event>
<event>
 5    0  0.5550393E-005  0.2710666E+03  0.7546771E-02  0.1100671E+00
         21   -1    0    0  502  501  0.00000000000E+00  0.00000000000E+00  0.30664206715E+03  0.30664206715E+03  0.00000000000E+00 0.  1.
         21   -1    0    0  501  502 -0.00000000000E+00 -0.00000000000E+00 -0.23961844834E+03  0.23961844834E+03  0.00000000000E+00 0.  1.
         25    1    1    2    0    0  0.42228725365E+02 -0.10383021670E+03 -0.71114368238E+02  0.18233549440E+03  0.12500000000E+03 0.  0.
         25    1    1    2    0    0 -0.25137446832E+02  0.23702016684E+02 -0.35856602999E+02  0.13455249090E+03  0.12500000000E+03 0.  0.
         25    1    1    2    0    0 -0.17091278532E+02  0.80128200020E+02  0.17399459005E+03  0.22937253019E+03  0.12500000000E+03 0.  0.
</event>
<event>
 5    0  0.5550393E-005  0.2935965E+03  0.7546771E-02  0.1088486E+00
         21   -1    0    0  502  501  0.00000000000E+00  0.00000000000E+00  0.38678595249E+02  0.38678595249E+02  0.00000000000E+00 0.  1.
         21   -1    0    0  501  502 -0.00000000000E+00 -0.00000000000E+00 -0.22285943432E+04  0.22285943432E+04  0.00000000000E+00 0.  1.
         25    1    1    2    0    0  0.98047456770E+02  0.14280488468E+02 -0.94392952219E+03  0.95731143261E+03  0.12500000000E+03 0.  0.
         25    1    1    2    0    0 -0.13133083539E+03 -0.13525509706E+03 -0.74554019471E+03  0.77910006516E+03  0.12500000000E+03 0.  0.
         25    1    1    2    0    0  0.33283378615E+02  0.12097460859E+03 -0.50044603109E+03  0.53086144072E+03  0.12500000000E+03 0.  0.
</event>
<event>
 5    0  0.5550393E-005  0.4606258E+03  0.7546771E-02  0.1024600E+00
         21   -1    0    0  502  501  0.00000000000E+00  0.00000000000E+00  0.69842683873E+03  0.69842683873E+03  0.00000000000E+00 0. -1.
         21   -1    0    0  501  502 -0.00000000000E+00 -0.00000000000E+00 -0.30379143735E+03  0.30379143735E+03  0.00000000000E+00 0. -1.
         25    1    1    2    0    0  0.71682221898E+01  0.14051895907E+03  0.58858876060E+03  0.61794715823E+03  0.12500000000E+03 0.  0.
         25    1    1    2    0    0 -0.49957101251E+02 -0.22234301140E+02 -0.14755844968E+03  0.20096908266E+03  0.12500000000E+03 0.  0.
         25    1    1    2    0    0  0.42788879061E+02 -0.11828465793E+03 -0.46394909532E+02  0.18330203518E+03  0.12500000000E+03 0.  0.
</event>
<event>
 5    0  0.5719220E-005  0.3311297E+03  0.7546771E-02  0.1070638E+00
         21   -1    0    0  502  501  0.00000000000E+00  0.00000000000E+00  0.31043452024E+03  0.31043452024E+03  0.00000000000E+00 0. -1.
         21   -1    0    0  501  502 -0.00000000000E+00 -0.00000000000E+00 -0.35320461706E+03  0.35320461706E+03  0.00000000000E+00 0. -1.
         25    1    1    2    0    0 -0.23550957896E+02 -0.19047835016E+02  0.14082478720E+03  0.19071992116E+03  0.12500000000E+03 0.  0.
         25    1    1    2    0    0 -0.70880647846E+02  0.19691492926E+02 -0.26068508155E+03  0.29831783868E+03  0.12500000000E+03 0.  0.
         25    1    1    2    0    0  0.94431605742E+02 -0.64365791088E+00  0.77090197529E+02  0.17460137747E+03  0.12500000000E+03 0.  0.
</event>
<event>
 5    0  0.5550393E-005  0.2934590E+03  0.7546771E-02  0.1088557E+00
         21   -1    0    0  502  501  0.00000000000E+00  0.00000000000E+00  0.22561954636E+04  0.22561954636E+04  0.00000000000E+00 0. -1.
         21   -1    0    0  501  502 -0.00000000000E+00 -0.00000000000E+00 -0.38169645137E+02  0.38169645137E+02  0.00000000000E+00 0. -1.
         25    1    1    2    0    0 -0.11248613000E+03 -0.11564953336E+03  0.46874350093E+03  0.51124692045E+03  0.12500000000E+03 0.  0.
         25    1    1    2    0    0 -0.23721237749E+02  0.26646190311E+01  0.56193135431E+03  0.57616112701E+03  0.12500000000E+03 0.  0.
         25    1    1    2    0    0  0.13620736775E+03  0.11298491433E+03  0.11873509632E+04  0.12069570613E+04  0.12500000000E+03 0.  0.
</event>
<event>
 5    0  0.5550393E-005  0.3134994E+03  0.7546771E-02  0.1078681E+00
         21   -1    0    0  502  501  0.00000000000E+00  0.00000000000E+00  0.62964732468E+03  0.62964732468E+03  0.00000000000E+00 0. -1.
         21   -1    0    0  501  502 -0.00000000000E+00 -0.00000000000E+00 -0.15609031791E+03  0.15609031791E+03  0.00000000000E+00 0. -1.
         25    1    1    2    0    0 -0.34404092625E+02 -0.48096792189E+02  0.18051293641E+03  0.22739143172E+03  0.12500000000E+03 0.  0.
         25    1    1    2    0    0 -0.11215573055E+03  0.70024258213E+02  0.31444904146E+03  0.36329809290E+03  0.12500000000E+03 0.  0.
         25    1    1    2    0    0  0.14655982317E+03 -0.21927466024E+02 -0.21404971099E+02  0.19504811797E+03  0.12500000000E+03 0.  0.
</event>
<event>
 5    0  0.5550393E-005  0.7639920E+03  0.7546771E-02  0.9613651E-01
         21   -1    0    0  502  501  0.00000000000E+00  0.00000000000E+00  0.18735705193E+03  0.18735705193E+03  0.00000000000E+00 0.  1.
         21   -1    0    0  501  502 -0.00000000000E+00 -0.00000000000E+00 -0.31153552253E+04  0.31153552253E+04  0.00000000000E+00 0.  1.
         25    1    1    2    0    0 -0.11128761420E+03 -0.50239238768E+03 -0.13433383304E+04  0.14439411048E+04  0.12500000000E+03 0.  0.
         25    1    1    2    0    0 -0.11852251862E+03 -0.89305143656E+02 -0.60906770307E+02  0.20336575615E+03  0.12500000000E+03 0.  0.
         25    1    1    2    0    0  0.22981013283E+03  0.59169753133E+03 -0.15237530726E+04  0.16554054162E+04  0.12500000000E+03 0.  0.
</event>
<event>
 5    0  0.6203519E-005  0.2867710E+03  0.7546771E-02  0.1092047E+00
         21   -1    0    0  502  501  0.00000000000E+00  0.00000000000E+00  0.44295019611E+03  0.44295019611E+03  0.00000000000E+00 0.  1.
         21   -1    0    0  501  502 -0.00000000000E+00 -0.00000000000E+00 -0.18565879555E+03  0.18565879555E+03  0.00000000000E+00 0.  1.
         25    1    1    2    0    0  0.45965344315E+02  0.81954556653E+02  0.29557435814E+03  0.33439282801E+03  0.12500000000E+03 0.  0.
         25    1    1    2    0    0 -0.93056381939E+01 -0.91934639103E+02  0.79001563982E+01  0.15564698918E+03  0.12500000000E+03 0.  0.
         25    1    1    2    0    0 -0.36659706121E+02  0.99800824495E+01 -0.46183113973E+02  0.13856917448E+03  0.12500000000E+03 0.  0.
</event>
<event>
 5    0  0.5550393E-005  0.5605907E+03  0.7546771E-02  0.9990719E-01
         21   -1    0    0  502  501  0.00000000000E+00  0.00000000000E+00  0.94712900928E+03  0.94712900928E+03  0.00000000000E+00 0. -1.
         21   -1    0    0  501  502 -0.00000000000E+00 -0.00000000000E+00 -0.33180478626E+03  0.33180478626E+03  0.00000000000E+00 0. -1.
         25    1    1    2    0    0 -0.22940647912E+03  0.15249438019E+03 -0.91542291096E+02  0.31604882489E+03  0.12500000000E+03 0.  0.
         25    1    1    2    0    0  0.39087957976E+03 -0.28613163356E+02  0.49489879308E+03  0.64354904583E+03  0.12500000000E+03 0.  0.
         25    1    1    2    0    0 -0.16147310065E+03 -0.12388121684E+03  0.21196772104E+03  0.31933592482E+03  0.12500000000E+03 0.  0.
</event>
<event>
 5    0  0.5721257E-005  0.4074013E+03  0.7546771E-02  0.1041247E+00
         21   -1    0    0  502  501  0.00000000000E+00  0.00000000000E+00  0.33180066307E+03  0.33180066307E+03  0.00000000000E+00 0. -1.
         21   -1    0    0  501  502 -0.00000000000E+00 -0.00000000000E+00 -0.50022750154E+03  0.50022750154E+03  0.00000000000E+00 0. -1.
         25    1    1    2    0    0  0.15437056653E+03 -0.68689064946E+01  0.21507523091E+03  0.29284775676E+03  0.12500000000E+03 0.  0.
         25    1    1    2    0    0 -0.17342216316E+03  0.34734556633E+02 -0.12499636141E+03  0.25006164533E+03  0.12500000000E+03 0.  0.
         25    1    1    2    0    0  0.19051596623E+02 -0.27865650139E+02 -0.25850570797E+03  0.28911876253E+03  0.12500000000E+03 0.  0.
</event>
<event>
 5    0  0.5791397E-005  0.2890647E+03  0.7546771E-02  0.1090838E+00
         21   -1    0    0  502  501  0.00000000000E+00  0.00000000000E+00  0.46320358563E+03  0.46320358563E+03  0.00000000000E+00 0.  1.
         21   -1    0    0  501  502 -0.00000000000E+00 -0.00000000000E+00 -0.18039242782E+03  0.18039242782E+03  0.00000000000E+00 0.  1.
         25    1    1    2    0    0  0.41107499663E+02  0.35238572649E+02 -0.29501321384E+02  0.13938045593E+03  0.12500000000E+03 0.  0.
         25    1    1    2    0    0 -0.74733129855E+02 -0.15102112448E+03  0.23224306960E+03  0.31297645936E+03  0.12500000000E+03 0.  0.
         25    1    1    2    0    0  0.33625630192E+02  0.11578255183E+03  0.80069409602E+02  0.19123909817E+03  0.12500000000E+03 0.  0.
</event>
<event>
 5    0  0.5550393E-005  0.4834878E+03  0.7546771E-02  0.1018181E+00
         21   -1    0    0  502  501  0.00000000000E+00  0.00000000000E+00  0.18969270675E+04  0.18969270675E+04  0.00000000000E+00 0. -1.
         21   -1    0    0  501  502 -0.00000000000E+00 -0.00000000000E+00 -0.12323110530E+03  0.12323110530E+03  0.00000000000E+00 0. -1.
         25    1    1    2    0    0  0.23461915462E+03 -0.14470906719E+03  0.79847647419E+03  0.85391834602E+03  0.12500000000E+03 0.  0.
         25    1    1    2    0    0  0.93995453116E+02 -0.12167969020E+03  0.31942879141E+03  0.37590004655E+03  0.12500000000E+03 0.  0.
         25    1    1    2    0    0 -0.32861460773E+03  0.26638875738E+03  0.65579069659E+03  0.79033978023E+03  0.12500000000E+03 0.  0.
</event>
<event>
 5    0  0.5550393E-005  0.3089046E+03  0.7546771E-02  0.1080872E+00
         21   -1    0    0  502  501  0.00000000000E+00  0.00000000000E+00  0.83962760908E+03  0.83962760908E+03  0.00000000000E+00 0. -1.
         21   -1    0    0  501  502 -0.00000000000E+00 -0.00000000000E+00 -0.11364805994E+03  0.11364805994E+03  0.00000000000E+00 0. -1.
         25    1    1    2    0    0  0.78873326417E+02  0.41128427207E+02  0.68657431519E+02  0.16808150418E+03  0.12500000000E+03 0.  0.
         25    1    1    2    0    0  0.45752617196E+02 -0.43035549149E+02  0.57251017754E+03  0.58935410735E+03  0.12500000000E+03 0.  0.
         25    1    1    2    0    0 -0.12462594361E+03  0.19071219419E+01  0.84811940079E+02  0.19584005748E+03  0.12500000000E+03 0.  0.
</event>
<event>
 5    0  0.5550393E-005  0.2856581E+03  0.7546771E-02  0.1092638E+00
         21   -1    0    0  502  501  0.00000000000E+00  0.00000000000E+00  0.22908886185E+03  0.22908886185E+03  0.00000000000E+00 0.  1.
         21   -1    0    0  501  502 -0.00000000000E+00 -0.00000000000E+00 -0.35619615592E+03  0.35619615592E+03  0.00000000000E+00 0.  1.
         25    1    1    2    0    0 -0.21083742872E+02  0.18111716557E+02 -0.61871778164E+02  0.14221700118E+03  0.12500000000E+03 0.  0.
         25    1    1    2    0    0  0.11444812837E+03  0.53993587637E+02 -0.16644855303E+03  0.24360583408E+03  0.12500000000E+03 0.  0.
         25    1    1    2    0    0 -0.93364385495E+02 -0.72105304193E+02  0.10121303712E+03  0.19946218252E+03  0.12500000000E+03 0.  0.
</event>
<event>
 5    0  0.5550393E-005  0.2879669E+03  0.7546771E-02  0.1091415E+00
         21   -1    0    0  502  501  0.00000000000E+00  0.00000000000E+00  0.33098525508E+03  0.33098525508E+03  0.00000000000E+00 0. -1.
         21   -1    0    0  501  502 -0.00000000000E+00 -0.00000000000E+00 -0.25053965623E+03  0.25053965623E+03  0.00000000000E+00 0. -1.
         25    1    1    2    0    0 -0.71993222817E+02  0.44762604120E+02 -0.85176027751E+02  0.17339743528E+03  0.12500000000E+03 0.  0.
         25    1    1    2    0    0 -0.57803136928E+02 -0.10670713260E+03  0.12188399312E+03  0.21262248838E+03  0.12500000000E+03 0.  0.
         25    1    1    2    0    0  0.12979635974E+03  0.61944528483E+02  0.43737633484E+02  0.19550498765E+03  0.12500000000E+03 0.  0.
</event>
<event>
 5    0  0.5550393E-005  0.6362276E+03  0.7546771E-02  0.9832971E-01
         21   -1    0    0  502  501  0.00000000000E+00  0.00000000000E+00  0.70454314679E+03  0.70454314679E+03  0.00000000000E+00 0. -1.
         21   -1    0    0  501  502 -0.00000000000E+00 -0.00000000000E+00 -0.57453622619E+03  0.57453622619E+03  0.00000000000E+00 0. -1.
         25    1    1    2    0    0 -0.61351185565E+02  0.24043963930E+02 -0.60443260022E+02  0.15368951771E+03  0.12500000000E+03 0.  0.
         25    1    1    2    0    0  0.34062130240E+03  0.41666381233E+03  0.20333200404E+03  0.58872787264E+03  0.12500000000E+03 0.  0.
         25    1    1    2    0    0 -0.27927011684E+03 -0.44070777626E+03 -0.12881823418E+02  0.53666198262E+03  0.12500000000E+03 0.  0.
</event>
<event>
 5    0  0.5615261E-005  0.3434299E+03  0.7546771E-02  0.1065344E+00
         21   -1    0    0  502  501  0.00000000000E+00  0.00000000000E+00  0.11596346040E+04  0.11596346040E+04  0.00000000000E+00 0.  1.
         21   -1    0    0  501  502 -0.00000000000E+00 -0.00000000000E+00 -0.10170798744E+03  0.10170798744E+03  0.00000000000E+00 0.  1.
         25    1    1    2    0    0  0.23817116378E+03 -0.11998169648E+03  0.34623722488E+03  0.45456168629E+03  0.12500000000E+03 0.  0.
         25    1    1    2    0    0 -0.78382611792E+02  0.85813594809E+02  0.37832743254E+03  0.41504753113E+03  0.12500000000E+03 0.  0.
         25    1    1    2    0    0 -0.15978855199E+03  0.34168101676E+02  0.33336195915E+03  0.39173337403E+03  0.12500000000E+03 0.  0.
</event>
<event>
 5    0  0.6341069E-005  0.2675816E+03  0.7546771E-02  0.1102672E+00
         21   -1    0    0  502  501  0.00000000000E+00  0.00000000000E+00  0.21388677425E+03  0.21388677425E+03  0.00000000000E+00 0. -1.
         21   -1    0    0  501  502 -0.00000000000E+00 -0.00000000000E+00 -0.33475611424E+03  0.33475611424E+03  0.00000000000E+00 0. -1.
         25    1    1    2    0    0 -0.79619437594E+02 -0.40732685603E+02 -0.60147881985E+02  0.16504900553E+03  0.12500000000E+03 0.  0.
         25    1    1    2    0    0 -0.25000156077E+01 -0.51727166250E+02 -0.13643725362E+03  0.19215117481E+03  0.12500000000E+03 0.  0.
         25    1    1    2    0    0  0.82119453202E+02  0.92459851853E+02  0.75715795614E+02  0.19144270815E+03  0.12500000000E+03 0.  0.
</event>
<event>
 5    0  0.5550393E-005  0.2366654E+03  0.7546771E-02  0.1122034E+00
         21   -1    0    0  502  501  0.00000000000E+00  0.00000000000E+00  0.30183511388E+04  0.30183511388E+04  0.00000000000E+00 0.  1.
         21   -1    0    0  501  502 -0.00000000000E+00 -0.00000000000E+00 -0.18556664403E+02  0.18556664403E+02  0.00000000000E+00 0.  1.
         25    1    1    2    0    0 -0.40840505818E+02 -0.39259486440E+02  0.76962880986E+03  0.78176899347E+03  0.12500000000E+03 0.  0.
         25    1    1    2    0    0  0.39776653295E+02 -0.49904414264E+02  0.53743367742E+03  0.55545710035E+03  0.12500000000E+03 0.  0.
         25    1    1    2    0    0  0.10638525231E+01  0.89163900704E+02  0.16927319871E+04  0.16996817094E+04  0.12500000000E+03 0.  0.
</event>
<event>
 5    0  0.5550393E-005  0.3261444E+03  0.7546771E-02  0.1072856E+00
         21   -1    0    0  502  501  0.00000000000E+00  0.00000000000E+00  0.65331409682E+02  0.65331409682E+02  0.00000000000E+00 0. -1.
         21   -1    0    0  501  502 -0.00000000000E+00 -0.00000000000E+00 -0.16281624754E+04  0.16281624754E+04  0.00000000000E+00 0. -1.
         25    1    1    2    0    0  0.15210997269E+03  0.46075669818E+02 -0.69597685375E+03  0.72475457370E+03  0.12500000000E+03 0.  0.
         25    1    1    2    0    0 -0.17924573081E+03  0.10121313054E+02 -0.23272462086E+03  0.31940134963E+03  0.12500000000E+03 0.  0.
         25    1    1    2    0    0  0.27135758122E+02 -0.56196982871E+02 -0.63412959107E+03  0.64933796172E+03  0.12500000000E+03 0.  0.
</event>
<event>
 5    0  0.5704228E-005  0.2614765E+03  0.7546771E-02  0.1106259E+00
         21   -1    0    0  502  501  0.00000000000E+00  0.00000000000E+00  0.11444878605E+03  0.11444878605E+03  0.00000000000E+00 0.  1.
         21   -1    0    0  501  502 -0.00000000000E+00 -0.00000000000E+00 -0.59738481467E+03  0.59738481467E+03  0.00000000000E+00 0.  1.
         25    1    1    2    0    0  0.14026196242E+03 -0.27668785185E+01 -0.30732072860E+03  0.36021119353E+03  0.12500000000E+03 0.  0.
         25    1    1    2    0    0 -0.32457713401E+02 -0.34779436260E+02 -0.59755303006E+02  0.14648825408E+03  0.12500000000E+03 0.  0.
         25    1    1    2    0    0 -0.10780424902E+03  0.37546314778E+02 -0.11585999702E+03  0.20513415310E+03  0.12500000000E+03 0.  0.
</event>
<event>
 5    0  0.5550393E-005  0.2868182E+03  0.7546771E-02  0.1092022E+00
         21   -1    0    0  502  501  0.00000000000E+00  0.00000000000E+00  0.32750096075E+03  0.32750096075E+03  0.00000000000E+00 0. -1.
         21   -1    0    0  501  502 -0.00000000000E+00 -0.00000000000E+00 -0.25118906491E+03  0.25118906491E+03  0.00000000000E+00 0. -1.
         25    1    1    2    0    0  0.78080844642E+02 -0.67844701268E+02  0.90571838114E+02  0.18581652147E+03  0.12500000000E+03 0.  0.
         25    1    1    2    0    0 -0.10127488980E+03 -0.35581658202E+02 -0.11460532952E+03  0.20070385960E+03  0.12500000000E+03 0.  0.
         25    1    1    2    0    0  0.23194045154E+02  0.10342635947E+03  0.10034538725E+03  0.19216964460E+03  0.12500000000E+03 0.  0.
</event>
<event>
 5    0  0.5550393E-005  0.3154060E+03  0.7546771E-02  0.1077783E+00
         21   -1    0    0  502  501  0.00000000000E+00  0.00000000000E+00  0.21824716524E+03  0.21824716524E+03  0.00000000000E+00 0. -1.
         21   -1    0    0  501  502 -0.00000000000E+00 -0.00000000000E+00 -0.45581782761E+03  0.45581782761E+03  0.00000000000E+00 0. -1.
         25    1    1    2    0    0  0.22276367589E+02 -0.82340457935E+02 -0.37629092013E+02  0.15593952716E+03  0.12500000000E+03 0.  0.
         25    1    1    2    0    0 -0.29384571295E+02 -0.61589300200E+02 -0.27772627181E+03  0.31211148166E+03  0.12500000000E+03 0.  0.
         25    1    1    2    0    0  0.71082037056E+01  0.14392975813E+03  0.77784701456E+02  0.20601398403E+03  0.12500000000E+03 0.  0.
</event>
<event>
 5    0  0.5550393E-005  0.2980530E+03  0.7546771E-02  0.1086218E+00
         21   -1    0    0  502  501  0.00000000000E+00  0.00000000000E+00  0.42388557348E+02  0.42388557348E+02  0.00000000000E+00 0.  1.
         21   -1    0    0  501  502 -0.00000000000E+00 -0.00000000000E+00 -0.20957445257E+04  0.20957445257E+04  0.00000000000E+00 0.  1.
         25    1    1    2    0    0  0.24597653437E+02  0.74039035823E+02 -0.91632387926E+03  0.92809550968E+03  0.12500000000E+03 0.  0.
         25    1    1    2    0    0  0.38196956438E+02  0.53558361596E+02 -0.87741176016E+03  0.88870912139E+03  0.12500000000E+03 0.  0.
         25    1    1    2    0    0 -0.62794609875E+02 -0.12759739742E+03 -0.25962032894E+03  0.32132845199E+03  0.12500000000E+03 0.  0.
</event>
<event>
 5    0  0.5550393E-005  0.2530440E+03  0.7546771E-02  0.1111396E+00
         21   -1    0    0  502  501  0.00000000000E+00  0.00000000000E+00  0.26501202547E+03  0.26501202547E+03  0.00000000000E+00 0.  1.
         21   -1    0    0  501  502 -0.00000000000E+00 -0.00000000000E+00 -0.24161638758E+03  0.24161638758E+03  0.00000000000E+00 0.  1.
         25    1    1    2    0    0  0.50366737606E+02 -0.12163758174E+03  0.77191482862E+02  0.19727147431E+03  0.12500000000E+03 0.  0.
         25    1    1    2    0    0  0.14679877362E+02  0.15528323668E+02 -0.77445457936E+01  0.12704961875E+03  0.12500000000E+03 0.  0.
         25    1    1    2    0    0 -0.65046614969E+02  0.10610925807E+03 -0.46051299172E+02  0.18230731999E+03  0.12500000000E+03 0.  0.
</event>
<event>
 5    0  0.5550393E-005  0.5323689E+03  0.7546771E-02  0.1005659E+00
         21   -1    0    0  502  501  0.00000000000E+00  0.00000000000E+00  0.13838150859E+03  0.13838150859E+03  0.00000000000E+00 0.  1.
         21   -1    0    0  501  502 -0.00000000000E+00 -0.00000000000E+00 -0.20480818332E+04  0.20480818332E+04  0.00000000000E+00 0.  1.
         25    1    1    2    0    0  0.65912545887E+02  0.18723710624E+03 -0.15819159339E+04  0.15992139380E+04  0.12500000000E+03 0.  0.
         25    1    1    2    0    0  0.11011315569E+03 -0.69650013493E+02 -0.38585398545E+01  0.18059878118E+03  0.12500000000E+03 0.  0.
         25    1    1    2    0    0 -0.17602570157E+03 -0.11758709274E+03 -0.32392585088E+03  0.40665062260E+03  0.12500000000E+03 0.  0.
</event>
<event>
 5    0  0.5885698E-005  0.3000678E+03  0.7546771E-02  0.1085207E+00
         21   -1    0    0  502  501  0.00000000000E+00  0.00000000000E+00  0.50343286034E+03  0.50343286034E+03  0.00000000000E+00 0. -1.
         21   -1    0    0  501  502 -0.00000000000E+00 -0.00000000000E+00 -0.17885342420E+03  0.17885342420E+03  0.00000000000E+00 0. -1.
         25    1    1    2    0    0  0.32825812049E+02 -0.77144864021E+02  0.10564326731E+03  0.18388682364E+03  0.12500000000E+03 0.  0.
         25    1    1    2    0    0  0.79030741291E+02 -0.62147955422E+02  0.22961772331E+03  0.28010270490E+03  0.12500000000E+03 0.  0.
         25    1    1    2    0    0 -0.11185655334E+03  0.13929281944E+03 -0.10681554484E+02  0.21829675600E+03  0.12500000000E+03 0.  0.
</event>
<event>
 5    0  0.5550393E-005  0.3018658E+03  0.7546771E-02  0.1084312E+00
         21   -1    0    0  502  501  0.00000000000E+00  0.00000000000E+00  0.33223584005E+02  0.33223584005E+02  0.00000000000E+00 0.  1.
         21   -1    0    0  501  502 -0.00000000000E+00 -0.00000000000E+00 -0.27427196155E+04  0.27427196155E+04  0.00000000000E+00 0.  1.
         25    1    1    2    0    0 -0.71618582580E+01 -0.90419622904E+02 -0.60175531536E+03  0.62125796573E+03  0.12500000000E+03 0.  0.
         25    1    1    2    0    0  0.13975383352E+01  0.22470246537E+03 -0.14070725215E+04  0.14303745076E+04  0.12500000000E+03 0.  0.
         25    1    1    2    0    0  0.57643199228E+01 -0.13428284247E+03 -0.70066819459E+03  0.72431072619E+03  0.12500000000E+03 0.  0.
</event>
<event>
 5    0  0.5550393E-005  0.2899754E+03  0.7546771E-02  0.1090362E+00
         21   -1    0    0  502  501  0.00000000000E+00  0.00000000000E+00  0.29512518245E+03  0.29512518245E+03  0.00000000000E+00 0. -1.
         21   -1    0    0  501  502 -0.00000000000E+00 -0.00000000000E+00 -0.28491543485E+03  0.28491543485E+03  0.00000000000E+00 0. -1.
         25    1    1    2    0    0  0.12358549663E+03  0.57222953259E+02  0.11769139115E+03  0.21914402777E+03  0.12500000000E+03 0.  0.
         25    1    1    2    0    0 -0.32608471244E+02  0.53139485781E+02 -0.98140608962E+02  0.17071524968E+03  0.12500000000E+03 0.  0.
         25    1    1    2    0    0 -0.90977025387E+02 -0.11036243904E+03 -0.93410345985E+01  0.19018133985E+03  0.12500000000E+03 0.  0.
</event>
<event>
 5    0  0.5550393E-005  0.5271181E+03  0.7546771E-02  0.1006933E+00
         21   -1    0    0  502  501  0.00000000000E+00  0.00000000000E+00  0.28908805883E+03  0.28908805883E+03  0.00000000000E+00 0. -1.
         21   -1    0    0  501  502 -0.00000000000E+00 -0.00000000000E+00 -0.96113783851E+03  0.96113783851E+03  0.00000000000E+00 0. -1.
         25    1    1    2    0    0  0.17312919321E+03 -0.10373726573E+03 -0.16092521694E+03  0.28680492201E+03  0.12500000000E+03 0.  0.
         25    1    1    2    0    0  0.19234383766E+03  0.10170428842E+03  0.74615034950E+02  0.26178677890E+03  0.12500000000E+03 0.  0.
         25    1    1    2    0    0 -0.36547303087E+03  0.20329773186E+01 -0.58573959769E+03  0.70163419642E+03  0.12500000000E+03 0.  0.
</event>
<event>
 5    0  0.5550393E-005  0.3415202E+03  0.7546771E-02  0.1066150E+00
         21   -1    0    0  502  501  0.00000000000E+00  0.00000000000E+00  0.10354881256E+03  0.10354881256E+03  0.00000000000E+00 0.  1.
         21   -1    0    0  501  502 -0.00000000000E+00 -0.00000000000E+00 -0.11263869789E+04  0.11263869789E+04  0.00000000000E+00 0.  1.
         25    1    1    2    0    0  0.96519866165E+02  0.53482671432E+02 -0.21362091533E+03  0.27098962374E+03  0.12500000000E+03 0.  0.
         25    1    1    2    0    0 -0.10102810709E+03 -0.18413913548E+03 -0.71371334770E+03  0.75440416378E+03  0.12500000000E+03 0.  0.
         25    1    1    2    0    0  0.45082409208E+01  0.13065646405E+03 -0.95503903345E+02  0.20454200397E+03  0.12500000000E+03 0.  0.
</event>
<event>
 5    0  0.5550393E-005  0.2470251E+03  0.7546771E-02  0.1115199E+00
         21   -1    0    0  502  501  0.00000000000E+00  0.00000000000E+00  0.18975353686E+03  0.18975353686E+03  0.00000000000E+00 0.  1.
         21   -1    0    0  501  502 -0.00000000000E+00 -0.00000000000E+00 -0.32158235793E+03  0.32158235793E+03  0.00000000000E+00 0.  1.
         25    1    1    2    0    0  0.87436786321E+02  0.11794365146E+02  0.27571459641E+02  0.15546537891E+03  0.12500000000E+03 0.  0.
         25    1    1    2    0    0 -0.10074946312E+03  0.11814481150E+02 -0.13057001986E+02  0.16151012843E+03  0.12500000000E+03 0.  0.
         25    1    1    2    0    0  0.13312676798E+02 -0.23608846296E+02 -0.14634327872E+03  0.19436038746E+03  0.12500000000E+03 0.  0.
</event>
<event>
 5    0  0.5550393E-005  0.2634134E+03  0.7546771E-02  0.1105110E+00
         21   -1    0    0  502  501  0.00000000000E+00  0.00000000000E+00  0.10132067014E+03  0.10132067014E+03  0.00000000000E+00 0. -1.
         21   -1    0    0  501  502 -0.00000000000E+00 -0.00000000000E+00 -0.68482173193E+03  0.68482173193E+03  0.00000000000E+00 0. -1.
         25    1    1    2    0    0 -0.41936998264E+02 -0.25362749671E+02 -0.15488182976E+03  0.20497649154E+03  0.12500000000E+03 0.  0.
         25    1    1    2    0    0 -0.39541942022E+02  0.12559104032E+03 -0.10171959008E+03  0.20810706281E+03  0.12500000000E+03 0.  0.
         25    1    1    2    0    0  0.81478940286E+02 -0.10022829065E+03 -0.32689964195E+03  0.37305884772E+03  0.12500000000E+03 0.  0.
</event>
<event>
 5    0  0.7579528E-005  0.4607317E+03  0.7546771E-02  0.1024569E+00
         21   -1    0    0  502  501  0.00000000000E+00  0.00000000000E+00  0.64523473486E+03  0.64523473486E+03  0.00000000000E+00 0.  1.
         21   -1    0    0  501  502 -0.00000000000E+00 -0.00000000000E+00 -0.32898678658E+03  0.32898678658E+03  0.00000000000E+00 0.  1.
         25    1    1    2    0    0  0.25616399104E+03 -0.10684636674E+03  0.37472684715E+02  0.30670073116E+03  0.12500000000E+03 0.  0.
         25    1    1    2    0    0 -0.65791690048E+02  0.18274004699E+03 -0.72476332973E+02  0.24207496793E+03  0.12500000000E+03 0.  0.
         25    1    1    2    0    0 -0.19037230100E+03 -0.75893680249E+02  0.35125159654E+03  0.42544582235E+03  0.12500000000E+03 0.  0.
</event>
<event>
 5    0  0.5550393E-005  0.2001237E+03  0.7546771E-02  0.1149635E+00
         21   -1    0    0  502  501  0.00000000000E+00  0.00000000000E+00  0.57103053474E+02  0.57103053474E+02  0.00000000000E+00 0.  1.
         21   -1    0    0  501  502 -0.00000000000E+00 -0.00000000000E+00 -0.70135471068E+03  0.70135471068E+03  0.00000000000E+00 0.  1.
         25    1    1    2    0    0  0.15558384051E+02 -0.13971753151E+02 -0.18170579397E+03  0.22153841374E+03  0.12500000000E+03 0.  0.
         25    1    1    2    0    0 -0.54384324870E+02 -0.17574435599E+02 -0.21650125856E+03  0.25644553132E+03  0.12500000000E+03 0.  0.
         25    1    1    2    0    0  0.38825940819E+02  0.31546188749E+02 -0.24604460468E+03  0.28047381909E+03  0.12500000000E+03 0.  0.
</event>
<event>
 5    0  0.5682676E-005  0.3575600E+03  0.7546771E-02  0.1059554E+00
         21   -1    0    0  502  501  0.00000000000E+00  0.00000000000E+00  0.17715916416E+03  0.17715916416E+03  0.00000000000E+00 0. -1.
         21   -1    0    0  501  502 -0.00000000000E+00 -0.00000000000E+00 -0.72166252742E+03  0.72166252742E+03  0.00000000000E+00 0. -1.
         25    1    1    2    0    0 -0.32964732189E+02 -0.15177670516E+03 -0.19640692512E+03  0.27986339888E+03  0.12500000000E+03 0.  0.
         25    1    1    2    0    0  0.21537651958E+03  0.14206772672E+03 -0.23323547416E+03  0.36958635063E+03  0.12500000000E+03 0.  0.
         25    1    1    2    0    0 -0.18241178740E+03  0.97089784455E+01 -0.11486096399E+03  0.24937194207E+03  0.12500000000E+03 0.  0.
</event>
<event>
 5    0  0.5550393E-005  0.4742133E+03  0.7546771E-02  0.1020738E+00
         21   -1    0    0  502  501  0.00000000000E+00  0.00000000000E+00  0.14508522063E+03  0.14508522063E+03  0.00000000000E+00 0.  1.
         21   -1    0    0  501  502 -0.00000000000E+00 -0.00000000000E+00 -0.15499737281E+04  0.15499737281E+04  0.00000000000E+00 0.  1.
         25    1    1    2    0    0 -0.12536578320E+03 -0.30169690680E+03 -0.33348782896E+03  0.48329777078E+03  0.12500000000E+03 0.  0.
         25    1    1    2    0    0  0.35362773085E+01 -0.72310656451E+02 -0.38011311860E+03  0.40663536396E+03  0.12500000000E+03 0.  0.
         25    1    1    2    0    0  0.12182950589E+03  0.37400756326E+03 -0.69128755989E+03  0.80512581398E+03  0.12500000000E+03 0.  0.
</event>
<event>
 5    0  0.5550393E-005  0.4774878E+03  0.7546771E-02  0.1019828E+00
         21   -1    0    0  502  501  0.00000000000E+00  0.00000000000E+00  0.34392663444E+03  0.34392663444E+03  0.00000000000E+00 0. -1.
         21   -1    0    0  501  502 -0.00000000000E+00 -0.00000000000E+00 -0.66291645454E+03  0.66291645454E+03  0.00000000000E+00 0. -1.
         25    1    1    2    0    0 -0.67775396090E+02 -0.38376830957E+03 -0.28069102727E+03  0.49627016083E+03  0.12500000000E+03 0.  0.
         25    1    1    2    0    0 -0.12822583032E+02  0.68950003368E+02  0.49242870017E+02  0.15155323107E+03  0.12500000000E+03 0.  0.
         25    1    1    2    0    0  0.80597979122E+02  0.31481830620E+03 -0.87541662853E+02  0.35901969708E+03  0.12500000000E+03 0.  0.
</event>
<event>
 5    0  0.5907828E-005  0.3235790E+03  0.7546771E-02  0.1074014E+00
         21   -1    0    0  502  501  0.00000000000E+00  0.00000000000E+00  0.12742690100E+03  0.12742690100E+03  0.00000000000E+00 0.  1.
         21   -1    0    0  501  502 -0.00000000000E+00 -0.00000000000E+00 -0.82167411717E+03  0.82167411717E+03  0.00000000000E+00 0.  1.
         25    1    1    2    0    0  0.23097192552E+02 -0.62060809642E+02  0.12709824608E+02  0.14202663144E+03  0.12500000000E+03 0.  0.
         25    1    1    2    0    0  0.11827593533E+03 -0.19355884574E+02 -0.23155002284E+03  0.28914401294E+03  0.12500000000E+03 0.  0.
         25    1    1    2    0    0 -0.14137312788E+03  0.81416694216E+02 -0.47540701794E+03  0.51793037378E+03  0.12500000000E+03 0.  0.
</event>
<event>
 5    0  0.5550393E-005  0.3592653E+03  0.7546771E-02  0.1058875E+00
         21   -1    0    0  502  501  0.00000000000E+00  0.00000000000E+00  0.38946718565E+03  0.38946718565E+03  0.00000000000E+00 0. -1.
         21   -1    0    0  501  502 -0.00000000000E+00 -0.00000000000E+00 -0.33140550816E+03  0.33140550816E+03  0.00000000000E+00 0. -1.
         25    1    1    2    0    0 -0.15439824209E+03 -0.22170132392E+03  0.85249028459E+02  0.30964930331E+03  0.12500000000E+03 0.  0.
         25    1    1    2    0    0  0.13187075485E+03  0.68781777910E+02  0.45539969679E+02  0.19954878550E+03  0.12500000000E+03 0.  0.
         25    1    1    2    0    0  0.22527487239E+02  0.15291954600E+03 -0.72727320650E+02  0.21167460500E+03  0.12500000000E+03 0.  0.
</event>
<event>
 5    0  0.5550393E-005  0.4282537E+03  0.7546771E-02  0.1034413E+00
         21   -1    0    0  502  501  0.00000000000E+00  0.00000000000E+00  0.70755160408E+03  0.70755160408E+03  0.00000000000E+00 0.  1.
         21   -1    0    0  501  502 -0.00000000000E+00 -0.00000000000E+00 -0.25920540520E+03  0.25920540520E+03  0.00000000000E+00 0.  1.
         25    1    1    2    0    0  0.14978682422E+03 -0.11831918131E+03  0.33887552774E+03  0.40853046970E+03  0.12500000000E+03 0.  0.
         25    1    1    2    0    0 -0.18760782451E+03  0.11056647703E+03 -0.13194009239E+03  0.28364560571E+03  0.12500000000E+03 0.  0.
         25    1    1    2    0    0  0.37821000285E+02  0.77527042777E+01  0.24141076354E+03  0.27458093386E+03  0.12500000000E+03 0.  0.
</event>
<event>
 5    0  0.5550393E-005  0.3966259E+03  0.7546771E-02  0.1044954E+00
         21   -1    0    0  502  501  0.00000000000E+00  0.00000000000E+00  0.60190430310E+03  0.60190430310E+03  0.00000000000E+00 0. -1.
         21   -1    0    0  501  502 -0.00000000000E+00 -0.00000000000E+00 -0.26135735920E+03  0.26135735920E+03  0.00000000000E+00 0. -1.
         25    1    1    2    0    0  0.18814480669E+03 -0.44098970332E+02  0.36097586298E+02  0.23296184925E+03  0.12500000000E+03 0.  0.
         25    1    1    2    0    0  0.11319064178E+03  0.10842152231E+02 -0.18572206861E+02  0.16999882505E+03  0.12500000000E+03 0.  0.
         25    1    1    2    0    0 -0.30133544847E+03  0.33256818101E+02  0.32302156446E+03  0.46030098800E+03  0.12500000000E+03 0.  0.
</event>
<event>
 5    0  0.5550393E-005  0.6180936E+03  0.7546771E-02  0.9868563E-01
         21   -1    0    0  502  501  0.00000000000E+00  0.00000000000E+00  0.44108537087E+03  0.44108537087E+03  0.00000000000E+00 0.  1.
         21   -1    0    0  501  502 -0.00000000000E+00 -0.00000000000E+00 -0.86613559114E+03  0.86613559114E+03  0.00000000000E+00 0.  1.
         25    1    1    2    0    0  0.64501992447E+02  0.22832514736E+02  0.46922418260E+01  0.14257926880E+03  0.12500000000E+03 0.  0.
         25    1    1    2    0    0 -0.89492009028E+02 -0.35976343402E+03  0.19981375996E+03  0.43930523194E+03  0.12500000000E+03 0.  0.
         25    1    1    2    0    0  0.24990016581E+02  0.33693091929E+03 -0.62955622206E+03  0.72533646126E+03  0.12500000000E+03 0.  0.
</event>
<event>
 5    0  0.5550393E-005  0.2391498E+03  0.7546771E-02  0.1120361E+00
         21   -1    0    0  502  501  0.00000000000E+00  0.00000000000E+00  0.83447532819E+03  0.83447532819E+03  0.00000000000E+00 0. -1.
         21   -1    0    0  501  502 -0.00000000000E+00 -0.00000000000E+00 -0.68537212376E+02  0.68537212376E+02  0.00000000000E+00 0. -1.
         25    1    1    2    0    0  0.10900612754E+03 -0.10073337054E+02  0.31378937037E+03  0.35506700342E+03  0.12500000000E+03 0.  0.
         25    1    1    2    0    0 -0.27331892790E+02 -0.99265701086E+01  0.93034784300E+02  0.15851195617E+03  0.12500000000E+03 0.  0.
         25    1    1    2    0    0 -0.81674234746E+02  0.19999907162E+02  0.35911396115E+03  0.38943358099E+03  0.12500000000E+03 0.  0.
</event>
<event>
 5    0  0.5550393E-005  0.5671297E+03  0.7546771E-02  0.9976050E-01
         21   -1    0    0  502  501  0.00000000000E+00  0.00000000000E+00  0.60125402882E+03  0.60125402882E+03  0.00000000000E+00 0. -1.
         21   -1    0    0  501  502 -0.00000000000E+00 -0.00000000000E+00 -0.53494209499E+03  0.53494209499E+03  0.00000000000E+00 0. -1.
         25    1    1    2    0    0  0.18686056628E+03 -0.14774728659E+02  0.21540717507E+03  0.31170565428E+03  0.12500000000E+03 0.  0.
         25    1    1    2    0    0 -0.11622022716E+03  0.16760994233E+03  0.26703185831E+03  0.35851254834E+03  0.12500000000E+03 0.  0.
         25    1    1    2    0    0 -0.70640339125E+02 -0.15283521367E+03 -0.41612709955E+03  0.46597792118E+03  0.12500000000E+03 0.  0.
</event>
<event>
 5    0  0.5550393E-005  0.2911240E+03  0.7546771E-02  0.1089764E+00
         21   -1    0    0  502  501  0.00000000000E+00  0.00000000000E+00  0.41893000141E+02  0.41893000141E+02  0.00000000000E+00 0.  1.
         21   -1    0    0  501  502 -0.00000000000E+00 -0.00000000000E+00 -0.20230876049E+04  0.20230876049E+04  0.00000000000E+00 0.  1.
         25    1    1    2    0    0  0.80837292886E+02  0.79404434587E+02 -0.32191814741E+03  0.36345016960E+03  0.12500000000E+03 0.  0.
         25    1    1    2    0    0 -0.13932908388E+03 -0.36765538336E+02 -0.53457025003E+03  0.56758668998E+03  0.12500000000E+03 0.  0.
         25    1    1    2    0    0  0.58491790989E+02 -0.42638896251E+02 -0.11247062073E+04  0.11339437455E+04  0.12500000000E+03 0.  0.
</event>
<event>
 5    0  0.5550393E-005  0.3772282E+03  0.7546771E-02  0.1051963E+00
         21   -1    0    0  502  501  0.00000000000E+00  0.00000000000E+00  0.19495273989E+04  0.19495273989E+04  0.00000000000E+00 0. -1.
         21   -1    0    0  501  502 -0.00000000000E+00 -0.00000000000E+00 -0.72992608968E+02  0.72992608968E+02  0.00000000000E+00 0. -1.
         25    1    1    2    0    0 -0.11231679552E+03 -0.24335735351E+01  0.15523388557E+03  0.22878711516E+03  0.12500000000E+03 0.  0.
         25    1    1    2    0    0 -0.33643570884E+02 -0.72385011525E+02  0.15729587514E+03  0.21619082333E+03  0.12500000000E+03 0.  0.
         25    1    1    2    0    0  0.14596036640E+03  0.74818585060E+02  0.15640050292E+04  0.15775420694E+04  0.12500000000E+03 0.  0.
</event>
<event>
 5    0  0.5550393E-005  0.2779881E+03  0.7546771E-02  0.1096793E+00
         21   -1    0    0  502  501  0.00000000000E+00  0.00000000000E+00  0.57275948785E+03  0.57275948785E+03  0.00000000000E+00 0.  1.
         21   -1    0    0  501  502 -0.00000000000E+00 -0.00000000000E+00 -0.13492121711E+03  0.13492121711E+03  0.00000000000E+00 0.  1.
         25    1    1    2    0    0 -0.11577169913E+03  0.64419844826E+02  0.20990460918E+03  0.27791715975E+03  0.12500000000E+03 0.  0.
         25    1    1    2    0    0 -0.10374906474E+02 -0.10373316906E+03  0.38732276066E+02  0.16731227766E+03  0.12500000000E+03 0.  0.
         25    1    1    2    0    0  0.12614660560E+03  0.39313324231E+02  0.18920138549E+03  0.26245126755E+03  0.12500000000E+03 0.  0.
</event>
