<event>
 6    0  0.8520634E+002  0.8354184E+02  0.7546771E-02  0.1319290E+00
         21   -1    0    0  506  501  0.00000000000E+00  0.00000000000E+00  0.21122840030E+03  0.21122840030E+03  0.00000000000E+00 0.  1.
         21   -1    0    0  505  502 -0.00000000000E+00 -0.00000000000E+00 -0.54787682090E+03  0.54787682090E+03  0.00000000000E+00 0.  1.
         21    1    1    2  503  501  0.94899659716E+02  0.62864935239E+02  0.11752660060E+03  0.16361676976E+03  0.00000000000E+00 0.  1.
         21    1    1    2  504  502  0.28967656596E+02 -0.48247269270E+02 -0.38279589110E+03  0.38691034926E+03  0.00000000000E+00 0.  1.
         21    1    1    2  505  503 -0.84029407697E+02  0.31904514980E+02 -0.10539564900E+03  0.13851744389E+03  0.00000000000E+00 0.  1.
         21    1    1    2  506  504 -0.39837908615E+02 -0.46522180949E+02  0.34016518891E+02  0.70060658293E+02  0.00000000000E+00 0. -1.
<scales pt_clust_3="14000.00000" pt_clust_4="56.27543" pt_clust_5="62.49950" pt_clust_6="83.54184"></scales>
<clustering>
<clus scale="   56.275">  2  4  1 -1</clus>
<clus scale="   62.499">  2  5  1 -1</clus>
<clus scale="   83.542">  1  6  2 -1</clus>
<clus scale="   83.542">  1  3  2 -1</clus>
</clustering>
</event>
<event>
 6    0  0.8520634E+002  0.1295029E+03  0.7546771E-02  0.1228195E+00
         21   -1    0    0  505  501  0.00000000000E+00  0.00000000000E+00  0.10442483029E+04  0.10442483029E+04  0.00000000000E+00 0. -1.
         21   -1    0    0  506  502 -0.00000000000E+00 -0.00000000000E+00 -0.60577501614E+02  0.60577501614E+02  0.00000000000E+00 0. -1.
         21    1    1    2  503  501  0.11256075552E+03  0.55140913182E+02  0.32601741813E+02  0.12951184331E+03  0.00000000000E+00 0. -1.
         21    1    1    2  504  502 -0.67369234513E+02 -0.31910169465E+02  0.47289179377E+03  0.47873115763E+03  0.00000000000E+00 0. -1.
         21    1    1    2  505  504 -0.49596867547E+02  0.22431837424E+02  0.41473704545E+03  0.41829397972E+03  0.00000000000E+00 0.  1.
         21    1    1    2  506  503  0.44053465438E+01 -0.45662581140E+02  0.63440220279E+02  0.78288823875E+02  0.00000000000E+00 0.  1.
<scales pt_clust_3="117.35745" pt_clust_4="46.19271" pt_clust_5="46.19271" pt_clust_6="45.87459"></scales>
<clustering>
<clus scale="   45.875">  2  6  1 -1</clus>
<clus scale="   46.193">  4  5 -1 -1</clus>
<clus scale="  117.357">  2  3  1 -1</clus>
<clus scale="  129.503">  1  3  2 -1</clus>
</clustering>
</event>
<event>
 6    0  0.8520634E+002  0.1085079E+03  0.7546771E-02  0.1263358E+00
         21   -1    0    0  505  501  0.00000000000E+00  0.00000000000E+00  0.28066466320E+03  0.28066466320E+03  0.00000000000E+00 0.  1.
         21   -1    0    0  503  502 -0.00000000000E+00 -0.00000000000E+00 -0.18886412419E+03  0.18886412419E+03  0.00000000000E+00 0.  1.
         21    1    1    2  503  501  0.84698033230E+02  0.19265142028E+02 -0.57478034699E+01  0.87051362857E+02  0.00000000000E+00 0.  1.
         21    1    1    2  504  506 -0.30620799279E+02  0.56500394949E+02  0.51307774519E+02  0.82233908480E+02  0.00000000000E+00 0.  1.
         21    1    1    2  505  504  0.30001989371E+02  0.48791869233E+02  0.11990305445E+03  0.13288155755E+03  0.00000000000E+00 0.  1.
         21    1    1    2  506  502 -0.84079223323E+02 -0.12455740621E+03 -0.73662486502E+02  0.16736195850E+03  0.00000000000E+00 0.  1.
<scales pt_clust_3="108.50785" pt_clust_4="79.59635" pt_clust_5="57.27797" pt_clust_6="14000.00000"></scales>
<clustering>
<clus scale="   57.278">  1  5  2 -1</clus>
<clus scale="   79.596">  1  4  2 -1</clus>
<clus scale="  108.508">  2  3  1 -1</clus>
<clus scale="   57.278">  1  3  2 -1</clus>
</clustering>
</event>
<event>
 6    0  0.8520634E+002  0.1349593E+03  0.7546771E-02  0.1220277E+00
         21   -1    0    0  505  501  0.00000000000E+00  0.00000000000E+00  0.45171746710E+03  0.45171746710E+03  0.00000000000E+00 0.  1.
         21   -1    0    0  504  502 -0.00000000000E+00 -0.00000000000E+00 -0.19852589175E+03  0.19852589175E+03  0.00000000000E+00 0. -1.
         21    1    1    2  503  501  0.59803622365E+02  0.31428856212E+02  0.19746652247E+03  0.20870379428E+03  0.00000000000E+00 0.  1.
         21    1    1    2  504  506 -0.30707185721E+02 -0.45828453450E+01 -0.15133002817E+03  0.15448207389E+03  0.00000000000E+00 0. -1.
         21    1    1    2  505  502 -0.77517046527E+02 -0.81102817843E+02  0.70947261676E+02  0.13274062492E+03  0.00000000000E+00 0. -1.
         21    1    1    2  506  503  0.48420609884E+02  0.54256806977E+02  0.13610781938E+03  0.15431686577E+03  0.00000000000E+00 0.  1.
<scales pt_clust_3="37.00787" pt_clust_4="31.04728" pt_clust_5="129.44644" pt_clust_6="37.00787"></scales>
<clustering>
<clus scale="   31.047">  2  4  1 -1</clus>
<clus scale="   37.008">  3  6 -1 -1</clus>
<clus scale="  129.446">  2  5  1 -1</clus>
<clus scale="  134.959">  1  3  2 -1</clus>
</clustering>
</event>
<event>
 6    0  0.8520634E+002  0.5923497E+02  0.7546771E-02  0.1401071E+00
         21   -1    0    0  506  501  0.00000000000E+00  0.00000000000E+00  0.19200760314E+03  0.19200760314E+03  0.00000000000E+00 0.  1.
         21   -1    0    0  505  502 -0.00000000000E+00 -0.00000000000E+00 -0.22557407591E+03  0.22557407591E+03  0.00000000000E+00 0.  1.
         21    1    1    2  503  502 -0.30795081853E+02 -0.53902550175E+02 -0.38874093427E+02  0.73246277185E+02  0.00000000000E+00 0.  1.
         21    1    1    2  504  501 -0.40359423936E+02  0.85594987964E+02 -0.67094880356E+01  0.94870450061E+02  0.00000000000E+00 0.  1.
         21    1    1    2  505  504  0.58608002052E+02  0.22278995219E+02 -0.10369086372E+03  0.12117362234E+03  0.00000000000E+00 0.  1.
         21    1    1    2  506  503  0.12546503737E+02 -0.53971433008E+02  0.11570797241E+03  0.12829132947E+03  0.00000000000E+00 0.  1.
<scales pt_clust_3="14000.00000" pt_clust_4="60.97055" pt_clust_5="59.23497" pt_clust_6="55.41056"></scales>
<clustering>
<clus scale="   55.411">  1  6  2 -1</clus>
<clus scale="   60.971">  1  4  2 -1</clus>
<clus scale="   59.235">  2  5  1 -1</clus>
<clus scale="   55.411">  1  3  2 -1</clus>
</clustering>
</event>
<event>
 6    0  0.8520634E+002  0.8842878E+02  0.7546771E-02  0.1306702E+00
         21   -1    0    0  504  501  0.00000000000E+00  0.00000000000E+00  0.44260066554E+03  0.44260066554E+03  0.00000000000E+00 0.  1.
         21   -1    0    0  506  502 -0.00000000000E+00 -0.00000000000E+00 -0.96620212826E+02  0.96620212826E+02  0.00000000000E+00 0. -1.
         21    1    1    2  503  505 -0.61601997791E+01  0.81185491140E+02  0.38525239664E+02  0.90073448497E+02  0.00000000000E+00 0.  1.
         21    1    1    2  504  502  0.12038363680E+03 -0.50960520450E+02  0.98627226049E+02  0.16375751699E+03  0.00000000000E+00 0.  1.
         21    1    1    2  505  501 -0.81179682141E+02 -0.16721052754E+02  0.22959120414E+03  0.24409394793E+03  0.00000000000E+00 0.  1.
         21    1    1    2  506  503 -0.33043754878E+02 -0.13503917936E+02 -0.20763217130E+02  0.41295964956E+02  0.00000000000E+00 0. -1.
<scales pt_clust_3="78.25701" pt_clust_4="14000.00000" pt_clust_5="88.42878" pt_clust_6="35.69658"></scales>
<clustering>
<clus scale="   35.697">  2  6  1 -1</clus>
<clus scale="   78.257">  2  3  1 -1</clus>
<clus scale="   88.429">  1  5  2 -1</clus>
<clus scale="   88.429">  1  3  2 -1</clus>
</clustering>
</event>
<event>
 6    0  0.8520634E+002  0.8269140E+02  0.7546771E-02  0.1321583E+00
         21   -1    0    0  504  501  0.00000000000E+00  0.00000000000E+00  0.26018196364E+04  0.26018196364E+04  0.00000000000E+00 0. -1.
         21   -1    0    0  506  502 -0.00000000000E+00 -0.00000000000E+00 -0.89239324939E+03  0.89239324939E+03  0.00000000000E+00 0.  1.
         21    1    1    2  503  502 -0.92736502381E+01  0.45544619154E+02 -0.82809533231E+03  0.82939869322E+03  0.00000000000E+00 0.  1.
         21    1    1    2  504  505 -0.10196548174E+03  0.82142663821E+02  0.23017936256E+04  0.23055147520E+04  0.00000000000E+00 0. -1.
         21    1    1    2  505  503  0.83411028378E+02 -0.74816482715E+02 -0.41173281776E+01  0.11212429769E+03  0.00000000000E+00 0.  1.
         21    1    1    2  506  501  0.27828103597E+02 -0.52870800260E+02  0.23984542185E+03  0.24717514287E+03  0.00000000000E+00 0.  1.
<scales pt_clust_3="46.47917" pt_clust_4="82.69140" pt_clust_5="14000.00000" pt_clust_6="57.18266"></scales>
<clustering>
<clus scale="   46.479">  2  3  1 -1</clus>
<clus scale="   57.183">  1  6  2 -1</clus>
<clus scale="   82.691">  1  4  2 -1</clus>
<clus scale="   57.183">  1  3  2 -1</clus>
</clustering>
</event>
<event>
 6    0  0.8520634E+002  0.1138097E+03  0.7546771E-02  0.1253673E+00
         21   -1    0    0  506  501  0.00000000000E+00  0.00000000000E+00  0.11745244903E+03  0.11745244903E+03  0.00000000000E+00 0. -1.
         21   -1    0    0  504  502 -0.00000000000E+00 -0.00000000000E+00 -0.26924690225E+03  0.26924690225E+03  0.00000000000E+00 0. -1.
         21    1    1    2  503  505  0.92708478515E+02  0.81192303922E+02 -0.41069551821E+02  0.12989903884E+03  0.00000000000E+00 0. -1.
         21    1    1    2  504  501 -0.34317119482E+02 -0.62021735686E+00 -0.89066866753E+02  0.95451328500E+02  0.00000000000E+00 0. -1.
         21    1    1    2  505  502  0.39249972784E+02 -0.32668443355E+02 -0.90345405169E+01  0.51859526388E+02  0.00000000000E+00 0.  1.
         21    1    1    2  506  503 -0.97641331817E+02 -0.47903643210E+02 -0.12623494135E+02  0.10948945756E+03  0.00000000000E+00 0. -1.
<scales pt_clust_3="113.80970" pt_clust_4="34.32272" pt_clust_5="46.75676" pt_clust_6="14000.00000"></scales>
<clustering>
<clus scale="   34.323">  2  4  1 -1</clus>
<clus scale="   46.757">  2  5  1 -1</clus>
<clus scale="  113.810">  2  3  1 -1</clus>
<clus scale="  113.810">  1  3  2 -1</clus>
</clustering>
</event>
<event>
 6    0  0.8520634E+002  0.1365400E+03  0.7546771E-02  0.1218062E+00
         21   -1    0    0  504  501  0.00000000000E+00  0.00000000000E+00  0.44466543923E+03  0.44466543923E+03  0.00000000000E+00 0. -1.
         21   -1    0    0  501  502 -0.00000000000E+00 -0.00000000000E+00 -0.31206888183E+03  0.31206888183E+03  0.00000000000E+00 0. -1.
         21    1    1    2  503  506 -0.82066214575E+02 -0.57940845516E+01  0.11767585227E+03  0.14358287223E+03  0.00000000000E+00 0. -1.
         21    1    1    2  504  505  0.15109838693E+02 -0.33100951325E+02  0.16793130200E+03  0.17182811876E+03  0.00000000000E+00 0. -1.
         21    1    1    2  505  503 -0.44300769113E+02 -0.27712288808E+02  0.12449468832E+03  0.13501650461E+03  0.00000000000E+00 0. -1.
         21    1    1    2  506  502  0.11125714500E+03  0.66607324684E+02 -0.27750528519E+03  0.30630682546E+03  0.00000000000E+00 0. -1.
<scales pt_clust_3="34.55332" pt_clust_4="36.38654" pt_clust_5="34.55332" pt_clust_6="129.47368"></scales>
<clustering>
<clus scale="   34.553">  3  5 -1 -1</clus>
<clus scale="   36.387">  1  4  2 -1</clus>
<clus scale="  129.474">  2  6  1 -1</clus>
<clus scale="   36.387">  1  3  2 -1</clus>
</clustering>
</event>
<event>
 6    0  0.8520634E+002  0.9089579E+02  0.7546771E-02  0.1300697E+00
         21   -1    0    0  503  501  0.00000000000E+00  0.00000000000E+00  0.94945977069E+03  0.94945977069E+03  0.00000000000E+00 0.  1.
         21   -1    0    0  506  502 -0.00000000000E+00 -0.00000000000E+00 -0.75481716747E+02  0.75481716747E+02  0.00000000000E+00 0.  1.
         21    1    1    2  503  505  0.46459691478E+02  0.77075805294E+02  0.99686796445E+02  0.13430055875E+03  0.00000000000E+00 0.  1.
         21    1    1    2  504  501  0.27163637472E+02 -0.39585758592E+02  0.74237873658E+03  0.74392948860E+03  0.00000000000E+00 0.  1.
         21    1    1    2  505  502 -0.95379552937E+02 -0.58728914246E+02  0.31297863538E+02  0.11630090605E+03  0.00000000000E+00 0.  1.
         21    1    1    2  506  504  0.21756223987E+02  0.21238867544E+02  0.61465738165E+00  0.30410534037E+02  0.00000000000E+00 0.  1.
<scales pt_clust_3="90.89579" pt_clust_4="47.94427" pt_clust_5="14000.00000" pt_clust_6="30.40432"></scales>
<clustering>
<clus scale="   30.404">  2  6  1 -1</clus>
<clus scale="   47.944">  1  4  2 -1</clus>
<clus scale="   90.896">  1  3  2 -1</clus>
<clus scale="   47.944">  1  3  2 -1</clus>
</clustering>
</event>
<event>
 6    0  0.8520634E+002  0.1643795E+03  0.7546771E-02  0.1183839E+00
         21   -1    0    0  503  501  0.00000000000E+00  0.00000000000E+00  0.42639642726E+03  0.42639642726E+03  0.00000000000E+00 0.  1.
         21   -1    0    0  506  502 -0.00000000000E+00 -0.00000000000E+00 -0.22616016153E+04  0.22616016153E+04  0.00000000000E+00 0. -1.
         21    1    1    2  503  504  0.31714973715E+01 -0.32114943165E+02  0.41176087910E+02  0.52315372365E+02  0.00000000000E+00 0. -1.
         21    1    1    2  504  505 -0.11199207550E+03 -0.86909245103E+02  0.30055974366E+03  0.33231250558E+03  0.00000000000E+00 0.  1.
         21    1    1    2  505  502  0.18873585312E+03  0.12275147144E+03 -0.14055763927E+03  0.26541589242E+03  0.00000000000E+00 0. -1.
         21    1    1    2  506  501 -0.79915274991E+02 -0.37272831713E+01 -0.20363833803E+04  0.20379542721E+04  0.00000000000E+00 0. -1.
<scales pt_clust_3="32.27116" pt_clust_4="14000.00000" pt_clust_5="164.37946" pt_clust_6="79.99872"></scales>
<clustering>
<clus scale="   32.271">  1  3  2 -1</clus>
<clus scale="   79.999">  2  6  1 -1</clus>
<clus scale="  164.379">  2  5  1 -1</clus>
<clus scale="   32.271">  1  3  2 -1</clus>
</clustering>
</event>
<event>
 6    0  0.8520634E+002  0.1005981E+03  0.7546771E-02  0.1279043E+00
         21   -1    0    0  504  501  0.00000000000E+00  0.00000000000E+00  0.59814031865E+03  0.59814031865E+03  0.00000000000E+00 0.  1.
         21   -1    0    0  506  502 -0.00000000000E+00 -0.00000000000E+00 -0.38634166800E+02  0.38634166800E+02  0.00000000000E+00 0. -1.
         21    1    1    2  503  502 -0.45133826947E+00 -0.10741574293E+03  0.10699280230E+03  0.15161070305E+03  0.00000000000E+00 0. -1.
         21    1    1    2  504  505 -0.19770853031E+02  0.28721077590E+02  0.12209027025E+03  0.12697173314E+03  0.00000000000E+00 0.  1.
         21    1    1    2  505  503  0.51935326082E+02  0.84434329884E+02  0.19215238134E+03  0.21621510543E+03  0.00000000000E+00 0.  1.
         21    1    1    2  506  501 -0.31713134781E+02 -0.57396645486E+01  0.13827069796E+03  0.14197694384E+03  0.00000000000E+00 0. -1.
<scales pt_clust_3="100.59806" pt_clust_4="39.29222" pt_clust_5="14000.00000" pt_clust_6="32.22835"></scales>
<clustering>
<clus scale="   32.228">  1  6  2 -1</clus>
<clus scale="   39.292">  1  4  2 -1</clus>
<clus scale="  100.598">  2  3  1 -1</clus>
<clus scale="   32.228">  1  3  2 -1</clus>
</clustering>
</event>
<event>
 6    0  0.8520634E+002  0.7300959E+02  0.7546771E-02  0.1350148E+00
         21   -1    0    0  503  501  0.00000000000E+00  0.00000000000E+00  0.25721658620E+04  0.25721658620E+04  0.00000000000E+00 0. -1.
         21   -1    0    0  505  502 -0.00000000000E+00 -0.00000000000E+00 -0.65431848254E+02  0.65431848254E+02  0.00000000000E+00 0. -1.
         21    1    1    2  503  506  0.41994941324E+02 -0.65224848458E+01  0.89962548607E+03  0.90062874320E+03  0.00000000000E+00 0. -1.
         21    1    1    2  504  501 -0.79552589608E+02 -0.16928280893E+02  0.15748445345E+04  0.15769434007E+04  0.00000000000E+00 0. -1.
         21    1    1    2  505  504 -0.58597833592E+02  0.49189000666E+01  0.12998176465E+02  0.60223369807E+02  0.00000000000E+00 0. -1.
         21    1    1    2  506  502  0.96155481877E+02  0.18531865672E+02  0.19265816725E+02  0.99802196540E+02  0.00000000000E+00 0. -1.
<scales pt_clust_3="42.49845" pt_clust_4="46.15499" pt_clust_5="14000.00000" pt_clust_6="73.00959"></scales>
<clustering>
<clus scale="   42.498">  1  3  2 -1</clus>
<clus scale="   46.155">  1  4  2 -1</clus>
<clus scale="   73.010">  1  6  2 -1</clus>
<clus scale="   42.498">  1  3  2 -1</clus>
</clustering>
</event>
<event>
 6    0  0.8520634E+002  0.1443757E+03  0.7546771E-02  0.1207560E+00
         21   -1    0    0  505  501  0.00000000000E+00  0.00000000000E+00  0.23418969242E+03  0.23418969242E+03  0.00000000000E+00 0.  1.
         21   -1    0    0  503  502 -0.00000000000E+00 -0.00000000000E+00 -0.13103003365E+03  0.13103003365E+03  0.00000000000E+00 0. -1.
         21    1    1    2  503  501  0.15558174550E+02 -0.34110829704E+02  0.63123486628E+02  0.73417845668E+02  0.00000000000E+00 0.  1.
         21    1    1    2  504  502 -0.22396359157E+02 -0.30475427042E+02 -0.22524022589E+02  0.44019088478E+02  0.00000000000E+00 0. -1.
         21    1    1    2  505  506  0.85750432003E+02  0.11663720630E+03  0.45287499187E+02  0.15168497640E+03  0.00000000000E+00 0.  1.
         21    1    1    2  506  504 -0.78912247396E+02 -0.52050949553E+02  0.17272695545E+02  0.96097815531E+02  0.00000000000E+00 0. -1.
<scales pt_clust_3="37.49141" pt_clust_4="31.82195" pt_clust_5="135.32631" pt_clust_6="31.82195"></scales>
<clustering>
<clus scale="   31.822">  4  6 -1 -1</clus>
<clus scale="   37.491">  1  3  2 -1</clus>
<clus scale="  135.326">  1  5  2 -1</clus>
<clus scale="   37.491">  1  3  2 -1</clus>
</clustering>
</event>
<event>
 6    0  0.8520634E+002  0.1148817E+03  0.7546771E-02  0.1251788E+00
         21   -1    0    0  505  501  0.00000000000E+00  0.00000000000E+00  0.67069170587E+02  0.67069170587E+02  0.00000000000E+00 0.  1.
         21   -1    0    0  506  502 -0.00000000000E+00 -0.00000000000E+00 -0.88839283863E+03  0.88839283863E+03  0.00000000000E+00 0.  1.
         21    1    1    2  503  502 -0.27232592203E+02  0.33523211119E+02 -0.45101509205E+03  0.45307839610E+03  0.00000000000E+00 0.  1.
         21    1    1    2  504  503 -0.85555084501E+02 -0.55008571615E+02 -0.18791637490E+03  0.21367774660E+03  0.00000000000E+00 0. -1.
         21    1    1    2  505  504  0.14713028543E+03 -0.18428037946E+02 -0.18364717466E+03  0.23603643412E+03  0.00000000000E+00 0.  1.
         21    1    1    2  506  501 -0.34342608726E+02  0.39913398442E+02  0.12549735697E+01  0.52669432387E+02  0.00000000000E+00 0.  1.
<scales pt_clust_3="43.19051" pt_clust_4="114.88170" pt_clust_5="14000.00000" pt_clust_6="55.19807"></scales>
<clustering>
<clus scale="   43.191">  2  3  1 -1</clus>
<clus scale="   55.198">  1  6  2 -1</clus>
<clus scale="  114.882">  2  4  1 -1</clus>
<clus scale="   55.198">  1  3  2 -1</clus>
</clustering>
</event>
<event>
 6    0  0.8520634E+002  0.1190946E+03  0.7546771E-02  0.1244598E+00
         21   -1    0    0  506  501  0.00000000000E+00  0.00000000000E+00  0.28674843035E+03  0.28674843035E+03  0.00000000000E+00 0.  1.
         21   -1    0    0  503  502 -0.00000000000E+00 -0.00000000000E+00 -0.37040595555E+03  0.37040595555E+03  0.00000000000E+00 0.  1.
         21    1    1    2  503  504  0.49631662071E+02 -0.86344662970E+01 -0.41883462324E+02  0.65513970300E+02  0.00000000000E+00 0.  1.
         21    1    1    2  504  505 -0.14951059849E+03  0.45398895004E+02 -0.22999320796E+03  0.27804919428E+03  0.00000000000E+00 0.  1.
         21    1    1    2  505  501 -0.32246105739E+02 -0.59977639159E+02  0.16359433532E+03  0.17720111479E+03  0.00000000000E+00 0.  1.
         21    1    1    2  506  502  0.13212504216E+03  0.23213210452E+02  0.24624809767E+02  0.13639010654E+03  0.00000000000E+00 0.  1.
<scales pt_clust_3="50.37714" pt_clust_4="14000.00000" pt_clust_5="67.76275" pt_clust_6="119.09457"></scales>
<clustering>
<clus scale="   50.377">  2  3  1 -1</clus>
<clus scale="   67.763">  1  5  2 -1</clus>
<clus scale="  119.095">  1  6  2 -1</clus>
<clus scale="   67.763">  1  3  2 -1</clus>
</clustering>
</event>
<event>
 6    0  0.8520634E+002  0.1130600E+03  0.7546771E-02  0.1255006E+00
         21   -1    0    0  505  501  0.00000000000E+00  0.00000000000E+00  0.15992157902E+04  0.15992157902E+04  0.00000000000E+00 0. -1.
         21   -1    0    0  506  502 -0.00000000000E+00 -0.00000000000E+00 -0.53173621328E+02  0.53173621328E+02  0.00000000000E+00 0.  1.
         21    1    1    2  503  501  0.38469959974E+02 -0.41368731888E+02  0.14052560997E+03  0.15145546162E+03  0.00000000000E+00 0.  1.
         21    1    1    2  504  503 -0.64406089693E+02 -0.71197275015E+02  0.36322492607E+03  0.37569874005E+03  0.00000000000E+00 0. -1.
         21    1    1    2  505  502 -0.37028554065E+02  0.13745843949E+02  0.99982093223E+03  0.10006007988E+04  0.00000000000E+00 0. -1.
         21    1    1    2  506  504  0.62964683784E+02  0.98820162953E+02  0.42470700619E+02  0.12463441106E+03  0.00000000000E+00 0.  1.
<scales pt_clust_3="48.08781" pt_clust_4="14000.00000" pt_clust_5="39.49762" pt_clust_6="113.06001"></scales>
<clustering>
<clus scale="   39.498">  1  5  2 -1</clus>
<clus scale="   48.088">  1  3  2 -1</clus>
<clus scale="  113.060">  2  6  1 -1</clus>
<clus scale="   39.498">  1  3  2 -1</clus>
</clustering>
</event>
<event>
 6    0  0.8520634E+002  0.1354988E+03  0.7546771E-02  0.1219517E+00
         21   -1    0    0  503  501  0.00000000000E+00  0.00000000000E+00  0.10686531328E+04  0.10686531328E+04  0.00000000000E+00 0. -1.
         21   -1    0    0  505  502 -0.00000000000E+00 -0.00000000000E+00 -0.77323836951E+03  0.77323836951E+03  0.00000000000E+00 0.  1.
         21    1    1    2  503  506  0.34189007066E+02 -0.19942817994E+02  0.14753467742E+03  0.15275171107E+03  0.00000000000E+00 0. -1.
         21    1    1    2  504  501 -0.48403266555E+02  0.21456557667E+02  0.28215377180E+03  0.28707840570E+03  0.00000000000E+00 0. -1.
         21    1    1    2  505  504 -0.10466130961E+03 -0.85907287854E+02 -0.75367151858E+03  0.76573808170E+03  0.00000000000E+00 0.  1.
         21    1    1    2  506  502  0.11887556910E+03  0.84393548181E+02  0.61939783265E+03  0.63632330383E+03  0.00000000000E+00 0. -1.
<scales pt_clust_3="39.58035" pt_clust_4="40.77893" pt_clust_5="135.49876" pt_clust_6="14000.00000"></scales>
<clustering>
<clus scale="   39.580">  1  3  2 -1</clus>
<clus scale="   40.779">  1  4  2 -1</clus>
<clus scale="  135.499">  2  5  1 -1</clus>
<clus scale="   39.580">  1  3  2 -1</clus>
</clustering>
</event>
<event>
 6    0  0.8520634E+002  0.7617009E+02  0.7546771E-02  0.1340285E+00
         21   -1    0    0  505  501  0.00000000000E+00  0.00000000000E+00  0.14242660445E+04  0.14242660445E+04  0.00000000000E+00 0. -1.
         21   -1    0    0  506  502 -0.00000000000E+00 -0.00000000000E+00 -0.17118818091E+04  0.17118818091E+04  0.00000000000E+00 0.  1.
         21    1    1    2  503  502 -0.33579319363E+02  0.10094039746E+02 -0.54268941571E+03  0.54382098364E+03  0.00000000000E+00 0. -1.
         21    1    1    2  504  501 -0.12314466994E+02 -0.68019996467E+02  0.13331490042E+04  0.13349399363E+04  0.00000000000E+00 0. -1.
         21    1    1    2  505  503 -0.59944857246E+02  0.42777934834E+02  0.71622484777E+02  0.10272836972E+03  0.00000000000E+00 0. -1.
         21    1    1    2  506  504  0.10583864360E+03  0.15148021888E+02 -0.11496978378E+04  0.11546585640E+04  0.00000000000E+00 0.  1.
<scales pt_clust_3="35.06366" pt_clust_4="69.12270" pt_clust_5="14000.00000" pt_clust_6="76.17009"></scales>
<clustering>
<clus scale="   35.064">  2  3  1 -1</clus>
<clus scale="   69.123">  1  4  2 -1</clus>
<clus scale="   76.170">  2  6  1 -1</clus>
<clus scale="   69.123">  1  3  2 -1</clus>
</clustering>
</event>
<event>
 6    0  0.8520634E+002  0.1062085E+03  0.7546771E-02  0.1267757E+00
         21   -1    0    0  506  501  0.00000000000E+00  0.00000000000E+00  0.85183509926E+03  0.85183509926E+03  0.00000000000E+00 0.  1.
         21   -1    0    0  505  502 -0.00000000000E+00 -0.00000000000E+00 -0.14376471169E+03  0.14376471169E+03  0.00000000000E+00 0.  1.
         21    1    1    2  503  501  0.37308492926E+02 -0.63987503889E+02  0.59922329631E+02  0.95273343002E+02  0.00000000000E+00 0.  1.
         21    1    1    2  504  502 -0.68489491415E+02  0.11579514093E+03  0.17025904356E+03  0.21699646774E+03  0.00000000000E+00 0.  1.
         21    1    1    2  505  503  0.53957100716E+02 -0.87085046873E+02 -0.76183918390E+02  0.12766817743E+03  0.00000000000E+00 0.  1.
         21    1    1    2  506  504 -0.22776102228E+02  0.35277409830E+02  0.55407293276E+03  0.55566182278E+03  0.00000000000E+00 0.  1.
<scales pt_clust_3="63.11073" pt_clust_4="14000.00000" pt_clust_5="106.20848" pt_clust_6="41.99103"></scales>
<clustering>
<clus scale="   41.991">  1  6  2 -1</clus>
<clus scale="   63.111">  1  3  2 -1</clus>
<clus scale="  106.208">  2  5  1 -1</clus>
<clus scale="   41.991">  1  3  2 -1</clus>
</clustering>
</event>
<event>
 6    0  0.8520634E+002  0.7541694E+02  0.7546771E-02  0.1342585E+00
         21   -1    0    0  503  501  0.00000000000E+00  0.00000000000E+00  0.44044551581E+03  0.44044551581E+03  0.00000000000E+00 0.  1.
         21   -1    0    0  504  502 -0.00000000000E+00 -0.00000000000E+00 -0.24135513327E+03  0.24135513327E+03  0.00000000000E+00 0.  1.
         21    1    1    2  503  506 -0.72447532468E+02 -0.30677522678E+02  0.36091130291E+03  0.36938695690E+03  0.00000000000E+00 0.  1.
         21    1    1    2  504  505  0.59739309103E+01  0.68934931143E+02 -0.18989170908E+03  0.20210535312E+03  0.00000000000E+00 0.  1.
         21    1    1    2  505  501  0.60180796297E+02  0.71305705586E+01  0.19735039898E+02  0.63734175128E+02  0.00000000000E+00 0. -1.
         21    1    1    2  506  502  0.62928052607E+01 -0.45387979023E+02  0.83357488156E+01  0.46574163934E+02  0.00000000000E+00 0.  1.
<scales pt_clust_3="14000.00000" pt_clust_4="31.11794" pt_clust_5="75.41694" pt_clust_6="45.82213"></scales>
<clustering>
<clus scale="   45.822">  2  6  1 -1</clus>
<clus scale="   31.118">  2  4  1 -1</clus>
<clus scale="   75.417">  2  5  1 -1</clus>
<clus scale="   75.417">  1  3  2 -1</clus>
</clustering>
</event>
<event>
 6    0  0.8520634E+002  0.1539389E+03  0.7546771E-02  0.1195715E+00
         21   -1    0    0  506  501  0.00000000000E+00  0.00000000000E+00  0.12857774496E+04  0.12857774496E+04  0.00000000000E+00 0. -1.
         21   -1    0    0  505  502 -0.00000000000E+00 -0.00000000000E+00 -0.34980299807E+02  0.34980299807E+02  0.00000000000E+00 0. -1.
         21    1    1    2  503  501  0.96461889587E+01  0.33885653889E+02  0.23405386143E+03  0.23669071919E+03  0.00000000000E+00 0. -1.
         21    1    1    2  504  503  0.95454745621E+02  0.14955286055E+02  0.10623196471E+03  0.14359839612E+03  0.00000000000E+00 0. -1.
         21    1    1    2  505  504  0.33640558786E+02  0.38186076270E+02  0.86675073600E+02  0.10051085513E+03  0.00000000000E+00 0. -1.
         21    1    1    2  506  502 -0.13874149337E+03 -0.87027016214E+02  0.82383625006E+03  0.83995777897E+03  0.00000000000E+00 0. -1.
<scales pt_clust_3="35.23190" pt_clust_4="39.69541" pt_clust_5="39.69541" pt_clust_6="144.25878"></scales>
<clustering>
<clus scale="   35.232">  1  3  2 -1</clus>
<clus scale="   39.695">  4  5 -1 -1</clus>
<clus scale="  144.259">  1  6  2 -1</clus>
<clus scale="   35.232">  1  3  2 -1</clus>
</clustering>
</event>
<event>
 6    0  0.8520634E+002  0.1190665E+03  0.7546771E-02  0.1244645E+00
         21   -1    0    0  505  501  0.00000000000E+00  0.00000000000E+00  0.47094889893E+02  0.47094889893E+02  0.00000000000E+00 0. -1.
         21   -1    0    0  504  502 -0.00000000000E+00 -0.00000000000E+00 -0.18211961327E+04  0.18211961327E+04  0.00000000000E+00 0. -1.
         21    1    1    2  503  501 -0.35263359290E+02  0.31786915234E+02 -0.27426459299E+02  0.54828123788E+02  0.00000000000E+00 0. -1.
         21    1    1    2  504  506 -0.38068125049E+02 -0.10038872115E+02 -0.10147684669E+04  0.10155318816E+04  0.00000000000E+00 0. -1.
         21    1    1    2  505  502  0.13408023541E+03  0.71249678453E+02 -0.62707020965E+03  0.64519072687E+03  0.00000000000E+00 0. -1.
         21    1    1    2  506  503 -0.60748751075E+02 -0.92997721571E+02 -0.10483610696E+03  0.15274029035E+03  0.00000000000E+00 0. -1.
<scales pt_clust_3="48.60425" pt_clust_4="39.36955" pt_clust_5="119.06646" pt_clust_6="14000.00000"></scales>
<clustering>
<clus scale="   39.370">  2  4  1 -1</clus>
<clus scale="   48.604">  1  3  2 -1</clus>
<clus scale="  119.066">  2  5  1 -1</clus>
<clus scale="   48.604">  1  3  2 -1</clus>
</clustering>
</event>
<event>
 6    0  0.8520634E+002  0.8872029E+02  0.7546771E-02  0.1305981E+00
         21   -1    0    0  503  501  0.00000000000E+00  0.00000000000E+00  0.34263231569E+02  0.34263231569E+02  0.00000000000E+00 0. -1.
         21   -1    0    0  505  502 -0.00000000000E+00 -0.00000000000E+00 -0.13044605138E+04  0.13044605138E+04  0.00000000000E+00 0. -1.
         21    1    1    2  503  504 -0.92043987832E+02  0.54740092583E+02 -0.87844517616E+02  0.13851076748E+03  0.00000000000E+00 0. -1.
         21    1    1    2  504  506  0.57527814507E+02 -0.31834841277E+02 -0.49713758400E+03  0.50146653327E+03  0.00000000000E+00 0. -1.
         21    1    1    2  505  501  0.39507228534E+02  0.29825234378E+02 -0.10461510486E+03  0.11573541324E+03  0.00000000000E+00 0. -1.
         21    1    1    2  506  502 -0.49910552091E+01 -0.52730485684E+02 -0.58060007573E+03  0.58301103136E+03  0.00000000000E+00 0. -1.
<scales pt_clust_3="88.72029" pt_clust_4="14000.00000" pt_clust_5="49.50117" pt_clust_6="51.58559"></scales>
<clustering>
<clus scale="   49.501">  1  5  2 -1</clus>
<clus scale="   51.586">  2  6  1 -1</clus>
<clus scale="   88.720">  1  3  2 -1</clus>
<clus scale="   49.501">  1  3  2 -1</clus>
</clustering>
</event>
<event>
 6    0  0.8520634E+002  0.1338596E+03  0.7546771E-02  0.1221839E+00
         21   -1    0    0  505  501  0.00000000000E+00  0.00000000000E+00  0.10843807986E+04  0.10843807986E+04  0.00000000000E+00 0.  1.
         21   -1    0    0  504  502 -0.00000000000E+00 -0.00000000000E+00 -0.45636957293E+02  0.45636957293E+02  0.00000000000E+00 0.  1.
         21    1    1    2  503  506 -0.75605843237E+02 -0.17909638843E+01  0.12751354480E+03  0.14825368525E+03  0.00000000000E+00 0.  1.
         21    1    1    2  504  503  0.12342332656E+03  0.83439520155E+00  0.11243329824E+03  0.16695885813E+03  0.00000000000E+00 0.  1.
         21    1    1    2  505  502  0.61197242209E+01 -0.36270332112E+02  0.66301426600E+03  0.66403381310E+03  0.00000000000E+00 0.  1.
         21    1    1    2  506  501 -0.53937207547E+02  0.37226900795E+02  0.13578273230E+03  0.15077139945E+03  0.00000000000E+00 0.  1.
<scales pt_clust_3="39.72416" pt_clust_4="125.95405" pt_clust_5="36.78299" pt_clust_6="39.72416"></scales>
<clustering>
<clus scale="   36.783">  1  5  2 -1</clus>
<clus scale="   39.724">  3  6 -1 -1</clus>
<clus scale="  125.954">  2  4  1 -1</clus>
<clus scale="   36.783">  1  3  2 -1</clus>
</clustering>
</event>
<event>
 6    0  0.8520634E+002  0.9886948E+02  0.7546771E-02  0.1282691E+00
         21   -1    0    0  504  501  0.00000000000E+00  0.00000000000E+00  0.24259933473E+04  0.24259933473E+04  0.00000000000E+00 0.  1.
         21   -1    0    0  506  502 -0.00000000000E+00 -0.00000000000E+00 -0.22439701206E+03  0.22439701206E+03  0.00000000000E+00 0. -1.
         21    1    1    2  503  505  0.12177219964E+02  0.86813112102E+02  0.11611672361E+03  0.14549190569E+03  0.00000000000E+00 0. -1.
         21    1    1    2  504  503 -0.57259040882E+02 -0.82449516953E+02  0.22743897544E+04  0.22766038907E+04  0.00000000000E+00 0.  1.
         21    1    1    2  505  502 -0.13739870723E+02 -0.30478394581E+02 -0.14869023134E+03  0.15240243266E+03  0.00000000000E+00 0. -1.
         21    1    1    2  506  501  0.58821691642E+02  0.26114799432E+02 -0.40219911414E+02  0.75892130231E+02  0.00000000000E+00 0. -1.
<scales pt_clust_3="98.86948" pt_clust_4="14000.00000" pt_clust_5="33.43227" pt_clust_6="48.06873"></scales>
<clustering>
<clus scale="   33.432">  2  5  1 -1</clus>
<clus scale="   48.069">  2  6  1 -1</clus>
<clus scale="   98.869">  2  3  1 -1</clus>
<clus scale="   98.869">  1  3  2 -1</clus>
</clustering>
</event>
<event>
 6    0  0.8520634E+002  0.6993903E+02  0.7546771E-02  0.1360300E+00
         21   -1    0    0  506  501  0.00000000000E+00  0.00000000000E+00  0.26524171514E+03  0.26524171514E+03  0.00000000000E+00 0. -1.
         21   -1    0    0  504  502 -0.00000000000E+00 -0.00000000000E+00 -0.11559180424E+03  0.11559180424E+03  0.00000000000E+00 0. -1.
         21    1    1    2  503  501 -0.13022281886E+02 -0.32913222208E+02  0.77670941129E+02  0.85355931941E+02  0.00000000000E+00 0. -1.
         21    1    1    2  504  503 -0.64594070152E+02 -0.13653475576E+01 -0.51659927218E+02  0.82722464621E+02  0.00000000000E+00 0. -1.
         21    1    1    2  505  502  0.10089867908E+03 -0.28265593045E+02  0.61104999443E+02  0.12129842599E+03  0.00000000000E+00 0. -1.
         21    1    1    2  506  505 -0.23282327039E+02  0.62544162811E+02  0.62533897548E+02  0.91456696838E+02  0.00000000000E+00 0. -1.
<scales pt_clust_3="35.39576" pt_clust_4="14000.00000" pt_clust_5="69.93903" pt_clust_6="56.59188"></scales>
<clustering>
<clus scale="   35.396">  1  3  2 -1</clus>
<clus scale="   56.592">  1  6  2 -1</clus>
<clus scale="   69.939">  1  5  2 -1</clus>
<clus scale="   35.396">  1  3  2 -1</clus>
</clustering>
</event>
<event>
 6    0  0.8520634E+002  0.1324255E+03  0.7546771E-02  0.1223900E+00
         21   -1    0    0  506  501  0.00000000000E+00  0.00000000000E+00  0.28575990983E+02  0.28575990983E+02  0.00000000000E+00 0.  1.
         21   -1    0    0  503  502 -0.00000000000E+00 -0.00000000000E+00 -0.27377562927E+04  0.27377562927E+04  0.00000000000E+00 0. -1.
         21    1    1    2  503  505 -0.13524521219E+03  0.66642070446E+02 -0.20938830016E+04  0.20993042794E+04  0.00000000000E+00 0. -1.
         21    1    1    2  504  502  0.12474319553E+02 -0.28311954064E+02 -0.31627642739E+03  0.31778601907E+03  0.00000000000E+00 0. -1.
         21    1    1    2  505  501 -0.19404726245E+02 -0.26064349324E+02 -0.93905366002E+02  0.99368563793E+02  0.00000000000E+00 0.  1.
         21    1    1    2  506  504  0.14217561888E+03 -0.12265767058E+02 -0.20511550665E+03  0.24987342138E+03  0.00000000000E+00 0.  1.
<scales pt_clust_3="14000.00000" pt_clust_4="30.93825" pt_clust_5="33.12114" pt_clust_6="132.42550"></scales>
<clustering>
<clus scale="   30.938">  2  4  1 -1</clus>
<clus scale="   33.121">  1  5  2 -1</clus>
<clus scale="  132.426">  1  6  2 -1</clus>
<clus scale="   33.121">  1  3  2 -1</clus>
</clustering>
</event>
<event>
 6    0  0.8520634E+002  0.9971643E+02  0.7546771E-02  0.1280893E+00
         21   -1    0    0  505  501  0.00000000000E+00  0.00000000000E+00  0.37223411004E+03  0.37223411004E+03  0.00000000000E+00 0. -1.
         21   -1    0    0  504  502 -0.00000000000E+00 -0.00000000000E+00 -0.11880672750E+04  0.11880672750E+04  0.00000000000E+00 0.  1.
         21    1    1    2  503  502 -0.29355348393E+02 -0.14998774439E+02 -0.55460850517E+03  0.55558734121E+03  0.00000000000E+00 0.  1.
         21    1    1    2  504  506  0.12610579890E+03  0.19383827100E+02 -0.57460068344E+03  0.58859523501E+03  0.00000000000E+00 0.  1.
         21    1    1    2  505  503  0.33354042173E+02 -0.57966019839E+02 -0.59758236609E+01  0.67143592797E+02  0.00000000000E+00 0.  1.
         21    1    1    2  506  501 -0.13010449268E+03  0.53580967177E+02  0.31935184728E+03  0.34897521605E+03  0.00000000000E+00 0. -1.
<scales pt_clust_3="32.96513" pt_clust_4="14000.00000" pt_clust_5="66.80946" pt_clust_6="99.71643"></scales>
<clustering>
<clus scale="   32.965">  2  3  1 -1</clus>
<clus scale="   66.809">  1  5  2 -1</clus>
<clus scale="   99.716">  1  6  2 -1</clus>
<clus scale="   66.809">  1  3  2 -1</clus>
</clustering>
</event>
<event>
 6    0  0.8520634E+002  0.1123868E+03  0.7546771E-02  0.1256213E+00
         21   -1    0    0  504  501  0.00000000000E+00  0.00000000000E+00  0.21051613795E+03  0.21051613795E+03  0.00000000000E+00 0. -1.
         21   -1    0    0  505  502 -0.00000000000E+00 -0.00000000000E+00 -0.29269989013E+03  0.29269989013E+03  0.00000000000E+00 0. -1.
         21    1    1    2  503  501  0.14179497755E+02 -0.37112967661E+02  0.84908884990E+02  0.93744062614E+02  0.00000000000E+00 0. -1.
         21    1    1    2  504  502 -0.12841439908E+02  0.12981001451E+03  0.53203023222E+01  0.13055208946E+03  0.00000000000E+00 0. -1.
         21    1    1    2  505  506 -0.29821986171E+02  0.56301418775E+01 -0.17391095436E+03  0.17653914411E+03  0.00000000000E+00 0. -1.
         21    1    1    2  506  503  0.28483928324E+02 -0.98327188724E+02  0.14980148659E+01  0.10238073190E+03  0.00000000000E+00 0. -1.
<scales pt_clust_3="39.14352" pt_clust_4="112.38679" pt_clust_5="30.34879" pt_clust_6="14000.00000"></scales>
<clustering>
<clus scale="   30.349">  2  5  1 -1</clus>
<clus scale="   39.144">  1  3  2 -1</clus>
<clus scale="  112.387">  1  4  2 -1</clus>
<clus scale="   39.144">  1  3  2 -1</clus>
</clustering>
</event>
<event>
 6    0  0.8520634E+002  0.5918531E+02  0.7546771E-02  0.1401283E+00
         21   -1    0    0  503  501  0.00000000000E+00  0.00000000000E+00  0.15360969818E+04  0.15360969818E+04  0.00000000000E+00 0. -1.
         21   -1    0    0  505  502 -0.00000000000E+00 -0.00000000000E+00 -0.43324203143E+03  0.43324203143E+03  0.00000000000E+00 0. -1.
         21    1    1    2  503  504 -0.60496856217E+02  0.43974977705E+02  0.52495558257E+01  0.74974836529E+02  0.00000000000E+00 0. -1.
         21    1    1    2  504  502 -0.75780933517E+01  0.52803758165E+02 -0.37500802668E+03  0.37878316284E+03  0.00000000000E+00 0. -1.
         21    1    1    2  505  506  0.23238553066E+02 -0.58551452182E+02  0.26620661545E+02  0.68388321535E+02  0.00000000000E+00 0.  1.
         21    1    1    2  506  501  0.44836396503E+02 -0.38227283688E+02  0.14459927597E+04  0.14471926923E+04  0.00000000000E+00 0. -1.
<scales pt_clust_3="14000.00000" pt_clust_4="53.34477" pt_clust_5="44.00989" pt_clust_6="59.18531"></scales>
<clustering>
<clus scale="   53.345">  2  4  1 -1</clus>
<clus scale="   44.010">  2  5  1 -1</clus>
<clus scale="   59.185">  1  6  2 -1</clus>
<clus scale="   59.185">  1  3  2 -1</clus>
</clustering>
</event>
<event>
 6    0  0.8520634E+002  0.7396359E+02  0.7546771E-02  0.1347111E+00
         21   -1    0    0  505  501  0.00000000000E+00  0.00000000000E+00  0.46751602211E+03  0.46751602211E+03  0.00000000000E+00 0.  1.
         21   -1    0    0  503  502 -0.00000000000E+00 -0.00000000000E+00 -0.41529183391E+03  0.41529183391E+03  0.00000000000E+00 0.  1.
         21    1    1    2  503  504 -0.39403789270E+02  0.80093184067E+02 -0.20426579274E+03  0.22291722864E+03  0.00000000000E+00 0.  1.
         21    1    1    2  504  501 -0.59605503332E+02 -0.49367089453E+02  0.41843740767E+03  0.42553471032E+03  0.00000000000E+00 0.  1.
         21    1    1    2  505  506  0.61060893254E+02 -0.27485534258E+01  0.45693933089E+01  0.61293283369E+02  0.00000000000E+00 0.  1.
         21    1    1    2  506  502  0.37948399347E+02 -0.27977541187E+02 -0.16651682004E+03  0.17306263369E+03  0.00000000000E+00 0.  1.
<scales pt_clust_3="56.11696" pt_clust_4="73.96359" pt_clust_5="14000.00000" pt_clust_6="47.14683"></scales>
<clustering>
<clus scale="   47.147">  2  6  1 -1</clus>
<clus scale="   56.117">  2  3  1 -1</clus>
<clus scale="   73.964">  1  4  2 -1</clus>
<clus scale="   73.964">  1  3  2 -1</clus>
</clustering>
</event>
<event>
 6    0  0.8520634E+002  0.1931773E+03  0.7546771E-02  0.1155626E+00
         21   -1    0    0  506  501  0.00000000000E+00  0.00000000000E+00  0.12811825851E+04  0.12811825851E+04  0.00000000000E+00 0.  1.
         21   -1    0    0  505  502 -0.00000000000E+00 -0.00000000000E+00 -0.22863936537E+03  0.22863936537E+03  0.00000000000E+00 0. -1.
         21    1    1    2  503  502 -0.91402194816E+02  0.42098318377E+02 -0.35483761528E+02  0.10670392195E+03  0.00000000000E+00 0. -1.
         21    1    1    2  504  501 -0.10374850457E+02  0.18054612673E+03 -0.47731855019E+02  0.18703708558E+03  0.00000000000E+00 0. -1.
         21    1    1    2  505  504  0.19349637738E+02 -0.46048049688E+02 -0.12428780083E+02  0.51471408909E+02  0.00000000000E+00 0.  1.
         21    1    1    2  506  503  0.82427407536E+02 -0.17659639542E+03  0.11481876164E+04  0.11646095341E+04  0.00000000000E+00 0.  1.
<scales pt_clust_3="88.16269" pt_clust_4="193.17730" pt_clust_5="49.94829" pt_clust_6="14000.00000"></scales>
<clustering>
<clus scale="   49.948">  2  5  1 -1</clus>
<clus scale="   88.163">  2  3  1 -1</clus>
<clus scale="  193.177">  2  4  1 -1</clus>
<clus scale="  193.177">  1  3  2 -1</clus>
</clustering>
</event>
<event>
 6    0  0.8520634E+002  0.9118852E+02  0.7546771E-02  0.1299999E+00
         21   -1    0    0  506  501  0.00000000000E+00  0.00000000000E+00  0.35577377969E+03  0.35577377969E+03  0.00000000000E+00 0.  1.
         21   -1    0    0  503  502 -0.00000000000E+00 -0.00000000000E+00 -0.20731798114E+03  0.20731798114E+03  0.00000000000E+00 0.  1.
         21    1    1    2  503  505  0.57021735179E+02  0.13623351465E+02 -0.15133529625E+03  0.16229431869E+03  0.00000000000E+00 0.  1.
         21    1    1    2  504  501  0.26640843314E+02 -0.14365263895E+02  0.33066675368E+02  0.44827450955E+02  0.00000000000E+00 0. -1.
         21    1    1    2  505  504 -0.66546446266E+01 -0.88772935220E+02  0.34546486805E+02  0.95490198833E+02  0.00000000000E+00 0.  1.
         21    1    1    2  506  502 -0.77007933867E+02  0.89514847650E+02  0.23217793262E+03  0.26047979235E+03  0.00000000000E+00 0.  1.
<scales pt_clust_3="59.01800" pt_clust_4="30.26707" pt_clust_5="91.18852" pt_clust_6="14000.00000"></scales>
<clustering>
<clus scale="   30.267">  1  4  2 -1</clus>
<clus scale="   59.018">  2  3  1 -1</clus>
<clus scale="   91.189">  2  5  1 -1</clus>
<clus scale="   30.267">  1  3  2 -1</clus>
</clustering>
</event>
<event>
 6    0  0.8520634E+002  0.7157664E+02  0.7546771E-02  0.1354812E+00
         21   -1    0    0  503  501  0.00000000000E+00  0.00000000000E+00  0.64461818656E+03  0.64461818656E+03  0.00000000000E+00 0.  1.
         21   -1    0    0  505  502 -0.00000000000E+00 -0.00000000000E+00 -0.80098912607E+02  0.80098912607E+02  0.00000000000E+00 0. -1.
         21    1    1    2  503  504 -0.73152848834E+02  0.10494320720E+02  0.39380484683E+03  0.40067908286E+03  0.00000000000E+00 0.  1.
         21    1    1    2  504  506  0.51870380459E+02 -0.53175549919E+02  0.78953893966E+02  0.10840614766E+03  0.00000000000E+00 0.  1.
         21    1    1    2  505  501 -0.17975476529E+02  0.84693435125E+02  0.12282810494E+03  0.15027587655E+03  0.00000000000E+00 0.  1.
         21    1    1    2  506  502  0.39257944904E+02 -0.42012205926E+02 -0.31067571788E+02  0.65355992086E+02  0.00000000000E+00 0. -1.
<scales pt_clust_3="14000.00000" pt_clust_4="71.57664" pt_clust_5="66.62057" pt_clust_6="57.49967"></scales>
<clustering>
<clus scale="   57.500">  2  6  1 -1</clus>
<clus scale="   66.621">  2  5  1 -1</clus>
<clus scale="   71.577">  2  4  1 -1</clus>
<clus scale="   71.577">  1  3  2 -1</clus>
</clustering>
</event>
<event>
 6    0  0.8520634E+002  0.1171916E+03  0.7546771E-02  0.1247803E+00
         21   -1    0    0  506  501  0.00000000000E+00  0.00000000000E+00  0.80180458984E+03  0.80180458984E+03  0.00000000000E+00 0. -1.
         21   -1    0    0  505  502 -0.00000000000E+00 -0.00000000000E+00 -0.47532997723E+02  0.47532997723E+02  0.00000000000E+00 0. -1.
         21    1    1    2  503  502 -0.72208381351E+02  0.14812971574E+03  0.26688127871E+03  0.31365917800E+03  0.00000000000E+00 0. -1.
         21    1    1    2  504  501  0.21961600594E+02 -0.27714881121E+02  0.23376984268E+03  0.23642919846E+03  0.00000000000E+00 0. -1.
         21    1    1    2  505  504  0.38577157147E+02 -0.33935339335E+02  0.30687640578E+02  0.59845932139E+02  0.00000000000E+00 0. -1.
         21    1    1    2  506  503  0.11669623609E+02 -0.86479495280E+02  0.22293283015E+03  0.23940327896E+03  0.00000000000E+00 0. -1.
<scales pt_clust_3="117.19161" pt_clust_4="35.36137" pt_clust_5="54.16069" pt_clust_6="14000.00000"></scales>
<clustering>
<clus scale="   35.361">  1  4  2 -1</clus>
<clus scale="   54.161">  2  5  1 -1</clus>
<clus scale="  117.192">  2  3  1 -1</clus>
<clus scale="   35.361">  1  3  2 -1</clus>
</clustering>
</event>
<event>
 6    0  0.8520634E+002  0.9438653E+02  0.7546771E-02  0.1292564E+00
         21   -1    0    0  505  501  0.00000000000E+00  0.00000000000E+00  0.35325862193E+03  0.35325862193E+03  0.00000000000E+00 0.  1.
         21   -1    0    0  506  502 -0.00000000000E+00 -0.00000000000E+00 -0.77499130841E+03  0.77499130841E+03  0.00000000000E+00 0.  1.
         21    1    1    2  503  502  0.33146074008E+02  0.11761840662E+01 -0.13281315981E+03  0.13689185896E+03  0.00000000000E+00 0.  1.
         21    1    1    2  504  503 -0.13130962664E+02 -0.86453382891E+02 -0.40505926701E+03  0.41439066035E+03  0.00000000000E+00 0.  1.
         21    1    1    2  505  504 -0.15764244893E+02 -0.29086459964E+02  0.33146870745E+03  0.33311565197E+03  0.00000000000E+00 0.  1.
         21    1    1    2  506  501 -0.42508664513E+01  0.11436365879E+03 -0.21532896711E+03  0.24385175905E+03  0.00000000000E+00 0.  1.
<scales pt_clust_3="31.65591" pt_clust_4="14000.00000" pt_clust_5="33.08374" pt_clust_6="94.38653"></scales>
<clustering>
<clus scale="   33.084">  1  5  2 -1</clus>
<clus scale="   31.656">  2  3  1 -1</clus>
<clus scale="   94.387">  1  6  2 -1</clus>
<clus scale="   33.084">  1  3  2 -1</clus>
</clustering>
</event>
<event>
 6    0  0.8520634E+002  0.8900456E+02  0.7546771E-02  0.1305280E+00
         21   -1    0    0  504  501  0.00000000000E+00  0.00000000000E+00  0.54596001059E+03  0.54596001059E+03  0.00000000000E+00 0. -1.
         21   -1    0    0  505  502 -0.00000000000E+00 -0.00000000000E+00 -0.31611600876E+03  0.31611600876E+03  0.00000000000E+00 0. -1.
         21    1    1    2  503  506 -0.29856936886E+02  0.68916002118E+02 -0.18693399535E+02  0.77396997450E+02  0.00000000000E+00 0. -1.
         21    1    1    2  504  502  0.76362664579E+02 -0.86932307175E+02  0.56239106595E+01  0.11584520251E+03  0.00000000000E+00 0. -1.
         21    1    1    2  505  503 -0.39077645576E+02 -0.22079426546E+02 -0.20966831144E+03  0.21441866589E+03  0.00000000000E+00 0. -1.
         21    1    1    2  506  501 -0.74280821162E+01  0.40095731603E+02  0.45258180215E+03  0.45441515350E+03  0.00000000000E+00 0. -1.
<scales pt_clust_3="89.00456" pt_clust_4="14000.00000" pt_clust_5="44.55436" pt_clust_6="40.77799"></scales>
<clustering>
<clus scale="   40.778">  1  6  2 -1</clus>
<clus scale="   44.554">  2  5  1 -1</clus>
<clus scale="   89.005">  2  3  1 -1</clus>
<clus scale="   40.778">  1  3  2 -1</clus>
</clustering>
</event>
<event>
 6    0  0.8520634E+002  0.1528627E+03  0.7546771E-02  0.1196999E+00
         21   -1    0    0  505  501  0.00000000000E+00  0.00000000000E+00  0.39766743100E+03  0.39766743100E+03  0.00000000000E+00 0. -1.
         21   -1    0    0  506  502 -0.00000000000E+00 -0.00000000000E+00 -0.38181980554E+03  0.38181980554E+03  0.00000000000E+00 0. -1.
         21    1    1    2  503  502 -0.20013013346E+02 -0.22464429083E+02 -0.12535280796E+02  0.32593013697E+02  0.00000000000E+00 0.  1.
         21    1    1    2  504  501 -0.11761442877E+03 -0.94025859975E+02  0.22852168606E+03  0.27367165947E+03  0.00000000000E+00 0. -1.
         21    1    1    2  505  503 -0.24154547396E+02  0.40442614980E+02  0.10752686271E+03  0.11739281694E+03  0.00000000000E+00 0. -1.
         21    1    1    2  506  504  0.16178198951E+03  0.76047674078E+02 -0.30766564251E+03  0.35582974643E+03  0.00000000000E+00 0. -1.
<scales pt_clust_3="30.08606" pt_clust_4="14000.00000" pt_clust_5="46.98450" pt_clust_6="152.86270"></scales>
<clustering>
<clus scale="   30.086">  2  3  1 -1</clus>
<clus scale="   46.985">  1  5  2 -1</clus>
<clus scale="  152.863">  2  6  1 -1</clus>
<clus scale="   46.985">  1  3  2 -1</clus>
</clustering>
</event>
<event>
 6    0  0.8520634E+002  0.1993453E+03  0.7546771E-02  0.1150293E+00
         21   -1    0    0  504  501  0.00000000000E+00  0.00000000000E+00  0.67045522623E+03  0.67045522623E+03  0.00000000000E+00 0. -1.
         21   -1    0    0  505  502 -0.00000000000E+00 -0.00000000000E+00 -0.14772274744E+04  0.14772274744E+04  0.00000000000E+00 0. -1.
         21    1    1    2  503  501  0.11642416271E+03  0.15740303246E+03  0.58031691883E+03  0.61245246883E+03  0.00000000000E+00 0. -1.
         21    1    1    2  504  502 -0.36622652151E+02 -0.84634461558E+01 -0.28398648167E+03  0.28646320941E+03  0.00000000000E+00 0.  1.
         21    1    1    2  505  506 -0.23658723917E+02  0.16305547878E+03 -0.77584080906E+03  0.79314297915E+03  0.00000000000E+00 0. -1.
         21    1    1    2  506  503 -0.56142786647E+02 -0.31199506508E+03 -0.32726187629E+03  0.45562404326E+03  0.00000000000E+00 0. -1.
<scales pt_clust_3="199.34527" pt_clust_4="37.58788" pt_clust_5="164.56850" pt_clust_6="14000.00000"></scales>
<clustering>
<clus scale="   37.588">  2  4  1 -1</clus>
<clus scale="  164.569">  2  5  1 -1</clus>
<clus scale="  199.345">  1  3  2 -1</clus>
<clus scale="  199.345">  1  3  2 -1</clus>
</clustering>
</event>
<event>
 6    0  0.8520634E+002  0.1012607E+03  0.7546771E-02  0.1277667E+00
         21   -1    0    0  504  501  0.00000000000E+00  0.00000000000E+00  0.14912195433E+03  0.14912195433E+03  0.00000000000E+00 0.  1.
         21   -1    0    0  505  502 -0.00000000000E+00 -0.00000000000E+00 -0.10980061808E+04  0.10980061808E+04  0.00000000000E+00 0.  1.
         21    1    1    2  503  501  0.21256741187E+02 -0.53891653059E+02  0.79746592170E+02  0.98568140279E+02  0.00000000000E+00 0.  1.
         21    1    1    2  504  502 -0.84250713756E+02 -0.40328519203E+02  0.16612494129E+02  0.94871213709E+02  0.00000000000E+00 0.  1.
         21    1    1    2  505  506  0.98738738140E+01  0.61628982599E+02 -0.70718651857E+03  0.70993548786E+03  0.00000000000E+00 0.  1.
         21    1    1    2  506  503  0.53120098755E+02  0.32591189663E+02 -0.33805679422E+03  0.34375329330E+03  0.00000000000E+00 0.  1.
<scales pt_clust_3="57.93237" pt_clust_4="14000.00000" pt_clust_5="61.27603" pt_clust_6="101.26070"></scales>
<clustering>
<clus scale="   57.932">  1  3  2 -1</clus>
<clus scale="   61.276">  2  5  1 -1</clus>
<clus scale="  101.261">  2  6  1 -1</clus>
<clus scale="   57.932">  1  3  2 -1</clus>
</clustering>
</event>
<event>
 6    0  0.8520634E+002  0.8497666E+02  0.7546771E-02  0.1315494E+00
         21   -1    0    0  505  501  0.00000000000E+00  0.00000000000E+00  0.26784486459E+03  0.26784486459E+03  0.00000000000E+00 0.  1.
         21   -1    0    0  503  502 -0.00000000000E+00 -0.00000000000E+00 -0.67856125265E+03  0.67856125265E+03  0.00000000000E+00 0.  1.
         21    1    1    2  503  501 -0.57908788423E+02 -0.64118725912E+02 -0.19519882872E+03  0.21346480160E+03  0.00000000000E+00 0.  1.
         21    1    1    2  504  502 -0.47615563372E+02 -0.15516154535E+02 -0.44024599092E+03  0.44308523497E+03  0.00000000000E+00 0.  1.
         21    1    1    2  505  506  0.76140861118E+02  0.38099335011E+02  0.22327452110E+03  0.23895711296E+03  0.00000000000E+00 0.  1.
         21    1    1    2  506  504  0.29383490677E+02  0.41535545437E+02  0.14539104794E+01  0.50898967718E+02  0.00000000000E+00 0.  1.
<scales pt_clust_3="84.97666" pt_clust_4="50.07987" pt_clust_5="14000.00000" pt_clust_6="46.79068"></scales>
<clustering>
<clus scale="   50.080">  2  4  1 -1</clus>
<clus scale="   46.791">  2  6  1 -1</clus>
<clus scale="   84.977">  2  3  1 -1</clus>
<clus scale="   84.977">  1  3  2 -1</clus>
</clustering>
</event>
<event>
 6    0  0.8520634E+002  0.1278361E+03  0.7546771E-02  0.1230702E+00
         21   -1    0    0  503  501  0.00000000000E+00  0.00000000000E+00  0.47526109080E+02  0.47526109080E+02  0.00000000000E+00 0. -1.
         21   -1    0    0  505  502 -0.00000000000E+00 -0.00000000000E+00 -0.15685113085E+04  0.15685113085E+04  0.00000000000E+00 0.  1.
         21    1    1    2  503  506  0.87347945865E+01  0.36442349490E+02  0.15753519915E+02  0.40651136054E+02  0.00000000000E+00 0. -1.
         21    1    1    2  504  502 -0.38599551453E+02  0.13605757752E+02 -0.63432241284E+03  0.63564138116E+03  0.00000000000E+00 0.  1.
         21    1    1    2  505  501  0.33683740956E+02 -0.15407695888E+03 -0.56923165103E+03  0.59067671039E+03  0.00000000000E+00 0.  1.
         21    1    1    2  506  504 -0.38189840890E+01  0.10402885164E+03 -0.33318465546E+03  0.34906818996E+03  0.00000000000E+00 0.  1.
<scales pt_clust_3="37.47454" pt_clust_4="41.07929" pt_clust_5="127.83605" pt_clust_6="14000.00000"></scales>
<clustering>
<clus scale="   37.475">  1  3  2 -1</clus>
<clus scale="   41.079">  2  4  1 -1</clus>
<clus scale="  127.836">  2  5  1 -1</clus>
<clus scale="   37.475">  1  3  2 -1</clus>
</clustering>
</event>
<event>
 6    0  0.8520634E+002  0.9334252E+02  0.7546771E-02  0.1294953E+00
         21   -1    0    0  505  501  0.00000000000E+00  0.00000000000E+00  0.16422222467E+04  0.16422222467E+04  0.00000000000E+00 0. -1.
         21   -1    0    0  506  502 -0.00000000000E+00 -0.00000000000E+00 -0.17768168555E+03  0.17768168555E+03  0.00000000000E+00 0. -1.
         21    1    1    2  503  501 -0.78868381469E+01  0.88576949244E+02  0.77918121029E+03  0.78423940007E+03  0.00000000000E+00 0. -1.
         21    1    1    2  504  503 -0.63048512701E+02 -0.10358206917E+03  0.53448965933E+03  0.54807258273E+03  0.00000000000E+00 0. -1.
         21    1    1    2  505  502  0.61779064347E+01  0.75656408376E+02 -0.15312861897E+03  0.17091059828E+03  0.00000000000E+00 0. -1.
         21    1    1    2  506  504  0.64757444413E+02 -0.60651288448E+02  0.30399831053E+03  0.31668135121E+03  0.00000000000E+00 0. -1.
<scales pt_clust_3="93.34252" pt_clust_4="14000.00000" pt_clust_5="75.90823" pt_clust_6="73.65358"></scales>
<clustering>
<clus scale="   75.908">  2  5  1 -1</clus>
<clus scale="   73.654">  2  6  1 -1</clus>
<clus scale="   93.343">  1  3  2 -1</clus>
<clus scale="   93.343">  1  3  2 -1</clus>
</clustering>
</event>
<event>
 6    0  0.8520634E+002  0.1098959E+03  0.7546771E-02  0.1260763E+00
         21   -1    0    0  504  501  0.00000000000E+00  0.00000000000E+00  0.27755753574E+03  0.27755753574E+03  0.00000000000E+00 0. -1.
         21   -1    0    0  505  502 -0.00000000000E+00 -0.00000000000E+00 -0.12929751719E+04  0.12929751719E+04  0.00000000000E+00 0. -1.
         21    1    1    2  503  501  0.35775539457E+02  0.25178632808E+02  0.25366013972E+03  0.25740497131E+03  0.00000000000E+00 0. -1.
         21    1    1    2  504  506 -0.40683652589E+02 -0.13181423050E+03 -0.25337358963E+03  0.28849320074E+03  0.00000000000E+00 0. -1.
         21    1    1    2  505  503  0.33535690170E+02  0.90612216953E+02 -0.86627032100E+03  0.87164183322E+03  0.00000000000E+00 0. -1.
         21    1    1    2  506  502 -0.28627577037E+02  0.16023380741E+02 -0.14943386525E+03  0.15299270238E+03  0.00000000000E+00 0. -1.
<scales pt_clust_3="43.72436" pt_clust_4="109.89590" pt_clust_5="14000.00000" pt_clust_6="32.80681"></scales>
<clustering>
<clus scale="   32.807">  2  6  1 -1</clus>
<clus scale="   43.724">  1  3  2 -1</clus>
<clus scale="  109.896">  1  4  2 -1</clus>
<clus scale="   43.724">  1  3  2 -1</clus>
</clustering>
</event>
<event>
 6    0  0.8520634E+002  0.7720356E+02  0.7546771E-02  0.1337180E+00
         21   -1    0    0  506  501  0.00000000000E+00  0.00000000000E+00  0.12095069078E+04  0.12095069078E+04  0.00000000000E+00 0.  1.
         21   -1    0    0  503  502 -0.00000000000E+00 -0.00000000000E+00 -0.54496004317E+02  0.54496004317E+02  0.00000000000E+00 0.  1.
         21    1    1    2  503  505  0.59336859744E+02  0.21759350475E+02  0.86541128413E+02  0.10716202296E+03  0.00000000000E+00 0. -1.
         21    1    1    2  504  502 -0.65628686613E+02 -0.54710971365E+02  0.94635505008E+01  0.85964956130E+02  0.00000000000E+00 0.  1.
         21    1    1    2  505  501  0.42242057629E+02  0.61316660804E+02  0.94625907535E+03  0.94918405065E+03  0.00000000000E+00 0.  1.
         21    1    1    2  506  504 -0.35950230760E+02 -0.28365039915E+02  0.11274714926E+03  0.12169188242E+03  0.00000000000E+00 0.  1.
<scales pt_clust_3="14000.00000" pt_clust_4="77.20356" pt_clust_5="38.33294" pt_clust_6="45.79295"></scales>
<clustering>
<clus scale="   45.793">  1  6  2 -1</clus>
<clus scale="   38.333">  1  5  2 -1</clus>
<clus scale="   77.204">  2  4  1 -1</clus>
<clus scale="   45.793">  1  3  2 -1</clus>
</clustering>
</event>
<event>
 6    0  0.8520634E+002  0.8074690E+02  0.7546771E-02  0.1326945E+00
         21   -1    0    0  506  501  0.00000000000E+00  0.00000000000E+00  0.13364874866E+03  0.13364874866E+03  0.00000000000E+00 0.  1.
         21   -1    0    0  505  502 -0.00000000000E+00 -0.00000000000E+00 -0.26260064877E+03  0.26260064877E+03  0.00000000000E+00 0.  1.
         21    1    1    2  503  501 -0.62877437430E+02  0.35708310548E+02 -0.62872241099E+01  0.72582262068E+02  0.00000000000E+00 0.  1.
         21    1    1    2  504  502 -0.20044333941E+02 -0.56396433543E+02 -0.54282939748E+02  0.80802045687E+02  0.00000000000E+00 0.  1.
         21    1    1    2  505  503  0.24820962833E-01  0.44621427131E+02 -0.12960295485E+03  0.13706931925E+03  0.00000000000E+00 0.  1.
         21    1    1    2  506  504  0.82896950408E+02 -0.23933304135E+02  0.61221218589E+02  0.10579577042E+03  0.00000000000E+00 0.  1.
<scales pt_clust_3="14000.00000" pt_clust_4="38.67320" pt_clust_5="44.62143" pt_clust_6="80.74690"></scales>
<clustering>
<clus scale="   44.621">  2  5  1 -1</clus>
<clus scale="   38.673">  2  4  1 -1</clus>
<clus scale="   80.747">  1  6  2 -1</clus>
<clus scale="   80.747">  1  3  2 -1</clus>
</clustering>
</event>
<event>
 6    0  0.8520634E+002  0.6522197E+02  0.7546771E-02  0.1377138E+00
         21   -1    0    0  506  501  0.00000000000E+00  0.00000000000E+00  0.62356314786E+02  0.62356314786E+02  0.00000000000E+00 0. -1.
         21   -1    0    0  505  502 -0.00000000000E+00 -0.00000000000E+00 -0.13544034451E+04  0.13544034451E+04  0.00000000000E+00 0.  1.
         21    1    1    2  503  501  0.19053906815E+02  0.51227018146E+02 -0.39581190302E+02  0.67482808024E+02  0.00000000000E+00 0. -1.
         21    1    1    2  504  502  0.62602304134E+02  0.13961288068E+02 -0.11101893568E+04  0.11120406351E+04  0.00000000000E+00 0.  1.
         21    1    1    2  505  503 -0.14374828137E+02  0.26572821677E+02 -0.11678745829E+03  0.12063192343E+03  0.00000000000E+00 0.  1.
         21    1    1    2  506  504 -0.67281382813E+02 -0.91761127891E+02 -0.25489124907E+02  0.11660439337E+03  0.00000000000E+00 0. -1.
<scales pt_clust_3="55.52642" pt_clust_4="65.22197" pt_clust_5="30.21176" pt_clust_6="14000.00000"></scales>
<clustering>
<clus scale="   30.212">  2  5  1 -1</clus>
<clus scale="   55.526">  1  3  2 -1</clus>
<clus scale="   65.222">  2  4  1 -1</clus>
<clus scale="   55.526">  1  3  2 -1</clus>
</clustering>
</event>
<event>
 6    0  0.8520634E+002  0.1206019E+03  0.7546771E-02  0.1242107E+00
         21   -1    0    0  506  501  0.00000000000E+00  0.00000000000E+00  0.55781461088E+03  0.55781461088E+03  0.00000000000E+00 0. -1.
         21   -1    0    0  504  502 -0.00000000000E+00 -0.00000000000E+00 -0.22041679501E+03  0.22041679501E+03  0.00000000000E+00 0. -1.
         21    1    1    2  503  501 -0.16367445914E+02  0.48241063416E+02  0.27758781000E+03  0.28222346774E+03  0.00000000000E+00 0. -1.
         21    1    1    2  504  505  0.34665889719E+02 -0.12802672611E+02 -0.16137795356E+03  0.16555505499E+03  0.00000000000E+00 0. -1.
         21    1    1    2  505  503 -0.94770417961E+02  0.64462802497E+02  0.13906898432E+03  0.18021394903E+03  0.00000000000E+00 0. -1.
         21    1    1    2  506  502  0.76471974157E+02 -0.99901193302E+02  0.82118975109E+02  0.15023893413E+03  0.00000000000E+00 0.  1.
<scales pt_clust_3="50.00898" pt_clust_4="36.95446" pt_clust_5="14000.00000" pt_clust_6="120.60188"></scales>
<clustering>
<clus scale="   36.954">  2  4  1 -1</clus>
<clus scale="   50.009">  1  3  2 -1</clus>
<clus scale="  120.602">  1  6  2 -1</clus>
<clus scale="   50.009">  1  3  2 -1</clus>
</clustering>
</event>
<event>
 6    0  0.8520634E+002  0.9774932E+02  0.7546771E-02  0.1285101E+00
         21   -1    0    0  505  501  0.00000000000E+00  0.00000000000E+00  0.10751356949E+03  0.10751356949E+03  0.00000000000E+00 0. -1.
         21   -1    0    0  504  502 -0.00000000000E+00 -0.00000000000E+00 -0.16254506778E+04  0.16254506778E+04  0.00000000000E+00 0. -1.
         21    1    1    2  503  502  0.29061551897E+02 -0.57024503550E+02 -0.39364612745E+03  0.39881529742E+03  0.00000000000E+00 0. -1.
         21    1    1    2  504  501 -0.11683970136E+03  0.50702822318E+02 -0.12025459683E+04  0.12092721356E+04  0.00000000000E+00 0. -1.
         21    1    1    2  505  506  0.39309735422E+02 -0.16441758577E+02  0.25237626095E+02  0.49522969368E+02  0.00000000000E+00 0. -1.
         21    1    1    2  506  503  0.48468414036E+02  0.22763439810E+02  0.53017361305E+02  0.75353844964E+02  0.00000000000E+00 0. -1.
<scales pt_clust_3="64.00287" pt_clust_4="88.48458" pt_clust_5="37.05353" pt_clust_6="37.05353"></scales>
<clustering>
<clus scale="   37.054">  5  6 -1 -1</clus>
<clus scale="   64.003">  2  3  1 -1</clus>
<clus scale="   88.485">  2  4  1 -1</clus>
<clus scale="   97.749">  1  3  2 -1</clus>
</clustering>
</event>
<event>
 6    0  0.8520634E+002  0.1011539E+03  0.7546771E-02  0.1277888E+00
         21   -1    0    0  505  501  0.00000000000E+00  0.00000000000E+00  0.22554436636E+03  0.22554436636E+03  0.00000000000E+00 0.  1.
         21   -1    0    0  504  502 -0.00000000000E+00 -0.00000000000E+00 -0.37603544007E+03  0.37603544007E+03  0.00000000000E+00 0.  1.
         21    1    1    2  503  501 -0.17275908872E+02  0.71318131298E+02 -0.36684932839E+02  0.82039729257E+02  0.00000000000E+00 0.  1.
         21    1    1    2  504  503  0.49542759001E+00  0.54618358798E+02 -0.21751253649E+03  0.22426572207E+03  0.00000000000E+00 0.  1.
         21    1    1    2  505  506  0.28407648622E+02  0.16236210992E+02  0.14349790108E+03  0.14718103364E+03  0.00000000000E+00 0.  1.
         21    1    1    2  506  502 -0.11627167340E+02 -0.14217270109E+03 -0.39791505457E+02  0.14809332146E+03  0.00000000000E+00 0.  1.
<scales pt_clust_3="14000.00000" pt_clust_4="55.32776" pt_clust_5="32.72016" pt_clust_6="101.15391"></scales>
<clustering>
<clus scale="   32.720">  1  5  2 -1</clus>
<clus scale="   55.328">  2  4  1 -1</clus>
<clus scale="  101.154">  2  6  1 -1</clus>
<clus scale="   32.720">  1  3  2 -1</clus>
</clustering>
</event>
<event>
 6    0  0.8520634E+002  0.1334894E+03  0.7546771E-02  0.1222368E+00
         21   -1    0    0  504  501  0.00000000000E+00  0.00000000000E+00  0.45128569188E+03  0.45128569188E+03  0.00000000000E+00 0.  1.
         21   -1    0    0  503  502 -0.00000000000E+00 -0.00000000000E+00 -0.11052502350E+04  0.11052502350E+04  0.00000000000E+00 0. -1.
         21    1    1    2  503  505 -0.32905754994E+01  0.32400333761E+02 -0.30154969569E+03  0.30330319564E+03  0.00000000000E+00 0. -1.
         21    1    1    2  504  506  0.12715437835E+02 -0.13322186238E+03  0.43060500098E+03  0.45092173805E+03  0.00000000000E+00 0.  1.
         21    1    1    2  505  501 -0.41163260265E+02  0.11576068740E+03 -0.42003076705E+03  0.43763089015E+03  0.00000000000E+00 0. -1.
         21    1    1    2  506  502  0.31738397930E+02 -0.14939158780E+02 -0.36298908136E+03  0.36468010304E+03  0.00000000000E+00 0.  1.
<scales pt_clust_3="32.56700" pt_clust_4="14000.00000" pt_clust_5="133.48942" pt_clust_6="30.24821"></scales>
<clustering>
<clus scale="   32.567">  2  3  1 -1</clus>
<clus scale="   30.248">  2  6  1 -1</clus>
<clus scale="  133.489">  2  5  1 -1</clus>
<clus scale="  133.489">  1  3  2 -1</clus>
</clustering>
</event>
<event>
 6    0  0.8520634E+002  0.1279987E+03  0.7546771E-02  0.1230456E+00
         21   -1    0    0  506  501  0.00000000000E+00  0.00000000000E+00  0.89467445729E+03  0.89467445729E+03  0.00000000000E+00 0.  1.
         21   -1    0    0  504  502 -0.00000000000E+00 -0.00000000000E+00 -0.30833856679E+03  0.30833856679E+03  0.00000000000E+00 0. -1.
         21    1    1    2  503  501  0.87729898965E+02  0.41589406291E+02  0.28895239050E+02  0.10129732834E+03  0.00000000000E+00 0. -1.
         21    1    1    2  504  503  0.36891138884E+02  0.28076283290E+00 -0.25011465522E+03  0.25282083718E+03  0.00000000000E+00 0. -1.
         21    1    1    2  505  502 -0.18884675901E+03 -0.11595665477E+02  0.54498159686E+03  0.57689036980E+03  0.00000000000E+00 0.  1.
         21    1    1    2  506  505  0.64225721166E+02 -0.30274503647E+02  0.26257370980E+03  0.27200448877E+03  0.00000000000E+00 0.  1.
<scales pt_clust_3="14000.00000" pt_clust_4="36.89221" pt_clust_5="127.99869" pt_clust_6="73.77223"></scales>
<clustering>
<clus scale="   36.892">  2  4  1 -1</clus>
<clus scale="   73.772">  1  6  2 -1</clus>
<clus scale="  127.999">  1  5  2 -1</clus>
<clus scale="   73.772">  1  3  2 -1</clus>
</clustering>
</event>
<event>
 6    0  0.8520634E+002  0.9683303E+02  0.7546771E-02  0.1287100E+00
         21   -1    0    0  504  501  0.00000000000E+00  0.00000000000E+00  0.37127285643E+03  0.37127285643E+03  0.00000000000E+00 0.  1.
         21   -1    0    0  503  502 -0.00000000000E+00 -0.00000000000E+00 -0.14423281770E+03  0.14423281770E+03  0.00000000000E+00 0. -1.
         21    1    1    2  503  506  0.18949644030E+02 -0.13358002044E+03  0.37374266439E+02  0.13999838092E+03  0.00000000000E+00 0. -1.
         21    1    1    2  504  505 -0.17529719075E+02  0.46586015571E+02  0.19978373006E+03  0.20589095826E+03  0.00000000000E+00 0.  1.
         21    1    1    2  505  502  0.48695750242E+02  0.78048781110E+02 -0.50221493972E+02  0.10480976472E+03  0.00000000000E+00 0. -1.
         21    1    1    2  506  501 -0.50115675197E+02  0.89452237598E+01  0.40103536207E+02  0.64806570229E+02  0.00000000000E+00 0.  1.
<scales pt_clust_3="96.83303" pt_clust_4="49.77497" pt_clust_5="14000.00000" pt_clust_6="60.32100"></scales>
<clustering>
<clus scale="   49.775">  1  4  2 -1</clus>
<clus scale="   60.321">  1  6  2 -1</clus>
<clus scale="   96.833">  1  3  2 -1</clus>
<clus scale="   49.775">  1  3  2 -1</clus>
</clustering>
</event>
<event>
 6    0  0.8520634E+002  0.1231758E+03  0.7546771E-02  0.1237948E+00
         21   -1    0    0  504  501  0.00000000000E+00  0.00000000000E+00  0.22695039761E+03  0.22695039761E+03  0.00000000000E+00 0.  1.
         21   -1    0    0  505  502 -0.00000000000E+00 -0.00000000000E+00 -0.11301191025E+04  0.11301191025E+04  0.00000000000E+00 0. -1.
         21    1    1    2  503  501  0.44102953209E+02  0.83705571679E+02  0.13760286304E+03  0.16699173970E+03  0.00000000000E+00 0.  1.
         21    1    1    2  504  502 -0.12313025916E+03  0.28384346281E+02 -0.24875034938E+01  0.12638401603E+03  0.00000000000E+00 0. -1.
         21    1    1    2  505  506 -0.25042597771E+01 -0.37206877750E+02 -0.80088344028E+03  0.80175115091E+03  0.00000000000E+00 0. -1.
         21    1    1    2  506  503  0.81531565730E+02 -0.74883040210E+02 -0.23740062420E+03  0.26194259351E+03  0.00000000000E+00 0. -1.
<scales pt_clust_3="93.09257" pt_clust_4="14000.00000" pt_clust_5="37.29106" pt_clust_6="123.17576"></scales>
<clustering>
<clus scale="   37.291">  2  5  1 -1</clus>
<clus scale="   93.093">  1  3  2 -1</clus>
<clus scale="  123.176">  2  6  1 -1</clus>
<clus scale="   93.093">  1  3  2 -1</clus>
</clustering>
</event>
<event>
 6    0  0.8520634E+002  0.1565224E+03  0.7546771E-02  0.1192680E+00
         21   -1    0    0  503  501  0.00000000000E+00  0.00000000000E+00  0.21640840072E+04  0.21640840072E+04  0.00000000000E+00 0. -1.
         21   -1    0    0  506  502 -0.00000000000E+00 -0.00000000000E+00 -0.12626335273E+03  0.12626335273E+03  0.00000000000E+00 0. -1.
         21    1    1    2  503  502 -0.12890501588E+02  0.20912491834E+03  0.13267698529E+03  0.24799713491E+03  0.00000000000E+00 0. -1.
         21    1    1    2  504  501  0.33738662921E+01 -0.70214223352E+02  0.12918560853E+04  0.12937671991E+04  0.00000000000E+00 0. -1.
         21    1    1    2  505  504 -0.12011425816E+03 -0.59507262313E+02  0.57690454282E+03  0.59227307959E+03  0.00000000000E+00 0. -1.
         21    1    1    2  506  505  0.12963089345E+03 -0.79403432670E+02  0.36383041012E+02  0.15630994636E+03  0.00000000000E+00 0. -1.
<scales pt_clust_3="14000.00000" pt_clust_4="70.29524" pt_clust_5="154.36832" pt_clust_6="156.52241"></scales>
<clustering>
<clus scale="   70.295">  1  4  2 -1</clus>
<clus scale="  156.522">  2  6  1 -1</clus>
<clus scale="  154.368">  1  5  2 -1</clus>
<clus scale="   70.295">  1  3  2 -1</clus>
</clustering>
</event>
<event>
 6    0  0.8520634E+002  0.1176822E+03  0.7546771E-02  0.1246970E+00
         21   -1    0    0  504  501  0.00000000000E+00  0.00000000000E+00  0.50955413294E+02  0.50955413294E+02  0.00000000000E+00 0. -1.
         21   -1    0    0  503  502 -0.00000000000E+00 -0.00000000000E+00 -0.32409271412E+04  0.32409271412E+04  0.00000000000E+00 0. -1.
         21    1    1    2  503  505  0.11913037595E+03 -0.33476658024E+01 -0.16591427733E+04  0.16634175649E+04  0.00000000000E+00 0. -1.
         21    1    1    2  504  506 -0.31505351667E+02 -0.74627747536E+00 -0.35646082345E+02  0.47579273852E+02  0.00000000000E+00 0.  1.
         21    1    1    2  505  501 -0.68234940248E+02 -0.10698742338E+03 -0.14559876261E+04  0.14615068536E+04  0.00000000000E+00 0. -1.
         21    1    1    2  506  502 -0.19390084038E+02  0.11108136665E+03 -0.39195246163E+02  0.11937886203E+03  0.00000000000E+00 0. -1.
<scales pt_clust_3="117.68221" pt_clust_4="31.51419" pt_clust_5="116.50880" pt_clust_6="14000.00000"></scales>
<clustering>
<clus scale="   31.514">  1  4  2 -1</clus>
<clus scale="  117.682">  2  3  1 -1</clus>
<clus scale="  116.509">  2  5  1 -1</clus>
<clus scale="   31.514">  1  3  2 -1</clus>
</clustering>
</event>
<event>
 6    0  0.8520634E+002  0.8961988E+02  0.7546771E-02  0.1303775E+00
         21   -1    0    0  505  501  0.00000000000E+00  0.00000000000E+00  0.14557312150E+04  0.14557312150E+04  0.00000000000E+00 0.  1.
         21   -1    0    0  506  502 -0.00000000000E+00 -0.00000000000E+00 -0.16788341836E+03  0.16788341836E+03  0.00000000000E+00 0. -1.
         21    1    1    2  503  504  0.19198869130E+02 -0.70943128539E+02  0.78833423404E+01  0.73916650014E+02  0.00000000000E+00 0. -1.
         21    1    1    2  504  502  0.18911675977E+02  0.81369816034E+02 -0.12475859999E+02  0.84465055096E+02  0.00000000000E+00 0.  1.
         21    1    1    2  505  503  0.24903798904E+02  0.65508022790E+02  0.13494525708E+04  0.13512711575E+04  0.00000000000E+00 0.  1.
         21    1    1    2  506  501 -0.63014344011E+02 -0.75934710284E+02 -0.57012256578E+02  0.11396177068E+03  0.00000000000E+00 0. -1.
<scales pt_clust_3="53.89703" pt_clust_4="89.61988" pt_clust_5="70.08210" pt_clust_6="14000.00000"></scales>
<clustering>
<clus scale="   70.082">  1  5  2 -1</clus>
<clus scale="   53.897">  1  3  2 -1</clus>
<clus scale="   89.620">  1  4  2 -1</clus>
<clus scale="   70.082">  1  3  2 -1</clus>
</clustering>
</event>
<event>
 6    0  0.8520634E+002  0.1517236E+03  0.7546771E-02  0.1198371E+00
         21   -1    0    0  506  501  0.00000000000E+00  0.00000000000E+00  0.88701503281E+03  0.88701503281E+03  0.00000000000E+00 0. -1.
         21   -1    0    0  503  502 -0.00000000000E+00 -0.00000000000E+00 -0.18661795681E+04  0.18661795681E+04  0.00000000000E+00 0.  1.
         21    1    1    2  503  505 -0.23610573153E+02 -0.90918346232E+02 -0.15672992087E+04  0.15701115930E+04  0.00000000000E+00 0.  1.
         21    1    1    2  504  502  0.11005114377E+03 -0.44886054598E+02 -0.22424034234E+03  0.25379074703E+03  0.00000000000E+00 0. -1.
         21    1    1    2  505  501 -0.16135133450E+03  0.16237707865E+03  0.81817715348E+03  0.84959662387E+03  0.00000000000E+00 0. -1.
         21    1    1    2  506  504  0.74910763881E+02 -0.26572677818E+02 -0.58021376824E+01  0.79695636978E+02  0.00000000000E+00 0.  1.
<scales pt_clust_3="93.94553" pt_clust_4="14000.00000" pt_clust_5="151.72364" pt_clust_6="79.48415"></scales>
<clustering>
<clus scale="   79.484">  1  6  2 -1</clus>
<clus scale="   93.946">  2  3  1 -1</clus>
<clus scale="  151.724">  1  5  2 -1</clus>
<clus scale="   79.484">  1  3  2 -1</clus>
</clustering>
</event>
<event>
 6    0  0.8520634E+002  0.8908708E+02  0.7546771E-02  0.1305078E+00
         21   -1    0    0  503  501  0.00000000000E+00  0.00000000000E+00  0.87133594254E+03  0.87133594254E+03  0.00000000000E+00 0. -1.
         21   -1    0    0  506  502 -0.00000000000E+00 -0.00000000000E+00 -0.68590292236E+02  0.68590292236E+02  0.00000000000E+00 0. -1.
         21    1    1    2  503  504  0.29116270303E+02 -0.63008924764E+02  0.16018357222E+03  0.17457565296E+03  0.00000000000E+00 0.  1.
         21    1    1    2  504  505 -0.31011850852E+02 -0.72200662593E+02  0.91698259473E+01  0.79112301699E+02  0.00000000000E+00 0. -1.
         21    1    1    2  505  502  0.35025388786E+02 -0.14838781539E+02  0.38723080705E+01  0.38235612549E+02  0.00000000000E+00 0.  1.
         21    1    1    2  506  501 -0.33129808237E+02  0.15004836890E+03  0.62951994406E+03  0.64800266756E+03  0.00000000000E+00 0. -1.
<scales pt_clust_3="73.44034" pt_clust_4="89.08708" pt_clust_5="38.03902" pt_clust_6="14000.00000"></scales>
<clustering>
<clus scale="   38.039">  2  5  1 -1</clus>
<clus scale="   73.440">  1  3  2 -1</clus>
<clus scale="   89.087">  2  4  1 -1</clus>
<clus scale="   73.440">  1  3  2 -1</clus>
</clustering>
</event>
<event>
 6    0  0.8520634E+002  0.1093801E+03  0.7546771E-02  0.1261722E+00
         21   -1    0    0  503  501  0.00000000000E+00  0.00000000000E+00  0.17111397191E+04  0.17111397191E+04  0.00000000000E+00 0.  1.
         21   -1    0    0  506  502 -0.00000000000E+00 -0.00000000000E+00 -0.63804372942E+03  0.63804372942E+03  0.00000000000E+00 0.  1.
         21    1    1    2  503  505  0.10314580181E+03 -0.38019150902E+02  0.68388250990E+03  0.69266138886E+03  0.00000000000E+00 0.  1.
         21    1    1    2  504  502 -0.34048994024E+02  0.46940061142E+02 -0.60026940774E+03  0.60306389811E+03  0.00000000000E+00 0.  1.
         21    1    1    2  505  504 -0.15403371318E+03 -0.61874136158E+02  0.91172165427E+03  0.92670986203E+03  0.00000000000E+00 0.  1.
         21    1    1    2  506  501  0.84936905391E+02  0.52953225918E+02  0.77761233237E+02  0.12674829950E+03  0.00000000000E+00 0. -1.
<scales pt_clust_3="104.18847" pt_clust_4="57.98882" pt_clust_5="109.38007" pt_clust_6="14000.00000"></scales>
<clustering>
<clus scale="   57.989">  2  4  1 -1</clus>
<clus scale="  104.188">  1  3  2 -1</clus>
<clus scale="  109.380">  1  5  2 -1</clus>
<clus scale="  104.188">  1  3  2 -1</clus>
</clustering>
</event>
<event>
 6    0  0.8520634E+002  0.1287691E+03  0.7546771E-02  0.1229294E+00
         21   -1    0    0  505  501  0.00000000000E+00  0.00000000000E+00  0.49215437763E+03  0.49215437763E+03  0.00000000000E+00 0.  1.
         21   -1    0    0  501  502 -0.00000000000E+00 -0.00000000000E+00 -0.95000632782E+03  0.95000632782E+03  0.00000000000E+00 0.  1.
         21    1    1    2  503  502 -0.18941202275E+02  0.30871753828E+02 -0.30975610418E+03  0.31186644321E+03  0.00000000000E+00 0.  1.
         21    1    1    2  504  503 -0.35821968421E+02 -0.56846049697E+01 -0.23562150968E+03  0.23839677846E+03  0.00000000000E+00 0.  1.
         21    1    1    2  505  506  0.10631231359E+03  0.50877347971E+02  0.47719849244E+03  0.49153760156E+03  0.00000000000E+00 0.  1.
         21    1    1    2  506  504 -0.51549142891E+02 -0.76064496829E+02 -0.38967282878E+03  0.40035988223E+03  0.00000000000E+00 0.  1.
<scales pt_clust_3="36.21925" pt_clust_4="32.64872" pt_clust_5="117.81782" pt_clust_6="32.64872"></scales>
<clustering>
<clus scale="   32.649">  4  6 -1 -1</clus>
<clus scale="   36.219">  2  3  1 -1</clus>
<clus scale="  117.818">  1  5  2 -1</clus>
<clus scale="  117.818">  1  3  2 -1</clus>
</clustering>
</event>
<event>
 6    0  0.8520634E+002  0.8398374E+02  0.7546771E-02  0.1318112E+00
         21   -1    0    0  505  501  0.00000000000E+00  0.00000000000E+00  0.21341576472E+04  0.21341576472E+04  0.00000000000E+00 0.  1.
         21   -1    0    0  503  502 -0.00000000000E+00 -0.00000000000E+00 -0.15927445529E+03  0.15927445529E+03  0.00000000000E+00 0.  1.
         21    1    1    2  503  504 -0.36837458981E+02  0.59758012167E+01 -0.14732419832E+03  0.15197739303E+03  0.00000000000E+00 0.  1.
         21    1    1    2  504  506  0.71233117750E+02  0.31040877903E+02  0.26994197566E+03  0.28090276501E+03  0.00000000000E+00 0.  1.
         21    1    1    2  505  502 -0.36139903868E+02 -0.10032513096E+03  0.13703614995E+04  0.13745042248E+04  0.00000000000E+00 0.  1.
         21    1    1    2  506  501  0.17442450989E+01  0.63308451844E+02  0.48190391507E+03  0.48604771970E+03  0.00000000000E+00 0.  1.
<scales pt_clust_3="37.31901" pt_clust_4="60.92598" pt_clust_5="14000.00000" pt_clust_6="83.98374"></scales>
<clustering>
<clus scale="   37.319">  2  3  1 -1</clus>
<clus scale="   60.926">  2  4  1 -1</clus>
<clus scale="   83.984">  2  6  1 -1</clus>
<clus scale="   83.984">  1  3  2 -1</clus>
</clustering>
</event>
<event>
 6    0  0.8520634E+002  0.1361750E+03  0.7546771E-02  0.1218570E+00
         21   -1    0    0  505  501  0.00000000000E+00  0.00000000000E+00  0.13018925542E+04  0.13018925542E+04  0.00000000000E+00 0.  1.
         21   -1    0    0  506  502 -0.00000000000E+00 -0.00000000000E+00 -0.22217910334E+03  0.22217910334E+03  0.00000000000E+00 0. -1.
         21    1    1    2  503  502  0.15005061819E+03  0.52227203802E+02 -0.51163601703E+02  0.16691489740E+03  0.00000000000E+00 0. -1.
         21    1    1    2  504  503 -0.80104738754E+02  0.12230025408E+03  0.39156524320E+03  0.41796825358E+03  0.00000000000E+00 0.  1.
         21    1    1    2  505  504 -0.51844714254E+02 -0.65289864660E+02  0.80575458257E+03  0.81005622531E+03  0.00000000000E+00 0. -1.
         21    1    1    2  506  501 -0.18101165178E+02 -0.10923759322E+03 -0.66442773203E+02  0.12913228127E+03  0.00000000000E+00 0. -1.
<scales pt_clust_3="14000.00000" pt_clust_4="136.17497" pt_clust_5="83.37050" pt_clust_6="115.38061"></scales>
<clustering>
<clus scale="   83.371">  1  5  2 -1</clus>
<clus scale="  115.381">  2  6  1 -1</clus>
<clus scale="  136.175">  1  4  2 -1</clus>
<clus scale="   83.371">  1  3  2 -1</clus>
</clustering>
</event>
<event>
 6    0  0.8520634E+002  0.1293186E+03  0.7546771E-02  0.1228470E+00
         21   -1    0    0  502  501  0.00000000000E+00  0.00000000000E+00  0.79073841122E+02  0.79073841122E+02  0.00000000000E+00 0.  1.
         21   -1    0    0  506  502 -0.00000000000E+00 -0.00000000000E+00 -0.23017992693E+04  0.23017992693E+04  0.00000000000E+00 0.  1.
         21    1    1    2  503  505 -0.58245751011E+02 -0.11976176235E+02 -0.13119172538E+04  0.13132642069E+04  0.00000000000E+00 0.  1.
         21    1    1    2  504  501  0.44258047474E+02 -0.41436325340E+01  0.61661081549E+02  0.76013376682E+02  0.00000000000E+00 0.  1.
         21    1    1    2  505  504  0.79887754027E+02  0.38714643728E+02 -0.24124905064E+03  0.25706415798E+03  0.00000000000E+00 0.  1.
         21    1    1    2  506  503 -0.65900050490E+02 -0.22594834959E+02 -0.73122020526E+03  0.73453136883E+03  0.00000000000E+00 0. -1.
<scales pt_clust_3="46.86661" pt_clust_4="44.45160" pt_clust_5="119.47630" pt_clust_6="46.86661"></scales>
<clustering>
<clus scale="   44.452">  1  4  2 -1</clus>
<clus scale="   46.867">  3  6 -1 -1</clus>
<clus scale="  119.476">  1  5  2 -1</clus>
<clus scale="   44.452">  1  3  2 -1</clus>
</clustering>
</event>
<event>
 6    0  0.8520634E+002  0.1020789E+03  0.7546771E-02  0.1275984E+00
         21   -1    0    0  505  501  0.00000000000E+00  0.00000000000E+00  0.17126139866E+03  0.17126139866E+03  0.00000000000E+00 0. -1.
         21   -1    0    0  506  502 -0.00000000000E+00 -0.00000000000E+00 -0.21066950239E+04  0.21066950239E+04  0.00000000000E+00 0.  1.
         21    1    1    2  503  502 -0.92214124467E+02 -0.25596262106E+02 -0.12032376014E+04  0.12070374222E+04  0.00000000000E+00 0.  1.
         21    1    1    2  504  503 -0.28493567189E+02  0.55551673189E+02  0.13417825538E+03  0.14799214838E+03  0.00000000000E+00 0. -1.
         21    1    1    2  505  504 -0.12138859977E+02  0.30257506779E+02  0.10309406645E+02  0.34192872114E+02  0.00000000000E+00 0. -1.
         21    1    1    2  506  501  0.13284655163E+03 -0.60212917862E+02 -0.87668368589E+03  0.88873397980E+03  0.00000000000E+00 0.  1.
<scales pt_clust_3="102.07887" pt_clust_4="93.21254" pt_clust_5="32.60167" pt_clust_6="14000.00000"></scales>
<clustering>
<clus scale="   32.602">  1  5  2 -1</clus>
<clus scale="   93.213">  1  4  2 -1</clus>
<clus scale="  102.079">  2  3  1 -1</clus>
<clus scale="   32.602">  1  3  2 -1</clus>
</clustering>
</event>
<event>
 6    0  0.8520634E+002  0.1357065E+03  0.7546771E-02  0.1219226E+00
         21   -1    0    0  504  501  0.00000000000E+00  0.00000000000E+00  0.32800558354E+03  0.32800558354E+03  0.00000000000E+00 0.  1.
         21   -1    0    0  505  502 -0.00000000000E+00 -0.00000000000E+00 -0.13600775706E+03  0.13600775706E+03  0.00000000000E+00 0.  1.
         21    1    1    2  503  501  0.11984336461E+03 -0.89413977649E+02  0.84936079828E+02  0.17196345279E+03  0.00000000000E+00 0.  1.
         21    1    1    2  504  506 -0.71996911234E+02  0.10951974928E+03  0.15211888988E+03  0.20079414177E+03  0.00000000000E+00 0.  1.
         21    1    1    2  505  503 -0.51302514033E+01 -0.31709284354E+02 -0.31432482650E+02  0.44942175729E+02  0.00000000000E+00 0. -1.
         21    1    1    2  506  502 -0.42716201974E+02  0.11603512722E+02 -0.13624660581E+02  0.46313570306E+02  0.00000000000E+00 0.  1.
<scales pt_clust_3="135.70649" pt_clust_4="14000.00000" pt_clust_5="32.12162" pt_clust_6="44.32821"></scales>
<clustering>
<clus scale="   32.122">  2  5  1 -1</clus>
<clus scale="   44.328">  2  6  1 -1</clus>
<clus scale="  135.706">  2  3  1 -1</clus>
<clus scale="  135.706">  1  3  2 -1</clus>
</clustering>
</event>
<event>
 6    0  0.8520634E+002  0.9262945E+02  0.7546771E-02  0.1296606E+00
         21   -1    0    0  503  501  0.00000000000E+00  0.00000000000E+00  0.27762637357E+03  0.27762637357E+03  0.00000000000E+00 0. -1.
         21   -1    0    0  505  502 -0.00000000000E+00 -0.00000000000E+00 -0.14386354068E+03  0.14386354068E+03  0.00000000000E+00 0. -1.
         21    1    1    2  503  504 -0.72591005070E+02 -0.77390312637E+01  0.78779612936E+02  0.10740378967E+03  0.00000000000E+00 0. -1.
         21    1    1    2  504  506  0.24386618332E+02 -0.11021657213E+03  0.86776624001E+02  0.14238181906E+03  0.00000000000E+00 0. -1.
         21    1    1    2  505  501  0.68262737626E+02  0.63062644178E+02  0.18314584658E+02  0.94721288262E+02  0.00000000000E+00 0. -1.
         21    1    1    2  506  502 -0.20058350888E+02  0.54892959221E+02 -0.50107988708E+02  0.76983017248E+02  0.00000000000E+00 0. -1.
<scales pt_clust_3="76.19264" pt_clust_4="92.62945" pt_clust_5="14000.00000" pt_clust_6="58.44292"></scales>
<clustering>
<clus scale="   58.443">  2  6  1 -1</clus>
<clus scale="   76.193">  1  3  2 -1</clus>
<clus scale="   92.629">  1  4  2 -1</clus>
<clus scale="   76.193">  1  3  2 -1</clus>
</clustering>
</event>
<event>
 6    0  0.8520634E+002  0.1003976E+03  0.7546771E-02  0.1279462E+00
         21   -1    0    0  506  501  0.00000000000E+00  0.00000000000E+00  0.36568467163E+02  0.36568467163E+02  0.00000000000E+00 0. -1.
         21   -1    0    0  503  502 -0.00000000000E+00 -0.00000000000E+00 -0.11966186961E+04  0.11966186961E+04  0.00000000000E+00 0. -1.
         21    1    1    2  503  505 -0.70858763641E+01  0.39671870126E+02 -0.62783562796E+03  0.62912768391E+03  0.00000000000E+00 0. -1.
         21    1    1    2  504  501 -0.10544430659E+02 -0.11381774436E+03 -0.13464154948E+03  0.17661826291E+03  0.00000000000E+00 0. -1.
         21    1    1    2  505  504 -0.58088781744E+02  0.12695933449E+02 -0.15039104773E+03  0.16171876987E+03  0.00000000000E+00 0.  1.
         21    1    1    2  506  502  0.75719088768E+02  0.61449940782E+02 -0.24718200377E+03  0.26572244657E+03  0.00000000000E+00 0.  1.
<scales pt_clust_3="40.29971" pt_clust_4="100.39764" pt_clust_5="64.50459" pt_clust_6="14000.00000"></scales>
<clustering>
<clus scale="   40.300">  2  3  1 -1</clus>
<clus scale="   64.505">  2  5  1 -1</clus>
<clus scale="  100.398">  1  4  2 -1</clus>
<clus scale="  100.398">  1  3  2 -1</clus>
</clustering>
</event>
<event>
 6    0  0.8520634E+002  0.7441480E+02  0.7546771E-02  0.1345693E+00
         21   -1    0    0  504  501  0.00000000000E+00  0.00000000000E+00  0.68589758719E+03  0.68589758719E+03  0.00000000000E+00 0. -1.
         21   -1    0    0  503  502 -0.00000000000E+00 -0.00000000000E+00 -0.13365643147E+03  0.13365643147E+03  0.00000000000E+00 0.  1.
         21    1    1    2  503  506  0.59519292881E+02  0.93886346622E+01 -0.84709237073E+02  0.10395358354E+03  0.00000000000E+00 0.  1.
         21    1    1    2  504  505  0.55668451604E+02  0.76123049476E+02  0.31961643254E+03  0.33323919205E+03  0.00000000000E+00 0. -1.
         21    1    1    2  505  502 -0.11033666121E+03 -0.35306166261E+02  0.82625853707E+02  0.14229453919E+03  0.00000000000E+00 0. -1.
         21    1    1    2  506  501 -0.48510832785E+01 -0.50205517877E+02  0.23470810654E+03  0.24006670388E+03  0.00000000000E+00 0. -1.
<scales pt_clust_3="59.99375" pt_clust_4="74.41480" pt_clust_5="14000.00000" pt_clust_6="50.43934"></scales>
<clustering>
<clus scale="   50.439">  1  6  2 -1</clus>
<clus scale="   59.994">  2  3  1 -1</clus>
<clus scale="   74.415">  1  4  2 -1</clus>
<clus scale="   50.439">  1  3  2 -1</clus>
</clustering>
</event>
<event>
 6    0  0.8520634E+002  0.1105188E+03  0.7546771E-02  0.1259612E+00
         21   -1    0    0  503  501  0.00000000000E+00  0.00000000000E+00  0.25562754644E+04  0.25562754644E+04  0.00000000000E+00 0.  1.
         21   -1    0    0  505  502 -0.00000000000E+00 -0.00000000000E+00 -0.29033117751E+03  0.29033117751E+03  0.00000000000E+00 0. -1.
         21    1    1    2  503  506  0.51461058281E+01 -0.57838089011E+02  0.24037225125E+04  0.24044237655E+04  0.00000000000E+00 0.  1.
         21    1    1    2  504  501  0.11264174096E+03  0.32876410731E+02  0.10167053678E+03  0.15526080715E+03  0.00000000000E+00 0. -1.
         21    1    1    2  505  504 -0.90133098633E+02  0.81255368382E+01 -0.70009704722E+02  0.11441747495E+03  0.00000000000E+00 0. -1.
         21    1    1    2  506  502 -0.27654748156E+02  0.16836141442E+02 -0.16943905773E+03  0.17250459425E+03  0.00000000000E+00 0. -1.
<scales pt_clust_3="58.01016" pt_clust_4="14000.00000" pt_clust_5="110.51883" pt_clust_6="32.37655"></scales>
<clustering>
<clus scale="   32.377">  2  6  1 -1</clus>
<clus scale="   58.010">  1  3  2 -1</clus>
<clus scale="  110.519">  2  5  1 -1</clus>
<clus scale="   58.010">  1  3  2 -1</clus>
</clustering>
</event>
<event>
 6    0  0.8520634E+002  0.1624966E+03  0.7546771E-02  0.1185907E+00
         21   -1    0    0  503  501  0.00000000000E+00  0.00000000000E+00  0.35547581345E+03  0.35547581345E+03  0.00000000000E+00 0.  1.
         21   -1    0    0  504  502 -0.00000000000E+00 -0.00000000000E+00 -0.29381104952E+03  0.29381104952E+03  0.00000000000E+00 0.  1.
         21    1    1    2  503  505  0.18935444544E+02  0.30543933741E+02  0.21184317217E+02  0.41716402582E+02  0.00000000000E+00 0. -1.
         21    1    1    2  504  506  0.16316209178E+02 -0.14468844256E+03 -0.74638156666E+02  0.16362095991E+03  0.00000000000E+00 0.  1.
         21    1    1    2  505  502 -0.43015092529E+01  0.18287965896E+03 -0.10524792213E+03  0.21104643507E+03  0.00000000000E+00 0.  1.
         21    1    1    2  506  501 -0.30950144469E+02 -0.68735150148E+02  0.22036652552E+03  0.23290306541E+03  0.00000000000E+00 0.  1.
<scales pt_clust_3="35.93721" pt_clust_4="162.49663" pt_clust_5="14000.00000" pt_clust_6="50.57249"></scales>
<clustering>
<clus scale="   35.937">  1  3  2 -1</clus>
<clus scale="   50.572">  1  6  2 -1</clus>
<clus scale="  162.497">  2  4  1 -1</clus>
<clus scale="   35.937">  1  3  2 -1</clus>
</clustering>
</event>
<event>
 6    0  0.8520634E+002  0.1025176E+03  0.7546771E-02  0.1275089E+00
         21   -1    0    0  506  501  0.00000000000E+00  0.00000000000E+00  0.66639166674E+02  0.66639166674E+02  0.00000000000E+00 0.  1.
         21   -1    0    0  505  502 -0.00000000000E+00 -0.00000000000E+00 -0.52371795068E+03  0.52371795068E+03  0.00000000000E+00 0.  1.
         21    1    1    2  503  501  0.60603081132E+02  0.70933154803E+02 -0.51572029747E+02  0.10660168922E+03  0.00000000000E+00 0.  1.
         21    1    1    2  504  502 -0.18065716033E+02 -0.24843765455E+02 -0.69126259243E+02  0.75644051284E+02  0.00000000000E+00 0.  1.
         21    1    1    2  505  503  0.33952514746E+02  0.38191633146E+02 -0.27319461270E+03  0.27793285252E+03  0.00000000000E+00 0.  1.
         21    1    1    2  506  504 -0.76489879846E+02 -0.84281022494E+02 -0.63185882307E+02  0.13017852432E+03  0.00000000000E+00 0.  1.
<scales pt_clust_3="102.51755" pt_clust_4="30.71779" pt_clust_5="32.48847" pt_clust_6="14000.00000"></scales>
<clustering>
<clus scale="   30.718">  2  4  1 -1</clus>
<clus scale="   32.488">  2  5  1 -1</clus>
<clus scale="  102.518">  1  3  2 -1</clus>
<clus scale="  102.518">  1  3  2 -1</clus>
</clustering>
</event>
<event>
 6    0  0.8520634E+002  0.8167217E+02  0.7546771E-02  0.1324372E+00
         21   -1    0    0  506  501  0.00000000000E+00  0.00000000000E+00  0.36067047954E+03  0.36067047954E+03  0.00000000000E+00 0. -1.
         21   -1    0    0  505  502 -0.00000000000E+00 -0.00000000000E+00 -0.41756467696E+03  0.41756467696E+03  0.00000000000E+00 0.  1.
         21    1    1    2  503  501 -0.11035890240E+02 -0.11167875317E+03  0.31054916307E+03  0.33020405429E+03  0.00000000000E+00 0. -1.
         21    1    1    2  504  502 -0.34332315374E+02 -0.23078057121E+02 -0.80131430812E+02  0.90179547589E+02  0.00000000000E+00 0.  1.
         21    1    1    2  505  503  0.22821871983E+02  0.10152321549E+03 -0.29853734085E+03  0.31615240788E+03  0.00000000000E+00 0.  1.
         21    1    1    2  506  504  0.22546333631E+02  0.33233594805E+02  0.11225411172E+02  0.41699146752E+02  0.00000000000E+00 0. -1.
<scales pt_clust_3="81.67217" pt_clust_4="40.80854" pt_clust_5="14000.00000" pt_clust_6="40.15979"></scales>
<clustering>
<clus scale="   40.160">  1  6  2 -1</clus>
<clus scale="   40.809">  2  4  1 -1</clus>
<clus scale="   81.672">  1  3  2 -1</clus>
<clus scale="   40.160">  1  3  2 -1</clus>
</clustering>
</event>
<event>
 6    0  0.8520634E+002  0.7250193E+02  0.7546771E-02  0.1351786E+00
         21   -1    0    0  503  501  0.00000000000E+00  0.00000000000E+00  0.23275270722E+02  0.23275270722E+02  0.00000000000E+00 0. -1.
         21   -1    0    0  506  502 -0.00000000000E+00 -0.00000000000E+00 -0.17182905891E+04  0.17182905891E+04  0.00000000000E+00 0.  1.
         21    1    1    2  503  504  0.64596944079E+02  0.28317274653E+02 -0.28661588320E+03  0.29516655930E+03  0.00000000000E+00 0. -1.
         21    1    1    2  504  502 -0.20070659055E+02  0.37010668125E+02 -0.56584401852E+03  0.56740820773E+03  0.00000000000E+00 0.  1.
         21    1    1    2  505  501 -0.30371663127E+02  0.34938108209E+02 -0.20342175930E+02  0.50565931693E+02  0.00000000000E+00 0. -1.
         21    1    1    2  506  505 -0.14154621897E+02 -0.10026605099E+03 -0.82221324071E+03  0.82842516107E+03  0.00000000000E+00 0.  1.
<scales pt_clust_3="72.50193" pt_clust_4="42.10250" pt_clust_5="47.55982" pt_clust_6="14000.00000"></scales>
<clustering>
<clus scale="   42.103">  2  4  1 -1</clus>
<clus scale="   47.560">  1  5  2 -1</clus>
<clus scale="   72.502">  1  3  2 -1</clus>
<clus scale="   47.560">  1  3  2 -1</clus>
</clustering>
</event>
<event>
 6    0  0.8520634E+002  0.8864732E+02  0.7546771E-02  0.1306161E+00
         21   -1    0    0  504  501  0.00000000000E+00  0.00000000000E+00  0.62815264915E+03  0.62815264915E+03  0.00000000000E+00 0.  1.
         21   -1    0    0  506  502 -0.00000000000E+00 -0.00000000000E+00 -0.22865847803E+03  0.22865847803E+03  0.00000000000E+00 0. -1.
         21    1    1    2  503  501  0.12052938925E+03 -0.10571989049E+02  0.12144632730E+03  0.17143019291E+03  0.00000000000E+00 0.  1.
         21    1    1    2  504  502 -0.36437225063E+02 -0.21771465338E+02  0.45833456292E+03  0.46029581753E+03  0.00000000000E+00 0.  1.
         21    1    1    2  505  503 -0.50704674448E+02  0.52202740549E+02 -0.47917205155E+02  0.87132936836E+02  0.00000000000E+00 0. -1.
         21    1    1    2  506  505 -0.33387489741E+02 -0.19859286161E+02 -0.13236951394E+03  0.13795217990E+03  0.00000000000E+00 0. -1.
<scales pt_clust_3="14000.00000" pt_clust_4="42.85350" pt_clust_5="88.64732" pt_clust_6="38.84734"></scales>
<clustering>
<clus scale="   38.847">  2  6  1 -1</clus>
<clus scale="   42.854">  1  4  2 -1</clus>
<clus scale="   88.647">  2  5  1 -1</clus>
<clus scale="   42.854">  1  3  2 -1</clus>
</clustering>
</event>
<event>
 6    0  0.8520634E+002  0.1064837E+03  0.7546771E-02  0.1267224E+00
         21   -1    0    0  504  501  0.00000000000E+00  0.00000000000E+00  0.75104053492E+03  0.75104053492E+03  0.00000000000E+00 0.  1.
         21   -1    0    0  506  502 -0.00000000000E+00 -0.00000000000E+00 -0.14726998532E+04  0.14726998532E+04  0.00000000000E+00 0. -1.
         21    1    1    2  503  502  0.58399373361E+01 -0.45315720606E+02 -0.46859765119E+02  0.65448124413E+02  0.00000000000E+00 0. -1.
         21    1    1    2  504  503 -0.66609338298E+02 -0.40732499574E+02  0.36975785031E+03  0.37791111168E+03  0.00000000000E+00 0. -1.
         21    1    1    2  505  501 -0.40915059836E+02  0.35181628200E+02  0.36362961462E+03  0.36761159627E+03  0.00000000000E+00 0.  1.
         21    1    1    2  506  505  0.10168446080E+03  0.50866591981E+02 -0.14081870180E+04  0.14127695557E+04  0.00000000000E+00 0. -1.
<scales pt_clust_3="45.69047" pt_clust_4="106.48367" pt_clust_5="53.91326" pt_clust_6="14000.00000"></scales>
<clustering>
<clus scale="   45.690">  2  3  1 -1</clus>
<clus scale="   53.913">  1  5  2 -1</clus>
<clus scale="  106.484">  1  4  2 -1</clus>
<clus scale="   53.913">  1  3  2 -1</clus>
</clustering>
</event>
<event>
 6    0  0.8520634E+002  0.8171546E+02  0.7546771E-02  0.1324253E+00
         21   -1    0    0  503  501  0.00000000000E+00  0.00000000000E+00  0.12744549169E+04  0.12744549169E+04  0.00000000000E+00 0.  1.
         21   -1    0    0  504  502 -0.00000000000E+00 -0.00000000000E+00 -0.28736252682E+02  0.28736252682E+02  0.00000000000E+00 0.  1.
         21    1    1    2  503  505 -0.28744031322E+02 -0.13189378058E+02  0.51468556757E+03  0.51565629299E+03  0.00000000000E+00 0. -1.
         21    1    1    2  504  506  0.65572997121E+02 -0.35021534843E+02  0.73597052861E+02  0.10460808785E+03  0.00000000000E+00 0.  1.
         21    1    1    2  505  502 -0.10456685470E+03  0.52423873740E+02  0.41749918488E+03  0.43357589765E+03  0.00000000000E+00 0.  1.
         21    1    1    2  506  501  0.67737888906E+02 -0.42129608393E+01  0.23993685894E+03  0.24935089113E+03  0.00000000000E+00 0.  1.
<scales pt_clust_3="31.62561" pt_clust_4="81.71546" pt_clust_5="14000.00000" pt_clust_6="59.08564"></scales>
<clustering>
<clus scale="   31.626">  1  3  2 -1</clus>
<clus scale="   59.086">  1  6  2 -1</clus>
<clus scale="   81.715">  2  4  1 -1</clus>
<clus scale="   31.626">  1  3  2 -1</clus>
</clustering>
</event>
<event>
 6    0  0.8520634E+002  0.1100195E+03  0.7546771E-02  0.1260534E+00
         21   -1    0    0  505  501  0.00000000000E+00  0.00000000000E+00  0.65453729745E+03  0.65453729745E+03  0.00000000000E+00 0.  1.
         21   -1    0    0  503  502 -0.00000000000E+00 -0.00000000000E+00 -0.64213301327E+02  0.64213301327E+02  0.00000000000E+00 0.  1.
         21    1    1    2  503  501  0.10525543443E+03  0.78200473875E+01  0.22611295075E+03  0.24953341683E+03  0.00000000000E+00 0.  1.
         21    1    1    2  504  502 -0.38589170027E+02  0.21584017098E+02 -0.70959089965E+01  0.44781087101E+02  0.00000000000E+00 0.  1.
         21    1    1    2  505  506  0.24109543053E+02  0.26158828655E+02  0.28554309414E+03  0.28775060902E+03  0.00000000000E+00 0. -1.
         21    1    1    2  506  504 -0.90775807455E+02 -0.55562893140E+02  0.85763860231E+02  0.13668548582E+03  0.00000000000E+00 0.  1.
<scales pt_clust_3="14000.00000" pt_clust_4="43.82747" pt_clust_5="35.57463" pt_clust_6="110.01951"></scales>
<clustering>
<clus scale="   35.575">  1  5  2 -1</clus>
<clus scale="   43.827">  2  4  1 -1</clus>
<clus scale="  110.020">  2  6  1 -1</clus>
<clus scale="   35.575">  1  3  2 -1</clus>
</clustering>
</event>
<event>
 6    0  0.8694497E+002  0.4602894E+03  0.7546771E-02  0.1024697E+00
         21   -1    0    0  506  501  0.00000000000E+00  0.00000000000E+00  0.85639303511E+03  0.85639303511E+03  0.00000000000E+00 0. -1.
         21   -1    0    0  505  502 -0.00000000000E+00 -0.00000000000E+00 -0.98651541944E+03  0.98651541944E+03  0.00000000000E+00 0.  1.
         21    1    1    2  503  502 -0.25692334581E+03  0.31143469076E+03 -0.42144974779E+03  0.58362750290E+03  0.00000000000E+00 0.  1.
         21    1    1    2  504  501 -0.10936921775E+03  0.10416478713E+03  0.46220005074E+03  0.48625180264E+03  0.00000000000E+00 0. -1.
         21    1    1    2  505  504  0.32978551079E+03 -0.51126447795E+03 -0.23500445621E+03  0.65220927928E+03  0.00000000000E+00 0.  1.
         21    1    1    2  506  503  0.36507052764E+02  0.95665000053E+02  0.64131768918E+02  0.12081986973E+03  0.00000000000E+00 0.  1.
<scales pt_clust_3="14000.00000" pt_clust_4="185.11402" pt_clust_5="460.28936" pt_clust_6="102.39413"></scales>
<clustering>
<clus scale="  102.394">  1  6  2 -1</clus>
<clus scale="  185.114">  1  4  2 -1</clus>
<clus scale="  460.289">  1  5  2 -1</clus>
<clus scale="  102.394">  1  3  2 -1</clus>
</clustering>
</event>
<event>
 6    0  0.8520634E+002  0.1191942E+03  0.7546771E-02  0.1244432E+00
         21   -1    0    0  505  501  0.00000000000E+00  0.00000000000E+00  0.21713662920E+04  0.21713662920E+04  0.00000000000E+00 0.  1.
         21   -1    0    0  504  502 -0.00000000000E+00 -0.00000000000E+00 -0.28458573649E+03  0.28458573649E+03  0.00000000000E+00 0.  1.
         21    1    1    2  503  501 -0.67246288765E+02  0.98682052319E+02  0.20828779378E+04  0.20862983283E+04  0.00000000000E+00 0.  1.
         21    1    1    2  504  503 -0.80668835549E+01 -0.57400608134E+02  0.55236147562E+02  0.80068323462E+02  0.00000000000E+00 0.  1.
         21    1    1    2  505  506  0.62031860173E+02 -0.77580599383E+02 -0.13942779472E+03  0.17119232173E+03  0.00000000000E+00 0.  1.
         21    1    1    2  506  502  0.13281312147E+02  0.36299155198E+02 -0.11190573514E+03  0.11839305502E+03  0.00000000000E+00 0.  1.
<scales pt_clust_3="14000.00000" pt_clust_4="55.19836" pt_clust_5="119.19425" pt_clust_6="38.65258"></scales>
<clustering>
<clus scale="   38.653">  2  6  1 -1</clus>
<clus scale="   55.198">  2  4  1 -1</clus>
<clus scale="  119.194">  2  5  1 -1</clus>
<clus scale="  119.194">  1  3  2 -1</clus>
</clustering>
</event>
<event>
 6    0  0.8520634E+002  0.1191614E+03  0.7546771E-02  0.1244487E+00
         21   -1    0    0  506  501  0.00000000000E+00  0.00000000000E+00  0.10062718549E+03  0.10062718549E+03  0.00000000000E+00 0.  1.
         21   -1    0    0  504  502 -0.00000000000E+00 -0.00000000000E+00 -0.66760918137E+03  0.66760918137E+03  0.00000000000E+00 0. -1.
         21    1    1    2  503  501  0.16781283760E+03  0.45980247210E+01 -0.39371150617E+03  0.42800822466E+03  0.00000000000E+00 0. -1.
         21    1    1    2  504  505 -0.32519244622E+02  0.24083879854E+02 -0.98530977158E+02  0.10651707844E+03  0.00000000000E+00 0.  1.
         21    1    1    2  505  503 -0.51563276550E+02 -0.79178086775E+01 -0.12388983573E+03  0.13442527508E+03  0.00000000000E+00 0. -1.
         21    1    1    2  506  502 -0.83730316425E+02 -0.20764095898E+02  0.49150323171E+02  0.99285788685E+02  0.00000000000E+00 0.  1.
<scales pt_clust_3="113.79125" pt_clust_4="31.15111" pt_clust_5="31.15111" pt_clust_6="86.26653"></scales>
<clustering>
<clus scale="   31.151">  4  5 -1 -1</clus>
<clus scale="   86.267">  1  6  2 -1</clus>
<clus scale="  113.791">  1  3  2 -1</clus>
<clus scale="   86.267">  1  3  2 -1</clus>
</clustering>
</event>
<event>
 6    0  0.8520634E+002  0.1382878E+03  0.7546771E-02  0.1215652E+00
         21   -1    0    0  506  501  0.00000000000E+00  0.00000000000E+00  0.21730836957E+04  0.21730836957E+04  0.00000000000E+00 0. -1.
         21   -1    0    0  503  502 -0.00000000000E+00 -0.00000000000E+00 -0.23786830292E+03  0.23786830292E+03  0.00000000000E+00 0. -1.
         21    1    1    2  503  504  0.29876279560E+02 -0.13924407673E+02 -0.14485034563E+03  0.14855337033E+03  0.00000000000E+00 0. -1.
         21    1    1    2  504  505 -0.81900526205E+02 -0.11264132263E+03 -0.22314779310E+02  0.14104507482E+03  0.00000000000E+00 0. -1.
         21    1    1    2  505  501  0.13769528931E+03  0.13485303475E+03  0.16115205273E+04  0.16230045421E+04  0.00000000000E+00 0. -1.
         21    1    1    2  506  502 -0.85671042661E+02 -0.82873044458E+01  0.49085999046E+03  0.49834901144E+03  0.00000000000E+00 0.  1.
<scales pt_clust_3="32.96181" pt_clust_4="14000.00000" pt_clust_5="138.28782" pt_clust_6="84.90737"></scales>
<clustering>
<clus scale="   32.962">  2  3  1 -1</clus>
<clus scale="   84.907">  1  6  2 -1</clus>
<clus scale="  138.288">  1  5  2 -1</clus>
<clus scale="   84.907">  1  3  2 -1</clus>
</clustering>
</event>
<event>
 6    0  0.8520634E+002  0.1655022E+03  0.7546771E-02  0.1182621E+00
         21   -1    0    0  506  501  0.00000000000E+00  0.00000000000E+00  0.49742962498E+02  0.49742962498E+02  0.00000000000E+00 0. -1.
         21   -1    0    0  505  502 -0.00000000000E+00 -0.00000000000E+00 -0.18800421751E+04  0.18800421751E+04  0.00000000000E+00 0. -1.
         21    1    1    2  503  501  0.21147341644E+03  0.41435867171E+02 -0.10186237031E+04  0.10411686633E+04  0.00000000000E+00 0. -1.
         21    1    1    2  504  503 -0.62669912644E+02  0.71859262207E+02 -0.40423380952E+03  0.41532667176E+03  0.00000000000E+00 0. -1.
         21    1    1    2  505  504 -0.30902108231E+02 -0.40246824398E+01 -0.23685285369E+03  0.23889414531E+03  0.00000000000E+00 0. -1.
         21    1    1    2  506  502 -0.11790139556E+03 -0.10927044694E+03 -0.17058884636E+03  0.23439565728E+03  0.00000000000E+00 0. -1.
<scales pt_clust_3="165.50215" pt_clust_4="99.86954" pt_clust_5="31.16309" pt_clust_6="14000.00000"></scales>
<clustering>
<clus scale="   31.163">  2  5  1 -1</clus>
<clus scale="   99.870">  2  4  1 -1</clus>
<clus scale="  165.502">  2  3  1 -1</clus>
<clus scale="  165.502">  1  3  2 -1</clus>
</clustering>
</event>
<event>
 6    0  0.8520634E+002  0.8473569E+02  0.7546771E-02  0.1316125E+00
         21   -1    0    0  505  501  0.00000000000E+00  0.00000000000E+00  0.12468998043E+04  0.12468998043E+04  0.00000000000E+00 0.  1.
         21   -1    0    0  506  502 -0.00000000000E+00 -0.00000000000E+00 -0.41972839944E+03  0.41972839944E+03  0.00000000000E+00 0. -1.
         21    1    1    2  503  501  0.71256202997E+02  0.46074179994E+02  0.11580446107E+04  0.11611492569E+04  0.00000000000E+00 0.  1.
         21    1    1    2  504  503 -0.75799402018E+02  0.46801037463E+02  0.48785686927E+02  0.10156736534E+03  0.00000000000E+00 0.  1.
         21    1    1    2  505  502 -0.70022997485E+01 -0.42055145046E+02 -0.34511154754E+02  0.54851501612E+02  0.00000000000E+00 0. -1.
         21    1    1    2  506  504  0.11545498770E+02 -0.50820072412E+02 -0.34514773800E+03  0.34906007986E+03  0.00000000000E+00 0. -1.
<scales pt_clust_3="84.73569" pt_clust_4="14000.00000" pt_clust_5="42.63411" pt_clust_6="83.53738"></scales>
<clustering>
<clus scale="   42.634">  2  5  1 -1</clus>
<clus scale="   84.736">  1  3  2 -1</clus>
<clus scale="   83.537">  2  6  1 -1</clus>
<clus scale="   84.736">  1  3  2 -1</clus>
</clustering>
</event>
<event>
 6    0  0.8520634E+002  0.1061727E+03  0.7546771E-02  0.1267826E+00
         21   -1    0    0  505  501  0.00000000000E+00  0.00000000000E+00  0.68629172130E+03  0.68629172130E+03  0.00000000000E+00 0.  1.
         21   -1    0    0  503  502 -0.00000000000E+00 -0.00000000000E+00 -0.90172287041E+02  0.90172287041E+02  0.00000000000E+00 0.  1.
         21    1    1    2  503  504 -0.37693036335E+02 -0.11085680261E+03  0.13443867063E+03  0.17827998158E+03  0.00000000000E+00 0.  1.
         21    1    1    2  504  506  0.37207561661E+02  0.89838321174E+02  0.18734492693E+03  0.21107687756E+03  0.00000000000E+00 0.  1.
         21    1    1    2  505  502  0.31175974578E+02  0.27321933181E+01 -0.50988728959E+02  0.59826889874E+02  0.00000000000E+00 0.  1.
         21    1    1    2  506  501 -0.30690499904E+02  0.18286288120E+02  0.32532456566E+03  0.32728025932E+03  0.00000000000E+00 0.  1.
<scales pt_clust_3="106.17270" pt_clust_4="14000.00000" pt_clust_5="31.29547" pt_clust_6="35.01507"></scales>
<clustering>
<clus scale="   31.295">  2  5  1 -1</clus>
<clus scale="   35.015">  1  6  2 -1</clus>
<clus scale="  106.173">  2  3  1 -1</clus>
<clus scale="   35.015">  1  3  2 -1</clus>
</clustering>
</event>
<event>
 6    0  0.8520634E+002  0.1083196E+03  0.7546771E-02  0.1263714E+00
         21   -1    0    0  506  501  0.00000000000E+00  0.00000000000E+00  0.34601227179E+03  0.34601227179E+03  0.00000000000E+00 0. -1.
         21   -1    0    0  503  502 -0.00000000000E+00 -0.00000000000E+00 -0.72750920392E+03  0.72750920392E+03  0.00000000000E+00 0. -1.
         21    1    1    2  503  504  0.95156557492E+01  0.48814403654E+02 -0.58035994880E+03  0.58248696456E+03  0.00000000000E+00 0. -1.
         21    1    1    2  504  501 -0.98520570347E+02 -0.10872215351E+03 -0.92326904101E+02  0.17335243484E+03  0.00000000000E+00 0.  1.
         21    1    1    2  505  502  0.55074629317E+02  0.72269373911E+02  0.21147637991E+03  0.23017023365E+03  0.00000000000E+00 0. -1.
         21    1    1    2  506  505  0.33930285281E+02 -0.12361624054E+02  0.79713540864E+02  0.87511842659E+02  0.00000000000E+00 0. -1.
<scales pt_clust_3="49.71057" pt_clust_4="108.31963" pt_clust_5="14000.00000" pt_clust_6="36.11196"></scales>
<clustering>
<clus scale="   36.112">  1  6  2 -1</clus>
<clus scale="   49.711">  2  3  1 -1</clus>
<clus scale="  108.320">  2  4  1 -1</clus>
<clus scale="   36.112">  1  3  2 -1</clus>
</clustering>
</event>
<event>
 6    0  0.8520634E+002  0.7866044E+02  0.7546771E-02  0.1332896E+00
         21   -1    0    0  503  501  0.00000000000E+00  0.00000000000E+00  0.13227827804E+03  0.13227827804E+03  0.00000000000E+00 0. -1.
         21   -1    0    0  505  502 -0.00000000000E+00 -0.00000000000E+00 -0.18001440497E+03  0.18001440497E+03  0.00000000000E+00 0. -1.
         21    1    1    2  503  506  0.43291251877E+02 -0.87259039297E+02  0.39387182288E+02  0.10506960815E+03  0.00000000000E+00 0. -1.
         21    1    1    2  504  502  0.31429708490E+02  0.22263616700E+02 -0.82040478696E+02  0.90631867182E+02  0.00000000000E+00 0. -1.
         21    1    1    2  505  501 -0.55657440959E+02  0.95522658954E+01  0.64509660808E+01  0.56838468323E+02  0.00000000000E+00 0. -1.
         21    1    1    2  506  504 -0.19063519407E+02  0.55443156701E+02 -0.11533796601E+02  0.59752739362E+02  0.00000000000E+00 0. -1.
<scales pt_clust_3="78.66044" pt_clust_4="38.51617" pt_clust_5="49.69684" pt_clust_6="14000.00000"></scales>
<clustering>
<clus scale="   38.516">  2  4  1 -1</clus>
<clus scale="   49.697">  2  5  1 -1</clus>
<clus scale="   78.660">  1  3  2 -1</clus>
<clus scale="   78.660">  1  3  2 -1</clus>
</clustering>
</event>
<event>
 6    0  0.8520634E+002  0.7517172E+02  0.7546771E-02  0.1343340E+00
         21   -1    0    0  506  501  0.00000000000E+00  0.00000000000E+00  0.82586786782E+03  0.82586786782E+03  0.00000000000E+00 0.  1.
         21   -1    0    0  504  502 -0.00000000000E+00 -0.00000000000E+00 -0.54026190369E+02  0.54026190369E+02  0.00000000000E+00 0. -1.
         21    1    1    2  503  505 -0.22891651022E+02  0.64869831271E+02  0.13142395894E+03  0.14833873290E+03  0.00000000000E+00 0. -1.
         21    1    1    2  504  503 -0.33991660205E+02 -0.42874195689E+02  0.80932492719E-01  0.54714131352E+02  0.00000000000E+00 0. -1.
         21    1    1    2  505  501  0.19906461737E+02 -0.74135943085E+02  0.73053596409E+02  0.10596807644E+03  0.00000000000E+00 0. -1.
         21    1    1    2  506  502  0.36976849491E+02  0.52140307503E+02  0.56728318960E+03  0.57087311749E+03  0.00000000000E+00 0.  1.
<scales pt_clust_3="14000.00000" pt_clust_4="54.71407" pt_clust_5="75.17172" pt_clust_6="60.24967"></scales>
<clustering>
<clus scale="   54.714">  2  4  1 -1</clus>
<clus scale="   60.250">  1  6  2 -1</clus>
<clus scale="   75.172">  1  5  2 -1</clus>
<clus scale="   60.250">  1  3  2 -1</clus>
</clustering>
</event>
<event>
 6    0  0.8520634E+002  0.6485610E+02  0.7546771E-02  0.1378514E+00
         21   -1    0    0  503  501  0.00000000000E+00  0.00000000000E+00  0.16290174245E+03  0.16290174245E+03  0.00000000000E+00 0.  1.
         21   -1    0    0  505  502 -0.00000000000E+00 -0.00000000000E+00 -0.40930230850E+03  0.40930230850E+03  0.00000000000E+00 0. -1.
         21    1    1    2  503  504 -0.52834248783E+02  0.20700101050E+02  0.80607699195E+02  0.98577650598E+02  0.00000000000E+00 0.  1.
         21    1    1    2  504  506  0.49864851032E+02  0.32343679062E+02 -0.11069926070E+02  0.60457920961E+02  0.00000000000E+00 0.  1.
         21    1    1    2  505  501  0.20888245634E+02 -0.10391171770E+03 -0.14540155914E+02  0.10698308284E+03  0.00000000000E+00 0.  1.
         21    1    1    2  506  502 -0.17918847883E+02  0.50867937585E+02 -0.30139818326E+03  0.30618539655E+03  0.00000000000E+00 0. -1.
<scales pt_clust_3="59.84666" pt_clust_4="64.85610" pt_clust_5="14000.00000" pt_clust_6="53.93174"></scales>
<clustering>
<clus scale="   53.932">  2  6  1 -1</clus>
<clus scale="   59.847">  1  3  2 -1</clus>
<clus scale="   64.856">  1  4  2 -1</clus>
<clus scale="   59.847">  1  3  2 -1</clus>
</clustering>
</event>
<event>
 6    0  0.8520634E+002  0.8113116E+02  0.7546771E-02  0.1325872E+00
         21   -1    0    0  502  501  0.00000000000E+00  0.00000000000E+00  0.18210245232E+03  0.18210245232E+03  0.00000000000E+00 0.  1.
         21   -1    0    0  506  502 -0.00000000000E+00 -0.00000000000E+00 -0.68662609858E+03  0.68662609858E+03  0.00000000000E+00 0. -1.
         21    1    1    2  503  501 -0.55021095618E+01  0.70798343558E+02  0.64775058496E+02  0.96117047725E+02  0.00000000000E+00 0.  1.
         21    1    1    2  504  503  0.61348748501E+02 -0.91169774496E+02  0.63072308011E+02  0.12670324685E+03  0.00000000000E+00 0.  1.
         21    1    1    2  505  504 -0.53721989282E+02 -0.39707370735E+02 -0.24691060336E+03  0.25578814178E+03  0.00000000000E+00 0. -1.
         21    1    1    2  506  505 -0.21246496565E+01  0.60078801673E+02 -0.38546040942E+03  0.39012011455E+03  0.00000000000E+00 0. -1.
<scales pt_clust_3="14000.00000" pt_clust_4="81.13116" pt_clust_5="56.55461" pt_clust_6="60.11636"></scales>
<clustering>
<clus scale="   60.116">  2  6  1 -1</clus>
<clus scale="   56.555">  2  5  1 -1</clus>
<clus scale="   81.131">  2  4  1 -1</clus>
<clus scale="   81.131">  1  3  2 -1</clus>
</clustering>
</event>
<event>
 6    0  0.8520634E+002  0.9505421E+02  0.7546771E-02  0.1291054E+00
         21   -1    0    0  505  501  0.00000000000E+00  0.00000000000E+00  0.14574866302E+04  0.14574866302E+04  0.00000000000E+00 0. -1.
         21   -1    0    0  503  502 -0.00000000000E+00 -0.00000000000E+00 -0.85957856133E+02  0.85957856133E+02  0.00000000000E+00 0. -1.
         21    1    1    2  503  506 -0.87419000291E+02 -0.39882955676E+02 -0.27857109430E+02  0.10004374199E+03  0.00000000000E+00 0. -1.
         21    1    1    2  504  502  0.52567959136E+02  0.87941298471E+02  0.30135326349E+03  0.31829365642E+03  0.00000000000E+00 0. -1.
         21    1    1    2  505  504  0.67590976657E+02 -0.87065650992E+01  0.77139167773E+02  0.10293102354E+03  0.00000000000E+00 0. -1.
         21    1    1    2  506  501 -0.32739935503E+02 -0.39351777695E+02  0.10208934522E+04  0.10221760644E+04  0.00000000000E+00 0. -1.
<scales pt_clust_3="95.05421" pt_clust_4="14000.00000" pt_clust_5="63.11564" pt_clust_6="51.19049"></scales>
<clustering>
<clus scale="   51.190">  1  6  2 -1</clus>
<clus scale="   63.116">  1  5  2 -1</clus>
<clus scale="   95.054">  2  3  1 -1</clus>
<clus scale="   51.190">  1  3  2 -1</clus>
</clustering>
</event>
<event>
 6    0  0.8520634E+002  0.7482161E+02  0.7546771E-02  0.1344424E+00
         21   -1    0    0  506  501  0.00000000000E+00  0.00000000000E+00  0.40339946111E+03  0.40339946111E+03  0.00000000000E+00 0. -1.
         21   -1    0    0  504  502 -0.00000000000E+00 -0.00000000000E+00 -0.66992150809E+03  0.66992150809E+03  0.00000000000E+00 0.  1.
         21    1    1    2  503  502  0.29864874306E+02  0.15436362843E+02 -0.12781748439E+03  0.13216467505E+03  0.00000000000E+00 0.  1.
         21    1    1    2  504  505  0.44377536751E+02 -0.17935574286E+02 -0.48112395144E+03  0.48349902506E+03  0.00000000000E+00 0.  1.
         21    1    1    2  505  501  0.54836579841E+02 -0.15921875908E+02  0.32037034646E+03  0.32541929186E+03  0.00000000000E+00 0. -1.
         21    1    1    2  506  503 -0.12907899090E+03  0.18421087352E+02  0.22049042385E+02  0.13223797722E+03  0.00000000000E+00 0. -1.
<scales pt_clust_3="33.61833" pt_clust_4="74.82161" pt_clust_5="57.21536" pt_clust_6="14000.00000"></scales>
<clustering>
<clus scale="   33.618">  2  3  1 -1</clus>
<clus scale="   57.215">  1  5  2 -1</clus>
<clus scale="   74.822">  2  4  1 -1</clus>
<clus scale="   57.215">  1  3  2 -1</clus>
</clustering>
</event>
<event>
 6    0  0.9667197E+002  0.1303192E+03  0.7546771E-02  0.1226983E+00
         21   -1    0    0  506  501  0.00000000000E+00  0.00000000000E+00  0.43145190568E+03  0.43145190568E+03  0.00000000000E+00 0.  1.
         21   -1    0    0  504  502 -0.00000000000E+00 -0.00000000000E+00 -0.13598408384E+04  0.13598408384E+04  0.00000000000E+00 0.  1.
         21    1    1    2  503  502  0.21863512329E+02 -0.10698162596E+03 -0.11387179803E+04  0.11439413097E+04  0.00000000000E+00 0.  1.
         21    1    1    2  504  501  0.61126379043E+01 -0.29839730934E+02 -0.82888783289E+02  0.88308121255E+02  0.00000000000E+00 0.  1.
         21    1    1    2  505  503 -0.34291489670E+02  0.10700230950E+03 -0.10848422403E+03  0.15618651467E+03  0.00000000000E+00 0.  1.
         21    1    1    2  506  505  0.63153394359E+01  0.29819047402E+02  0.40170205491E+03  0.40285679840E+03  0.00000000000E+00 0.  1.
<scales pt_clust_3="14000.00000" pt_clust_4="30.45938" pt_clust_5="130.31925" pt_clust_6="30.46782"></scales>
<clustering>
<clus scale="   30.459">  2  4  1 -1</clus>
<clus scale="   30.468">  1  6  2 -1</clus>
<clus scale="  130.319">  1  5  2 -1</clus>
<clus scale="   30.468">  1  3  2 -1</clus>
</clustering>
</event>
<event>
 6    0  0.8520634E+002  0.2020930E+03  0.7546771E-02  0.1147985E+00
         21   -1    0    0  505  501  0.00000000000E+00  0.00000000000E+00  0.70483527724E+03  0.70483527724E+03  0.00000000000E+00 0. -1.
         21   -1    0    0  503  502 -0.00000000000E+00 -0.00000000000E+00 -0.17565080280E+03  0.17565080280E+03  0.00000000000E+00 0. -1.
         21    1    1    2  503  501 -0.11576866311E+03  0.14410173066E+03  0.19261404831E+03  0.26696041606E+03  0.00000000000E+00 0. -1.
         21    1    1    2  504  502  0.11063912773E+03 -0.17708593534E+03 -0.44088157585E+02  0.21341089644E+03  0.00000000000E+00 0. -1.
         21    1    1    2  505  506 -0.25600932270E+02  0.17844713409E+02  0.35728028757E+03  0.35864055183E+03  0.00000000000E+00 0. -1.
         21    1    1    2  506  504  0.30730467650E+02  0.15139491276E+02  0.23378296143E+02  0.41474215708E+02  0.00000000000E+00 0. -1.
<scales pt_clust_3="202.09296" pt_clust_4="14000.00000" pt_clust_5="31.20643" pt_clust_6="32.94688"></scales>
<clustering>
<clus scale="   31.206">  1  5  2 -1</clus>
<clus scale="   32.947">  1  6  2 -1</clus>
<clus scale="  202.093">  1  3  2 -1</clus>
<clus scale="   31.206">  1  3  2 -1</clus>
</clustering>
</event>
<event>
 6    0  0.8520634E+002  0.1965039E+03  0.7546771E-02  0.1152723E+00
         21   -1    0    0  504  501  0.00000000000E+00  0.00000000000E+00  0.14375136253E+03  0.14375136253E+03  0.00000000000E+00 0.  1.
         21   -1    0    0  505  502 -0.00000000000E+00 -0.00000000000E+00 -0.99208545732E+03  0.99208545732E+03  0.00000000000E+00 0.  1.
         21    1    1    2  503  502  0.34321952042E+02 -0.10350202065E+02 -0.38562408675E+03  0.38728679213E+03  0.00000000000E+00 0.  1.
         21    1    1    2  504  503  0.22832781164E+02 -0.16393983216E+03 -0.51665174013E+03  0.54251877852E+03  0.00000000000E+00 0.  1.
         21    1    1    2  505  506 -0.20129150703E+02  0.79583024765E+02 -0.14631491180E+02  0.83382978316E+02  0.00000000000E+00 0.  1.
         21    1    1    2  506  501 -0.37025582503E+02  0.94707009457E+02  0.68573223279E+02  0.12264827088E+03  0.00000000000E+00 0.  1.
<scales pt_clust_3="35.84861" pt_clust_4="180.88201" pt_clust_5="68.70540" pt_clust_6="68.70540"></scales>
<clustering>
<clus scale="   35.849">  2  3  1 -1</clus>
<clus scale="   68.705">  5  6 -1 -1</clus>
<clus scale="  180.882">  2  4  1 -1</clus>
<clus scale="  196.504">  1  3  2 -1</clus>
</clustering>
</event>
<event>
 6    0  0.8520634E+002  0.1428642E+03  0.7546771E-02  0.1209526E+00
         21   -1    0    0  506  501  0.00000000000E+00  0.00000000000E+00  0.17327409538E+04  0.17327409538E+04  0.00000000000E+00 0.  1.
         21   -1    0    0  503  502 -0.00000000000E+00 -0.00000000000E+00 -0.61581770453E+02  0.61581770453E+02  0.00000000000E+00 0. -1.
         21    1    1    2  503  504  0.13066017463E+02  0.10312516918E+03  0.53501507136E+02  0.11690993370E+03  0.00000000000E+00 0. -1.
         21    1    1    2  504  501 -0.13240341477E+03  0.80271904866E+01  0.87663295728E+03  0.88661177627E+03  0.00000000000E+00 0.  1.
         21    1    1    2  505  502  0.12320364823E+03 -0.14682375762E+03  0.35782335572E+03  0.40592352560E+03  0.00000000000E+00 0. -1.
         21    1    1    2  506  505 -0.38662509297E+01  0.35671397946E+02  0.38320136324E+03  0.38487748871E+03  0.00000000000E+00 0.  1.
<scales pt_clust_3="106.15592" pt_clust_4="142.86415" pt_clust_5="14000.00000" pt_clust_6="35.88031"></scales>
<clustering>
<clus scale="   35.880">  1  6  2 -1</clus>
<clus scale="  106.156">  2  3  1 -1</clus>
<clus scale="  142.864">  1  4  2 -1</clus>
<clus scale="   35.880">  1  3  2 -1</clus>
</clustering>
</event>
<event>
 6    0  0.8520634E+002  0.5917742E+02  0.7546771E-02  0.1401317E+00
         21   -1    0    0  504  501  0.00000000000E+00  0.00000000000E+00  0.12679253736E+04  0.12679253736E+04  0.00000000000E+00 0. -1.
         21   -1    0    0  503  502 -0.00000000000E+00 -0.00000000000E+00 -0.16313870324E+03  0.16313870324E+03  0.00000000000E+00 0.  1.
         21    1    1    2  503  505 -0.22600600118E+02 -0.53576105146E+02 -0.14054465051E+03  0.15209860274E+03  0.00000000000E+00 0.  1.
         21    1    1    2  504  506 -0.88654169188E+01 -0.65018884499E+02  0.31878109672E+03  0.32546495753E+03  0.00000000000E+00 0.  1.
         21    1    1    2  505  501  0.24128126015E+02  0.25456745353E+02  0.77276329635E+03  0.77355886947E+03  0.00000000000E+00 0. -1.
         21    1    1    2  506  502  0.73378910214E+01  0.93138244291E+02  0.15378692776E+03  0.17994164705E+03  0.00000000000E+00 0. -1.
<scales pt_clust_3="59.17742" pt_clust_4="48.92591" pt_clust_5="35.07438" pt_clust_6="14000.00000"></scales>
<clustering>
<clus scale="   35.074">  1  5  2 -1</clus>
<clus scale="   48.926">  1  4  2 -1</clus>
<clus scale="   59.177">  2  3  1 -1</clus>
<clus scale="   35.074">  1  3  2 -1</clus>
</clustering>
</event>
<event>
 6    0  0.8520634E+002  0.1225989E+03  0.7546771E-02  0.1238870E+00
         21   -1    0    0  504  501  0.00000000000E+00  0.00000000000E+00  0.20622712629E+04  0.20622712629E+04  0.00000000000E+00 0.  1.
         21   -1    0    0  506  502 -0.00000000000E+00 -0.00000000000E+00 -0.92726127782E+02  0.92726127782E+02  0.00000000000E+00 0. -1.
         21    1    1    2  503  501  0.11103995578E+02  0.31203198090E+02  0.96987775930E+03  0.97044309790E+03  0.00000000000E+00 0.  1.
         21    1    1    2  504  505 -0.52406465434E+02 -0.87220681679E+02  0.13661699445E+03  0.17034696389E+03  0.00000000000E+00 0. -1.
         21    1    1    2  505  502 -0.13131905343E+02 -0.31360672771E+02 -0.68771089584E+02  0.76716370464E+02  0.00000000000E+00 0. -1.
         21    1    1    2  506  503  0.54434375199E+02  0.87378156360E+02  0.93182147096E+03  0.93749095844E+03  0.00000000000E+00 0.  1.
<scales pt_clust_3="33.12006" pt_clust_4="14000.00000" pt_clust_5="33.87880" pt_clust_6="122.59886"></scales>
<clustering>
<clus scale="   33.120">  1  3  2 -1</clus>
<clus scale="   33.879">  2  5  1 -1</clus>
<clus scale="  122.599">  1  6  2 -1</clus>
<clus scale="   33.120">  1  3  2 -1</clus>
</clustering>
</event>
<event>
 6    0  0.8520634E+002  0.2532481E+03  0.7546771E-02  0.1111269E+00
         21   -1    0    0  503  501  0.00000000000E+00  0.00000000000E+00  0.15397265641E+04  0.15397265641E+04  0.00000000000E+00 0.  1.
         21   -1    0    0  505  502 -0.00000000000E+00 -0.00000000000E+00 -0.15573761718E+03  0.15573761718E+03  0.00000000000E+00 0.  1.
         21    1    1    2  503  502  0.61964306541E+02 -0.43356513502E+02  0.28783103666E+03  0.29760051783E+03  0.00000000000E+00 0.  1.
         21    1    1    2  504  501 -0.70071727216E+01 -0.61753162409E+02  0.73388445149E+03  0.73651133167E+03  0.00000000000E+00 0.  1.
         21    1    1    2  505  506  0.15871588024E+03  0.21572686692E+03  0.59032522426E+02  0.27425107194E+03  0.00000000000E+00 0.  1.
         21    1    1    2  506  504 -0.21367301406E+03 -0.11061719101E+03  0.30324093631E+03  0.38710125980E+03  0.00000000000E+00 0.  1.
<scales pt_clust_3="88.67349" pt_clust_4="62.14945" pt_clust_5="253.24815" pt_clust_6="14000.00000"></scales>
<clustering>
<clus scale="   62.149">  1  4  2 -1</clus>
<clus scale="   88.673">  1  3  2 -1</clus>
<clus scale="  253.248">  2  5  1 -1</clus>
<clus scale="   62.149">  1  3  2 -1</clus>
</clustering>
</event>
<event>
 6    0  0.8520634E+002  0.8413180E+02  0.7546771E-02  0.1317719E+00
         21   -1    0    0  505  501  0.00000000000E+00  0.00000000000E+00  0.12956677212E+03  0.12956677212E+03  0.00000000000E+00 0.  1.
         21   -1    0    0  503  502 -0.00000000000E+00 -0.00000000000E+00 -0.76097977528E+03  0.76097977528E+03  0.00000000000E+00 0. -1.
         21    1    1    2  503  506 -0.62635938510E+02  0.42086196932E+02 -0.45916243188E+03  0.46532209019E+03  0.00000000000E+00 0. -1.
         21    1    1    2  504  501 -0.15496337126E+01  0.51794894788E+02  0.87829807277E+02  0.10197640677E+03  0.00000000000E+00 0.  1.
         21    1    1    2  505  502 -0.41280832346E+02  0.65699906738E+01 -0.32055754166E+02  0.52676781145E+02  0.00000000000E+00 0. -1.
         21    1    1    2  506  504  0.10546640457E+03 -0.10045108239E+03 -0.22802462439E+03  0.27057126930E+03  0.00000000000E+00 0.  1.
<scales pt_clust_3="84.13180" pt_clust_4="66.59616" pt_clust_5="41.80038" pt_clust_6="14000.00000"></scales>
<clustering>
<clus scale="   41.800">  1  5  2 -1</clus>
<clus scale="   66.596">  1  4  2 -1</clus>
<clus scale="   84.132">  2  3  1 -1</clus>
<clus scale="   41.800">  1  3  2 -1</clus>
</clustering>
</event>
<event>
 6    0  0.8520634E+002  0.7297428E+02  0.7546771E-02  0.1350261E+00
         21   -1    0    0  504  501  0.00000000000E+00  0.00000000000E+00  0.29544160241E+03  0.29544160241E+03  0.00000000000E+00 0.  1.
         21   -1    0    0  503  502 -0.00000000000E+00 -0.00000000000E+00 -0.12529266674E+03  0.12529266674E+03  0.00000000000E+00 0.  1.
         21    1    1    2  503  505  0.28922479254E+02  0.16306756907E+02 -0.66279117359E+02  0.74130570785E+02  0.00000000000E+00 0.  1.
         21    1    1    2  504  502 -0.22141101758E+02 -0.81940095949E+02  0.15263459781E+03  0.17464743960E+03  0.00000000000E+00 0.  1.
         21    1    1    2  505  506  0.56497661632E+02  0.22479247564E+02  0.33745577314E+01  0.60899014613E+02  0.00000000000E+00 0.  1.
         21    1    1    2  506  501 -0.63279039128E+02  0.43154091478E+02  0.80418897491E+02  0.11105724415E+03  0.00000000000E+00 0.  1.
<scales pt_clust_3="33.20271" pt_clust_4="14000.00000" pt_clust_5="71.57127" pt_clust_6="72.97428"></scales>
<clustering>
<clus scale="   33.203">  2  3  1 -1</clus>
<clus scale="   72.974">  1  6  2 -1</clus>
<clus scale="   71.571">  2  5  1 -1</clus>
<clus scale="   72.974">  1  3  2 -1</clus>
</clustering>
</event>
<event>
 6    0  0.8520634E+002  0.9453299E+02  0.7546771E-02  0.1292231E+00
         21   -1    0    0  504  501  0.00000000000E+00  0.00000000000E+00  0.26871204750E+04  0.26871204750E+04  0.00000000000E+00 0. -1.
         21   -1    0    0  506  502 -0.00000000000E+00 -0.00000000000E+00 -0.18360249552E+03  0.18360249552E+03  0.00000000000E+00 0. -1.
         21    1    1    2  503  501  0.50031466098E+02  0.73062136954E+02  0.23193027204E+04  0.23209925317E+04  0.00000000000E+00 0. -1.
         21    1    1    2  504  502 -0.29815275131E+02  0.18918884768E+02  0.28413774443E+03  0.28632347553E+03  0.00000000000E+00 0. -1.
         21    1    1    2  505  503 -0.50372136256E+02 -0.99771913826E+02  0.41025823224E+02  0.11905841033E+03  0.00000000000E+00 0. -1.
         21    1    1    2  506  505  0.30155945290E+02  0.77908921037E+01 -0.14094830859E+03  0.14434855292E+03  0.00000000000E+00 0. -1.
<scales pt_clust_3="14000.00000" pt_clust_4="34.74833" pt_clust_5="94.53299" pt_clust_6="31.14609"></scales>
<clustering>
<clus scale="   31.146">  2  6  1 -1</clus>
<clus scale="   34.748">  1  4  2 -1</clus>
<clus scale="   94.533">  2  5  1 -1</clus>
<clus scale="   34.748">  1  3  2 -1</clus>
</clustering>
</event>
<event>
 6    0  0.8520634E+002  0.9935522E+02  0.7546771E-02  0.1281658E+00
         21   -1    0    0  506  501  0.00000000000E+00  0.00000000000E+00  0.12677777065E+03  0.12677777065E+03  0.00000000000E+00 0. -1.
         21   -1    0    0  503  502 -0.00000000000E+00 -0.00000000000E+00 -0.45646808664E+03  0.45646808664E+03  0.00000000000E+00 0. -1.
         21    1    1    2  503  504  0.13617785180E+02  0.10904440434E+03 -0.31276451838E+03  0.33150832591E+03  0.00000000000E+00 0. -1.
         21    1    1    2  504  501  0.71538004913E+02 -0.10296101813E+03  0.42368386719E+02  0.13233947860E+03  0.00000000000E+00 0. -1.
         21    1    1    2  505  502 -0.48807010050E+02 -0.21500540079E+02 -0.59513779338E+02  0.79914250199E+02  0.00000000000E+00 0. -1.
         21    1    1    2  506  505 -0.36348780043E+02  0.15417153878E+02  0.21959501317E+00  0.39483802581E+02  0.00000000000E+00 0. -1.
<scales pt_clust_3="99.35522" pt_clust_4="14000.00000" pt_clust_5="55.98051" pt_clust_6="39.48319"></scales>
<clustering>
<clus scale="   39.483">  1  6  2 -1</clus>
<clus scale="   55.981">  2  5  1 -1</clus>
<clus scale="   99.355">  2  3  1 -1</clus>
<clus scale="   39.483">  1  3  2 -1</clus>
</clustering>
</event>
<event>
 6    0  0.8520634E+002  0.1156292E+03  0.7546771E-02  0.1250487E+00
         21   -1    0    0  503  501  0.00000000000E+00  0.00000000000E+00  0.62177864137E+03  0.62177864137E+03  0.00000000000E+00 0.  1.
         21   -1    0    0  504  502 -0.00000000000E+00 -0.00000000000E+00 -0.16856457071E+03  0.16856457071E+03  0.00000000000E+00 0.  1.
         21    1    1    2  503  505  0.21108776626E+02 -0.34061201556E+02  0.15837561330E+03  0.16336640043E+03  0.00000000000E+00 0. -1.
         21    1    1    2  504  506 -0.15216854871E+01 -0.39053338189E+02 -0.31055586634E+02  0.49919216857E+02  0.00000000000E+00 0. -1.
         21    1    1    2  505  502 -0.10113204844E+03 -0.18197791231E+02 -0.94253940277E+02  0.13943692511E+03  0.00000000000E+00 0.  1.
         21    1    1    2  506  501  0.81544957297E+02  0.91312330976E+02  0.42014798427E+03  0.43762066969E+03  0.00000000000E+00 0.  1.
<scales pt_clust_3="40.70514" pt_clust_4="39.08297" pt_clust_5="115.62921" pt_clust_6="14000.00000"></scales>
<clustering>
<clus scale="   39.083">  2  4  1 -1</clus>
<clus scale="   40.705">  1  3  2 -1</clus>
<clus scale="  115.629">  2  5  1 -1</clus>
<clus scale="   40.705">  1  3  2 -1</clus>
</clustering>
</event>
<event>
 6    0  0.8520634E+002  0.9663563E+02  0.7546771E-02  0.1287534E+00
         21   -1    0    0  506  501  0.00000000000E+00  0.00000000000E+00  0.51255643429E+02  0.51255643429E+02  0.00000000000E+00 0. -1.
         21   -1    0    0  504  502 -0.00000000000E+00 -0.00000000000E+00 -0.72064527438E+03  0.72064527438E+03  0.00000000000E+00 0. -1.
         21    1    1    2  503  501  0.45421782220E+02 -0.21984934070E+02  0.68332781247E+01  0.50923170718E+02  0.00000000000E+00 0. -1.
         21    1    1    2  504  505 -0.11438231336E+03  0.51510212193E+02 -0.29884571100E+03  0.32410704181E+03  0.00000000000E+00 0. -1.
         21    1    1    2  505  503  0.24257301184E+02 -0.22884985136E+02 -0.25183819255E+02  0.41789519711E+02  0.00000000000E+00 0. -1.
         21    1    1    2  506  502  0.44703229952E+02 -0.66402929881E+01 -0.35219337882E+03  0.35508118557E+03  0.00000000000E+00 0. -1.
<scales pt_clust_3="30.31289" pt_clust_4="89.15172" pt_clust_5="30.31289" pt_clust_6="45.19372"></scales>
<clustering>
<clus scale="   30.313">  3  5 -1 -1</clus>
<clus scale="   45.194">  2  6  1 -1</clus>
<clus scale="   89.152">  2  4  1 -1</clus>
<clus scale="   96.636">  1  3  2 -1</clus>
</clustering>
</event>
<event>
 6    0  0.8520634E+002  0.1309768E+03  0.7546771E-02  0.1226014E+00
         21   -1    0    0  504  501  0.00000000000E+00  0.00000000000E+00  0.17593005356E+03  0.17593005356E+03  0.00000000000E+00 0.  1.
         21   -1    0    0  506  502 -0.00000000000E+00 -0.00000000000E+00 -0.53462340614E+03  0.53462340614E+03  0.00000000000E+00 0.  1.
         21    1    1    2  503  501 -0.11021382225E+03 -0.18022220440E+03 -0.21722966587E+03  0.30301131548E+03  0.00000000000E+00 0.  1.
         21    1    1    2  504  505  0.38909429945E+02  0.11459253898E+03  0.73454117785E+02  0.14156588977E+03  0.00000000000E+00 0.  1.
         21    1    1    2  505  502  0.99121497250E+02  0.17480066292E+02 -0.12874669519E+03  0.16342073142E+03  0.00000000000E+00 0. -1.
         21    1    1    2  506  503 -0.27817104944E+02  0.48149599134E+02 -0.86171109315E+02  0.10255552303E+03  0.00000000000E+00 0.  1.
<scales pt_clust_3="130.97679" pt_clust_4="14000.00000" pt_clust_5="95.91570" pt_clust_6="55.60733"></scales>
<clustering>
<clus scale="   55.607">  2  6  1 -1</clus>
<clus scale="   95.916">  2  5  1 -1</clus>
<clus scale="  130.977">  2  3  1 -1</clus>
<clus scale="  130.977">  1  3  2 -1</clus>
</clustering>
</event>
<event>
 6    0  0.8520634E+002  0.1503630E+03  0.7546771E-02  0.1200028E+00
         21   -1    0    0  504  501  0.00000000000E+00  0.00000000000E+00  0.11915193824E+04  0.11915193824E+04  0.00000000000E+00 0.  1.
         21   -1    0    0  503  502 -0.00000000000E+00 -0.00000000000E+00 -0.61252515611E+02  0.61252515611E+02  0.00000000000E+00 0.  1.
         21    1    1    2  503  505 -0.18120835941E+02  0.71132767224E+02  0.81105436549E+02  0.10939070850E+03  0.00000000000E+00 0.  1.
         21    1    1    2  504  506 -0.43005128385E+02  0.23093464063E+02  0.28067145701E+02  0.56307315845E+02  0.00000000000E+00 0.  1.
         21    1    1    2  505  501  0.11790819265E+03 -0.98195331935E+02  0.10186062821E+04  0.10300987443E+04  0.00000000000E+00 0.  1.
         21    1    1    2  506  502 -0.56782228324E+02  0.39691006481E+01  0.24880024856E+01  0.56975129397E+02  0.00000000000E+00 0.  1.
<scales pt_clust_3="73.40460" pt_clust_4="32.20464" pt_clust_5="146.28616" pt_clust_6="32.20464"></scales>
<clustering>
<clus scale="   32.205">  4  6 -1 -1</clus>
<clus scale="   73.405">  2  3  1 -1</clus>
<clus scale="  146.286">  1  5  2 -1</clus>
<clus scale="  146.286">  1  3  2 -1</clus>
</clustering>
</event>
<event>
 6    0  0.8520634E+002  0.1436232E+03  0.7546771E-02  0.1208535E+00
         21   -1    0    0  503  501  0.00000000000E+00  0.00000000000E+00  0.55196085785E+03  0.55196085785E+03  0.00000000000E+00 0. -1.
         21   -1    0    0  506  502 -0.00000000000E+00 -0.00000000000E+00 -0.60194276545E+03  0.60194276545E+03  0.00000000000E+00 0.  1.
         21    1    1    2  503  504  0.36139838091E+02 -0.13370108618E+03 -0.12264621579E+03  0.18499773672E+03  0.00000000000E+00 0.  1.
         21    1    1    2  504  502  0.82410362183E+02  0.33773767514E+02 -0.42933590870E+03  0.43847629088E+03  0.00000000000E+00 0.  1.
         21    1    1    2  505  501 -0.43902673486E+02  0.20716563196E+02  0.26791473312E+03  0.27227729423E+03  0.00000000000E+00 0. -1.
         21    1    1    2  506  505 -0.74647526788E+02  0.79210755466E+02  0.23408548378E+03  0.25815230147E+03  0.00000000000E+00 0. -1.
<scales pt_clust_3="143.62317" pt_clust_4="88.53314" pt_clust_5="48.54504" pt_clust_6="14000.00000"></scales>
<clustering>
<clus scale="   48.545">  1  5  2 -1</clus>
<clus scale="   88.533">  2  4  1 -1</clus>
<clus scale="  143.623">  2  3  1 -1</clus>
<clus scale="   48.545">  1  3  2 -1</clus>
</clustering>
</event>
<event>
 6    0  0.8520634E+002  0.8274103E+02  0.7546771E-02  0.1321448E+00
         21   -1    0    0  506  501  0.00000000000E+00  0.00000000000E+00  0.43987747929E+03  0.43987747929E+03  0.00000000000E+00 0. -1.
         21   -1    0    0  505  502 -0.00000000000E+00 -0.00000000000E+00 -0.18709900596E+03  0.18709900596E+03  0.00000000000E+00 0. -1.
         21    1    1    2  503  504 -0.55171839920E+02 -0.38244354721E+02  0.10768535685E+03  0.12689640920E+03  0.00000000000E+00 0. -1.
         21    1    1    2  504  501  0.86672930256E+02  0.41439124801E+02  0.28323645794E+03  0.29908575528E+03  0.00000000000E+00 0. -1.
         21    1    1    2  505  503 -0.25215442948E+02  0.41334663331E+02  0.71106583430E+01  0.48938067164E+02  0.00000000000E+00 0. -1.
         21    1    1    2  506  502 -0.62856473881E+01 -0.44529433411E+02 -0.14525399980E+03  0.15205625360E+03  0.00000000000E+00 0. -1.
<scales pt_clust_3="14000.00000" pt_clust_4="82.74103" pt_clust_5="33.35747" pt_clust_6="44.97088"></scales>
<clustering>
<clus scale="   44.971">  2  6  1 -1</clus>
<clus scale="   33.357">  2  5  1 -1</clus>
<clus scale="   82.741">  1  4  2 -1</clus>
<clus scale="   82.741">  1  3  2 -1</clus>
</clustering>
</event>
<event>
 6    0  0.8520634E+002  0.6411945E+02  0.7546771E-02  0.1381315E+00
         21   -1    0    0  503  501  0.00000000000E+00  0.00000000000E+00  0.97601781129E+02  0.97601781129E+02  0.00000000000E+00 0. -1.
         21   -1    0    0  505  502 -0.00000000000E+00 -0.00000000000E+00 -0.41003513364E+03  0.41003513364E+03  0.00000000000E+00 0.  1.
         21    1    1    2  503  506  0.51767277569E+02  0.10088556144E+03  0.16344573702E+02  0.11456392374E+03  0.00000000000E+00 0. -1.
         21    1    1    2  504  501 -0.30426902011E+02 -0.44746813091E+02 -0.92593803941E+01  0.54898176409E+02  0.00000000000E+00 0. -1.
         21    1    1    2  505  504  0.23721843651E+02 -0.60249075777E+02 -0.20728552161E+03  0.21716345104E+03  0.00000000000E+00 0.  1.
         21    1    1    2  506  502 -0.45062219209E+02  0.41103274259E+01 -0.11223302421E+03  0.12101136357E+03  0.00000000000E+00 0. -1.
<scales pt_clust_3="14000.00000" pt_clust_4="56.67571" pt_clust_5="64.11945" pt_clust_6="45.24929"></scales>
<clustering>
<clus scale="   45.249">  2  6  1 -1</clus>
<clus scale="   56.676">  1  4  2 -1</clus>
<clus scale="   64.119">  2  5  1 -1</clus>
<clus scale="   56.676">  1  3  2 -1</clus>
</clustering>
</event>
<event>
 6    0  0.8520634E+002  0.2192857E+03  0.7546771E-02  0.1134417E+00
         21   -1    0    0  503  501  0.00000000000E+00  0.00000000000E+00  0.74042496137E+03  0.74042496137E+03  0.00000000000E+00 0. -1.
         21   -1    0    0  506  502 -0.00000000000E+00 -0.00000000000E+00 -0.30559069587E+03  0.30559069587E+03  0.00000000000E+00 0. -1.
         21    1    1    2  503  502  0.81687034382E+02  0.31176279331E+03  0.22056179136E+03  0.39053337205E+03  0.00000000000E+00 0. -1.
         21    1    1    2  504  501 -0.60613540354E+02 -0.18240099281E+03  0.38909553928E+03  0.43398094674E+03  0.00000000000E+00 0. -1.
         21    1    1    2  505  504 -0.16302670650E+02 -0.68068925018E+02 -0.64377117686E+02  0.95097680860E+02  0.00000000000E+00 0. -1.
         21    1    1    2  506  505 -0.47708233782E+01 -0.61292875487E+02 -0.11044594745E+03  0.12640365758E+03  0.00000000000E+00 0. -1.
<scales pt_clust_3="14000.00000" pt_clust_4="219.28570" pt_clust_5="136.01374" pt_clust_6="34.06513"></scales>
<clustering>
<clus scale="   34.065">  5  6 -1 -1</clus>
<clus scale="  136.014">  2  5  1 -1</clus>
<clus scale="  219.286">  1  4  2 -1</clus>
<clus scale="  219.286">  1  3  2 -1</clus>
</clustering>
</event>
<event>
 6    0  0.8520634E+002  0.7788406E+02  0.7546771E-02  0.1335166E+00
         21   -1    0    0  505  501  0.00000000000E+00  0.00000000000E+00  0.36798249515E+03  0.36798249515E+03  0.00000000000E+00 0.  1.
         21   -1    0    0  506  502 -0.00000000000E+00 -0.00000000000E+00 -0.90315122084E+02  0.90315122084E+02  0.00000000000E+00 0. -1.
         21    1    1    2  503  502  0.56327541918E+02  0.34212060620E+02  0.49383501068E+02  0.82352821737E+02  0.00000000000E+00 0. -1.
         21    1    1    2  504  501  0.32498784971E+02 -0.62103055106E+02  0.38770716369E+02  0.80100742355E+02  0.00000000000E+00 0. -1.
         21    1    1    2  505  503 -0.61563958158E+02  0.53918156339E+02  0.22783846370E+03  0.24209017755E+03  0.00000000000E+00 0.  1.
         21    1    1    2  506  504 -0.27262368731E+02 -0.26027161853E+02 -0.38325308066E+02  0.53753875593E+02  0.00000000000E+00 0. -1.
<scales pt_clust_3="52.28428" pt_clust_4="77.88406" pt_clust_5="14000.00000" pt_clust_6="37.69151"></scales>
<clustering>
<clus scale="   37.692">  2  6  1 -1</clus>
<clus scale="   52.284">  2  3  1 -1</clus>
<clus scale="   77.884">  2  4  1 -1</clus>
<clus scale="   77.884">  1  3  2 -1</clus>
</clustering>
</event>
<event>
 6    0  0.8520634E+002  0.1325132E+03  0.7546771E-02  0.1223774E+00
         21   -1    0    0  502  501  0.00000000000E+00  0.00000000000E+00  0.84519294837E+03  0.84519294837E+03  0.00000000000E+00 0.  1.
         21   -1    0    0  506  502 -0.00000000000E+00 -0.00000000000E+00 -0.88592484872E+03  0.88592484872E+03  0.00000000000E+00 0.  1.
         21    1    1    2  503  505 -0.11609245976E+03 -0.36144470024E+02 -0.87984086418E+02  0.15008358134E+03  0.00000000000E+00 0.  1.
         21    1    1    2  504  503  0.11717773300E+03 -0.61667578246E+02 -0.59637022905E+03  0.61089357618E+03  0.00000000000E+00 0.  1.
         21    1    1    2  505  501 -0.29352536436E+02  0.56137787827E+02  0.80171908370E+03  0.80421795043E+03  0.00000000000E+00 0.  1.
         21    1    1    2  506  504  0.28267263187E+02  0.41674260443E+02 -0.15809666859E+03  0.16592268914E+03  0.00000000000E+00 0.  1.
<scales pt_clust_3="132.51317" pt_clust_4="14000.00000" pt_clust_5="63.38960" pt_clust_6="50.35655"></scales>
<clustering>
<clus scale="   50.357">  2  6  1 -1</clus>
<clus scale="   63.390">  1  5  2 -1</clus>
<clus scale="  132.513">  1  3  2 -1</clus>
<clus scale="   63.390">  1  3  2 -1</clus>
</clustering>
</event>
<event>
 6    0  0.8520634E+002  0.6742493E+02  0.7546771E-02  0.1369075E+00
         21   -1    0    0  505  501  0.00000000000E+00  0.00000000000E+00  0.27648135482E+03  0.27648135482E+03  0.00000000000E+00 0.  1.
         21   -1    0    0  503  502 -0.00000000000E+00 -0.00000000000E+00 -0.10498421555E+03  0.10498421555E+03  0.00000000000E+00 0.  1.
         21    1    1    2  503  501 -0.87533353625E+02  0.21104979941E+02  0.39815477280E+02  0.98451919261E+02  0.00000000000E+00 0.  1.
         21    1    1    2  504  506  0.58254225664E+02 -0.21333760007E+02  0.12996247872E+03  0.14401017325E+03  0.00000000000E+00 0.  1.
         21    1    1    2  505  504  0.34115737681E+00  0.46870439979E+02  0.48086449255E+02  0.67151032264E+02  0.00000000000E+00 0.  1.
         21    1    1    2  506  502  0.28937970585E+02 -0.46641659913E+02 -0.46367265991E+02  0.71852445585E+02  0.00000000000E+00 0.  1.
<scales pt_clust_3="67.42493" pt_clust_4="14000.00000" pt_clust_5="46.87168" pt_clust_6="52.60122"></scales>
<clustering>
<clus scale="   46.872">  1  5  2 -1</clus>
<clus scale="   52.601">  2  6  1 -1</clus>
<clus scale="   67.425">  2  3  1 -1</clus>
<clus scale="   46.872">  1  3  2 -1</clus>
</clustering>
</event>
<event>
 6    0  0.8520634E+002  0.1567468E+03  0.7546771E-02  0.1192419E+00
         21   -1    0    0  505  501  0.00000000000E+00  0.00000000000E+00  0.42319170645E+03  0.42319170645E+03  0.00000000000E+00 0.  1.
         21   -1    0    0  506  502 -0.00000000000E+00 -0.00000000000E+00 -0.87642561926E+03  0.87642561926E+03  0.00000000000E+00 0.  1.
         21    1    1    2  503  504  0.15878891273E+03  0.42486103968E+02 -0.31146269543E+03  0.35217609016E+03  0.00000000000E+00 0.  1.
         21    1    1    2  504  501  0.44179689047E+02  0.21165425762E+00  0.34188273018E+03  0.34472552983E+03  0.00000000000E+00 0.  1.
         21    1    1    2  505  502 -0.10341927812E+03  0.91372046933E+02 -0.66112109216E+02  0.15302028961E+03  0.00000000000E+00 0. -1.
         21    1    1    2  506  503 -0.99549323660E+02 -0.13406980516E+03 -0.41754183834E+03  0.44969541610E+03  0.00000000000E+00 0.  1.
<scales pt_clust_3="156.74679" pt_clust_4="44.18020" pt_clust_5="121.12961" pt_clust_6="14000.00000"></scales>
<clustering>
<clus scale="   44.180">  1  4  2 -1</clus>
<clus scale="  121.130">  1  5  2 -1</clus>
<clus scale="  156.747">  1  3  2 -1</clus>
<clus scale="   44.180">  1  3  2 -1</clus>
</clustering>
</event>
<event>
 6    0  0.8520634E+002  0.1151374E+03  0.7546771E-02  0.1251341E+00
         21   -1    0    0  504  501  0.00000000000E+00  0.00000000000E+00  0.90613050012E+03  0.90613050012E+03  0.00000000000E+00 0.  1.
         21   -1    0    0  505  502 -0.00000000000E+00 -0.00000000000E+00 -0.21037698960E+03  0.21037698960E+03  0.00000000000E+00 0.  1.
         21    1    1    2  503  506 -0.12936191533E+03  0.36726268284E+02  0.18403542114E+03  0.22793060381E+03  0.00000000000E+00 0.  1.
         21    1    1    2  504  503  0.20578580943E+02 -0.31934153762E+02  0.65015851364E+03  0.65126750343E+03  0.00000000000E+00 0.  1.
         21    1    1    2  505  501  0.13312033735E+03  0.35188902312E+02 -0.13074047825E+03  0.18987457891E+03  0.00000000000E+00 0.  1.
         21    1    1    2  506  502 -0.24337002961E+02 -0.39981016834E+02 -0.76999459998E+01  0.47434803558E+02  0.00000000000E+00 0.  1.
<scales pt_clust_3="115.13739" pt_clust_4="37.99037" pt_clust_5="14000.00000" pt_clust_6="48.16861"></scales>
<clustering>
<clus scale="   37.990">  1  4  2 -1</clus>
<clus scale="   48.169">  2  6  1 -1</clus>
<clus scale="  115.137">  1  3  2 -1</clus>
<clus scale="   37.990">  1  3  2 -1</clus>
</clustering>
</event>
<event>
 6    0  0.8520634E+002  0.2532610E+03  0.7546771E-02  0.1111261E+00
         21   -1    0    0  505  501  0.00000000000E+00  0.00000000000E+00  0.91163054050E+03  0.91163054050E+03  0.00000000000E+00 0.  1.
         21   -1    0    0  503  502 -0.00000000000E+00 -0.00000000000E+00 -0.86347751388E+02  0.86347751388E+02  0.00000000000E+00 0.  1.
         21    1    1    2  503  506  0.67287789707E+02  0.12198082473E+03  0.42708579007E+03  0.44923183361E+03  0.00000000000E+00 0.  1.
         21    1    1    2  504  502 -0.43901495098E+02 -0.48587272674E+02  0.15326963789E+02  0.67253105183E+02  0.00000000000E+00 0.  1.
         21    1    1    2  505  504 -0.10556311091E+03 -0.14199986606E+03  0.18173114396E+03  0.25364096876E+03  0.00000000000E+00 0.  1.
         21    1    1    2  506  501  0.82176816306E+02  0.68606314000E+02  0.20113889129E+03  0.22785238434E+03  0.00000000000E+00 0.  1.
<scales pt_clust_3="252.54067" pt_clust_4="45.02601" pt_clust_5="45.02601" pt_clust_6="62.68612"></scales>
<clustering>
<clus scale="   45.026">  4  5 -1 -1</clus>
<clus scale="   62.686">  3  6 -1 -1</clus>
<clus scale="  252.541">  1  3  2 -1</clus>
<clus scale="  252.541">  1  3  2 -1</clus>
</clustering>
</event>
<event>
 6    0  0.8520634E+002  0.1378178E+03  0.7546771E-02  0.1216296E+00
         21   -1    0    0  505  501  0.00000000000E+00  0.00000000000E+00  0.22555028375E+03  0.22555028375E+03  0.00000000000E+00 0. -1.
         21   -1    0    0  506  502 -0.00000000000E+00 -0.00000000000E+00 -0.20698616318E+03  0.20698616318E+03  0.00000000000E+00 0. -1.
         21    1    1    2  503  502 -0.12283279318E+03  0.82380518303E+02 -0.24543946619E+01  0.14792048177E+03  0.00000000000E+00 0. -1.
         21    1    1    2  504  501  0.24541554308E+02  0.42888795333E+02  0.61690321380E+01  0.49797526149E+02  0.00000000000E+00 0.  1.
         21    1    1    2  505  503 -0.23844746575E+00 -0.36543778673E+02  0.79357783363E+02  0.87367971232E+02  0.00000000000E+00 0. -1.
         21    1    1    2  506  504  0.98529686334E+02 -0.88725534964E+02 -0.64508300265E+02  0.14745046777E+03  0.00000000000E+00 0. -1.
<scales pt_clust_3="14000.00000" pt_clust_4="43.29257" pt_clust_5="36.54456" pt_clust_6="137.81779"></scales>
<clustering>
<clus scale="   36.545">  1  5  2 -1</clus>
<clus scale="   43.293">  1  4  2 -1</clus>
<clus scale="  137.818">  2  6  1 -1</clus>
<clus scale="   36.545">  1  3  2 -1</clus>
</clustering>
</event>
<event>
 6    0  0.8520634E+002  0.1048428E+03  0.7546771E-02  0.1270430E+00
         21   -1    0    0  506  501  0.00000000000E+00  0.00000000000E+00  0.39677100656E+03  0.39677100656E+03  0.00000000000E+00 0. -1.
         21   -1    0    0  504  502 -0.00000000000E+00 -0.00000000000E+00 -0.44476454986E+03  0.44476454986E+03  0.00000000000E+00 0.  1.
         21    1    1    2  503  501 -0.16028876569E+02 -0.11486149444E+03 -0.25854737363E+03  0.28336695679E+03  0.00000000000E+00 0.  1.
         21    1    1    2  504  503  0.44772183222E+02  0.93237632435E+01 -0.15865082943E+03  0.16511077079E+03  0.00000000000E+00 0.  1.
         21    1    1    2  505  502 -0.14951327442E+02  0.69220364684E+02  0.10910265037E+03  0.13007070922E+03  0.00000000000E+00 0. -1.
         21    1    1    2  506  505 -0.13791979211E+02  0.36317366514E+02  0.26010200939E+03  0.26298711962E+03  0.00000000000E+00 0. -1.
<scales pt_clust_3="14000.00000" pt_clust_4="45.59627" pt_clust_5="104.84276" pt_clust_6="38.84803"></scales>
<clustering>
<clus scale="   38.848">  1  6  2 -1</clus>
<clus scale="   45.596">  2  4  1 -1</clus>
<clus scale="  104.843">  1  5  2 -1</clus>
<clus scale="   38.848">  1  3  2 -1</clus>
</clustering>
</event>
<event>
 6    0  0.8520634E+002  0.6572729E+02  0.7546771E-02  0.1375256E+00
         21   -1    0    0  505  501  0.00000000000E+00  0.00000000000E+00  0.25147301130E+02  0.25147301130E+02  0.00000000000E+00 0. -1.
         21   -1    0    0  504  502 -0.00000000000E+00 -0.00000000000E+00 -0.10524827204E+04  0.10524827204E+04  0.00000000000E+00 0. -1.
         21    1    1    2  503  502 -0.18555740695E+02  0.26583881669E+02 -0.39381042061E+03  0.39514258902E+03  0.00000000000E+00 0. -1.
         21    1    1    2  504  501  0.44520057979E+01  0.97732717814E+02 -0.35402168917E+03  0.36729124805E+03  0.00000000000E+00 0. -1.
         21    1    1    2  505  506  0.58003789164E+01 -0.59553587971E+02 -0.54585793769E+02  0.80993105368E+02  0.00000000000E+00 0. -1.
         21    1    1    2  506  503  0.83033559806E+01 -0.64763011512E+02 -0.22491751573E+03  0.23420307910E+03  0.00000000000E+00 0. -1.
<scales pt_clust_3="32.41941" pt_clust_4="65.72729" pt_clust_5="14000.00000" pt_clust_6="55.51879"></scales>
<clustering>
<clus scale="   32.419">  2  3  1 -1</clus>
<clus scale="   55.519">  2  6  1 -1</clus>
<clus scale="   65.727">  2  4  1 -1</clus>
<clus scale="   65.727">  1  3  2 -1</clus>
</clustering>
</event>
<event>
 6    0  0.8520634E+002  0.1316273E+03  0.7546771E-02  0.1225061E+00
         21   -1    0    0  504  501  0.00000000000E+00  0.00000000000E+00  0.98921796910E+02  0.98921796910E+02  0.00000000000E+00 0.  1.
         21   -1    0    0  506  502 -0.00000000000E+00 -0.00000000000E+00 -0.87559603964E+03  0.87559603964E+03  0.00000000000E+00 0.  1.
         21    1    1    2  503  502 -0.42110924185E+01  0.33062319713E+02 -0.81767254621E+02  0.88299117846E+02  0.00000000000E+00 0.  1.
         21    1    1    2  504  505 -0.86265007199E+02  0.19137431659E+02 -0.71086121162E+02  0.11340691945E+03  0.00000000000E+00 0.  1.
         21    1    1    2  505  503  0.58367383795E+02  0.95365506547E+02 -0.61111611953E+03  0.62126020545E+03  0.00000000000E+00 0.  1.
         21    1    1    2  506  501  0.32108715823E+02 -0.14756525792E+03 -0.12704747417E+02  0.15155159380E+03  0.00000000000E+00 0.  1.
<scales pt_clust_3="33.32942" pt_clust_4="89.75217" pt_clust_5="14000.00000" pt_clust_6="131.62731"></scales>
<clustering>
<clus scale="   33.329">  2  3  1 -1</clus>
<clus scale="   89.752">  1  4  2 -1</clus>
<clus scale="  131.627">  1  6  2 -1</clus>
<clus scale="   89.752">  1  3  2 -1</clus>
</clustering>
</event>
<event>
 6    0  0.8520634E+002  0.1156798E+03  0.7546771E-02  0.1250399E+00
         21   -1    0    0  504  501  0.00000000000E+00  0.00000000000E+00  0.32574857416E+03  0.32574857416E+03  0.00000000000E+00 0. -1.
         21   -1    0    0  505  502 -0.00000000000E+00 -0.00000000000E+00 -0.17378903011E+03  0.17378903011E+03  0.00000000000E+00 0.  1.
         21    1    1    2  503  501  0.86629545538E+02  0.20062372008E+02  0.30461445105E+02  0.93995088002E+02  0.00000000000E+00 0. -1.
         21    1    1    2  504  502 -0.88256432936E+02 -0.11387492989E+03  0.21468847634E+03  0.25854949137E+03  0.00000000000E+00 0. -1.
         21    1    1    2  505  506  0.27127350077E+02  0.15943386916E+02 -0.30520427733E+02  0.43835843982E+02  0.00000000000E+00 0.  1.
         21    1    1    2  506  503 -0.25500462679E+02  0.77869170967E+02 -0.62669949659E+02  0.10315718091E+03  0.00000000000E+00 0.  1.
<scales pt_clust_3="14000.00000" pt_clust_4="115.67981" pt_clust_5="31.46561" pt_clust_6="88.01082"></scales>
<clustering>
<clus scale="   31.466">  2  5  1 -1</clus>
<clus scale="   88.011">  2  6  1 -1</clus>
<clus scale="  115.680">  1  4  2 -1</clus>
<clus scale="  115.680">  1  3  2 -1</clus>
</clustering>
</event>
<event>
 6    0  0.8520634E+002  0.1983442E+03  0.7546771E-02  0.1151144E+00
         21   -1    0    0  505  501  0.00000000000E+00  0.00000000000E+00  0.80100342265E+02  0.80100342265E+02  0.00000000000E+00 0. -1.
         21   -1    0    0  504  502 -0.00000000000E+00 -0.00000000000E+00 -0.16101005020E+04  0.16101005020E+04  0.00000000000E+00 0. -1.
         21    1    1    2  503  506  0.48149576880E+02  0.17072839848E+03 -0.26453439332E+03  0.31850433757E+03  0.00000000000E+00 0. -1.
         21    1    1    2  504  501 -0.84964427896E+02 -0.18105200777E+03 -0.70332787365E+03  0.73121055886E+03  0.00000000000E+00 0. -1.
         21    1    1    2  505  503 -0.49712350588E+01  0.56158736163E+02  0.16335300452E+02  0.58697179373E+02  0.00000000000E+00 0. -1.
         21    1    1    2  506  502  0.41786086075E+02 -0.45835126876E+02 -0.57847319319E+03  0.58178876844E+03  0.00000000000E+00 0. -1.
<scales pt_clust_3="14000.00000" pt_clust_4="198.34421" pt_clust_5="56.37834" pt_clust_6="60.29234"></scales>
<clustering>
<clus scale="   56.378">  1  5  2 -1</clus>
<clus scale="   60.292">  2  6  1 -1</clus>
<clus scale="  198.344">  2  4  1 -1</clus>
<clus scale="   56.378">  1  3  2 -1</clus>
</clustering>
</event>
<event>
 6    0  0.8520634E+002  0.8240075E+02  0.7546771E-02  0.1322373E+00
         21   -1    0    0  505  501  0.00000000000E+00  0.00000000000E+00  0.83410671638E+03  0.83410671638E+03  0.00000000000E+00 0.  1.
         21   -1    0    0  504  502 -0.00000000000E+00 -0.00000000000E+00 -0.46917547576E+03  0.46917547576E+03  0.00000000000E+00 0.  1.
         21    1    1    2  503  506  0.28573447600E+02  0.60948512442E+02 -0.47938636660E+02  0.82639433453E+02  0.00000000000E+00 0.  1.
         21    1    1    2  504  501 -0.70944346277E+02 -0.91813225199E+02  0.59595111333E+02  0.13043905046E+03  0.00000000000E+00 0.  1.
         21    1    1    2  505  503 -0.31864107188E+02 -0.25654758732E+01  0.71688136920E+03  0.71759375729E+03  0.00000000000E+00 0.  1.
         21    1    1    2  506  502  0.74235005866E+02  0.33430188631E+02 -0.36360660325E+03  0.37260995093E+03  0.00000000000E+00 0.  1.
<scales pt_clust_3="65.09165" pt_clust_4="82.40075" pt_clust_5="31.96722" pt_clust_6="14000.00000"></scales>
<clustering>
<clus scale="   31.967">  1  5  2 -1</clus>
<clus scale="   65.092">  1  3  2 -1</clus>
<clus scale="   82.401">  1  4  2 -1</clus>
<clus scale="   31.967">  1  3  2 -1</clus>
</clustering>
</event>
<event>
 6    0  0.8520634E+002  0.1135938E+03  0.7546771E-02  0.1254056E+00
         21   -1    0    0  503  501  0.00000000000E+00  0.00000000000E+00  0.79569241732E+03  0.79569241732E+03  0.00000000000E+00 0.  1.
         21   -1    0    0  504  502 -0.00000000000E+00 -0.00000000000E+00 -0.35501027426E+03  0.35501027426E+03  0.00000000000E+00 0. -1.
         21    1    1    2  503  505  0.74012179744E+02 -0.87053079534E+02  0.74408049096E+03  0.75280264242E+03  0.00000000000E+00 0.  1.
         21    1    1    2  504  501  0.23122601341E+02  0.26184232606E+02  0.11979392700E+02  0.36929318697E+02  0.00000000000E+00 0. -1.
         21    1    1    2  505  506 -0.30551014996E+02  0.92254425491E+02 -0.13669174890E+03  0.16771665915E+03  0.00000000000E+00 0. -1.
         21    1    1    2  506  502 -0.66583766089E+02 -0.31385578564E+02 -0.17868599171E+03  0.19325407132E+03  0.00000000000E+00 0. -1.
<scales pt_clust_3="14000.00000" pt_clust_4="34.93235" pt_clust_5="113.59382" pt_clust_6="56.69245"></scales>
<clustering>
<clus scale="   34.932">  2  4  1 -1</clus>
<clus scale="   56.692">  2  6  1 -1</clus>
<clus scale="  113.594">  2  5  1 -1</clus>
<clus scale="  113.594">  1  3  2 -1</clus>
</clustering>
</event>
<event>
 6    0  0.8520634E+002  0.7034930E+02  0.7546771E-02  0.1358909E+00
         21   -1    0    0  505  501  0.00000000000E+00  0.00000000000E+00  0.31456996848E+03  0.31456996848E+03  0.00000000000E+00 0.  1.
         21   -1    0    0  506  502 -0.00000000000E+00 -0.00000000000E+00 -0.99463943990E+02  0.99463943990E+02  0.00000000000E+00 0.  1.
         21    1    1    2  503  504 -0.60910344584E+02  0.14597208883E+01 -0.73182381258E+01  0.61365767914E+02  0.00000000000E+00 0.  1.
         21    1    1    2  504  502  0.19750652172E+01  0.36992893007E+02  0.78450357553E+01  0.37867130887E+02  0.00000000000E+00 0. -1.
         21    1    1    2  505  503 -0.29469487197E+02  0.55763780956E+02  0.16460447563E+03  0.17627445459E+03  0.00000000000E+00 0.  1.
         21    1    1    2  506  501  0.88404766564E+02 -0.94216394851E+02  0.49974751227E+02  0.13852655908E+03  0.00000000000E+00 0.  1.
<scales pt_clust_3="62.33145" pt_clust_4="37.04558" pt_clust_5="70.34930" pt_clust_6="14000.00000"></scales>
<clustering>
<clus scale="   37.046">  2  4  1 -1</clus>
<clus scale="   62.331">  2  3  1 -1</clus>
<clus scale="   70.349">  1  5  2 -1</clus>
<clus scale="   70.349">  1  3  2 -1</clus>
</clustering>
</event>
<event>
 6    0  0.8520634E+002  0.8863637E+02  0.7546771E-02  0.1306188E+00
         21   -1    0    0  503  501  0.00000000000E+00  0.00000000000E+00  0.76793606039E+03  0.76793606039E+03  0.00000000000E+00 0.  1.
         21   -1    0    0  506  502 -0.00000000000E+00 -0.00000000000E+00 -0.16817550282E+03  0.16817550282E+03  0.00000000000E+00 0.  1.
         21    1    1    2  503  505  0.63513074413E+02 -0.13000462669E+02  0.18599418753E+03  0.19696893269E+03  0.00000000000E+00 0.  1.
         21    1    1    2  504  501 -0.11418726759E+03  0.20727922941E+02  0.52670442287E+03  0.53933841689E+03  0.00000000000E+00 0.  1.
         21    1    1    2  505  502  0.75433069670E+02  0.44550000179E+02 -0.19247268128E+02  0.89695640062E+02  0.00000000000E+00 0.  1.
         21    1    1    2  506  504 -0.24758876494E+02 -0.52277460451E+02 -0.93690784699E+02  0.11010857357E+03  0.00000000000E+00 0.  1.
<scales pt_clust_3="14000.00000" pt_clust_4="88.63637" pt_clust_5="55.10675" pt_clust_6="57.84406"></scales>
<clustering>
<clus scale="   57.844">  2  6  1 -1</clus>
<clus scale="   55.107">  2  5  1 -1</clus>
<clus scale="   88.636">  2  4  1 -1</clus>
<clus scale="   88.636">  1  3  2 -1</clus>
</clustering>
</event>
<event>
 6    0  0.8520634E+002  0.8914795E+02  0.7546771E-02  0.1304928E+00
         21   -1    0    0  504  501  0.00000000000E+00  0.00000000000E+00  0.13613707803E+02  0.13613707803E+02  0.00000000000E+00 0.  1.
         21   -1    0    0  506  502 -0.00000000000E+00 -0.00000000000E+00 -0.13608342445E+04  0.13608342445E+04  0.00000000000E+00 0.  1.
         21    1    1    2  503  502 -0.67428363997E+02  0.91917279492E+00 -0.35580104607E+03  0.36213507637E+03  0.00000000000E+00 0.  1.
         21    1    1    2  504  503 -0.12913511507E+02 -0.69713098782E+02 -0.19673528372E+03  0.20912065126E+03  0.00000000000E+00 0.  1.
         21    1    1    2  505  501  0.56761384309E+01  0.33498484147E+02 -0.22306691379E+03  0.22563956881E+03  0.00000000000E+00 0.  1.
         21    1    1    2  506  505  0.74665737073E+02  0.35295441841E+02 -0.57161729309E+03  0.57755265584E+03  0.00000000000E+00 0.  1.
<scales pt_clust_3="67.43463" pt_clust_4="74.43129" pt_clust_5="31.47000" pt_clust_6="31.47000"></scales>
<clustering>
<clus scale="   31.470">  5  6 -1 -1</clus>
<clus scale="   67.435">  2  3  1 -1</clus>
<clus scale="   74.431">  1  4  2 -1</clus>
<clus scale="   74.431">  1  3  2 -1</clus>
</clustering>
</event>
<event>
 6    0  0.8520634E+002  0.1045677E+03  0.7546771E-02  0.1270974E+00
         21   -1    0    0  504  501  0.00000000000E+00  0.00000000000E+00  0.40933359883E+02  0.40933359883E+02  0.00000000000E+00 0. -1.
         21   -1    0    0  506  502 -0.00000000000E+00 -0.00000000000E+00 -0.49495808674E+03  0.49495808674E+03  0.00000000000E+00 0. -1.
         21    1    1    2  503  501 -0.33035653822E+02 -0.29749504690E+02 -0.25581666777E+02  0.51291413782E+02  0.00000000000E+00 0. -1.
         21    1    1    2  504  505  0.29389937412E+02  0.47594240573E+02 -0.59150603439E+02  0.81411142014E+02  0.00000000000E+00 0. -1.
         21    1    1    2  505  502  0.75701710560E+02  0.20356965082E+02 -0.21161708883E+03  0.22566999644E+03  0.00000000000E+00 0. -1.
         21    1    1    2  506  503 -0.72055994150E+02 -0.38201700965E+02 -0.15767536782E+03  0.17751889439E+03  0.00000000000E+00 0. -1.
<scales pt_clust_3="41.16965" pt_clust_4="55.93729" pt_clust_5="88.45907" pt_clust_6="41.16965"></scales>
<clustering>
<clus scale="   41.170">  3  6 -1 -1</clus>
<clus scale="   55.937">  1  4  2 -1</clus>
<clus scale="   88.459">  2  5  1 -1</clus>
<clus scale="   55.937">  1  3  2 -1</clus>
</clustering>
</event>
<event>
 6    0  0.8520634E+002  0.1645350E+03  0.7546771E-02  0.1183670E+00
         21   -1    0    0  503  501  0.00000000000E+00  0.00000000000E+00  0.65732946848E+03  0.65732946848E+03  0.00000000000E+00 0.  1.
         21   -1    0    0  504  502 -0.00000000000E+00 -0.00000000000E+00 -0.66856126971E+03  0.66856126971E+03  0.00000000000E+00 0.  1.
         21    1    1    2  503  506 -0.82248558208E+00  0.92097164379E+02  0.37282649633E+02  0.99360757510E+02  0.00000000000E+00 0.  1.
         21    1    1    2  504  505 -0.11222176862E+03 -0.11753731948E+03 -0.35422371769E+03  0.38972193805E+03  0.00000000000E+00 0.  1.
         21    1    1    2  505  501  0.13633744954E+03  0.55191455140E+01  0.56218521032E+03  0.57850719253E+03  0.00000000000E+00 0.  1.
         21    1    1    2  506  502 -0.23293195337E+02  0.19921009591E+02 -0.25647594349E+03  0.25830085010E+03  0.00000000000E+00 0. -1.
<scales pt_clust_3="93.63656" pt_clust_4="14000.00000" pt_clust_5="164.53497" pt_clust_6="30.64995"></scales>
<clustering>
<clus scale="   30.650">  2  6  1 -1</clus>
<clus scale="   93.637">  1  3  2 -1</clus>
<clus scale="  164.535">  1  5  2 -1</clus>
<clus scale="   93.637">  1  3  2 -1</clus>
</clustering>
</event>
<event>
 6    0  0.8520634E+002  0.9464247E+02  0.7546771E-02  0.1291983E+00
         21   -1    0    0  503  501  0.00000000000E+00  0.00000000000E+00  0.58414158562E+02  0.58414158562E+02  0.00000000000E+00 0.  1.
         21   -1    0    0  506  502 -0.00000000000E+00 -0.00000000000E+00 -0.18671970195E+04  0.18671970195E+04  0.00000000000E+00 0.  1.
         21    1    1    2  503  504  0.36155287456E+02  0.19736950340E+02  0.39701202020E+02  0.57209592392E+02  0.00000000000E+00 0.  1.
         21    1    1    2  504  505 -0.90592877737E+02 -0.78293473421E+02 -0.53966147607E+03  0.55278517186E+03  0.00000000000E+00 0.  1.
         21    1    1    2  505  502  0.33177303600E+02  0.89732282498E+02 -0.91246933326E+03  0.91747092604E+03  0.00000000000E+00 0.  1.
         21    1    1    2  506  501  0.21260286681E+02 -0.31175759417E+02 -0.39635325366E+03  0.39814548780E+03  0.00000000000E+00 0.  1.
<scales pt_clust_3="41.21443" pt_clust_4="94.64247" pt_clust_5="14000.00000" pt_clust_6="37.73497"></scales>
<clustering>
<clus scale="   37.735">  2  6  1 -1</clus>
<clus scale="   41.214">  1  3  2 -1</clus>
<clus scale="   94.642">  1  4  2 -1</clus>
<clus scale="   41.214">  1  3  2 -1</clus>
</clustering>
</event>
<event>
 6    0  0.8520634E+002  0.1151945E+03  0.7546771E-02  0.1251242E+00
         21   -1    0    0  504  501  0.00000000000E+00  0.00000000000E+00  0.34235829932E+03  0.34235829932E+03  0.00000000000E+00 0. -1.
         21   -1    0    0  505  502 -0.00000000000E+00 -0.00000000000E+00 -0.20019969753E+04  0.20019969753E+04  0.00000000000E+00 0.  1.
         21    1    1    2  503  506 -0.88903015724E+02 -0.13091591532E+03 -0.47433573934E+01  0.15832000040E+03  0.00000000000E+00 0. -1.
         21    1    1    2  504  503  0.14448638109E+02  0.46426102674E+02  0.25882631083E+03  0.26335376461E+03  0.00000000000E+00 0. -1.
         21    1    1    2  505  501  0.37450019395E+02  0.12014075061E+03 -0.10656448965E+04  0.10730495559E+04  0.00000000000E+00 0.  1.
         21    1    1    2  506  502  0.37004358220E+02 -0.35650937965E+02 -0.84807673294E+03  0.84963195376E+03  0.00000000000E+00 0.  1.
<scales pt_clust_3="115.19449" pt_clust_4="48.62249" pt_clust_5="14000.00000" pt_clust_6="51.17701"></scales>
<clustering>
<clus scale="   48.622">  1  4  2 -1</clus>
<clus scale="   51.177">  2  6  1 -1</clus>
<clus scale="  115.194">  1  3  2 -1</clus>
<clus scale="   48.622">  1  3  2 -1</clus>
</clustering>
</event>
<event>
 6    0  0.8520634E+002  0.9339325E+02  0.7546771E-02  0.1294836E+00
         21   -1    0    0  503  501  0.00000000000E+00  0.00000000000E+00  0.41301566311E+02  0.41301566311E+02  0.00000000000E+00 0.  1.
         21   -1    0    0  501  502 -0.00000000000E+00 -0.00000000000E+00 -0.11400759304E+04  0.11400759304E+04  0.00000000000E+00 0.  1.
         21    1    1    2  503  504 -0.26314874615E+01  0.40075668084E+02  0.68355371494E+01  0.40739519717E+02  0.00000000000E+00 0.  1.
         21    1    1    2  504  506  0.64524165271E+02 -0.20902311477E+01 -0.21167353981E+03  0.22129939997E+03  0.00000000000E+00 0. -1.
         21    1    1    2  505  502  0.44528232728E+01 -0.10212436205E+03 -0.65983250285E+03  0.66770363544E+03  0.00000000000E+00 0.  1.
         21    1    1    2  506  505 -0.66345501082E+02  0.64138925114E+02 -0.23410385861E+03  0.25163494162E+03  0.00000000000E+00 0.  1.
<scales pt_clust_3="40.16197" pt_clust_4="64.42193" pt_clust_5="93.39325" pt_clust_6="14000.00000"></scales>
<clustering>
<clus scale="   40.162">  1  3  2 -1</clus>
<clus scale="   64.422">  1  4  2 -1</clus>
<clus scale="   93.393">  2  5  1 -1</clus>
<clus scale="   40.162">  1  3  2 -1</clus>
</clustering>
</event>
<event>
 6    0  0.8520634E+002  0.1841406E+03  0.7546771E-02  0.1163855E+00
         21   -1    0    0  505  501  0.00000000000E+00  0.00000000000E+00  0.20198302254E+04  0.20198302254E+04  0.00000000000E+00 0.  1.
         21   -1    0    0  503  502 -0.00000000000E+00 -0.00000000000E+00 -0.54649154827E+02  0.54649154827E+02  0.00000000000E+00 0.  1.
         21    1    1    2  503  501 -0.93680151264E+02 -0.13079215146E+02  0.91398100337E+02  0.13153193283E+03  0.00000000000E+00 0.  1.
         21    1    1    2  504  502  0.31233290180E+02  0.24577272525E+02  0.20072352841E+02  0.44524825534E+02  0.00000000000E+00 0.  1.
         21    1    1    2  505  506 -0.15015750274E+03 -0.77757583508E+02  0.10852957508E+04  0.10983899053E+04  0.00000000000E+00 0.  1.
         21    1    1    2  506  504  0.21260436382E+03  0.66259526130E+02  0.76841486665E+03  0.80003271659E+03  0.00000000000E+00 0.  1.
<scales pt_clust_3="78.91955" pt_clust_4="39.74369" pt_clust_5="14000.00000" pt_clust_6="184.14064"></scales>
<clustering>
<clus scale="   39.744">  2  4  1 -1</clus>
<clus scale="   78.920">  2  3  1 -1</clus>
<clus scale="  184.141">  2  6  1 -1</clus>
<clus scale="  184.141">  1  3  2 -1</clus>
</clustering>
</event>
<event>
 6    0  0.8520634E+002  0.8662411E+02  0.7546771E-02  0.1311239E+00
         21   -1    0    0  505  501  0.00000000000E+00  0.00000000000E+00  0.23849941040E+03  0.23849941040E+03  0.00000000000E+00 0. -1.
         21   -1    0    0  506  502 -0.00000000000E+00 -0.00000000000E+00 -0.43054145925E+03  0.43054145925E+03  0.00000000000E+00 0. -1.
         21    1    1    2  503  501  0.49264241997E+01 -0.32607081863E+02  0.73010991169E+02  0.80113021879E+02  0.00000000000E+00 0. -1.
         21    1    1    2  504  503 -0.42613744433E+02 -0.20402133690E+02 -0.20830788312E+02  0.51634291081E+02  0.00000000000E+00 0. -1.
         21    1    1    2  505  502  0.96914079683E+02 -0.10790323495E+02  0.12466581770E+03  0.15827297945E+03  0.00000000000E+00 0. -1.
         21    1    1    2  506  504 -0.59226759450E+02  0.63799539049E+02 -0.36888806940E+03  0.37902057723E+03  0.00000000000E+00 0. -1.
<scales pt_clust_3="32.97714" pt_clust_4="48.25584" pt_clust_5="86.62411" pt_clust_6="14000.00000"></scales>
<clustering>
<clus scale="   32.977">  1  3  2 -1</clus>
<clus scale="   48.256">  1  4  2 -1</clus>
<clus scale="   86.624">  1  5  2 -1</clus>
<clus scale="   32.977">  1  3  2 -1</clus>
</clustering>
</event>
<event>
 6    0  0.8520634E+002  0.1106340E+03  0.7546771E-02  0.1259400E+00
         21   -1    0    0  506  501  0.00000000000E+00  0.00000000000E+00  0.12351653956E+04  0.12351653956E+04  0.00000000000E+00 0.  1.
         21   -1    0    0  503  502 -0.00000000000E+00 -0.00000000000E+00 -0.78129058260E+02  0.78129058260E+02  0.00000000000E+00 0.  1.
         21    1    1    2  503  504  0.74376327748E+01 -0.65760757563E+02 -0.30908266283E+02  0.73041882103E+02  0.00000000000E+00 0.  1.
         21    1    1    2  504  501  0.48137878852E+02 -0.75395228654E+01  0.99141570347E+02  0.11046787206E+03  0.00000000000E+00 0.  1.
         21    1    1    2  505  502 -0.32121563492E+02 -0.65353985290E+02  0.68958421717E+02  0.10029058859E+03  0.00000000000E+00 0.  1.
         21    1    1    2  506  505 -0.23453948135E+02  0.13865426572E+03  0.10198446115E+04  0.10294941111E+04  0.00000000000E+00 0.  1.
<scales pt_clust_3="66.42625" pt_clust_4="48.72473" pt_clust_5="110.63401" pt_clust_6="14000.00000"></scales>
<clustering>
<clus scale="   48.725">  1  4  2 -1</clus>
<clus scale="   66.426">  2  3  1 -1</clus>
<clus scale="  110.634">  2  5  1 -1</clus>
<clus scale="   48.725">  1  3  2 -1</clus>
</clustering>
</event>
<event>
 6    0  0.8520634E+002  0.1135259E+03  0.7546771E-02  0.1254176E+00
         21   -1    0    0  503  501  0.00000000000E+00  0.00000000000E+00  0.28119381202E+03  0.28119381202E+03  0.00000000000E+00 0. -1.
         21   -1    0    0  504  502 -0.00000000000E+00 -0.00000000000E+00 -0.16779743123E+04  0.16779743123E+04  0.00000000000E+00 0. -1.
         21    1    1    2  503  502 -0.45809322333E+02  0.35089994556E+02 -0.11855879867E+03  0.13185594591E+03  0.00000000000E+00 0.  1.
         21    1    1    2  504  506  0.53908624712E+02 -0.10933387118E+02 -0.13039506134E+04  0.13051102946E+04  0.00000000000E+00 0. -1.
         21    1    1    2  505  501  0.97454634148E+02  0.56339273812E+02  0.24287600099E+03  0.26769436182E+03  0.00000000000E+00 0. -1.
         21    1    1    2  506  505 -0.10555393653E+03 -0.80495881250E+02 -0.21714708916E+03  0.25450752198E+03  0.00000000000E+00 0. -1.
<scales pt_clust_3="41.91316" pt_clust_4="55.00617" pt_clust_5="14000.00000" pt_clust_6="113.52587"></scales>
<clustering>
<clus scale="   55.006">  2  4  1 -1</clus>
<clus scale="   41.913">  2  3  1 -1</clus>
<clus scale="  113.526">  2  6  1 -1</clus>
<clus scale="  113.526">  1  3  2 -1</clus>
</clustering>
</event>
<event>
 6    0  0.8520634E+002  0.1157570E+03  0.7546771E-02  0.1250265E+00
         21   -1    0    0  506  501  0.00000000000E+00  0.00000000000E+00  0.13707247704E+03  0.13707247704E+03  0.00000000000E+00 0.  1.
         21   -1    0    0  504  502 -0.00000000000E+00 -0.00000000000E+00 -0.69015974532E+03  0.69015974532E+03  0.00000000000E+00 0.  1.
         21    1    1    2  503  501  0.21091252799E+02  0.25035905493E+02  0.60083303336E+02  0.68422517114E+02  0.00000000000E+00 0.  1.
         21    1    1    2  504  505 -0.11661790219E+03 -0.11836587608E+03 -0.43937463911E+03  0.46974491932E+03  0.00000000000E+00 0.  1.
         21    1    1    2  505  503  0.93262354521E+02  0.12736093709E+02  0.36100610820E+01  0.94197172966E+02  0.00000000000E+00 0.  1.
         21    1    1    2  506  502  0.22642948725E+01  0.80593876881E+02 -0.17740599359E+03  0.19486761296E+03  0.00000000000E+00 0.  1.
<scales pt_clust_3="32.73587" pt_clust_4="14000.00000" pt_clust_5="115.75705" pt_clust_6="83.73289"></scales>
<clustering>
<clus scale="   32.736">  1  3  2 -1</clus>
<clus scale="   83.733">  2  6  1 -1</clus>
<clus scale="  115.757">  1  5  2 -1</clus>
<clus scale="   32.736">  1  3  2 -1</clus>
</clustering>
</event>
<event>
 6    0  0.8520634E+002  0.2164322E+03  0.7546771E-02  0.1136571E+00
         21   -1    0    0  504  501  0.00000000000E+00  0.00000000000E+00  0.49680771738E+03  0.49680771738E+03  0.00000000000E+00 0. -1.
         21   -1    0    0  506  502 -0.00000000000E+00 -0.00000000000E+00 -0.78752157614E+03  0.78752157614E+03  0.00000000000E+00 0. -1.
         21    1    1    2  503  505 -0.10350776859E+03 -0.11531439302E+03 -0.37453289370E+03  0.40532228641E+03  0.00000000000E+00 0. -1.
         21    1    1    2  504  503 -0.38943829293E+02  0.31535787504E+02  0.40292265365E+03  0.40602683724E+03  0.00000000000E+00 0. -1.
         21    1    1    2  505  502 -0.51245981318E+02 -0.87534809969E+01 -0.23782882031E+03  0.24344469968E+03  0.00000000000E+00 0. -1.
         21    1    1    2  506  501  0.19369757920E+03  0.92532086515E+02 -0.81274798387E+02  0.22953547019E+03  0.00000000000E+00 0. -1.
<scales pt_clust_3="46.95016" pt_clust_4="50.11115" pt_clust_5="46.95016" pt_clust_6="200.68063"></scales>
<clustering>
<clus scale="   46.950">  3  5 -1 -1</clus>
<clus scale="   50.111">  1  4  2 -1</clus>
<clus scale="  200.681">  1  6  2 -1</clus>
<clus scale="   50.111">  1  3  2 -1</clus>
</clustering>
</event>
<event>
 6    0  0.8520634E+002  0.7800716E+02  0.7546771E-02  0.1334804E+00
         21   -1    0    0  506  501  0.00000000000E+00  0.00000000000E+00  0.55502351287E+03  0.55502351287E+03  0.00000000000E+00 0.  1.
         21   -1    0    0  505  502 -0.00000000000E+00 -0.00000000000E+00 -0.48015118527E+03  0.48015118527E+03  0.00000000000E+00 0.  1.
         21    1    1    2  503  501 -0.51136961535E+02 -0.58559688152E+01  0.44075386196E+02  0.67763713550E+02  0.00000000000E+00 0.  1.
         21    1    1    2  504  502  0.83451355510E+02  0.41366262461E+02 -0.47036738636E+02  0.10434438743E+03  0.00000000000E+00 0.  1.
         21    1    1    2  505  503 -0.38186926108E+02 -0.67855683942E+02 -0.38817129613E+03  0.39590351136E+03  0.00000000000E+00 0.  1.
         21    1    1    2  506  504  0.58725321327E+01  0.32345390296E+02  0.46600497618E+03  0.46716308579E+03  0.00000000000E+00 0.  1.
<scales pt_clust_3="49.61908" pt_clust_4="14000.00000" pt_clust_5="78.00716" pt_clust_6="32.87417"></scales>
<clustering>
<clus scale="   32.874">  1  6  2 -1</clus>
<clus scale="   49.619">  1  3  2 -1</clus>
<clus scale="   78.007">  2  5  1 -1</clus>
<clus scale="   32.874">  1  3  2 -1</clus>
</clustering>
</event>
<event>
 6    0  0.8520634E+002  0.7020146E+02  0.7546771E-02  0.1359409E+00
         21   -1    0    0  505  501  0.00000000000E+00  0.00000000000E+00  0.17161369844E+03  0.17161369844E+03  0.00000000000E+00 0.  1.
         21   -1    0    0  506  502 -0.00000000000E+00 -0.00000000000E+00 -0.15597694482E+03  0.15597694482E+03  0.00000000000E+00 0.  1.
         21    1    1    2  503  501 -0.43510996910E+02  0.46237268683E+02  0.86068709628E+02  0.10695286179E+03  0.00000000000E+00 0.  1.
         21    1    1    2  504  502 -0.29967690665E+02 -0.12852187946E+02 -0.13278066570E+01  0.32634403461E+02  0.00000000000E+00 0. -1.
         21    1    1    2  505  504  0.85415226155E+02 -0.83623950434E+02 -0.30034194969E+02  0.12325087753E+03  0.00000000000E+00 0.  1.
         21    1    1    2  506  503 -0.11936538580E+02  0.50238869697E+02 -0.39069954381E+02  0.64752500470E+02  0.00000000000E+00 0.  1.
<scales pt_clust_3="70.20146" pt_clust_4="32.60738" pt_clust_5="14000.00000" pt_clust_6="50.98658"></scales>
<clustering>
<clus scale="   32.607">  2  4  1 -1</clus>
<clus scale="   50.987">  2  6  1 -1</clus>
<clus scale="   70.201">  1  3  2 -1</clus>
<clus scale="   70.201">  1  3  2 -1</clus>
</clustering>
</event>
<event>
 6    0  0.8520634E+002  0.1224000E+03  0.7546771E-02  0.1239189E+00
         21   -1    0    0  502  501  0.00000000000E+00  0.00000000000E+00  0.33598718529E+03  0.33598718529E+03  0.00000000000E+00 0.  1.
         21   -1    0    0  506  502 -0.00000000000E+00 -0.00000000000E+00 -0.20558892727E+04  0.20558892727E+04  0.00000000000E+00 0.  1.
         21    1    1    2  503  501 -0.23618179805E+02 -0.35349692844E+02  0.27813524839E+03  0.28136566173E+03  0.00000000000E+00 0.  1.
         21    1    1    2  504  505  0.48121511368E+02 -0.15557799074E+02  0.59636763128E+01  0.50924359628E+02  0.00000000000E+00 0. -1.
         21    1    1    2  505  503  0.39856647063E+02 -0.47681313736E+02 -0.11000843646E+02  0.63111635659E+02  0.00000000000E+00 0. -1.
         21    1    1    2  506  504 -0.64359978625E+02  0.98588805654E+02 -0.19930001684E+04  0.19964748009E+04  0.00000000000E+00 0.  1.
<scales pt_clust_3="42.51375" pt_clust_4="31.76002" pt_clust_5="31.76002" pt_clust_6="117.22745"></scales>
<clustering>
<clus scale="   31.760">  4  5 -1 -1</clus>
<clus scale="   42.514">  1  3  2 -1</clus>
<clus scale="  117.227">  2  6  1 -1</clus>
<clus scale="   42.514">  1  3  2 -1</clus>
</clustering>
</event>
<event>
 6    0  0.8520634E+002  0.8283304E+02  0.7546771E-02  0.1321199E+00
         21   -1    0    0  504  501  0.00000000000E+00  0.00000000000E+00  0.61348154962E+02  0.61348154962E+02  0.00000000000E+00 0.  1.
         21   -1    0    0  506  502 -0.00000000000E+00 -0.00000000000E+00 -0.15058776483E+04  0.15058776483E+04  0.00000000000E+00 0.  1.
         21    1    1    2  503  501  0.31130521159E+02  0.31502114295E+02  0.35069254310E+02  0.56491991914E+02  0.00000000000E+00 0.  1.
         21    1    1    2  504  505  0.56814203583E+01  0.52519800224E+02 -0.59495266368E+02  0.79563148964E+02  0.00000000000E+00 0.  1.
         21    1    1    2  505  502 -0.37788693111E+01 -0.11778686429E+03 -0.72987599470E+03  0.73932874480E+03  0.00000000000E+00 0.  1.
         21    1    1    2  506  503 -0.33033072206E+02  0.33764949773E+02 -0.69022748656E+03  0.69184191756E+03  0.00000000000E+00 0.  1.
<scales pt_clust_3="44.28874" pt_clust_4="14000.00000" pt_clust_5="82.83304" pt_clust_6="47.33068"></scales>
<clustering>
<clus scale="   44.289">  1  3  2 -1</clus>
<clus scale="   47.331">  2  6  1 -1</clus>
<clus scale="   82.833">  2  5  1 -1</clus>
<clus scale="   44.289">  1  3  2 -1</clus>
</clustering>
</event>
<event>
 6    0  0.8520634E+002  0.8420956E+02  0.7546771E-02  0.1317513E+00
         21   -1    0    0  503  501  0.00000000000E+00  0.00000000000E+00  0.26207532002E+03  0.26207532002E+03  0.00000000000E+00 0. -1.
         21   -1    0    0  506  502 -0.00000000000E+00 -0.00000000000E+00 -0.76586854218E+03  0.76586854218E+03  0.00000000000E+00 0.  1.
         21    1    1    2  503  504  0.33455059243E+02  0.59541582791E+02  0.20759020322E+03  0.21853634375E+03  0.00000000000E+00 0. -1.
         21    1    1    2  504  502 -0.59726902616E+01  0.60651509367E+02 -0.55145633806E+02  0.82190750972E+02  0.00000000000E+00 0.  1.
         21    1    1    2  505  501 -0.29051691118E+02 -0.30899511085E+02  0.18731874791E+02  0.46364465653E+02  0.00000000000E+00 0. -1.
         21    1    1    2  506  505  0.15693221362E+01 -0.89293581073E+02 -0.67496966636E+03  0.68085230183E+03  0.00000000000E+00 0.  1.
<scales pt_clust_3="31.53300" pt_clust_4="84.20956" pt_clust_5="42.41203" pt_clust_6="14000.00000"></scales>
<clustering>
<clus scale="   42.412">  1  5  2 -1</clus>
<clus scale="   31.533">  1  3  2 -1</clus>
<clus scale="   84.210">  1  4  2 -1</clus>
<clus scale="   42.412">  1  3  2 -1</clus>
</clustering>
</event>
<event>
 6    0  0.8520634E+002  0.8236179E+02  0.7546771E-02  0.1322480E+00
         21   -1    0    0  503  501  0.00000000000E+00  0.00000000000E+00  0.53373891686E+02  0.53373891686E+02  0.00000000000E+00 0. -1.
         21   -1    0    0  506  502 -0.00000000000E+00 -0.00000000000E+00 -0.15544287137E+04  0.15544287137E+04  0.00000000000E+00 0. -1.
         21    1    1    2  503  504  0.32735496758E+02  0.23391598800E+02 -0.32542883026E+02  0.51747646112E+02  0.00000000000E+00 0. -1.
         21    1    1    2  504  502 -0.63487538251E+02 -0.12082445324E+02 -0.23331116669E+03  0.24209657887E+03  0.00000000000E+00 0. -1.
         21    1    1    2  505  501 -0.56830327166E+02  0.13991606082E+02  0.15015465022E+02  0.60422804605E+02  0.00000000000E+00 0. -1.
         21    1    1    2  506  505  0.87582368659E+02 -0.25300759558E+02 -0.12502162373E+04  0.12535355758E+04  0.00000000000E+00 0. -1.
<scales pt_clust_3="40.23406" pt_clust_4="14000.00000" pt_clust_5="44.55688" pt_clust_6="82.36179"></scales>
<clustering>
<clus scale="   40.234">  1  3  2 -1</clus>
<clus scale="   44.557">  1  5  2 -1</clus>
<clus scale="   82.362">  2  6  1 -1</clus>
<clus scale="   40.234">  1  3  2 -1</clus>
</clustering>
</event>
<event>
 6    0  0.8520634E+002  0.1341365E+03  0.7546771E-02  0.1221444E+00
         21   -1    0    0  506  501  0.00000000000E+00  0.00000000000E+00  0.43476253145E+02  0.43476253145E+02  0.00000000000E+00 0. -1.
         21   -1    0    0  504  502 -0.00000000000E+00 -0.00000000000E+00 -0.14960617545E+04  0.14960617545E+04  0.00000000000E+00 0. -1.
         21    1    1    2  503  502 -0.76739146309E+01 -0.77294499566E+02 -0.52933168922E+03  0.53500034191E+03  0.00000000000E+00 0. -1.
         21    1    1    2  504  501 -0.32618234992E+02  0.22119589827E+01 -0.64133049640E+03  0.64216325621E+03  0.00000000000E+00 0. -1.
         21    1    1    2  505  503 -0.36949018436E+02 -0.22918945919E+02 -0.21776794351E+03  0.22206617317E+03  0.00000000000E+00 0.  1.
         21    1    1    2  506  505  0.77241168059E+02  0.98001486503E+02 -0.64155372200E+02  0.14030823633E+03  0.00000000000E+00 0. -1.
<scales pt_clust_3="42.98943" pt_clust_4="32.69315" pt_clust_5="42.98943" pt_clust_6="122.61603"></scales>
<clustering>
<clus scale="   32.693">  2  4  1 -1</clus>
<clus scale="   42.989">  3  5 -1 -1</clus>
<clus scale="  122.616">  1  6  2 -1</clus>
<clus scale="  122.616">  1  3  2 -1</clus>
</clustering>
</event>
<event>
 6    0  0.8520634E+002  0.1458500E+03  0.7546771E-02  0.1205667E+00
         21   -1    0    0  506  501  0.00000000000E+00  0.00000000000E+00  0.36670852317E+03  0.36670852317E+03  0.00000000000E+00 0.  1.
         21   -1    0    0  503  502 -0.00000000000E+00 -0.00000000000E+00 -0.60920754979E+03  0.60920754979E+03  0.00000000000E+00 0. -1.
         21    1    1    2  503  504 -0.18395551015E+03  0.84478753110E+02  0.25327740470E+02  0.20400437220E+03  0.00000000000E+00 0.  1.
         21    1    1    2  504  501 -0.73166806270E+01 -0.71386960605E+02  0.19976471096E+03  0.21226297770E+03  0.00000000000E+00 0.  1.
         21    1    1    2  505  502  0.82854240538E+02 -0.48737733533E+02 -0.42828841811E+03  0.43894323201E+03  0.00000000000E+00 0. -1.
         21    1    1    2  506  505  0.10841795024E+03  0.35645941028E+02 -0.39303059935E+02  0.12070549103E+03  0.00000000000E+00 0.  1.
<scales pt_clust_3="145.85004" pt_clust_4="71.76094" pt_clust_5="97.14086" pt_clust_6="14000.00000"></scales>
<clustering>
<clus scale="   71.761">  1  4  2 -1</clus>
<clus scale="   97.141">  2  5  1 -1</clus>
<clus scale="  145.850">  2  3  1 -1</clus>
<clus scale="   71.761">  1  3  2 -1</clus>
</clustering>
</event>
<event>
 6    0  0.8520634E+002  0.9750589E+02  0.7546771E-02  0.1285630E+00
         21   -1    0    0  506  501  0.00000000000E+00  0.00000000000E+00  0.23428933757E+04  0.23428933757E+04  0.00000000000E+00 0. -1.
         21   -1    0    0  503  502 -0.00000000000E+00 -0.00000000000E+00 -0.73807148331E+02  0.73807148331E+02  0.00000000000E+00 0.  1.
         21    1    1    2  503  504  0.61744556000E+02 -0.10192541911E+03  0.15577475961E+03  0.19612994924E+03  0.00000000000E+00 0.  1.
         21    1    1    2  504  505 -0.49792044954E+02  0.47804119944E+02  0.28723921794E+03  0.29541640095E+03  0.00000000000E+00 0. -1.
         21    1    1    2  505  501  0.17044807455E+02  0.63365905898E+02  0.18703084691E+04  0.18714591989E+04  0.00000000000E+00 0. -1.
         21    1    1    2  506  502 -0.28997318501E+02 -0.92446067345E+01 -0.44236219315E+02  0.53694974935E+02  0.00000000000E+00 0.  1.
<scales pt_clust_3="14000.00000" pt_clust_4="97.50589" pt_clust_5="65.23979" pt_clust_6="30.43530"></scales>
<clustering>
<clus scale="   30.435">  2  6  1 -1</clus>
<clus scale="   65.240">  1  5  2 -1</clus>
<clus scale="   97.506">  1  4  2 -1</clus>
<clus scale="   65.240">  1  3  2 -1</clus>
</clustering>
</event>
<event>
 6    0  0.8520634E+002  0.7820523E+02  0.7546771E-02  0.1334223E+00
         21   -1    0    0  503  501  0.00000000000E+00  0.00000000000E+00  0.41749717064E+03  0.41749717064E+03  0.00000000000E+00 0.  1.
         21   -1    0    0  504  502 -0.00000000000E+00 -0.00000000000E+00 -0.40365127076E+03  0.40365127076E+03  0.00000000000E+00 0.  1.
         21    1    1    2  503  506  0.43198281483E+02 -0.39784014661E+02  0.57135056566E+02  0.81934571668E+02  0.00000000000E+00 0.  1.
         21    1    1    2  504  505  0.68528690418E+02 -0.10830565137E+02 -0.14627657112E+03  0.16189600925E+03  0.00000000000E+00 0.  1.
         21    1    1    2  505  501 -0.34141011561E+02  0.15710422563E+01  0.33035712374E+03  0.33212031863E+03  0.00000000000E+00 0.  1.
         21    1    1    2  506  502 -0.77585960340E+02  0.49043537542E+02 -0.22736970931E+03  0.24519754185E+03  0.00000000000E+00 0.  1.
<scales pt_clust_3="41.58551" pt_clust_4="14000.00000" pt_clust_5="34.17714" pt_clust_6="78.20523"></scales>
<clustering>
<clus scale="   34.177">  1  5  2 -1</clus>
<clus scale="   41.586">  1  3  2 -1</clus>
<clus scale="   78.205">  1  6  2 -1</clus>
<clus scale="   34.177">  1  3  2 -1</clus>
</clustering>
</event>
<event>
 6    0  0.8520634E+002  0.5873246E+02  0.7546771E-02  0.1403229E+00
         21   -1    0    0  503  501  0.00000000000E+00  0.00000000000E+00  0.44753754171E+03  0.44753754171E+03  0.00000000000E+00 0. -1.
         21   -1    0    0  505  502 -0.00000000000E+00 -0.00000000000E+00 -0.38610937554E+03  0.38610937554E+03  0.00000000000E+00 0.  1.
         21    1    1    2  503  506 -0.33487593310E+02  0.12116360489E+02  0.14903353514E+03  0.15322930429E+03  0.00000000000E+00 0. -1.
         21    1    1    2  504  502 -0.49599556022E+01 -0.58018749574E+02 -0.35785170388E+03  0.36255843451E+03  0.00000000000E+00 0.  1.
         21    1    1    2  505  501  0.17190237706E+02 -0.56843780839E+02  0.70057688886E+02  0.91841164325E+02  0.00000000000E+00 0. -1.
         21    1    1    2  506  504  0.21257311206E+02  0.10274616992E+03  0.20018864603E+03  0.22601801413E+03  0.00000000000E+00 0. -1.
<scales pt_clust_3="35.61215" pt_clust_4="14000.00000" pt_clust_5="54.13583" pt_clust_6="58.73246"></scales>
<clustering>
<clus scale="   35.612">  1  3  2 -1</clus>
<clus scale="   54.136">  1  5  2 -1</clus>
<clus scale="   58.732">  1  6  2 -1</clus>
<clus scale="   35.612">  1  3  2 -1</clus>
</clustering>
</event>
<event>
 6    0  0.8520634E+002  0.1425911E+03  0.7546771E-02  0.1209884E+00
         21   -1    0    0  506  501  0.00000000000E+00  0.00000000000E+00  0.99174114982E+02  0.99174114982E+02  0.00000000000E+00 0.  1.
         21   -1    0    0  505  502 -0.00000000000E+00 -0.00000000000E+00 -0.66240088016E+03  0.66240088016E+03  0.00000000000E+00 0. -1.
         21    1    1    2  503  504 -0.12429710625E+03  0.50843792753E+02 -0.54857922002E+02  0.14506637615E+03  0.00000000000E+00 0.  1.
         21    1    1    2  504  501 -0.32005512778E+02  0.41082224636E+01  0.21865017832E+02  0.38978318907E+02  0.00000000000E+00 0. -1.
         21    1    1    2  505  503  0.17317867050E+02 -0.46691034057E+02 -0.32947181775E+03  0.33321410515E+03  0.00000000000E+00 0. -1.
         21    1    1    2  506  502  0.13898475198E+03 -0.82609811590E+01 -0.20076204326E+03  0.24431619493E+03  0.00000000000E+00 0. -1.
<scales pt_clust_3="142.59108" pt_clust_4="32.26810" pt_clust_5="49.39759" pt_clust_6="14000.00000"></scales>
<clustering>
<clus scale="   32.268">  1  4  2 -1</clus>
<clus scale="   49.398">  2  5  1 -1</clus>
<clus scale="  142.591">  1  3  2 -1</clus>
<clus scale="   32.268">  1  3  2 -1</clus>
</clustering>
</event>
<event>
 6    0  0.8520634E+002  0.9793616E+02  0.7546771E-02  0.1284697E+00
         21   -1    0    0  505  501  0.00000000000E+00  0.00000000000E+00  0.34650791040E+02  0.34650791040E+02  0.00000000000E+00 0. -1.
         21   -1    0    0  504  502 -0.00000000000E+00 -0.00000000000E+00 -0.12292903429E+04  0.12292903429E+04  0.00000000000E+00 0.  1.
         21    1    1    2  503  506 -0.49345780917E+02  0.61268778613E+02 -0.52318511556E+03  0.52906666354E+03  0.00000000000E+00 0.  1.
         21    1    1    2  504  503 -0.32337031532E+02 -0.58270567146E+01 -0.23653432742E+03  0.23880562441E+03  0.00000000000E+00 0.  1.
         21    1    1    2  505  502  0.56167479083E+02 -0.13806801919E+03 -0.31200876539E+03  0.34578466320E+03  0.00000000000E+00 0.  1.
         21    1    1    2  506  501  0.25515333366E+02  0.82626297288E+02 -0.12291134353E+03  0.15028418283E+03  0.00000000000E+00 0. -1.
<scales pt_clust_3="14000.00000" pt_clust_4="32.85785" pt_clust_5="97.93616" pt_clust_6="84.49060"></scales>
<clustering>
<clus scale="   32.858">  2  4  1 -1</clus>
<clus scale="   84.491">  1  6  2 -1</clus>
<clus scale="   97.936">  1  5  2 -1</clus>
<clus scale="   84.491">  1  3  2 -1</clus>
</clustering>
</event>
<event>
 6    0  0.8520634E+002  0.1535442E+03  0.7546771E-02  0.1196184E+00
         21   -1    0    0  504  501  0.00000000000E+00  0.00000000000E+00  0.79579614289E+02  0.79579614289E+02  0.00000000000E+00 0.  1.
         21   -1    0    0  506  502 -0.00000000000E+00 -0.00000000000E+00 -0.73713540693E+03  0.73713540693E+03  0.00000000000E+00 0. -1.
         21    1    1    2  503  502 -0.33104499057E+02  0.14211861259E+02 -0.16812294029E+03  0.17193954726E+03  0.00000000000E+00 0. -1.
         21    1    1    2  504  505  0.55012624926E+02  0.13330427266E+03 -0.61062340329E+02  0.15660468517E+03  0.00000000000E+00 0.  1.
         21    1    1    2  505  503 -0.63780332654E+01  0.41478062672E+02 -0.10824370980E+03  0.11609396928E+03  0.00000000000E+00 0.  1.
         21    1    1    2  506  501 -0.15530092603E+02 -0.18899419659E+03 -0.32012680222E+03  0.37207681951E+03  0.00000000000E+00 0. -1.
<scales pt_clust_3="36.02617" pt_clust_4="153.54420" pt_clust_5="46.13674" pt_clust_6="14000.00000"></scales>
<clustering>
<clus scale="   36.026">  2  3  1 -1</clus>
<clus scale="   46.137">  2  5  1 -1</clus>
<clus scale="  153.544">  1  4  2 -1</clus>
<clus scale="  153.544">  1  3  2 -1</clus>
</clustering>
</event>
<event>
 6    0  0.8520634E+002  0.9783775E+02  0.7546771E-02  0.1284910E+00
         21   -1    0    0  504  501  0.00000000000E+00  0.00000000000E+00  0.63722740362E+03  0.63722740362E+03  0.00000000000E+00 0. -1.
         21   -1    0    0  505  502 -0.00000000000E+00 -0.00000000000E+00 -0.20203718849E+03  0.20203718849E+03  0.00000000000E+00 0.  1.
         21    1    1    2  503  502  0.74857581047E+02  0.10013947141E+03 -0.79374527138E+02  0.14809418197E+03  0.00000000000E+00 0.  1.
         21    1    1    2  504  503  0.84784644759E+02 -0.22791307653E+02  0.20399730229E+03  0.22208732299E+03  0.00000000000E+00 0. -1.
         21    1    1    2  505  506 -0.27635958230E+02 -0.22757878094E+02 -0.61151999216E+02  0.70860667586E+02  0.00000000000E+00 0.  1.
         21    1    1    2  506  501 -0.13200626758E+03 -0.54590285664E+02  0.37171943919E+03  0.39822241956E+03  0.00000000000E+00 0. -1.
<scales pt_clust_3="97.83775" pt_clust_4="86.43452" pt_clust_5="35.80038" pt_clust_6="14000.00000"></scales>
<clustering>
<clus scale="   35.800">  2  5  1 -1</clus>
<clus scale="   86.435">  1  4  2 -1</clus>
<clus scale="   97.838">  2  3  1 -1</clus>
<clus scale="   86.435">  1  3  2 -1</clus>
</clustering>
</event>
<event>
 6    0  0.8520634E+002  0.1034286E+03  0.7546771E-02  0.1273247E+00
         21   -1    0    0  506  501  0.00000000000E+00  0.00000000000E+00  0.24322406742E+02  0.24322406742E+02  0.00000000000E+00 0.  1.
         21   -1    0    0  503  502 -0.00000000000E+00 -0.00000000000E+00 -0.12534690695E+04  0.12534690695E+04  0.00000000000E+00 0.  1.
         21    1    1    2  503  501  0.47002491866E+02 -0.13771964889E+02 -0.20334369761E+03  0.20915917531E+03  0.00000000000E+00 0.  1.
         21    1    1    2  504  505 -0.65539077607E+02 -0.11794461825E+03 -0.59461649062E+03  0.60973360953E+03  0.00000000000E+00 0.  1.
         21    1    1    2  505  502  0.18390365576E+01  0.37729826104E+02 -0.26141764020E+03  0.26413274019E+03  0.00000000000E+00 0.  1.
         21    1    1    2  506  504  0.16697549183E+02  0.93986757032E+02 -0.16976883436E+03  0.19476595125E+03  0.00000000000E+00 0.  1.
<scales pt_clust_3="47.75336" pt_clust_4="14000.00000" pt_clust_5="37.77462" pt_clust_6="103.42855"></scales>
<clustering>
<clus scale="   37.775">  2  5  1 -1</clus>
<clus scale="   47.753">  2  3  1 -1</clus>
<clus scale="  103.429">  1  6  2 -1</clus>
<clus scale="  103.429">  1  3  2 -1</clus>
</clustering>
</event>
<event>
 6    0  0.8520634E+002  0.7579541E+02  0.7546771E-02  0.1341425E+00
         21   -1    0    0  506  501  0.00000000000E+00  0.00000000000E+00  0.28627690935E+03  0.28627690935E+03  0.00000000000E+00 0.  1.
         21   -1    0    0  503  502 -0.00000000000E+00 -0.00000000000E+00 -0.64492162543E+03  0.64492162543E+03  0.00000000000E+00 0.  1.
         21    1    1    2  503  504  0.39955967615E+01  0.11983033154E+03 -0.36873416349E+03  0.38773722606E+03  0.00000000000E+00 0.  1.
         21    1    1    2  504  501 -0.29350982111E+02  0.32688895751E+02  0.80926243069E+02  0.92082033392E+02  0.00000000000E+00 0.  1.
         21    1    1    2  505  502  0.30056828870E+02 -0.54875935373E+02 -0.24434443172E+03  0.25222803681E+03  0.00000000000E+00 0.  1.
         21    1    1    2  506  505 -0.47014435203E+01 -0.97643291919E+02  0.17350763606E+03  0.19915123850E+03  0.00000000000E+00 0.  1.
<scales pt_clust_3="75.79541" pt_clust_4="43.93227" pt_clust_5="61.72462" pt_clust_6="14000.00000"></scales>
<clustering>
<clus scale="   43.932">  1  4  2 -1</clus>
<clus scale="   61.725">  2  5  1 -1</clus>
<clus scale="   75.795">  2  3  1 -1</clus>
<clus scale="   43.932">  1  3  2 -1</clus>
</clustering>
</event>
<event>
 6    0  0.8520634E+002  0.6253727E+02  0.7546771E-02  0.1387482E+00
         21   -1    0    0  503  501  0.00000000000E+00  0.00000000000E+00  0.55775047648E+03  0.55775047648E+03  0.00000000000E+00 0.  1.
         21   -1    0    0  504  502 -0.00000000000E+00 -0.00000000000E+00 -0.40996764809E+03  0.40996764809E+03  0.00000000000E+00 0.  1.
         21    1    1    2  503  506 -0.44567266382E+02 -0.43475954664E+02  0.49515883062E+03  0.49905777963E+03  0.00000000000E+00 0.  1.
         21    1    1    2  504  501  0.71776962278E+02  0.43895522953E+02 -0.12484801472E+03  0.15055157265E+03  0.00000000000E+00 0.  1.
         21    1    1    2  505  502  0.10499505155E+02  0.48293802314E+02 -0.24694570429E+03  0.25184263304E+03  0.00000000000E+00 0.  1.
         21    1    1    2  506  505 -0.37709201051E+02 -0.48713370603E+02  0.24417716767E+02  0.66266139253E+02  0.00000000000E+00 0. -1.
<scales pt_clust_3="62.53727" pt_clust_4="14000.00000" pt_clust_5="49.42197" pt_clust_6="55.85827"></scales>
<clustering>
<clus scale="   49.422">  2  5  1 -1</clus>
<clus scale="   55.858">  2  6  1 -1</clus>
<clus scale="   62.537">  1  3  2 -1</clus>
<clus scale="   62.537">  1  3  2 -1</clus>
</clustering>
</event>
<event>
 6    0  0.8520634E+002  0.1032750E+03  0.7546771E-02  0.1273556E+00
         21   -1    0    0  503  501  0.00000000000E+00  0.00000000000E+00  0.32926186260E+02  0.32926186260E+02  0.00000000000E+00 0. -1.
         21   -1    0    0  505  502 -0.00000000000E+00 -0.00000000000E+00 -0.15168415091E+04  0.15168415091E+04  0.00000000000E+00 0. -1.
         21    1    1    2  503  502 -0.10174367559E+03  0.31508357385E+02 -0.86756631718E+03  0.87408001168E+03  0.00000000000E+00 0. -1.
         21    1    1    2  504  506  0.20468191696E+02 -0.65341518908E+02 -0.10618764943E+03  0.12634982333E+03  0.00000000000E+00 0. -1.
         21    1    1    2  505  504  0.10688774886E+03  0.66686742775E+02 -0.48404282771E+03  0.50016954283E+03  0.00000000000E+00 0. -1.
         21    1    1    2  506  501 -0.25612264962E+02 -0.32853581252E+02 -0.26118528558E+02  0.49168317559E+02  0.00000000000E+00 0. -1.
<scales pt_clust_3="103.27502" pt_clust_4="81.25294" pt_clust_5="14000.00000" pt_clust_6="41.65748"></scales>
<clustering>
<clus scale="   41.657">  1  6  2 -1</clus>
<clus scale="   81.253">  1  4  2 -1</clus>
<clus scale="  103.275">  2  3  1 -1</clus>
<clus scale="   41.657">  1  3  2 -1</clus>
</clustering>
</event>
<event>
 6    0  0.8520634E+002  0.1132325E+03  0.7546771E-02  0.1254698E+00
         21   -1    0    0  506  501  0.00000000000E+00  0.00000000000E+00  0.66642429953E+03  0.66642429953E+03  0.00000000000E+00 0.  1.
         21   -1    0    0  503  502 -0.00000000000E+00 -0.00000000000E+00 -0.32749714845E+03  0.32749714845E+03  0.00000000000E+00 0. -1.
         21    1    1    2  503  505  0.25524267103E+02 -0.78461733807E+02 -0.17963860480E+02  0.84441886327E+02  0.00000000000E+00 0. -1.
         21    1    1    2  504  501  0.32748717429E+02  0.26116590473E+02  0.50980031441E+03  0.51151824538E+03  0.00000000000E+00 0.  1.
         21    1    1    2  505  504 -0.75135787014E+02  0.11550761556E+03  0.77750021401E+02  0.15821650220E+03  0.00000000000E+00 0. -1.
         21    1    1    2  506  502  0.16862802483E+02 -0.63162472224E+02 -0.23065932425E+03  0.23974481406E+03  0.00000000000E+00 0. -1.
<scales pt_clust_3="113.23247" pt_clust_4="41.88741" pt_clust_5="14000.00000" pt_clust_6="64.89482"></scales>
<clustering>
<clus scale="   41.887">  1  4  2 -1</clus>
<clus scale="   64.895">  2  6  1 -1</clus>
<clus scale="  113.232">  2  3  1 -1</clus>
<clus scale="   41.887">  1  3  2 -1</clus>
</clustering>
</event>
<event>
 6    0  0.8520634E+002  0.1412969E+03  0.7546771E-02  0.1211595E+00
         21   -1    0    0  505  501  0.00000000000E+00  0.00000000000E+00  0.14576468819E+03  0.14576468819E+03  0.00000000000E+00 0.  1.
         21   -1    0    0  503  502 -0.00000000000E+00 -0.00000000000E+00 -0.11441722175E+04  0.11441722175E+04  0.00000000000E+00 0. -1.
         21    1    1    2  503  506  0.21577624995E+02  0.11766744852E+03 -0.99996596247E+03  0.10070963948E+04  0.00000000000E+00 0. -1.
         21    1    1    2  504  502  0.22937754048E+02  0.25760464629E+02 -0.61534586551E+02  0.70542522217E+02  0.00000000000E+00 0. -1.
         21    1    1    2  505  504 -0.38688918449E+02 -0.10620328539E+03 -0.25635133857E+02  0.11590138190E+03  0.00000000000E+00 0.  1.
         21    1    1    2  506  501 -0.58264605933E+01 -0.37224627761E+02  0.88728153584E+02  0.96396606753E+02  0.00000000000E+00 0.  1.
<scales pt_clust_3="14000.00000" pt_clust_4="34.49264" pt_clust_5="141.29686" pt_clust_6="37.57479"></scales>
<clustering>
<clus scale="   34.493">  2  4  1 -1</clus>
<clus scale="   37.575">  1  6  2 -1</clus>
<clus scale="  141.297">  1  5  2 -1</clus>
<clus scale="   37.575">  1  3  2 -1</clus>
</clustering>
</event>
<event>
 6    0  0.8520634E+002  0.6031218E+02  0.7546771E-02  0.1396526E+00
         21   -1    0    0  506  501  0.00000000000E+00  0.00000000000E+00  0.68267727047E+03  0.68267727047E+03  0.00000000000E+00 0.  1.
         21   -1    0    0  505  502 -0.00000000000E+00 -0.00000000000E+00 -0.15608261097E+03  0.15608261097E+03  0.00000000000E+00 0.  1.
         21    1    1    2  503  501 -0.71469892410E+02  0.38260996209E+02  0.52966356483E+03  0.53583144855E+03  0.00000000000E+00 0.  1.
         21    1    1    2  504  502  0.83142160176E+02  0.44578485974E+02 -0.11509091437E+03  0.14881457852E+03  0.00000000000E+00 0.  1.
         21    1    1    2  505  503 -0.25372901999E+02 -0.40432942392E+02  0.19779988196E+02  0.51670638852E+02  0.00000000000E+00 0.  1.
         21    1    1    2  506  504  0.13700634233E+02 -0.42406539791E+02  0.92242020841E+02  0.10244321551E+03  0.00000000000E+00 0.  1.
<scales pt_clust_3="14000.00000" pt_clust_4="60.31218" pt_clust_5="49.52647" pt_clust_6="44.56481"></scales>
<clustering>
<clus scale="   44.565">  1  6  2 -1</clus>
<clus scale="   49.526">  2  5  1 -1</clus>
<clus scale="   60.312">  2  4  1 -1</clus>
<clus scale="   44.565">  1  3  2 -1</clus>
</clustering>
</event>
<event>
 6    0  0.8520634E+002  0.7619476E+02  0.7546771E-02  0.1340211E+00
         21   -1    0    0  505  501  0.00000000000E+00  0.00000000000E+00  0.10618353120E+04  0.10618353120E+04  0.00000000000E+00 0.  1.
         21   -1    0    0  506  502 -0.00000000000E+00 -0.00000000000E+00 -0.87548607282E+02  0.87548607282E+02  0.00000000000E+00 0.  1.
         21    1    1    2  503  501  0.79931271172E+02 -0.16097866756E+02  0.59287654192E+03  0.59845696870E+03  0.00000000000E+00 0.  1.
         21    1    1    2  504  502 -0.19357774375E+02 -0.83795422619E+02 -0.39714098500E+02  0.94729118545E+02  0.00000000000E+00 0.  1.
         21    1    1    2  505  504 -0.52460527665E+02  0.57919528021E+02  0.40171881256E+03  0.40924904771E+03  0.00000000000E+00 0.  1.
         21    1    1    2  506  503 -0.81129691331E+01  0.41973761354E+02  0.19405448765E+02  0.46948784352E+02  0.00000000000E+00 0.  1.
<scales pt_clust_3="14000.00000" pt_clust_4="52.82485" pt_clust_5="76.19476" pt_clust_6="42.75064"></scales>
<clustering>
<clus scale="   42.751">  2  6  1 -1</clus>
<clus scale="   52.825">  2  4  1 -1</clus>
<clus scale="   76.195">  2  5  1 -1</clus>
<clus scale="   76.195">  1  3  2 -1</clus>
</clustering>
</event>
<event>
 6    0  0.8520634E+002  0.7050856E+02  0.7546771E-02  0.1358372E+00
         21   -1    0    0  504  501  0.00000000000E+00  0.00000000000E+00  0.14028862594E+03  0.14028862594E+03  0.00000000000E+00 0.  1.
         21   -1    0    0  506  502 -0.00000000000E+00 -0.00000000000E+00 -0.32713871352E+03  0.32713871352E+03  0.00000000000E+00 0.  1.
         21    1    1    2  503  501  0.36149767763E+02  0.70351003369E+02  0.56124333493E+02  0.96984587406E+02  0.00000000000E+00 0.  1.
         21    1    1    2  504  505  0.21304011659E+02 -0.69136971390E+02  0.29130160406E+02  0.77989409352E+02  0.00000000000E+00 0.  1.
         21    1    1    2  505  502 -0.63120786533E+02  0.28943189573E+02 -0.13335555779E+03  0.15035174328E+03  0.00000000000E+00 0.  1.
         21    1    1    2  506  503  0.56670071113E+01 -0.30157221552E+02 -0.13874902369E+03  0.14210159941E+03  0.00000000000E+00 0.  1.
<scales pt_clust_3="14000.00000" pt_clust_4="70.50856" pt_clust_5="59.12379" pt_clust_6="30.68506"></scales>
<clustering>
<clus scale="   30.685">  2  6  1 -1</clus>
<clus scale="   59.124">  2  5  1 -1</clus>
<clus scale="   70.509">  2  4  1 -1</clus>
<clus scale="   70.509">  1  3  2 -1</clus>
</clustering>
</event>
<event>
 6    0  0.8520634E+002  0.1455993E+03  0.7546771E-02  0.1205987E+00
         21   -1    0    0  505  501  0.00000000000E+00  0.00000000000E+00  0.16142631595E+03  0.16142631595E+03  0.00000000000E+00 0.  1.
         21   -1    0    0  506  502 -0.00000000000E+00 -0.00000000000E+00 -0.12822289860E+04  0.12822289860E+04  0.00000000000E+00 0. -1.
         21    1    1    2  503  501  0.13806711100E+03 -0.20039709475E+02  0.47020614876E+02  0.14722450652E+03  0.00000000000E+00 0.  1.
         21    1    1    2  504  502 -0.15817612331E+03  0.91074620952E+02 -0.49666330383E+03  0.52913959400E+03  0.00000000000E+00 0. -1.
         21    1    1    2  505  504 -0.54611223175E+01 -0.32510854626E+02  0.41574415897E+02  0.53058567476E+02  0.00000000000E+00 0.  1.
         21    1    1    2  506  503  0.25570134625E+02 -0.38524056850E+02 -0.71273439704E+03  0.71423263400E+03  0.00000000000E+00 0. -1.
<scales pt_clust_3="145.59931" pt_clust_4="14000.00000" pt_clust_5="32.96634" pt_clust_6="46.39604"></scales>
<clustering>
<clus scale="   32.966">  1  5  2 -1</clus>
<clus scale="   46.396">  2  6  1 -1</clus>
<clus scale="  145.599">  1  3  2 -1</clus>
<clus scale="   32.966">  1  3  2 -1</clus>
</clustering>
</event>
<event>
 6    0  0.8520634E+002  0.1309720E+03  0.7546771E-02  0.1226021E+00
         21   -1    0    0  504  501  0.00000000000E+00  0.00000000000E+00  0.18617407747E+03  0.18617407747E+03  0.00000000000E+00 0.  1.
         21   -1    0    0  501  502 -0.00000000000E+00 -0.00000000000E+00 -0.61494161152E+03  0.61494161152E+03  0.00000000000E+00 0.  1.
         21    1    1    2  503  502  0.66875326628E+01 -0.47408235858E+02 -0.35690852375E+03  0.36010548211E+03  0.00000000000E+00 0.  1.
         21    1    1    2  504  506  0.51965905108E+02 -0.94279182667E+01  0.56590998881E+02  0.77407248310E+02  0.00000000000E+00 0.  1.
         21    1    1    2  505  503 -0.12332456523E+03  0.11882754382E+02 -0.21402592280E+03  0.24729990674E+03  0.00000000000E+00 0.  1.
         21    1    1    2  506  505  0.64671127462E+02  0.44953399743E+02  0.85575913613E+02  0.11630305184E+03  0.00000000000E+00 0.  1.
<scales pt_clust_3="47.87759" pt_clust_4="40.49950" pt_clust_5="121.27518" pt_clust_6="40.49950"></scales>
<clustering>
<clus scale="   40.499">  4  6 -1 -1</clus>
<clus scale="   47.878">  2  3  1 -1</clus>
<clus scale="  121.275">  2  5  1 -1</clus>
<clus scale="  130.972">  1  3  2 -1</clus>
</clustering>
</event>
<event>
 6    0  0.8520634E+002  0.6957363E+02  0.7546771E-02  0.1361549E+00
         21   -1    0    0  505  501  0.00000000000E+00  0.00000000000E+00  0.33399440313E+03  0.33399440313E+03  0.00000000000E+00 0. -1.
         21   -1    0    0  506  502 -0.00000000000E+00 -0.00000000000E+00 -0.11892226515E+03  0.11892226515E+03  0.00000000000E+00 0. -1.
         21    1    1    2  503  502 -0.34762572874E+02  0.46176357298E+02 -0.41926486208E+02  0.71403940311E+02  0.00000000000E+00 0. -1.
         21    1    1    2  504  503 -0.44012162881E+02  0.41990914247E+01  0.51725721240E+02  0.68045963054E+02  0.00000000000E+00 0. -1.
         21    1    1    2  505  504 -0.32785975343E+02 -0.27709943495E+02  0.19442907211E+03  0.19911158989E+03  0.00000000000E+00 0. -1.
         21    1    1    2  506  501  0.11156071110E+03 -0.22665505227E+02  0.10843830837E+02  0.11435517503E+03  0.00000000000E+00 0. -1.
<scales pt_clust_3="57.72275" pt_clust_4="69.57363" pt_clust_5="42.92739" pt_clust_6="14000.00000"></scales>
<clustering>
<clus scale="   42.927">  1  5  2 -1</clus>
<clus scale="   57.723">  2  3  1 -1</clus>
<clus scale="   69.574">  1  4  2 -1</clus>
<clus scale="   42.927">  1  3  2 -1</clus>
</clustering>
</event>
<event>
 6    0  0.8520634E+002  0.1574344E+03  0.7546771E-02  0.1191624E+00
         21   -1    0    0  506  501  0.00000000000E+00  0.00000000000E+00  0.11733633429E+03  0.11733633429E+03  0.00000000000E+00 0.  1.
         21   -1    0    0  503  502 -0.00000000000E+00 -0.00000000000E+00 -0.15619340898E+04  0.15619340898E+04  0.00000000000E+00 0. -1.
         21    1    1    2  503  501 -0.64092658656E+02 -0.92524530528E+01 -0.19202976422E+03  0.20265464990E+03  0.00000000000E+00 0.  1.
         21    1    1    2  504  505 -0.69578314641E+01  0.15721007591E+03 -0.17229252515E+03  0.23334123855E+03  0.00000000000E+00 0.  1.
         21    1    1    2  505  502  0.11963605981E+03  0.47811765788E+01 -0.10763061570E+04  0.10829453311E+04  0.00000000000E+00 0. -1.
         21    1    1    2  506  504 -0.48585569690E+02 -0.15273879944E+03 -0.39693091760E+01  0.16032920461E+03  0.00000000000E+00 0.  1.
<scales pt_clust_3="64.75706" pt_clust_4="14000.00000" pt_clust_5="68.97455" pt_clust_6="157.43442"></scales>
<clustering>
<clus scale="   64.757">  2  3  1 -1</clus>
<clus scale="   68.975">  2  5  1 -1</clus>
<clus scale="  157.434">  1  6  2 -1</clus>
<clus scale="  157.434">  1  3  2 -1</clus>
</clustering>
</event>
<event>
 6    0  0.8520634E+002  0.6398687E+02  0.7546771E-02  0.1381824E+00
         21   -1    0    0  503  501  0.00000000000E+00  0.00000000000E+00  0.11044149861E+04  0.11044149861E+04  0.00000000000E+00 0.  1.
         21   -1    0    0  505  502 -0.00000000000E+00 -0.00000000000E+00 -0.22882332333E+03  0.22882332333E+03  0.00000000000E+00 0.  1.
         21    1    1    2  503  506  0.76450241532E+02  0.26284288061E+02 -0.70853464214E+02  0.10749751914E+03  0.00000000000E+00 0.  1.
         21    1    1    2  504  501  0.58458058122E+02  0.19018299834E+02  0.87822657626E+03  0.88037546510E+03  0.00000000000E+00 0.  1.
         21    1    1    2  505  504 -0.75740547878E+02 -0.56497595241E+02  0.18849707685E+03  0.21085482409E+03  0.00000000000E+00 0.  1.
         21    1    1    2  506  502 -0.59167751776E+02  0.11195007346E+02 -0.12027852617E+03  0.13451050107E+03  0.00000000000E+00 0.  1.
<scales pt_clust_3="43.61185" pt_clust_4="14000.00000" pt_clust_5="63.98687" pt_clust_6="60.21753"></scales>
<clustering>
<clus scale="   60.218">  2  6  1 -1</clus>
<clus scale="   43.612">  2  3  1 -1</clus>
<clus scale="   63.987">  2  5  1 -1</clus>
<clus scale="   63.987">  1  3  2 -1</clus>
</clustering>
</event>
<event>
 6    0  0.8520634E+002  0.1126979E+03  0.7546771E-02  0.1255654E+00
         21   -1    0    0  504  501  0.00000000000E+00  0.00000000000E+00  0.19996468558E+03  0.19996468558E+03  0.00000000000E+00 0. -1.
         21   -1    0    0  505  502 -0.00000000000E+00 -0.00000000000E+00 -0.92852553462E+03  0.92852553462E+03  0.00000000000E+00 0. -1.
         21    1    1    2  503  501 -0.11859880226E+03 -0.75689081344E+02  0.13817522635E+03  0.19719763211E+03  0.00000000000E+00 0. -1.
         21    1    1    2  504  502  0.39362867818E+02  0.66040580988E+01 -0.74963473450E+03  0.75069653264E+03  0.00000000000E+00 0. -1.
         21    1    1    2  505  506  0.46668631633E+02  0.40354693879E+01 -0.92705135214E+02  0.10386764793E+03  0.00000000000E+00 0.  1.
         21    1    1    2  506  503  0.32567302804E+02  0.65049553858E+02 -0.24396205679E+02  0.76728407520E+02  0.00000000000E+00 0. -1.
<scales pt_clust_3="112.69786" pt_clust_4="39.91302" pt_clust_5="68.78926" pt_clust_6="14000.00000"></scales>
<clustering>
<clus scale="   39.913">  2  4  1 -1</clus>
<clus scale="   68.789">  2  5  1 -1</clus>
<clus scale="  112.698">  1  3  2 -1</clus>
<clus scale="  112.698">  1  3  2 -1</clus>
</clustering>
</event>
<event>
 6    0  0.8520634E+002  0.1808982E+03  0.7546771E-02  0.1166937E+00
         21   -1    0    0  504  501  0.00000000000E+00  0.00000000000E+00  0.12830429020E+03  0.12830429020E+03  0.00000000000E+00 0. -1.
         21   -1    0    0  505  502 -0.00000000000E+00 -0.00000000000E+00 -0.42038145159E+03  0.42038145159E+03  0.00000000000E+00 0. -1.
         21    1    1    2  503  501  0.86845320265E+02 -0.61051905214E+02 -0.47902984784E+02  0.11646519108E+03  0.00000000000E+00 0. -1.
         21    1    1    2  504  502 -0.15736428199E+03  0.90300659215E+02 -0.38248099901E+02  0.18542018079E+03  0.00000000000E+00 0. -1.
         21    1    1    2  505  506  0.61411801055E+02  0.29884284882E+02 -0.15037286520E+03  0.16515592142E+03  0.00000000000E+00 0.  1.
         21    1    1    2  506  503  0.91071606648E+01 -0.59133038883E+02 -0.55553211495E+02  0.81644448496E+02  0.00000000000E+00 0. -1.
<scales pt_clust_3="52.51337" pt_clust_4="166.82684" pt_clust_5="68.29700" pt_clust_6="52.51337"></scales>
<clustering>
<clus scale="   52.513">  3  6 -1 -1</clus>
<clus scale="   68.297">  2  5  1 -1</clus>
<clus scale="  166.827">  1  4  2 -1</clus>
<clus scale="  166.827">  1  3  2 -1</clus>
</clustering>
</event>
<event>
 6    0  0.8520634E+002  0.1430768E+03  0.7546771E-02  0.1209248E+00
         21   -1    0    0  504  501  0.00000000000E+00  0.00000000000E+00  0.39408866288E+03  0.39408866288E+03  0.00000000000E+00 0. -1.
         21   -1    0    0  505  502 -0.00000000000E+00 -0.00000000000E+00 -0.17489375610E+03  0.17489375610E+03  0.00000000000E+00 0. -1.
         21    1    1    2  503  506 -0.25741671640E+02  0.32965492817E+02  0.19921436845E+02  0.46327324782E+02  0.00000000000E+00 0. -1.
         21    1    1    2  504  502  0.11891832857E+03 -0.15682803410E+03 -0.29759859475E+02  0.19905338577E+03  0.00000000000E+00 0. -1.
         21    1    1    2  505  503 -0.40422104653E+02  0.41998947100E+02 -0.15560412839E+02  0.60332284473E+02  0.00000000000E+00 0. -1.
         21    1    1    2  506  501 -0.52754552280E+02  0.81863594188E+02  0.24459374225E+03  0.26326942395E+03  0.00000000000E+00 0. -1.
<scales pt_clust_3="31.23765" pt_clust_4="138.24266" pt_clust_5="31.23765" pt_clust_6="97.38938"></scales>
<clustering>
<clus scale="   31.238">  3  5 -1 -1</clus>
<clus scale="   97.389">  1  6  2 -1</clus>
<clus scale="  138.243">  1  4  2 -1</clus>
<clus scale="   97.389">  1  3  2 -1</clus>
</clustering>
</event>
<event>
 6    0  0.8520634E+002  0.3592593E+03  0.7546771E-02  0.1058878E+00
         21   -1    0    0  503  501  0.00000000000E+00  0.00000000000E+00  0.41635013877E+03  0.41635013877E+03  0.00000000000E+00 0. -1.
         21   -1    0    0  506  502 -0.00000000000E+00 -0.00000000000E+00 -0.80670555266E+03  0.80670555266E+03  0.00000000000E+00 0. -1.
         21    1    1    2  503  504 -0.14102660129E+03  0.31282542082E+03 -0.39547720322E+03  0.52359379719E+03  0.00000000000E+00 0. -1.
         21    1    1    2  504  502 -0.34305558864E+02  0.21457731048E+02 -0.17704226554E+03  0.18160745958E+03  0.00000000000E+00 0. -1.
         21    1    1    2  505  501  0.17777326344E+01 -0.32132377551E+02  0.16593664848E+03  0.16902846307E+03  0.00000000000E+00 0. -1.
         21    1    1    2  506  505  0.17355442752E+03 -0.30215077432E+03  0.16227406391E+02  0.34882597158E+03  0.00000000000E+00 0. -1.
<scales pt_clust_3="359.25934" pt_clust_4="40.29424" pt_clust_5="32.18152" pt_clust_6="14000.00000"></scales>
<clustering>
<clus scale="   32.182">  1  5  2 -1</clus>
<clus scale="   40.294">  2  4  1 -1</clus>
<clus scale="  359.259">  2  3  1 -1</clus>
<clus scale="   32.182">  1  3  2 -1</clus>
</clustering>
</event>
<event>
 6    0  0.8520634E+002  0.8379419E+02  0.7546771E-02  0.1318616E+00
         21   -1    0    0  506  501  0.00000000000E+00  0.00000000000E+00  0.98097465102E+02  0.98097465102E+02  0.00000000000E+00 0.  1.
         21   -1    0    0  503  502 -0.00000000000E+00 -0.00000000000E+00 -0.63520087933E+03  0.63520087933E+03  0.00000000000E+00 0.  1.
         21    1    1    2  503  505 -0.92906462548E+01  0.76119964991E+02 -0.40147435402E+03  0.40873245786E+03  0.00000000000E+00 0.  1.
         21    1    1    2  504  502 -0.58052878330E+02 -0.60202593670E+02 -0.45011343941E+02  0.94976365746E+02  0.00000000000E+00 0.  1.
         21    1    1    2  505  501  0.73326821445E+02  0.68740973739E+02 -0.10289271793E+03  0.14383690631E+03  0.00000000000E+00 0.  1.
         21    1    1    2  506  504 -0.59832968601E+01 -0.84658345061E+02  0.12275001662E+02  0.85752614511E+02  0.00000000000E+00 0.  1.
<scales pt_clust_3="76.68484" pt_clust_4="71.26550" pt_clust_5="83.79419" pt_clust_6="14000.00000"></scales>
<clustering>
<clus scale="   76.685">  2  3  1 -1</clus>
<clus scale="   71.266">  2  4  1 -1</clus>
<clus scale="   83.794">  2  5  1 -1</clus>
<clus scale="   83.794">  1  3  2 -1</clus>
</clustering>
</event>
<event>
 6    0  0.8520634E+002  0.1062524E+03  0.7546771E-02  0.1267671E+00
         21   -1    0    0  504  501  0.00000000000E+00  0.00000000000E+00  0.25074109120E+04  0.25074109120E+04  0.00000000000E+00 0. -1.
         21   -1    0    0  506  502 -0.00000000000E+00 -0.00000000000E+00 -0.58943861571E+02  0.58943861571E+02  0.00000000000E+00 0. -1.
         21    1    1    2  503  501  0.31643203588E+02  0.66306734231E+02  0.42471519987E+03  0.43102305779E+03  0.00000000000E+00 0.  1.
         21    1    1    2  504  505  0.79599346158E+02 -0.34719396141E+02  0.19662367719E+04  0.19681535854E+04  0.00000000000E+00 0. -1.
         21    1    1    2  505  502 -0.69299849989E+02  0.31329442395E+02  0.72878756969E+01  0.76401022908E+02  0.00000000000E+00 0. -1.
         21    1    1    2  506  503 -0.41942699757E+02 -0.62916780485E+02  0.50227202912E+02  0.90777107477E+02  0.00000000000E+00 0. -1.
<scales pt_clust_3="73.47023" pt_clust_4="14000.00000" pt_clust_5="106.25243" pt_clust_6="73.15089"></scales>
<clustering>
<clus scale="   73.470">  1  3  2 -1</clus>
<clus scale="   73.151">  2  6  1 -1</clus>
<clus scale="  106.252">  2  5  1 -1</clus>
<clus scale="   73.470">  1  3  2 -1</clus>
</clustering>
</event>
<event>
 6    0  0.8520634E+002  0.1489298E+03  0.7546771E-02  0.1201794E+00
         21   -1    0    0  506  501  0.00000000000E+00  0.00000000000E+00  0.68917876431E+02  0.68917876431E+02  0.00000000000E+00 0. -1.
         21   -1    0    0  503  502 -0.00000000000E+00 -0.00000000000E+00 -0.33974276314E+03  0.33974276314E+03  0.00000000000E+00 0. -1.
         21    1    1    2  503  505 -0.77724024289E+02 -0.80207862221E+02 -0.67468735355E+02  0.13048507717E+03  0.00000000000E+00 0. -1.
         21    1    1    2  504  502  0.41886136872E+02  0.53517371487E+02 -0.91096706226E+02  0.11365371705E+03  0.00000000000E+00 0. -1.
         21    1    1    2  505  501 -0.35040870877E+02  0.54179631630E+01 -0.74686142100E+01  0.36235302605E+02  0.00000000000E+00 0. -1.
         21    1    1    2  506  504  0.70878758293E+02  0.21272527571E+02 -0.10479083092E+03  0.12828654275E+03  0.00000000000E+00 0. -1.
<scales pt_clust_3="35.05412" pt_clust_4="41.25964" pt_clust_5="35.05412" pt_clust_6="141.99705"></scales>
<clustering>
<clus scale="   35.054">  3  5 -1 -1</clus>
<clus scale="   41.260">  4  6 -1 -1</clus>
<clus scale="  141.997">  2  4  1 -1</clus>
<clus scale="  148.930">  1  3  2 -1</clus>
</clustering>
</event>
<event>
 6    0  0.8520634E+002  0.6081921E+02  0.7546771E-02  0.1394426E+00
         21   -1    0    0  505  501  0.00000000000E+00  0.00000000000E+00  0.93849404207E+03  0.93849404207E+03  0.00000000000E+00 0.  1.
         21   -1    0    0  503  502 -0.00000000000E+00 -0.00000000000E+00 -0.48171157089E+03  0.48171157089E+03  0.00000000000E+00 0.  1.
         21    1    1    2  503  504 -0.33450428382E+02  0.13420906619E+02 -0.35587311260E+02  0.50650850103E+02  0.00000000000E+00 0.  1.
         21    1    1    2  504  501  0.34678864044E+02 -0.29605771197E+02  0.70655403029E+02  0.84091089164E+02  0.00000000000E+00 0. -1.
         21    1    1    2  505  506 -0.93158821614E+02  0.16850581232E+02  0.84602634570E+03  0.85130669312E+03  0.00000000000E+00 0.  1.
         21    1    1    2  506  502  0.91930385952E+02 -0.66571665335E+00 -0.42431196629E+03  0.43415698057E+03  0.00000000000E+00 0.  1.
<scales pt_clust_3="36.04236" pt_clust_4="45.07463" pt_clust_5="60.81921" pt_clust_6="14000.00000"></scales>
<clustering>
<clus scale="   36.042">  2  3  1 -1</clus>
<clus scale="   45.075">  1  4  2 -1</clus>
<clus scale="   60.819">  1  5  2 -1</clus>
<clus scale="   45.075">  1  3  2 -1</clus>
</clustering>
</event>
<event>
 6    0  0.8520634E+002  0.1377874E+03  0.7546771E-02  0.1216338E+00
         21   -1    0    0  504  501  0.00000000000E+00  0.00000000000E+00  0.37470285822E+03  0.37470285822E+03  0.00000000000E+00 0.  1.
         21   -1    0    0  506  502 -0.00000000000E+00 -0.00000000000E+00 -0.33016572944E+03  0.33016572944E+03  0.00000000000E+00 0.  1.
         21    1    1    2  503  501  0.51882897148E+02  0.36391552450E+01  0.26427275329E+03  0.26934209957E+03  0.00000000000E+00 0.  1.
         21    1    1    2  504  505 -0.53158364977E+02 -0.23817717948E+01  0.16370429560E+02  0.55672933890E+02  0.00000000000E+00 0.  1.
         21    1    1    2  505  502  0.12272046690E+03  0.63475858019E+02 -0.46933472975E+02  0.14591863634E+03  0.00000000000E+00 0.  1.
         21    1    1    2  506  503 -0.12144499907E+03 -0.64733241470E+02 -0.18917258110E+03  0.23393491785E+03  0.00000000000E+00 0.  1.
<scales pt_clust_3="52.01037" pt_clust_4="35.85587" pt_clust_5="137.78741" pt_clust_6="14000.00000"></scales>
<clustering>
<clus scale="   52.010">  1  3  2 -1</clus>
<clus scale="   35.856">  1  4  2 -1</clus>
<clus scale="  137.787">  1  5  2 -1</clus>
<clus scale="   52.010">  1  3  2 -1</clus>
</clustering>
</event>
<event>
 6    0  0.8520634E+002  0.1028009E+03  0.7546771E-02  0.1274514E+00
         21   -1    0    0  504  501  0.00000000000E+00  0.00000000000E+00  0.24255618836E+03  0.24255618836E+03  0.00000000000E+00 0. -1.
         21   -1    0    0  501  502 -0.00000000000E+00 -0.00000000000E+00 -0.56067995574E+03  0.56067995574E+03  0.00000000000E+00 0. -1.
         21    1    1    2  503  506 -0.49759149449E+02  0.71344314064E+02 -0.77357341749E+02  0.11640507904E+03  0.00000000000E+00 0. -1.
         21    1    1    2  504  505  0.64869987581E+02 -0.13977180409E+02  0.96385652583E+02  0.11701995934E+03  0.00000000000E+00 0. -1.
         21    1    1    2  505  503  0.19260588184E+02 -0.74694083307E+02  0.10260841911E+03  0.12836924869E+03  0.00000000000E+00 0. -1.
         21    1    1    2  506  502 -0.34371426316E+02  0.17326949652E+02 -0.43976049732E+03  0.44144185703E+03  0.00000000000E+00 0. -1.
<scales pt_clust_3="102.80090" pt_clust_4="63.16369" pt_clust_5="14000.00000" pt_clust_6="38.49179"></scales>
<clustering>
<clus scale="   38.492">  2  6  1 -1</clus>
<clus scale="   63.164">  1  4  2 -1</clus>
<clus scale="  102.801">  2  3  1 -1</clus>
<clus scale="   63.164">  1  3  2 -1</clus>
</clustering>
</event>
<event>
 6    0  0.8520634E+002  0.8707099E+02  0.7546771E-02  0.1310104E+00
         21   -1    0    0  505  501  0.00000000000E+00  0.00000000000E+00  0.41554407728E+03  0.41554407728E+03  0.00000000000E+00 0. -1.
         21   -1    0    0  503  502 -0.00000000000E+00 -0.00000000000E+00 -0.43126013065E+03  0.43126013065E+03  0.00000000000E+00 0. -1.
         21    1    1    2  503  506  0.35911992524E+02 -0.28419058157E+02 -0.77220103992E+02  0.89778942598E+02  0.00000000000E+00 0. -1.
         21    1    1    2  504  502 -0.78501293308E+02 -0.23086386010E+02 -0.31922704436E+03  0.32954717435E+03  0.00000000000E+00 0. -1.
         21    1    1    2  505  504 -0.65013656258E+02  0.52572940090E+02  0.20530856350E+03  0.22168061660E+03  0.00000000000E+00 0. -1.
         21    1    1    2  506  501  0.10760295704E+03 -0.10674959223E+01  0.17542253148E+03  0.20579747439E+03  0.00000000000E+00 0. -1.
<scales pt_clust_3="45.79644" pt_clust_4="66.96991" pt_clust_5="87.07099" pt_clust_6="14000.00000"></scales>
<clustering>
<clus scale="   45.796">  2  3  1 -1</clus>
<clus scale="   66.970">  2  4  1 -1</clus>
<clus scale="   87.071">  1  5  2 -1</clus>
<clus scale="   87.071">  1  3  2 -1</clus>
</clustering>
</event>
<event>
 6    0  0.8520634E+002  0.1108524E+03  0.7546771E-02  0.1258999E+00
         21   -1    0    0  502  501  0.00000000000E+00  0.00000000000E+00  0.87040019127E+03  0.87040019127E+03  0.00000000000E+00 0.  1.
         21   -1    0    0  504  502 -0.00000000000E+00 -0.00000000000E+00 -0.92114632780E+03  0.92114632780E+03  0.00000000000E+00 0.  1.
         21    1    1    2  503  501 -0.19491680616E+02  0.34724255429E+02  0.83519006366E+03  0.83613882937E+03  0.00000000000E+00 0.  1.
         21    1    1    2  504  506 -0.19773907266E+02 -0.28906047803E+02 -0.36286165178E+03  0.36454786426E+03  0.00000000000E+00 0.  1.
         21    1    1    2  505  503 -0.45002897741E+02  0.68565458217E+02 -0.33575904691E+02  0.88621804548E+02  0.00000000000E+00 0.  1.
         21    1    1    2  506  505  0.84268485623E+02 -0.74383665843E+02 -0.48949864373E+03  0.50223802089E+03  0.00000000000E+00 0.  1.
<scales pt_clust_3="39.80764" pt_clust_4="35.02238" pt_clust_5="14000.00000" pt_clust_6="110.85243"></scales>
<clustering>
<clus scale="   35.022">  2  4  1 -1</clus>
<clus scale="   39.808">  1  3  2 -1</clus>
<clus scale="  110.852">  2  6  1 -1</clus>
<clus scale="   39.808">  1  3  2 -1</clus>
</clustering>
</event>
<event>
 6    0  0.8520634E+002  0.1139899E+03  0.7546771E-02  0.1253355E+00
         21   -1    0    0  506  501  0.00000000000E+00  0.00000000000E+00  0.25074645235E+03  0.25074645235E+03  0.00000000000E+00 0. -1.
         21   -1    0    0  504  502 -0.00000000000E+00 -0.00000000000E+00 -0.44444391092E+03  0.44444391092E+03  0.00000000000E+00 0.  1.
         21    1    1    2  503  505  0.67913024506E+02  0.41246128380E+02 -0.20985980973E+03  0.22439822135E+03  0.00000000000E+00 0.  1.
         21    1    1    2  504  501 -0.22072671659E+01  0.34725090593E+02 -0.12370773061E+02  0.36928850119E+02  0.00000000000E+00 0. -1.
         21    1    1    2  505  502 -0.14510457606E+02  0.29460944018E+02 -0.18628186707E+03  0.18915452573E+03  0.00000000000E+00 0.  1.
         21    1    1    2  506  503 -0.51195299734E+02 -0.10543216299E+03  0.21481499129E+03  0.24470876607E+03  0.00000000000E+00 0. -1.
<scales pt_clust_3="14000.00000" pt_clust_4="37.72602" pt_clust_5="32.84053" pt_clust_6="113.98990"></scales>
<clustering>
<clus scale="   32.841">  2  5  1 -1</clus>
<clus scale="   37.726">  2  4  1 -1</clus>
<clus scale="  113.990">  1  6  2 -1</clus>
<clus scale="  113.990">  1  3  2 -1</clus>
</clustering>
</event>
<event>
 6    0  0.8520634E+002  0.1170287E+03  0.7546771E-02  0.1248081E+00
         21   -1    0    0  503  501  0.00000000000E+00  0.00000000000E+00  0.17517602800E+03  0.17517602800E+03  0.00000000000E+00 0.  1.
         21   -1    0    0  506  502 -0.00000000000E+00 -0.00000000000E+00 -0.82244716851E+03  0.82244716851E+03  0.00000000000E+00 0.  1.
         21    1    1    2  503  502  0.35285118258E+02 -0.15194396471E+03 -0.47066439905E+02  0.16293329233E+03  0.00000000000E+00 0.  1.
         21    1    1    2  504  501  0.40395073336E+02  0.89220384715E+02  0.58111637287E+02  0.11388152346E+03  0.00000000000E+00 0.  1.
         21    1    1    2  505  504 -0.44821743536E+02  0.94952443909E+02 -0.60206055206E+02  0.12103604579E+03  0.00000000000E+00 0.  1.
         21    1    1    2  506  505 -0.30858448058E+02 -0.32228863909E+02 -0.59811028269E+03  0.59977233493E+03  0.00000000000E+00 0.  1.
<scales pt_clust_3="117.02871" pt_clust_4="92.70650" pt_clust_5="14000.00000" pt_clust_6="44.61999"></scales>
<clustering>
<clus scale="   44.620">  2  6  1 -1</clus>
<clus scale="   92.706">  1  4  2 -1</clus>
<clus scale="  117.029">  1  3  2 -1</clus>
<clus scale="   92.706">  1  3  2 -1</clus>
</clustering>
</event>
<event>
 6    0  0.8520634E+002  0.2382639E+03  0.7546771E-02  0.1120955E+00
         21   -1    0    0  503  501  0.00000000000E+00  0.00000000000E+00  0.11177471011E+04  0.11177471011E+04  0.00000000000E+00 0. -1.
         21   -1    0    0  506  502 -0.00000000000E+00 -0.00000000000E+00 -0.64056918434E+03  0.64056918434E+03  0.00000000000E+00 0.  1.
         21    1    1    2  503  504 -0.84839688552E+02  0.16486172739E+03 -0.20033809643E+02  0.18648998751E+03  0.00000000000E+00 0.  1.
         21    1    1    2  504  502  0.37173250677E+01  0.32801919010E+02 -0.55205808440E+02  0.64323134889E+02  0.00000000000E+00 0.  1.
         21    1    1    2  505  501 -0.10995661402E+03  0.84072445466E+01  0.98527097646E+03  0.99142323747E+03  0.00000000000E+00 0. -1.
         21    1    1    2  506  505  0.19107897751E+03 -0.20607089095E+03 -0.43285344157E+03  0.51607992561E+03  0.00000000000E+00 0.  1.
<scales pt_clust_3="14000.00000" pt_clust_4="33.01188" pt_clust_5="110.27131" pt_clust_6="238.26388"></scales>
<clustering>
<clus scale="   33.012">  2  4  1 -1</clus>
<clus scale="  110.271">  1  5  2 -1</clus>
<clus scale="  238.264">  2  6  1 -1</clus>
<clus scale="  110.271">  1  3  2 -1</clus>
</clustering>
</event>
<event>
 6    0  0.8520634E+002  0.1087324E+03  0.7546771E-02  0.1262935E+00
         21   -1    0    0  506  501  0.00000000000E+00  0.00000000000E+00  0.18190784792E+03  0.18190784792E+03  0.00000000000E+00 0. -1.
         21   -1    0    0  505  502 -0.00000000000E+00 -0.00000000000E+00 -0.53451773363E+03  0.53451773363E+03  0.00000000000E+00 0. -1.
         21    1    1    2  503  501  0.10119237923E+03 -0.60569798364E+02  0.59671901999E+02  0.13217160806E+03  0.00000000000E+00 0. -1.
         21    1    1    2  504  503 -0.50561221038E+02 -0.23721599703E+01 -0.22104105926E+03  0.22676246183E+03  0.00000000000E+00 0. -1.
         21    1    1    2  505  504 -0.48932388587E+02  0.30132562836E+02 -0.26795001128E+03  0.27404298667E+03  0.00000000000E+00 0.  1.
         21    1    1    2  506  502 -0.16987696090E+01  0.32809395498E+02  0.76709282833E+02  0.83448524996E+02  0.00000000000E+00 0.  1.
<scales pt_clust_3="103.91599" pt_clust_4="30.03562" pt_clust_5="30.03562" pt_clust_6="32.85334"></scales>
<clustering>
<clus scale="   30.036">  4  5 -1 -1</clus>
<clus scale="   32.853">  1  6  2 -1</clus>
<clus scale="  103.916">  1  3  2 -1</clus>
<clus scale="   32.853">  1  3  2 -1</clus>
</clustering>
</event>
<event>
 6    0  0.8520634E+002  0.1285423E+03  0.7546771E-02  0.1229635E+00
         21   -1    0    0  505  501  0.00000000000E+00  0.00000000000E+00  0.24800265990E+03  0.24800265990E+03  0.00000000000E+00 0.  1.
         21   -1    0    0  504  502 -0.00000000000E+00 -0.00000000000E+00 -0.42032709128E+03  0.42032709128E+03  0.00000000000E+00 0. -1.
         21    1    1    2  503  501  0.22139191605E+02  0.25980667690E+02  0.96260455538E+02  0.10213331581E+03  0.00000000000E+00 0.  1.
         21    1    1    2  504  506 -0.92498322687E+02 -0.47028646220E+01 -0.36318195962E+03  0.37480553948E+03  0.00000000000E+00 0. -1.
         21    1    1    2  505  502 -0.18658725266E+02 -0.33030976352E+02 -0.22287512089E+02  0.43999166156E+02  0.00000000000E+00 0. -1.
         21    1    1    2  506  503  0.89017856348E+02  0.11753173284E+02  0.11688458479E+03  0.14739172973E+03  0.00000000000E+00 0.  1.
<scales pt_clust_3="34.06329" pt_clust_4="116.06429" pt_clust_5="37.93670" pt_clust_6="34.06329"></scales>
<clustering>
<clus scale="   34.063">  3  6 -1 -1</clus>
<clus scale="   37.937">  2  5  1 -1</clus>
<clus scale="  116.064">  2  4  1 -1</clus>
<clus scale="  128.542">  1  3  2 -1</clus>
</clustering>
</event>
<event>
 6    0  0.8520634E+002  0.1442502E+03  0.7546771E-02  0.1207722E+00
         21   -1    0    0  505  501  0.00000000000E+00  0.00000000000E+00  0.13691807614E+04  0.13691807614E+04  0.00000000000E+00 0.  1.
         21   -1    0    0  504  502 -0.00000000000E+00 -0.00000000000E+00 -0.17794766970E+03  0.17794766970E+03  0.00000000000E+00 0. -1.
         21    1    1    2  503  502  0.28899885118E+02 -0.18025540948E+02 -0.13141354254E+03  0.13575581994E+03  0.00000000000E+00 0. -1.
         21    1    1    2  504  501  0.26570750781E+02 -0.12911770725E+03  0.80134969813E+02  0.15426924680E+03  0.00000000000E+00 0.  1.
         21    1    1    2  505  506  0.30847071868E+02  0.62874361469E+02  0.49174774402E+03  0.49670974515E+03  0.00000000000E+00 0.  1.
         21    1    1    2  506  503 -0.86317707767E+02  0.84268886727E+02  0.75076392041E+03  0.76039361921E+03  0.00000000000E+00 0.  1.
<scales pt_clust_3="34.06059" pt_clust_4="14000.00000" pt_clust_5="69.86632" pt_clust_6="144.25023"></scales>
<clustering>
<clus scale="   34.061">  2  3  1 -1</clus>
<clus scale="   69.866">  1  5  2 -1</clus>
<clus scale="  144.250">  1  6  2 -1</clus>
<clus scale="   69.866">  1  3  2 -1</clus>
</clustering>
</event>
<event>
 6    0  0.8520634E+002  0.1501499E+03  0.7546771E-02  0.1200289E+00
         21   -1    0    0  502  501  0.00000000000E+00  0.00000000000E+00  0.12334507076E+04  0.12334507076E+04  0.00000000000E+00 0.  1.
         21   -1    0    0  503  502 -0.00000000000E+00 -0.00000000000E+00 -0.37792903798E+03  0.37792903798E+03  0.00000000000E+00 0.  1.
         21    1    1    2  503  504 -0.80518792032E+02  0.12438559244E+03 -0.21219838636E+03  0.25881114089E+03  0.00000000000E+00 0.  1.
         21    1    1    2  504  505  0.10779308576E+03 -0.11427364692E+03 -0.42378232051E+02  0.16270749912E+03  0.00000000000E+00 0.  1.
         21    1    1    2  505  506 -0.41452073931E+02 -0.60551556249E+02 -0.49826410259E+01  0.73549929361E+02  0.00000000000E+00 0.  1.
         21    1    1    2  506  501  0.14177780200E+02  0.50439610724E+02  0.11150809290E+04  0.11163111762E+04  0.00000000000E+00 0.  1.
<scales pt_clust_3="150.14992" pt_clust_4="14000.00000" pt_clust_5="59.13394" pt_clust_6="52.39431"></scales>
<clustering>
<clus scale="   52.394">  1  6  2 -1</clus>
<clus scale="   59.134">  1  5  2 -1</clus>
<clus scale="  150.150">  2  3  1 -1</clus>
<clus scale="   52.394">  1  3  2 -1</clus>
</clustering>
</event>
<event>
 6    0  0.8520634E+002  0.8890278E+02  0.7546771E-02  0.1305531E+00
         21   -1    0    0  505  501  0.00000000000E+00  0.00000000000E+00  0.32605099544E+03  0.32605099544E+03  0.00000000000E+00 0.  1.
         21   -1    0    0  504  502 -0.00000000000E+00 -0.00000000000E+00 -0.18470462462E+03  0.18470462462E+03  0.00000000000E+00 0.  1.
         21    1    1    2  503  501  0.28404020955E+02  0.14905875017E+02  0.21693955668E+02  0.38724685008E+02  0.00000000000E+00 0.  1.
         21    1    1    2  504  503 -0.10008905522E+02 -0.45690913239E+02 -0.45147435209E+02  0.65008681330E+02  0.00000000000E+00 0.  1.
         21    1    1    2  505  506  0.30361347203E+02 -0.78284291568E+02  0.24774084457E+03  0.26158319476E+03  0.00000000000E+00 0.  1.
         21    1    1    2  506  502 -0.48756462635E+02  0.10906932979E+03 -0.82940994210E+02  0.14543905896E+03  0.00000000000E+00 0.  1.
<scales pt_clust_3="32.07762" pt_clust_4="46.08892" pt_clust_5="14000.00000" pt_clust_6="88.90278"></scales>
<clustering>
<clus scale="   32.078">  1  3  2 -1</clus>
<clus scale="   46.089">  2  4  1 -1</clus>
<clus scale="   88.903">  2  6  1 -1</clus>
<clus scale="   32.078">  1  3  2 -1</clus>
</clustering>
</event>
<event>
 6    0  0.8520634E+002  0.1298881E+03  0.7546771E-02  0.1227622E+00
         21   -1    0    0  503  501  0.00000000000E+00  0.00000000000E+00  0.22651444363E+04  0.22651444363E+04  0.00000000000E+00 0. -1.
         21   -1    0    0  506  502 -0.00000000000E+00 -0.00000000000E+00 -0.60739052689E+02  0.60739052689E+02  0.00000000000E+00 0.  1.
         21    1    1    2  503  505 -0.85976632419E+02 -0.25161504209E+02  0.11238544412E+04  0.11274191268E+04  0.00000000000E+00 0. -1.
         21    1    1    2  504  502  0.38263945091E+02 -0.30991920343E+02 -0.33210928739E+02  0.59393555275E+02  0.00000000000E+00 0.  1.
         21    1    1    2  505  504 -0.38524891257E+02  0.91562241652E+01  0.92886497732E+03  0.92970863704E+03  0.00000000000E+00 0. -1.
         21    1    1    2  506  501  0.86237578585E+02  0.46997200386E+02  0.18489689389E+03  0.20936216988E+03  0.00000000000E+00 0.  1.
<scales pt_clust_3="32.30402" pt_clust_4="49.24052" pt_clust_5="32.30402" pt_clust_6="120.45787"></scales>
<clustering>
<clus scale="   32.304">  3  5 -1 -1</clus>
<clus scale="   49.241">  2  4  1 -1</clus>
<clus scale="  120.458">  2  6  1 -1</clus>
<clus scale="  129.888">  1  3  2 -1</clus>
</clustering>
</event>
<event>
 6    0  0.8520634E+002  0.1660950E+03  0.7546771E-02  0.1181982E+00
         21   -1    0    0  504  501  0.00000000000E+00  0.00000000000E+00  0.11974902955E+04  0.11974902955E+04  0.00000000000E+00 0.  1.
         21   -1    0    0  505  502 -0.00000000000E+00 -0.00000000000E+00 -0.11559483774E+03  0.11559483774E+03  0.00000000000E+00 0.  1.
         21    1    1    2  503  501  0.35353466487E+02  0.10519123783E+02  0.54002293135E+03  0.54128115239E+03  0.00000000000E+00 0. -1.
         21    1    1    2  504  502  0.32991690715E+02 -0.56228002178E+02 -0.18141268250E+02  0.67669383763E+02  0.00000000000E+00 0.  1.
         21    1    1    2  505  506 -0.15165078346E+03 -0.74200277277E+02  0.53663104527E+02  0.17715352116E+03  0.00000000000E+00 0.  1.
         21    1    1    2  506  503  0.83305626255E+02  0.11990915567E+03  0.50635069017E+03  0.52698107596E+03  0.00000000000E+00 0.  1.
<scales pt_clust_3="36.88522" pt_clust_4="65.53872" pt_clust_5="166.09501" pt_clust_6="14000.00000"></scales>
<clustering>
<clus scale="   36.885">  1  3  2 -1</clus>
<clus scale="   65.539">  2  4  1 -1</clus>
<clus scale="  166.095">  2  5  1 -1</clus>
<clus scale="   36.885">  1  3  2 -1</clus>
</clustering>
</event>
<event>
 6    0  0.8520634E+002  0.8843119E+02  0.7546771E-02  0.1306696E+00
         21   -1    0    0  504  501  0.00000000000E+00  0.00000000000E+00  0.19067371672E+04  0.19067371672E+04  0.00000000000E+00 0. -1.
         21   -1    0    0  503  502 -0.00000000000E+00 -0.00000000000E+00 -0.12218744457E+04  0.12218744457E+04  0.00000000000E+00 0. -1.
         21    1    1    2  503  506  0.65014883013E+01 -0.44325173744E+02 -0.56204151317E+03  0.56382413296E+03  0.00000000000E+00 0. -1.
         21    1    1    2  504  502 -0.39238408734E+02  0.11022991765E+02 -0.63417516537E+02  0.75385280203E+02  0.00000000000E+00 0. -1.
         21    1    1    2  505  501 -0.51387178938E+02  0.71985608165E+02  0.18951886916E+04  0.18972513663E+04  0.00000000000E+00 0. -1.
         21    1    1    2  506  505  0.84124099371E+02 -0.38683426186E+02 -0.58486694041E+03  0.59215083344E+03  0.00000000000E+00 0. -1.
<scales pt_clust_3="40.94865" pt_clust_4="40.75732" pt_clust_5="88.43119" pt_clust_6="14000.00000"></scales>
<clustering>
<clus scale="   40.757">  2  4  1 -1</clus>
<clus scale="   40.949">  2  3  1 -1</clus>
<clus scale="   88.431">  1  5  2 -1</clus>
<clus scale="   88.431">  1  3  2 -1</clus>
</clustering>
</event>
<event>
 6    0  0.8520634E+002  0.1191127E+03  0.7546771E-02  0.1244568E+00
         21   -1    0    0  505  501  0.00000000000E+00  0.00000000000E+00  0.86432975036E+03  0.86432975036E+03  0.00000000000E+00 0.  1.
         21   -1    0    0  506  502 -0.00000000000E+00 -0.00000000000E+00 -0.19466673330E+04  0.19466673330E+04  0.00000000000E+00 0.  1.
         21    1    1    2  503  501 -0.59464657924E+01 -0.60901390724E+02  0.10346536301E+03  0.12020574525E+03  0.00000000000E+00 0.  1.
         21    1    1    2  504  502 -0.25389079505E+01  0.55013102725E+02 -0.17326131864E+04  0.17334882004E+04  0.00000000000E+00 0.  1.
         21    1    1    2  505  504 -0.73858531234E+02 -0.31951688115E+02  0.73976402596E+03  0.74412821954E+03  0.00000000000E+00 0.  1.
         21    1    1    2  506  503  0.82343904977E+02  0.37839976114E+02 -0.19295378520E+03  0.21317491809E+03  0.00000000000E+00 0.  1.
<scales pt_clust_3="59.05610" pt_clust_4="55.07166" pt_clust_5="119.11267" pt_clust_6="14000.00000"></scales>
<clustering>
<clus scale="   55.072">  2  4  1 -1</clus>
<clus scale="   59.056">  1  3  2 -1</clus>
<clus scale="  119.113">  1  5  2 -1</clus>
<clus scale="   59.056">  1  3  2 -1</clus>
</clustering>
</event>
<event>
 6    0  0.8520634E+002  0.1236565E+03  0.7546771E-02  0.1237184E+00
         21   -1    0    0  504  501  0.00000000000E+00  0.00000000000E+00  0.87174057303E+03  0.87174057303E+03  0.00000000000E+00 0. -1.
         21   -1    0    0  506  502 -0.00000000000E+00 -0.00000000000E+00 -0.29625472008E+04  0.29625472008E+04  0.00000000000E+00 0.  1.
         21    1    1    2  503  501 -0.51105658685E+01  0.37391895345E+02  0.29579815970E+02  0.47950362186E+02  0.00000000000E+00 0.  1.
         21    1    1    2  504  505  0.17390969103E+02  0.86048021598E+02  0.82687579850E+03  0.83152287639E+03  0.00000000000E+00 0. -1.
         21    1    1    2  505  502  0.30171783054E+02 -0.46670999596E+02 -0.24899341325E+03  0.25512004731E+03  0.00000000000E+00 0. -1.
         21    1    1    2  506  503 -0.42452186288E+02 -0.76768917347E+02 -0.26982688290E+04  0.26996944879E+04  0.00000000000E+00 0.  1.
<scales pt_clust_3="37.73952" pt_clust_4="123.65647" pt_clust_5="55.44879" pt_clust_6="14000.00000"></scales>
<clustering>
<clus scale="   37.740">  1  3  2 -1</clus>
<clus scale="   55.449">  2  5  1 -1</clus>
<clus scale="  123.656">  1  4  2 -1</clus>
<clus scale="   37.740">  1  3  2 -1</clus>
</clustering>
</event>
<event>
 6    0  0.8520634E+002  0.1334473E+03  0.7546771E-02  0.1222428E+00
         21   -1    0    0  506  501  0.00000000000E+00  0.00000000000E+00  0.98737137184E+03  0.98737137184E+03  0.00000000000E+00 0.  1.
         21   -1    0    0  503  502 -0.00000000000E+00 -0.00000000000E+00 -0.40868097426E+02  0.40868097426E+02  0.00000000000E+00 0.  1.
         21    1    1    2  503  505  0.57971431376E+02 -0.32726380896E+01  0.11832316407E+03  0.13180200367E+03  0.00000000000E+00 0.  1.
         21    1    1    2  504  501 -0.18442704847E+02 -0.36336121053E+02  0.39495618292E+03  0.39705268351E+03  0.00000000000E+00 0.  1.
         21    1    1    2  505  504 -0.53358548045E+02 -0.68794060333E+02  0.35363152059E+03  0.36419089739E+03  0.00000000000E+00 0.  1.
         21    1    1    2  506  502  0.13829821516E+02  0.10840281948E+03  0.79592406828E+02  0.13519388469E+03  0.00000000000E+00 0.  1.
<scales pt_clust_3="58.06373" pt_clust_4="36.84480" pt_clust_5="36.84480" pt_clust_6="122.09717"></scales>
<clustering>
<clus scale="   36.845">  4  5 -1 -1</clus>
<clus scale="   58.064">  2  3  1 -1</clus>
<clus scale="  122.097">  2  6  1 -1</clus>
<clus scale="  133.447">  1  3  2 -1</clus>
</clustering>
</event>
<event>
 6    0  0.8520634E+002  0.1030371E+03  0.7546771E-02  0.1274036E+00
         21   -1    0    0  505  501  0.00000000000E+00  0.00000000000E+00  0.23792167546E+03  0.23792167546E+03  0.00000000000E+00 0.  1.
         21   -1    0    0  506  502 -0.00000000000E+00 -0.00000000000E+00 -0.74315983065E+03  0.74315983065E+03  0.00000000000E+00 0. -1.
         21    1    1    2  503  502 -0.10266687490E+02 -0.12692552222E+03  0.11035810520E+03  0.16850639289E+03  0.00000000000E+00 0.  1.
         21    1    1    2  504  501 -0.25520930676E+02  0.25098784543E+02 -0.12211185963E+02  0.37820364233E+02  0.00000000000E+00 0.  1.
         21    1    1    2  505  503 -0.56174803743E+02  0.53269680660E+02  0.63304134893E+02  0.10000340468E+03  0.00000000000E+00 0.  1.
         21    1    1    2  506  504  0.91962421909E+02  0.48557057020E+02 -0.66668920931E+03  0.67475134431E+03  0.00000000000E+00 0. -1.
<scales pt_clust_3="103.03708" pt_clust_4="35.79479" pt_clust_5="90.39773" pt_clust_6="14000.00000"></scales>
<clustering>
<clus scale="   35.795">  1  4  2 -1</clus>
<clus scale="   90.398">  1  5  2 -1</clus>
<clus scale="  103.037">  1  3  2 -1</clus>
<clus scale="   35.795">  1  3  2 -1</clus>
</clustering>
</event>
<event>
 6    0  0.8520634E+002  0.1415669E+03  0.7546771E-02  0.1211236E+00
         21   -1    0    0  504  501  0.00000000000E+00  0.00000000000E+00  0.39445298614E+03  0.39445298614E+03  0.00000000000E+00 0.  1.
         21   -1    0    0  503  502 -0.00000000000E+00 -0.00000000000E+00 -0.12837335778E+04  0.12837335778E+04  0.00000000000E+00 0. -1.
         21    1    1    2  503  505  0.52424358987E+02 -0.88538102248E+01 -0.10038516857E+04  0.10052586285E+04  0.00000000000E+00 0. -1.
         21    1    1    2  504  502 -0.61172128857E+02  0.11630683313E+03  0.24201386115E+03  0.27539066391E+03  0.00000000000E+00 0.  1.
         21    1    1    2  505  506 -0.10003221857E+02  0.11926455852E+03 -0.12065221307E+03  0.16994427288E+03  0.00000000000E+00 0.  1.
         21    1    1    2  506  501  0.18750991726E+02 -0.22671758142E+03 -0.67905540789E+01  0.22759299866E+03  0.00000000000E+00 0.  1.
<scales pt_clust_3="53.16675" pt_clust_4="141.56689" pt_clust_5="115.95158" pt_clust_6="14000.00000"></scales>
<clustering>
<clus scale="   53.167">  2  3  1 -1</clus>
<clus scale="  115.952">  2  5  1 -1</clus>
<clus scale="  141.567">  1  4  2 -1</clus>
<clus scale="  141.567">  1  3  2 -1</clus>
</clustering>
</event>
<event>
 6    0  0.8520634E+002  0.1858992E+03  0.7546771E-02  0.1162213E+00
         21   -1    0    0  503  501  0.00000000000E+00  0.00000000000E+00  0.11502461542E+04  0.11502461542E+04  0.00000000000E+00 0. -1.
         21   -1    0    0  506  502 -0.00000000000E+00 -0.00000000000E+00 -0.11154610569E+03  0.11154610569E+03  0.00000000000E+00 0. -1.
         21    1    1    2  503  502  0.15262718281E+03 -0.11030779974E+03  0.95882089059E+03  0.97713886825E+03  0.00000000000E+00 0. -1.
         21    1    1    2  504  505  0.24347076698E+02  0.44418988979E+02  0.16127188763E+02  0.53159316616E+02  0.00000000000E+00 0. -1.
         21    1    1    2  505  501 -0.14852581399E+03  0.87279361075E+02  0.82785995383E+02  0.19113117308E+03  0.00000000000E+00 0. -1.
         21    1    1    2  506  504 -0.28448445523E+02 -0.21390550314E+02 -0.19034026263E+02  0.40362901917E+02  0.00000000000E+00 0. -1.
<scales pt_clust_3="185.89923" pt_clust_4="43.44401" pt_clust_5="14000.00000" pt_clust_6="35.59311"></scales>
<clustering>
<clus scale="   35.593">  2  6  1 -1</clus>
<clus scale="   43.444">  2  4  1 -1</clus>
<clus scale="  185.899">  1  3  2 -1</clus>
<clus scale="  185.899">  1  3  2 -1</clus>
</clustering>
</event>
<event>
 6    0  0.8520634E+002  0.2228211E+03  0.7546771E-02  0.1131797E+00
         21   -1    0    0  504  501  0.00000000000E+00  0.00000000000E+00  0.15833445660E+03  0.15833445660E+03  0.00000000000E+00 0. -1.
         21   -1    0    0  505  502 -0.00000000000E+00 -0.00000000000E+00 -0.55586987788E+03  0.55586987788E+03  0.00000000000E+00 0. -1.
         21    1    1    2  503  501 -0.11004350677E+02  0.71867196843E+02  0.15841376719E+02  0.74410610347E+02  0.00000000000E+00 0.  1.
         21    1    1    2  504  506  0.32601377171E+02 -0.15160162486E+02 -0.15927379243E+02  0.39323806144E+02  0.00000000000E+00 0. -1.
         21    1    1    2  505  503 -0.57597068800E+02  0.19053981122E+03 -0.15458657036E+03  0.25203144592E+03  0.00000000000E+00 0. -1.
         21    1    1    2  506  502  0.36000042306E+02 -0.24724684558E+03 -0.24286284840E+03  0.34843847208E+03  0.00000000000E+00 0. -1.
<scales pt_clust_3="67.20882" pt_clust_4="35.95386" pt_clust_5="222.82107" pt_clust_6="14000.00000"></scales>
<clustering>
<clus scale="   35.954">  1  4  2 -1</clus>
<clus scale="   67.209">  1  3  2 -1</clus>
<clus scale="  222.821">  2  5  1 -1</clus>
<clus scale="   35.954">  1  3  2 -1</clus>
</clustering>
</event>
<event>
 6    0  0.8520634E+002  0.9220137E+02  0.7546771E-02  0.1297607E+00
         21   -1    0    0  506  501  0.00000000000E+00  0.00000000000E+00  0.19240167749E+03  0.19240167749E+03  0.00000000000E+00 0.  1.
         21   -1    0    0  505  502 -0.00000000000E+00 -0.00000000000E+00 -0.47746953861E+03  0.47746953861E+03  0.00000000000E+00 0. -1.
         21    1    1    2  503  501 -0.56614749670E+02 -0.10647523660E+03  0.14568967725E+03  0.18912347275E+03  0.00000000000E+00 0.  1.
         21    1    1    2  504  503  0.33017529809E+02  0.36326448831E+02 -0.25441215550E+03  0.25910483018E+03  0.00000000000E+00 0. -1.
         21    1    1    2  505  504 -0.41711294039E+01  0.41542790688E+02 -0.17691180838E+03  0.18177180674E+03  0.00000000000E+00 0. -1.
         21    1    1    2  506  502  0.27768349266E+02  0.28605997079E+02  0.56642551489E+00  0.39871106427E+02  0.00000000000E+00 0.  1.
<scales pt_clust_3="84.05343" pt_clust_4="34.94922" pt_clust_5="34.94922" pt_clust_6="39.86708"></scales>
<clustering>
<clus scale="   34.949">  4  5 -1 -1</clus>
<clus scale="   39.867">  1  6  2 -1</clus>
<clus scale="   84.053">  1  3  2 -1</clus>
<clus scale="   39.867">  1  3  2 -1</clus>
</clustering>
</event>
<event>
 6    0  0.8520634E+002  0.8792297E+02  0.7546771E-02  0.1307961E+00
         21   -1    0    0  504  501  0.00000000000E+00  0.00000000000E+00  0.41547394942E+03  0.41547394942E+03  0.00000000000E+00 0.  1.
         21   -1    0    0  506  502 -0.00000000000E+00 -0.00000000000E+00 -0.20643127258E+03  0.20643127258E+03  0.00000000000E+00 0. -1.
         21    1    1    2  503  505  0.98856592603E+02 -0.59052291044E+02  0.70672587616E+02  0.13510889541E+03  0.00000000000E+00 0.  1.
         21    1    1    2  504  502 -0.26724443171E+02  0.50671188591E+02 -0.15486135026E+03  0.16511754304E+03  0.00000000000E+00 0. -1.
         21    1    1    2  505  501 -0.49299902186E+02 -0.15134862939E+02  0.28253183012E+03  0.28719989461E+03  0.00000000000E+00 0.  1.
         21    1    1    2  506  503 -0.22832247247E+02  0.23515965393E+02  0.10699609362E+02  0.34478888949E+02  0.00000000000E+00 0.  1.
<scales pt_clust_3="14000.00000" pt_clust_4="87.92297" pt_clust_5="51.75102" pt_clust_6="32.77670"></scales>
<clustering>
<clus scale="   32.777">  2  6  1 -1</clus>
<clus scale="   51.751">  1  5  2 -1</clus>
<clus scale="   87.923">  2  4  1 -1</clus>
<clus scale="   51.751">  1  3  2 -1</clus>
</clustering>
</event>
<event>
 6    0  0.8520634E+002  0.1002131E+03  0.7546771E-02  0.1279848E+00
         21   -1    0    0  502  501  0.00000000000E+00  0.00000000000E+00  0.53686712529E+03  0.53686712529E+03  0.00000000000E+00 0.  1.
         21   -1    0    0  505  502 -0.00000000000E+00 -0.00000000000E+00 -0.74730726384E+03  0.74730726384E+03  0.00000000000E+00 0. -1.
         21    1    1    2  503  506  0.15470164770E+02 -0.74769787095E+02  0.15954128022E+03  0.17687076399E+03  0.00000000000E+00 0.  1.
         21    1    1    2  504  503  0.44383645257E+02 -0.17144224299E+02  0.81115540499E+02  0.94040221733E+02  0.00000000000E+00 0.  1.
         21    1    1    2  505  504 -0.96713371564E+01  0.80486138398E+02 -0.72755407380E+03  0.73205633905E+03  0.00000000000E+00 0. -1.
         21    1    1    2  506  501 -0.50182472870E+02  0.11427872997E+02  0.27645711453E+03  0.28120706435E+03  0.00000000000E+00 0.  1.
<scales pt_clust_3="46.34247" pt_clust_4="46.34247" pt_clust_5="81.21743" pt_clust_6="51.46724"></scales>
<clustering>
<clus scale="   46.342">  3  4 -1 -1</clus>
<clus scale="   51.467">  1  6  2 -1</clus>
<clus scale="   81.217">  2  5  1 -1</clus>
<clus scale="   51.467">  1  3  2 -1</clus>
</clustering>
</event>
<event>
 6    0  0.8520634E+002  0.8068000E+02  0.7546771E-02  0.1327133E+00
         21   -1    0    0  504  501  0.00000000000E+00  0.00000000000E+00  0.52031620162E+03  0.52031620162E+03  0.00000000000E+00 0.  1.
         21   -1    0    0  503  502 -0.00000000000E+00 -0.00000000000E+00 -0.32501464756E+03  0.32501464756E+03  0.00000000000E+00 0.  1.
         21    1    1    2  503  505 -0.30026307924E+02  0.11376263289E+02 -0.29897944012E+02  0.43873518096E+02  0.00000000000E+00 0.  1.
         21    1    1    2  504  506  0.11637861187E+03 -0.62754002375E+02  0.24816141841E+03  0.28118701197E+03  0.00000000000E+00 0.  1.
         21    1    1    2  505  501 -0.70457084142E+02 -0.37394053742E+01  0.24049989790E+03  0.25063596060E+03  0.00000000000E+00 0.  1.
         21    1    1    2  506  502 -0.15895219806E+02  0.55117144460E+02 -0.26346181823E+03  0.26963435852E+03  0.00000000000E+00 0.  1.
<scales pt_clust_3="32.10917" pt_clust_4="80.68000" pt_clust_5="71.07341" pt_clust_6="14000.00000"></scales>
<clustering>
<clus scale="   32.109">  2  3  1 -1</clus>
<clus scale="   71.073">  1  5  2 -1</clus>
<clus scale="   80.680">  1  4  2 -1</clus>
<clus scale="   71.073">  1  3  2 -1</clus>
</clustering>
</event>
<event>
 6    0  0.8520634E+002  0.1027778E+03  0.7546771E-02  0.1274561E+00
         21   -1    0    0  505  501  0.00000000000E+00  0.00000000000E+00  0.10575410006E+04  0.10575410006E+04  0.00000000000E+00 0.  1.
         21   -1    0    0  503  502 -0.00000000000E+00 -0.00000000000E+00 -0.89928982407E+02  0.89928982407E+02  0.00000000000E+00 0. -1.
         21    1    1    2  503  504 -0.10960563601E+03  0.48713719325E+02  0.18539085015E+02  0.12136770398E+03  0.00000000000E+00 0. -1.
         21    1    1    2  504  506  0.24905554216E+02 -0.10317732492E+03  0.62809415010E+02  0.12333235432E+03  0.00000000000E+00 0. -1.
         21    1    1    2  505  502  0.79741792422E+02  0.97217221345E+02  0.72699467458E+03  0.73778804439E+03  0.00000000000E+00 0.  1.
         21    1    1    2  506  501  0.49582893724E+01 -0.42753615745E+02  0.15926884363E+03  0.16498188035E+03  0.00000000000E+00 0. -1.
<scales pt_clust_3="14000.00000" pt_clust_4="102.77777" pt_clust_5="104.38752" pt_clust_6="43.04017"></scales>
<clustering>
<clus scale="   43.040">  1  6  2 -1</clus>
<clus scale="  104.388">  1  5  2 -1</clus>
<clus scale="  102.778">  1  4  2 -1</clus>
<clus scale="   43.040">  1  3  2 -1</clus>
</clustering>
</event>
<event>
 6    0  0.8520634E+002  0.9086637E+02  0.7546771E-02  0.1300767E+00
         21   -1    0    0  504  501  0.00000000000E+00  0.00000000000E+00  0.10219867791E+03  0.10219867791E+03  0.00000000000E+00 0.  1.
         21   -1    0    0  505  502 -0.00000000000E+00 -0.00000000000E+00 -0.15238363701E+04  0.15238363701E+04  0.00000000000E+00 0.  1.
         21    1    1    2  503  506 -0.56993605495E+01 -0.10951044290E+03 -0.46731084703E+03  0.48000463286E+03  0.00000000000E+00 0.  1.
         21    1    1    2  504  502 -0.52278597446E+02  0.22866117382E+02  0.78498237571E+02  0.97045784951E+02  0.00000000000E+00 0.  1.
         21    1    1    2  505  503  0.72477021825E+02  0.59145322725E+02 -0.99770980060E+03  0.10020857918E+04  0.00000000000E+00 0.  1.
         21    1    1    2  506  501 -0.14499063830E+02  0.27499002790E+02 -0.35115282180E+02  0.46898838461E+02  0.00000000000E+00 0.  1.
<scales pt_clust_3="14000.00000" pt_clust_4="81.15665" pt_clust_5="90.86637" pt_clust_6="31.08726"></scales>
<clustering>
<clus scale="   31.087">  1  6  2 -1</clus>
<clus scale="   81.157">  1  4  2 -1</clus>
<clus scale="   90.866">  2  5  1 -1</clus>
<clus scale="   31.087">  1  3  2 -1</clus>
</clustering>
</event>
<event>
 6    0  0.8520634E+002  0.9246751E+02  0.7546771E-02  0.1296984E+00
         21   -1    0    0  503  501  0.00000000000E+00  0.00000000000E+00  0.40149295140E+03  0.40149295140E+03  0.00000000000E+00 0. -1.
         21   -1    0    0  504  502 -0.00000000000E+00 -0.00000000000E+00 -0.14745977006E+03  0.14745977006E+03  0.00000000000E+00 0. -1.
         21    1    1    2  503  505 -0.50908971768E+02  0.54142317064E+02  0.19101928965E+03  0.20496702887E+03  0.00000000000E+00 0. -1.
         21    1    1    2  504  506  0.54010423523E+02  0.23214281604E+01 -0.83799155398E+02  0.99723684866E+02  0.00000000000E+00 0. -1.
         21    1    1    2  505  502  0.77028169738E+02 -0.19287286115E+01  0.11635900094E+02  0.77925946245E+02  0.00000000000E+00 0. -1.
         21    1    1    2  506  501 -0.80129621493E+02 -0.54535016613E+02  0.13517714699E+03  0.16633606147E+03  0.00000000000E+00 0. -1.
<scales pt_clust_3="70.08465" pt_clust_4="54.06029" pt_clust_5="92.46751" pt_clust_6="14000.00000"></scales>
<clustering>
<clus scale="   54.060">  2  4  1 -1</clus>
<clus scale="   70.085">  1  3  2 -1</clus>
<clus scale="   92.468">  2  5  1 -1</clus>
<clus scale="   70.085">  1  3  2 -1</clus>
</clustering>
</event>
<event>
 6    0  0.8520634E+002  0.9358413E+02  0.7546771E-02  0.1294397E+00
         21   -1    0    0  502  501  0.00000000000E+00  0.00000000000E+00  0.24322828468E+02  0.24322828468E+02  0.00000000000E+00 0. -1.
         21   -1    0    0  503  502 -0.00000000000E+00 -0.00000000000E+00 -0.15086903618E+04  0.15086903618E+04  0.00000000000E+00 0. -1.
         21    1    1    2  503  504  0.13831018130E+02  0.76719991877E+02 -0.52124774028E+03  0.52704502745E+03  0.00000000000E+00 0. -1.
         21    1    1    2  504  505  0.72545448944E+02 -0.59853850347E+02 -0.85887652250E+03  0.86401053609E+03  0.00000000000E+00 0. -1.
         21    1    1    2  505  506 -0.51444878935E+02  0.39254694626E+01 -0.78175759837E+02  0.93666612543E+02  0.00000000000E+00 0. -1.
         21    1    1    2  506  501 -0.34931588139E+02 -0.20791610992E+02 -0.26067510741E+02  0.48291014214E+02  0.00000000000E+00 0. -1.
<scales pt_clust_3="77.95675" pt_clust_4="84.95907" pt_clust_5="34.83272" pt_clust_6="34.83272"></scales>
<clustering>
<clus scale="   34.833">  5  6 -1 -1</clus>
<clus scale="   77.957">  2  3  1 -1</clus>
<clus scale="   84.959">  2  4  1 -1</clus>
<clus scale="   93.584">  1  3  2 -1</clus>
</clustering>
</event>
<event>
 6    0  0.8520634E+002  0.9770929E+02  0.7546771E-02  0.1285188E+00
         21   -1    0    0  506  501  0.00000000000E+00  0.00000000000E+00  0.41387261494E+02  0.41387261494E+02  0.00000000000E+00 0. -1.
         21   -1    0    0  503  502 -0.00000000000E+00 -0.00000000000E+00 -0.58224739228E+03  0.58224739228E+03  0.00000000000E+00 0. -1.
         21    1    1    2  503  501 -0.24753138412E+02 -0.17238486772E+02 -0.68307794134E+02  0.74671534247E+02  0.00000000000E+00 0. -1.
         21    1    1    2  504  505  0.70467371096E+02 -0.48800648944E+02 -0.17886216629E+03  0.19834018316E+03  0.00000000000E+00 0. -1.
         21    1    1    2  505  502  0.33164307763E+01 -0.31025465303E+02 -0.21284112983E+03  0.21511607275E+03  0.00000000000E+00 0. -1.
         21    1    1    2  506  504 -0.49030663461E+02  0.97064601019E+02 -0.80849040529E+02  0.13550686361E+03  0.00000000000E+00 0. -1.
<scales pt_clust_3="30.16427" pt_clust_4="97.70929" pt_clust_5="38.89242" pt_clust_6="14000.00000"></scales>
<clustering>
<clus scale="   30.164">  2  3  1 -1</clus>
<clus scale="   38.892">  2  5  1 -1</clus>
<clus scale="   97.709">  2  4  1 -1</clus>
<clus scale="   97.709">  1  3  2 -1</clus>
</clustering>
</event>
<event>
 6    0  0.8520634E+002  0.8216407E+02  0.7546771E-02  0.1323020E+00
         21   -1    0    0  503  501  0.00000000000E+00  0.00000000000E+00  0.16292120925E+04  0.16292120925E+04  0.00000000000E+00 0. -1.
         21   -1    0    0  505  502 -0.00000000000E+00 -0.00000000000E+00 -0.11285056978E+03  0.11285056978E+03  0.00000000000E+00 0.  1.
         21    1    1    2  503  504 -0.88191026272E+02 -0.22265072774E+02  0.12344655284E+04  0.12378119936E+04  0.00000000000E+00 0. -1.
         21    1    1    2  504  502  0.10353736027E+03 -0.47690712713E+01 -0.40338895800E+02  0.11122030177E+03  0.00000000000E+00 0.  1.
         21    1    1    2  505  506 -0.62130343572E+02  0.16925152965E+02 -0.28338624362E+01  0.64456738760E+02  0.00000000000E+00 0.  1.
         21    1    1    2  506  501  0.46784009577E+02  0.10108991081E+02  0.32506875260E+03  0.32857362823E+03  0.00000000000E+00 0.  1.
<scales pt_clust_3="45.58322" pt_clust_4="14000.00000" pt_clust_5="82.16407" pt_clust_6="47.86372"></scales>
<clustering>
<clus scale="   47.864">  1  6  2 -1</clus>
<clus scale="   45.583">  1  3  2 -1</clus>
<clus scale="   82.164">  2  5  1 -1</clus>
<clus scale="   47.864">  1  3  2 -1</clus>
</clustering>
</event>
<event>
 6    0  0.8520634E+002  0.8576485E+02  0.7546771E-02  0.1313444E+00
         21   -1    0    0  504  501  0.00000000000E+00  0.00000000000E+00  0.48611892491E+02  0.48611892491E+02  0.00000000000E+00 0. -1.
         21   -1    0    0  506  502 -0.00000000000E+00 -0.00000000000E+00 -0.87522507885E+03  0.87522507885E+03  0.00000000000E+00 0. -1.
         21    1    1    2  503  502 -0.66708297853E+02  0.47731350428E+02 -0.19093713214E+03  0.20781065239E+03  0.00000000000E+00 0. -1.
         21    1    1    2  504  503 -0.23611922062E+01  0.31544617680E+02  0.22844650284E+02  0.39019433361E+02  0.00000000000E+00 0. -1.
         21    1    1    2  505  501  0.48640905382E+02  0.13643844044E+02 -0.12085354269E+03  0.13098729304E+03  0.00000000000E+00 0. -1.
         21    1    1    2  506  505  0.20428584677E+02 -0.92919812151E+02 -0.53766716181E+03  0.54601959255E+03  0.00000000000E+00 0. -1.
<scales pt_clust_3="14000.00000" pt_clust_4="31.63286" pt_clust_5="53.05789" pt_clust_6="85.76485"></scales>
<clustering>
<clus scale="   31.633">  1  4  2 -1</clus>
<clus scale="   53.058">  1  5  2 -1</clus>
<clus scale="   85.765">  2  6  1 -1</clus>
<clus scale="   31.633">  1  3  2 -1</clus>
</clustering>
</event>
<event>
 6    0  0.8520634E+002  0.1010674E+03  0.7546771E-02  0.1278067E+00
         21   -1    0    0  506  501  0.00000000000E+00  0.00000000000E+00  0.17819702571E+04  0.17819702571E+04  0.00000000000E+00 0.  1.
         21   -1    0    0  501  502 -0.00000000000E+00 -0.00000000000E+00 -0.18902641047E+02  0.18902641047E+02  0.00000000000E+00 0.  1.
         21    1    1    2  503  504 -0.12846680314E+03 -0.35599368024E+02  0.81518952234E+03  0.82601754936E+03  0.00000000000E+00 0.  1.
         21    1    1    2  504  505  0.45478578283E+02  0.74963189215E+02  0.36765817489E+03  0.37796866852E+03  0.00000000000E+00 0.  1.
         21    1    1    2  505  502  0.28387897747E+02  0.15776408858E+02  0.41952572033E+02  0.53054557911E+02  0.00000000000E+00 0.  1.
         21    1    1    2  506  503  0.54600327106E+02 -0.55140230049E+02  0.53826734684E+03  0.54383212240E+03  0.00000000000E+00 0.  1.
<scales pt_clust_3="14000.00000" pt_clust_4="101.06745" pt_clust_5="32.47719" pt_clust_6="79.69248"></scales>
<clustering>
<clus scale="   32.477">  2  5  1 -1</clus>
<clus scale="   79.692">  1  6  2 -1</clus>
<clus scale="  101.067">  2  4  1 -1</clus>
<clus scale="   79.692">  1  3  2 -1</clus>
</clustering>
</event>
<event>
 6    0  0.8520634E+002  0.1064642E+03  0.7546771E-02  0.1267261E+00
         21   -1    0    0  503  501  0.00000000000E+00  0.00000000000E+00  0.25558064734E+03  0.25558064734E+03  0.00000000000E+00 0. -1.
         21   -1    0    0  505  502 -0.00000000000E+00 -0.00000000000E+00 -0.26426998486E+03  0.26426998486E+03  0.00000000000E+00 0. -1.
         21    1    1    2  503  506  0.61442780222E+02 -0.10580078409E+02  0.14381767875E+03  0.15675036849E+03  0.00000000000E+00 0. -1.
         21    1    1    2  504  501 -0.23123238625E+02 -0.93030714269E+02 -0.29270092165E+02  0.10023041583E+03  0.00000000000E+00 0. -1.
         21    1    1    2  505  504  0.72269628611E+02 -0.75341272371E+01 -0.58322954382E+02  0.93173114688E+02  0.00000000000E+00 0. -1.
         21    1    1    2  506  502 -0.11058917021E+03  0.11114491992E+03 -0.64913969722E+02  0.16969673319E+03  0.00000000000E+00 0. -1.
<scales pt_clust_3="62.34704" pt_clust_4="14000.00000" pt_clust_5="82.95876" pt_clust_6="106.46416"></scales>
<clustering>
<clus scale="   62.347">  1  3  2 -1</clus>
<clus scale="   82.959">  2  5  1 -1</clus>
<clus scale="  106.464">  2  6  1 -1</clus>
<clus scale="   62.347">  1  3  2 -1</clus>
</clustering>
</event>
<event>
 6    0  0.8520634E+002  0.8624502E+02  0.7546771E-02  0.1312208E+00
         21   -1    0    0  503  501  0.00000000000E+00  0.00000000000E+00  0.31154528363E+03  0.31154528363E+03  0.00000000000E+00 0.  1.
         21   -1    0    0  506  502 -0.00000000000E+00 -0.00000000000E+00 -0.48120846545E+03  0.48120846545E+03  0.00000000000E+00 0. -1.
         21    1    1    2  503  505 -0.47007279419E+00  0.34731033904E+02  0.53588282251E+02  0.63860548691E+02  0.00000000000E+00 0.  1.
         21    1    1    2  504  502  0.10312620754E+03 -0.66322971656E+02 -0.37270420369E+03  0.39235465424E+03  0.00000000000E+00 0. -1.
         21    1    1    2  505  504 -0.72288796182E+02  0.11054809815E+02  0.23358565648E+03  0.24476547507E+03  0.00000000000E+00 0.  1.
         21    1    1    2  506  501 -0.30367338567E+02  0.20537127937E+02 -0.84132916856E+02  0.91773071074E+02  0.00000000000E+00 0. -1.
<scales pt_clust_3="34.73421" pt_clust_4="86.24502" pt_clust_5="14000.00000" pt_clust_6="36.96229"></scales>
<clustering>
<clus scale="   34.734">  1  3  2 -1</clus>
<clus scale="   36.962">  2  6  1 -1</clus>
<clus scale="   86.245">  2  4  1 -1</clus>
<clus scale="   34.734">  1  3  2 -1</clus>
</clustering>
</event>
<event>
 6    0  0.8520634E+002  0.7392796E+02  0.7546771E-02  0.1347223E+00
         21   -1    0    0  504  501  0.00000000000E+00  0.00000000000E+00  0.23174216849E+03  0.23174216849E+03  0.00000000000E+00 0. -1.
         21   -1    0    0  505  502 -0.00000000000E+00 -0.00000000000E+00 -0.26518859602E+03  0.26518859602E+03  0.00000000000E+00 0. -1.
         21    1    1    2  503  502  0.74017579378E+02  0.35153933834E+02 -0.10072811329E+03  0.12984819570E+03  0.00000000000E+00 0. -1.
         21    1    1    2  504  503  0.70095263025E+02 -0.35960179171E+01  0.14531015343E+03  0.16137322558E+03  0.00000000000E+00 0. -1.
         21    1    1    2  505  506 -0.51484242163E+02 -0.12732807385E+02 -0.95828659824E+02  0.10952572127E+03  0.00000000000E+00 0. -1.
         21    1    1    2  506  501 -0.92628600240E+02 -0.18825108531E+02  0.17800192142E+02  0.96183621963E+02  0.00000000000E+00 0. -1.
<scales pt_clust_3="45.69572" pt_clust_4="14000.00000" pt_clust_5="53.03538" pt_clust_6="73.92796"></scales>
<clustering>
<clus scale="   53.035">  2  5  1 -1</clus>
<clus scale="   45.696">  2  3  1 -1</clus>
<clus scale="   73.928">  2  6  1 -1</clus>
<clus scale="   73.928">  1  3  2 -1</clus>
</clustering>
</event>
<event>
 6    0  0.8520634E+002  0.2828002E+03  0.7546771E-02  0.1094169E+00
         21   -1    0    0  505  501  0.00000000000E+00  0.00000000000E+00  0.15065296563E+03  0.15065296563E+03  0.00000000000E+00 0. -1.
         21   -1    0    0  503  502 -0.00000000000E+00 -0.00000000000E+00 -0.15280212851E+04  0.15280212851E+04  0.00000000000E+00 0. -1.
         21    1    1    2  503  506 -0.62833135306E+02  0.11163253511E+03 -0.22428533185E+03  0.25829002279E+03  0.00000000000E+00 0.  1.
         21    1    1    2  504  501 -0.10583881595E+03  0.59366509806E+02  0.53362801856E+02  0.13256630820E+03  0.00000000000E+00 0. -1.
         21    1    1    2  505  502  0.21926430920E+03 -0.23502125613E+03 -0.11340920526E+04  0.11787606254E+04  0.00000000000E+00 0. -1.
         21    1    1    2  506  504 -0.50592357948E+02  0.64022211221E+02 -0.72353736798E+02  0.10905729430E+03  0.00000000000E+00 0. -1.
<scales pt_clust_3="45.35516" pt_clust_4="121.35171" pt_clust_5="277.03171" pt_clust_6="45.35516"></scales>
<clustering>
<clus scale="   45.355">  3  6 -1 -1</clus>
<clus scale="  121.352">  1  4  2 -1</clus>
<clus scale="  277.032">  2  5  1 -1</clus>
<clus scale="  121.352">  1  3  2 -1</clus>
</clustering>
</event>
<event>
 6    0  0.8520634E+002  0.6086528E+02  0.7546771E-02  0.1394236E+00
         21   -1    0    0  503  501  0.00000000000E+00  0.00000000000E+00  0.31185908803E+03  0.31185908803E+03  0.00000000000E+00 0.  1.
         21   -1    0    0  506  502 -0.00000000000E+00 -0.00000000000E+00 -0.38293888882E+03  0.38293888882E+03  0.00000000000E+00 0. -1.
         21    1    1    2  503  504 -0.78578295895E+02 -0.78743081205E+02  0.14259491650E+03  0.18085444875E+03  0.00000000000E+00 0.  1.
         21    1    1    2  504  502  0.77354757862E+02  0.41502960697E+02 -0.21449166620E+03  0.23176049961E+03  0.00000000000E+00 0. -1.
         21    1    1    2  505  501  0.32107053953E+02  0.48182496388E+02  0.13349958006E+03  0.14551478876E+03  0.00000000000E+00 0.  1.
         21    1    1    2  506  505 -0.30883515920E+02 -0.10942375879E+02 -0.13268263113E+03  0.13666823973E+03  0.00000000000E+00 0. -1.
<scales pt_clust_3="60.86528" pt_clust_4="14000.00000" pt_clust_5="57.26726" pt_clust_6="32.76472"></scales>
<clustering>
<clus scale="   32.765">  2  6  1 -1</clus>
<clus scale="   57.267">  1  5  2 -1</clus>
<clus scale="   60.865">  1  3  2 -1</clus>
<clus scale="   57.267">  1  3  2 -1</clus>
</clustering>
</event>
<event>
 6    0  0.8520634E+002  0.1915871E+03  0.7546771E-02  0.1157038E+00
         21   -1    0    0  506  501  0.00000000000E+00  0.00000000000E+00  0.82138611450E+03  0.82138611450E+03  0.00000000000E+00 0. -1.
         21   -1    0    0  505  502 -0.00000000000E+00 -0.00000000000E+00 -0.51327741553E+02  0.51327741553E+02  0.00000000000E+00 0. -1.
         21    1    1    2  503  501 -0.13917789925E+03 -0.65230044522E+02  0.19826418692E+03  0.25086676576E+03  0.00000000000E+00 0. -1.
         21    1    1    2  504  502  0.41129385746E+02  0.42744143818E+02  0.24153656891E+03  0.24871389652E+03  0.00000000000E+00 0. -1.
         21    1    1    2  505  503 -0.10648161226E+02 -0.31749897387E+02  0.17869370967E+02  0.37957262023E+02  0.00000000000E+00 0. -1.
         21    1    1    2  506  504  0.10869667473E+03  0.54235798090E+02  0.31238824615E+03  0.33517593175E+03  0.00000000000E+00 0. -1.
<scales pt_clust_3="32.51534" pt_clust_4="33.08534" pt_clust_5="32.51534" pt_clust_6="184.64731"></scales>
<clustering>
<clus scale="   32.515">  3  5 -1 -1</clus>
<clus scale="   33.085">  4  6 -1 -1</clus>
<clus scale="  184.647">  1  4  2 -1</clus>
<clus scale="  184.647">  1  3  2 -1</clus>
</clustering>
</event>
<event>
 6    0  0.8520634E+002  0.1112675E+03  0.7546771E-02  0.1258240E+00
         21   -1    0    0  504  501  0.00000000000E+00  0.00000000000E+00  0.16378822940E+03  0.16378822940E+03  0.00000000000E+00 0.  1.
         21   -1    0    0  505  502 -0.00000000000E+00 -0.00000000000E+00 -0.10804571893E+04  0.10804571893E+04  0.00000000000E+00 0. -1.
         21    1    1    2  503  502 -0.13371280713E+03  0.22357466203E+02 -0.65868423636E+03  0.67249081356E+03  0.00000000000E+00 0. -1.
         21    1    1    2  504  503  0.99007683696E+02 -0.38954593881E+02  0.46753419960E+02  0.11621473269E+03  0.00000000000E+00 0.  1.
         21    1    1    2  505  506  0.24910394986E+02 -0.50074195664E+02 -0.36249750957E+03  0.36678658276E+03  0.00000000000E+00 0. -1.
         21    1    1    2  506  501  0.97947284463E+01  0.66671323342E+02  0.57759366081E+02  0.88753289695E+02  0.00000000000E+00 0.  1.
<scales pt_clust_3="111.26752" pt_clust_4="14000.00000" pt_clust_5="55.92810" pt_clust_6="66.39638"></scales>
<clustering>
<clus scale="   55.928">  2  5  1 -1</clus>
<clus scale="   66.396">  1  6  2 -1</clus>
<clus scale="  111.268">  2  3  1 -1</clus>
<clus scale="   66.396">  1  3  2 -1</clus>
</clustering>
</event>
<event>
 6    0  0.8520634E+002  0.2061584E+03  0.7546771E-02  0.1144645E+00
         21   -1    0    0  504  501  0.00000000000E+00  0.00000000000E+00  0.27174791297E+03  0.27174791297E+03  0.00000000000E+00 0. -1.
         21   -1    0    0  506  502 -0.00000000000E+00 -0.00000000000E+00 -0.57051602756E+03  0.57051602756E+03  0.00000000000E+00 0. -1.
         21    1    1    2  503  502  0.24348370874E+01 -0.15934100454E+03 -0.14616351665E+03  0.21623889049E+03  0.00000000000E+00 0.  1.
         21    1    1    2  504  503 -0.10662574941E+02  0.22341398750E+03  0.19684804099E+02  0.22453283018E+03  0.00000000000E+00 0. -1.
         21    1    1    2  505  501 -0.49903060754E+01  0.29824130690E+02  0.10456499710E+03  0.10884953167E+03  0.00000000000E+00 0. -1.
         21    1    1    2  506  505  0.13218043929E+02 -0.93897113651E+02 -0.27685439913E+03  0.29264268820E+03  0.00000000000E+00 0. -1.
<scales pt_clust_3="206.15839" pt_clust_4="14000.00000" pt_clust_5="30.23875" pt_clust_6="93.37704"></scales>
<clustering>
<clus scale="   30.239">  1  5  2 -1</clus>
<clus scale="   93.377">  2  6  1 -1</clus>
<clus scale="  206.158">  2  3  1 -1</clus>
<clus scale="   30.239">  1  3  2 -1</clus>
</clustering>
</event>
<event>
 6    0  0.8520634E+002  0.1128647E+03  0.7546771E-02  0.1255355E+00
         21   -1    0    0  506  501  0.00000000000E+00  0.00000000000E+00  0.71682690290E+03  0.71682690290E+03  0.00000000000E+00 0. -1.
         21   -1    0    0  503  502 -0.00000000000E+00 -0.00000000000E+00 -0.83028028056E+02  0.83028028056E+02  0.00000000000E+00 0. -1.
         21    1    1    2  503  501  0.32176653343E+02  0.42552191548E+02  0.10173886301E+03  0.11487742281E+03  0.00000000000E+00 0.  1.
         21    1    1    2  504  505  0.11686529308E+02 -0.10090885879E+03 -0.12785157002E+02  0.10238473025E+03  0.00000000000E+00 0. -1.
         21    1    1    2  505  502 -0.27349200700E+02 -0.19577519233E+02  0.17434102195E+01  0.33679333685E+02  0.00000000000E+00 0. -1.
         21    1    1    2  506  504 -0.16513981951E+02  0.77934186470E+02  0.54310175862E+03  0.54891344421E+03  0.00000000000E+00 0. -1.
<scales pt_clust_3="50.21208" pt_clust_4="112.86473" pt_clust_5="33.63418" pt_clust_6="14000.00000"></scales>
<clustering>
<clus scale="   33.634">  2  5  1 -1</clus>
<clus scale="   50.212">  1  3  2 -1</clus>
<clus scale="  112.865">  2  4  1 -1</clus>
<clus scale="   50.212">  1  3  2 -1</clus>
</clustering>
</event>
<event>
 6    0  0.8520634E+002  0.9749820E+02  0.7546771E-02  0.1285647E+00
         21   -1    0    0  504  501  0.00000000000E+00  0.00000000000E+00  0.59657650587E+03  0.59657650587E+03  0.00000000000E+00 0. -1.
         21   -1    0    0  506  502 -0.00000000000E+00 -0.00000000000E+00 -0.40549806418E+03  0.40549806418E+03  0.00000000000E+00 0. -1.
         21    1    1    2  503  502  0.13501773709E+02 -0.37935407017E+02 -0.28557292581E+02  0.49365088457E+02  0.00000000000E+00 0. -1.
         21    1    1    2  504  503 -0.61131237696E+02 -0.12185906226E+03  0.85556109513E+02  0.16095498486E+03  0.00000000000E+00 0. -1.
         21    1    1    2  505  501  0.53301701300E+02  0.75971274134E+02  0.45276620704E+03  0.46217955828E+03  0.00000000000E+00 0. -1.
         21    1    1    2  506  505 -0.56722373127E+01  0.83823195142E+02 -0.31868658228E+03  0.32957493844E+03  0.00000000000E+00 0. -1.
<scales pt_clust_3="40.26652" pt_clust_4="14000.00000" pt_clust_5="97.49820" pt_clust_6="50.66583"></scales>
<clustering>
<clus scale="   40.267">  2  3  1 -1</clus>
<clus scale="   50.666">  2  6  1 -1</clus>
<clus scale="   97.498">  1  5  2 -1</clus>
<clus scale="   97.498">  1  3  2 -1</clus>
</clustering>
</event>
<event>
 6    0  0.8520634E+002  0.4215725E+03  0.7546771E-02  0.1036556E+00
         21   -1    0    0  505  501  0.00000000000E+00  0.00000000000E+00  0.14647859796E+04  0.14647859796E+04  0.00000000000E+00 0. -1.
         21   -1    0    0  503  502 -0.00000000000E+00 -0.00000000000E+00 -0.31064466517E+03  0.31064466517E+03  0.00000000000E+00 0. -1.
         21    1    1    2  503  504  0.97348836332E+01 -0.30410844717E+02 -0.19719754205E+03  0.19976600819E+03  0.00000000000E+00 0. -1.
         21    1    1    2  504  506 -0.10470872428E+03  0.14092161998E+03  0.24878825458E+03  0.30449698773E+03  0.00000000000E+00 0. -1.
         21    1    1    2  505  502  0.34659250022E+03 -0.15005295450E+03  0.64031544177E+03  0.74340171868E+03  0.00000000000E+00 0. -1.
         21    1    1    2  506  501 -0.25161865957E+03  0.39542179229E+02  0.46223516016E+03  0.52776593019E+03  0.00000000000E+00 0. -1.
<scales pt_clust_3="31.93098" pt_clust_4="135.97014" pt_clust_5="387.49519" pt_clust_6="135.97014"></scales>
<clustering>
<clus scale="   31.931">  2  3  1 -1</clus>
<clus scale="  135.970">  4  6 -1 -1</clus>
<clus scale="  387.495">  1  5  2 -1</clus>
<clus scale="  387.495">  1  3  2 -1</clus>
</clustering>
</event>
<event>
 6    0  0.8520634E+002  0.1009317E+03  0.7546771E-02  0.1278349E+00
         21   -1    0    0  506  501  0.00000000000E+00  0.00000000000E+00  0.10976347454E+03  0.10976347454E+03  0.00000000000E+00 0. -1.
         21   -1    0    0  505  502 -0.00000000000E+00 -0.00000000000E+00 -0.65024437447E+03  0.65024437447E+03  0.00000000000E+00 0.  1.
         21    1    1    2  503  502  0.92364214910E+02  0.44137777607E+02 -0.14585947655E+02  0.10340232820E+03  0.00000000000E+00 0. -1.
         21    1    1    2  504  501 -0.10178741674E+03 -0.49112615939E+02 -0.45466793856E+02  0.12181936051E+03  0.00000000000E+00 0. -1.
         21    1    1    2  505  504  0.21950832520E+02  0.41154837944E+02 -0.49245128072E+03  0.49465525734E+03  0.00000000000E+00 0.  1.
         21    1    1    2  506  503 -0.12527630694E+02 -0.36179999613E+02  0.12023122301E+02  0.40130902963E+02  0.00000000000E+00 0. -1.
<scales pt_clust_3="100.93171" pt_clust_4="14000.00000" pt_clust_5="46.14496" pt_clust_6="38.28752"></scales>
<clustering>
<clus scale="   38.288">  1  6  2 -1</clus>
<clus scale="   46.145">  2  5  1 -1</clus>
<clus scale="  100.932">  1  3  2 -1</clus>
<clus scale="   38.288">  1  3  2 -1</clus>
</clustering>
</event>
<event>
 6    0  0.8520634E+002  0.9014660E+02  0.7546771E-02  0.1302497E+00
         21   -1    0    0  505  501  0.00000000000E+00  0.00000000000E+00  0.10620402492E+03  0.10620402492E+03  0.00000000000E+00 0.  1.
         21   -1    0    0  504  502 -0.00000000000E+00 -0.00000000000E+00 -0.98294043911E+03  0.98294043911E+03  0.00000000000E+00 0. -1.
         21    1    1    2  503  501  0.74281408011E+02  0.17498174378E+02 -0.10438260143E+02  0.77025131987E+02  0.00000000000E+00 0.  1.
         21    1    1    2  504  503  0.65305948214E+02 -0.27397861948E+02 -0.96813320803E+02  0.11995136013E+03  0.00000000000E+00 0.  1.
         21    1    1    2  505  506 -0.10878601007E+03  0.27850815777E+02  0.91969381421E+01  0.11267052675E+03  0.00000000000E+00 0.  1.
         21    1    1    2  506  502 -0.30801346153E+02 -0.17951128207E+02 -0.77868177138E+03  0.77949744516E+03  0.00000000000E+00 0. -1.
<scales pt_clust_3="90.14660" pt_clust_4="61.30925" pt_clust_5="14000.00000" pt_clust_6="35.65061"></scales>
<clustering>
<clus scale="   35.651">  2  6  1 -1</clus>
<clus scale="   61.309">  2  4  1 -1</clus>
<clus scale="   90.147">  1  3  2 -1</clus>
<clus scale="   90.147">  1  3  2 -1</clus>
</clustering>
</event>
<event>
 6    0  0.8520634E+002  0.2050502E+03  0.7546771E-02  0.1145547E+00
         21   -1    0    0  505  501  0.00000000000E+00  0.00000000000E+00  0.97396655250E+03  0.97396655250E+03  0.00000000000E+00 0.  1.
         21   -1    0    0  501  502 -0.00000000000E+00 -0.00000000000E+00 -0.46589614414E+03  0.46589614414E+03  0.00000000000E+00 0. -1.
         21    1    1    2  503  502  0.25048967947E+02  0.64522799972E+02 -0.10234001111E+03  0.12354804889E+03  0.00000000000E+00 0. -1.
         21    1    1    2  504  506  0.66045179229E+02 -0.13425116063E+03  0.71287904892E+03  0.72841051490E+03  0.00000000000E+00 0.  1.
         21    1    1    2  505  504  0.47584894174E+02 -0.29237304549E+02  0.21795828015E+03  0.22499989782E+03  0.00000000000E+00 0.  1.
         21    1    1    2  506  503 -0.13867904135E+03  0.98965665208E+02 -0.32042690960E+03  0.36290423502E+03  0.00000000000E+00 0. -1.
<scales pt_clust_3="69.21447" pt_clust_4="32.86191" pt_clust_5="32.86191" pt_clust_6="197.87006"></scales>
<clustering>
<clus scale="   32.862">  4  5 -1 -1</clus>
<clus scale="   69.214">  2  3  1 -1</clus>
<clus scale="  197.870">  2  6  1 -1</clus>
<clus scale="  205.050">  1  3  2 -1</clus>
</clustering>
</event>
<event>
 6    0  0.8520634E+002  0.1067602E+03  0.7546771E-02  0.1266690E+00
         21   -1    0    0  504  501  0.00000000000E+00  0.00000000000E+00  0.35094753284E+03  0.35094753284E+03  0.00000000000E+00 0.  1.
         21   -1    0    0  503  502 -0.00000000000E+00 -0.00000000000E+00 -0.13821157488E+03  0.13821157488E+03  0.00000000000E+00 0.  1.
         21    1    1    2  503  505 -0.14342536126E+03 -0.22268178838E+02  0.17628042277E+02  0.14621030714E+03  0.00000000000E+00 0.  1.
         21    1    1    2  504  502  0.40377059574E+02  0.21560989528E+02  0.44755137917E+01  0.45991449564E+02  0.00000000000E+00 0.  1.
         21    1    1    2  505  506  0.70939091160E+02 -0.66591466236E+02  0.55921225606E+01  0.97457938952E+02  0.00000000000E+00 0.  1.
         21    1    1    2  506  501  0.32109210521E+02  0.67298655546E+02  0.18504027933E+03  0.19949941206E+03  0.00000000000E+00 0.  1.
<scales pt_clust_3="106.76015" pt_clust_4="45.77317" pt_clust_5="14000.00000" pt_clust_6="76.85232"></scales>
<clustering>
<clus scale="   45.773">  2  4  1 -1</clus>
<clus scale="   76.852">  1  6  2 -1</clus>
<clus scale="  106.760">  2  3  1 -1</clus>
<clus scale="   76.852">  1  3  2 -1</clus>
</clustering>
</event>
<event>
 6    0  0.8520634E+002  0.1208925E+03  0.7546771E-02  0.1241632E+00
         21   -1    0    0  503  501  0.00000000000E+00  0.00000000000E+00  0.11999104288E+03  0.11999104288E+03  0.00000000000E+00 0. -1.
         21   -1    0    0  506  502 -0.00000000000E+00 -0.00000000000E+00 -0.47044307738E+03  0.47044307738E+03  0.00000000000E+00 0. -1.
         21    1    1    2  503  504  0.21216982905E+02 -0.40333464159E+02  0.69508531401E+02  0.83116692861E+02  0.00000000000E+00 0. -1.
         21    1    1    2  504  505  0.18740110299E+02  0.57085864342E+02 -0.11920186655E+03  0.13348809921E+03  0.00000000000E+00 0. -1.
         21    1    1    2  505  502  0.22248780547E+02  0.52379786470E+02 -0.26991461685E+03  0.27584878222E+03  0.00000000000E+00 0. -1.
         21    1    1    2  506  501 -0.62205873750E+02 -0.69132186654E+02 -0.30844082507E+02  0.97980545958E+02  0.00000000000E+00 0. -1.
<scales pt_clust_3="45.57355" pt_clust_4="49.75157" pt_clust_5="49.75157" pt_clust_6="110.14883"></scales>
<clustering>
<clus scale="   45.574">  1  3  2 -1</clus>
<clus scale="   49.752">  4  5 -1 -1</clus>
<clus scale="  110.149">  1  6  2 -1</clus>
<clus scale="   45.574">  1  3  2 -1</clus>
</clustering>
</event>
<event>
 6    0  0.8520634E+002  0.8365888E+02  0.7546771E-02  0.1318977E+00
         21   -1    0    0  506  501  0.00000000000E+00  0.00000000000E+00  0.76685437064E+03  0.76685437064E+03  0.00000000000E+00 0.  1.
         21   -1    0    0  505  502 -0.00000000000E+00 -0.00000000000E+00 -0.39424272564E+02  0.39424272564E+02  0.00000000000E+00 0.  1.
         21    1    1    2  503  501 -0.43004838218E+02  0.10318733614E+01  0.35094226789E+03  0.35356888476E+03  0.00000000000E+00 0.  1.
         21    1    1    2  504  503 -0.58959015011E+02  0.46694823294E+02  0.11590306321E+03  0.13816689920E+03  0.00000000000E+00 0.  1.
         21    1    1    2  505  504 -0.11073883101E+02 -0.50709470749E+02  0.36215955776E+02  0.63290416047E+02  0.00000000000E+00 0.  1.
         21    1    1    2  506  502  0.11303773633E+03  0.29827740941E+01  0.22436881120E+03  0.25125244320E+03  0.00000000000E+00 0.  1.
<scales pt_clust_3="43.01722" pt_clust_4="83.65888" pt_clust_5="53.12692" pt_clust_6="14000.00000"></scales>
<clustering>
<clus scale="   43.017">  1  3  2 -1</clus>
<clus scale="   53.127">  2  5  1 -1</clus>
<clus scale="   83.659">  2  4  1 -1</clus>
<clus scale="   43.017">  1  3  2 -1</clus>
</clustering>
</event>
<event>
 6    0  0.8520634E+002  0.3615290E+03  0.7546771E-02  0.1057980E+00
         21   -1    0    0  503  501  0.00000000000E+00  0.00000000000E+00  0.31847404329E+03  0.31847404329E+03  0.00000000000E+00 0. -1.
         21   -1    0    0  506  502 -0.00000000000E+00 -0.00000000000E+00 -0.13501409604E+04  0.13501409604E+04  0.00000000000E+00 0. -1.
         21    1    1    2  503  505  0.16799422649E+03  0.15914051402E+03 -0.53872812667E+03  0.58632393589E+03  0.00000000000E+00 0. -1.
         21    1    1    2  504  501 -0.48466875470E+01 -0.44566767965E+03 -0.91002950080E+01  0.44578692941E+03  0.00000000000E+00 0. -1.
         21    1    1    2  505  502 -0.73671894784E+01  0.42722645763E+02 -0.27817111901E+03  0.28152916615E+03  0.00000000000E+00 0. -1.
         21    1    1    2  506  504 -0.15578034947E+03  0.24380451987E+03 -0.20566737644E+03  0.35497497225E+03  0.00000000000E+00 0. -1.
<scales pt_clust_3="244.77081" pt_clust_4="361.52897" pt_clust_5="43.35320" pt_clust_6="14000.00000"></scales>
<clustering>
<clus scale="   43.353">  2  5  1 -1</clus>
<clus scale="  244.771">  2  3  1 -1</clus>
<clus scale="  361.529">  1  4  2 -1</clus>
<clus scale="  361.529">  1  3  2 -1</clus>
</clustering>
</event>
<event>
 6    0  0.8520634E+002  0.1182187E+03  0.7546771E-02  0.1246065E+00
         21   -1    0    0  503  501  0.00000000000E+00  0.00000000000E+00  0.98172539053E+02  0.98172539053E+02  0.00000000000E+00 0.  1.
         21   -1    0    0  506  502 -0.00000000000E+00 -0.00000000000E+00 -0.30726230860E+03  0.30726230860E+03  0.00000000000E+00 0.  1.
         21    1    1    2  503  505 -0.49148547063E+02  0.11950124638E+03 -0.80784381480E+02  0.15238846366E+03  0.00000000000E+00 0.  1.
         21    1    1    2  504  502  0.30587190249E+02 -0.57379882499E+02 -0.95409955126E+02  0.11546032505E+03  0.00000000000E+00 0.  1.
         21    1    1    2  505  504  0.44485450543E+02 -0.17035664851E+02 -0.61845200538E+02  0.78064063541E+02  0.00000000000E+00 0.  1.
         21    1    1    2  506  501 -0.25924093730E+02 -0.45085699032E+02  0.28949767599E+02  0.59521995404E+02  0.00000000000E+00 0.  1.
<scales pt_clust_3="111.47524" pt_clust_4="33.68590" pt_clust_5="33.68590" pt_clust_6="52.00749"></scales>
<clustering>
<clus scale="   33.686">  4  5 -1 -1</clus>
<clus scale="   52.007">  1  6  2 -1</clus>
<clus scale="  111.475">  1  3  2 -1</clus>
<clus scale="   52.007">  1  3  2 -1</clus>
</clustering>
</event>
<event>
 6    0  0.8520634E+002  0.7637816E+02  0.7546771E-02  0.1339656E+00
         21   -1    0    0  506  501  0.00000000000E+00  0.00000000000E+00  0.20339412540E+03  0.20339412540E+03  0.00000000000E+00 0. -1.
         21   -1    0    0  505  502 -0.00000000000E+00 -0.00000000000E+00 -0.44292613292E+03  0.44292613292E+03  0.00000000000E+00 0. -1.
         21    1    1    2  503  504 -0.10591504331E+03  0.38732965013E+02  0.15725321791E+02  0.11386625805E+03  0.00000000000E+00 0. -1.
         21    1    1    2  504  502  0.60355353821E+01 -0.57753654900E+02 -0.22821496846E+03  0.23548669638E+03  0.00000000000E+00 0. -1.
         21    1    1    2  505  501  0.29358445289E+02  0.73043391772E+01 -0.15093073315E+03  0.15393296557E+03  0.00000000000E+00 0. -1.
         21    1    1    2  506  503  0.70521062635E+02  0.11716350710E+02  0.12388837229E+03  0.14303433832E+03  0.00000000000E+00 0. -1.
<scales pt_clust_3="76.37816" pt_clust_4="59.70266" pt_clust_5="30.25346" pt_clust_6="14000.00000"></scales>
<clustering>
<clus scale="   30.253">  2  5  1 -1</clus>
<clus scale="   59.703">  2  4  1 -1</clus>
<clus scale="   76.378">  2  3  1 -1</clus>
<clus scale="   76.378">  1  3  2 -1</clus>
</clustering>
</event>
<event>
 6    0  0.8520634E+002  0.1409823E+03  0.7546771E-02  0.1212013E+00
         21   -1    0    0  506  501  0.00000000000E+00  0.00000000000E+00  0.47859377474E+03  0.47859377474E+03  0.00000000000E+00 0. -1.
         21   -1    0    0  504  502 -0.00000000000E+00 -0.00000000000E+00 -0.47466051212E+03  0.47466051212E+03  0.00000000000E+00 0. -1.
         21    1    1    2  503  501 -0.21520504642E+02 -0.31984466182E+02  0.36918341637E+03  0.37119069643E+03  0.00000000000E+00 0. -1.
         21    1    1    2  504  505  0.15272700341E+02 -0.27780656117E+02 -0.23986681005E+03  0.24195269536E+03  0.00000000000E+00 0. -1.
         21    1    1    2  505  503  0.31513866679E+02  0.17271044122E+03 -0.87209112682E+01  0.17577848160E+03  0.00000000000E+00 0. -1.
         21    1    1    2  506  502 -0.25266062377E+02 -0.11294531892E+03 -0.11666243243E+03  0.16433241346E+03  0.00000000000E+00 0. -1.
<scales pt_clust_3="38.61301" pt_clust_4="31.70205" pt_clust_5="140.98230" pt_clust_6="14000.00000"></scales>
<clustering>
<clus scale="   31.702">  2  4  1 -1</clus>
<clus scale="   38.613">  1  3  2 -1</clus>
<clus scale="  140.982">  1  5  2 -1</clus>
<clus scale="   38.613">  1  3  2 -1</clus>
</clustering>
</event>
<event>
 6    0  0.8520634E+002  0.1112050E+03  0.7546771E-02  0.1258355E+00
         21   -1    0    0  503  501  0.00000000000E+00  0.00000000000E+00  0.29654690743E+02  0.29654690743E+02  0.00000000000E+00 0. -1.
         21   -1    0    0  505  502 -0.00000000000E+00 -0.00000000000E+00 -0.13008093191E+04  0.13008093191E+04  0.00000000000E+00 0. -1.
         21    1    1    2  503  506  0.50243940102E+02  0.84801695771E+02 -0.23411539614E+03  0.25401929028E+03  0.00000000000E+00 0. -1.
         21    1    1    2  504  501 -0.62743257320E+02  0.38196291219E+02 -0.21634932113E+03  0.22847910573E+03  0.00000000000E+00 0.  1.
         21    1    1    2  505  504  0.62200401618E+02 -0.14678019796E+01 -0.45866878861E+03  0.46286942224E+03  0.00000000000E+00 0.  1.
         21    1    1    2  506  502 -0.49701084399E+02 -0.12153018501E+03 -0.36202112249E+03  0.38509619160E+03  0.00000000000E+00 0. -1.
<scales pt_clust_3="111.20499" pt_clust_4="59.75590" pt_clust_5="62.21772" pt_clust_6="14000.00000"></scales>
<clustering>
<clus scale="   62.218">  2  5  1 -1</clus>
<clus scale="   59.756">  2  4  1 -1</clus>
<clus scale="  111.205">  1  3  2 -1</clus>
<clus scale="  111.205">  1  3  2 -1</clus>
</clustering>
</event>
<event>
 6    0  0.8520634E+002  0.1023974E+03  0.7546771E-02  0.1275334E+00
         21   -1    0    0  504  501  0.00000000000E+00  0.00000000000E+00  0.17485314383E+03  0.17485314383E+03  0.00000000000E+00 0.  1.
         21   -1    0    0  506  502 -0.00000000000E+00 -0.00000000000E+00 -0.50837871346E+03  0.50837871346E+03  0.00000000000E+00 0. -1.
         21    1    1    2  503  501  0.80645567302E+02 -0.28131339686E+02  0.82543255739E+02  0.11877907588E+03  0.00000000000E+00 0.  1.
         21    1    1    2  504  505  0.79263613703E+01  0.88078549343E+02  0.18415972533E+02  0.90331645082E+02  0.00000000000E+00 0.  1.
         21    1    1    2  505  502  0.37706545511E+02 -0.41437901110E+02 -0.19322113328E+03  0.20117974443E+03  0.00000000000E+00 0. -1.
         21    1    1    2  506  503 -0.12627847418E+03 -0.18509308547E+02 -0.24126366462E+03  0.27294139189E+03  0.00000000000E+00 0. -1.
<scales pt_clust_3="14000.00000" pt_clust_4="84.19114" pt_clust_5="56.02574" pt_clust_6="102.39742"></scales>
<clustering>
<clus scale="   56.026">  2  5  1 -1</clus>
<clus scale="   84.191">  1  4  2 -1</clus>
<clus scale="  102.397">  2  6  1 -1</clus>
<clus scale="   84.191">  1  3  2 -1</clus>
</clustering>
</event>
<event>
 6    0  0.8520634E+002  0.6086452E+02  0.7546771E-02  0.1394239E+00
         21   -1    0    0  505  501  0.00000000000E+00  0.00000000000E+00  0.10316680522E+04  0.10316680522E+04  0.00000000000E+00 0. -1.
         21   -1    0    0  504  502 -0.00000000000E+00 -0.00000000000E+00 -0.12072071383E+03  0.12072071383E+03  0.00000000000E+00 0. -1.
         21    1    1    2  503  502 -0.21178574361E+02  0.77142647496E+02 -0.74965705132E+02  0.10963291942E+03  0.00000000000E+00 0. -1.
         21    1    1    2  504  506  0.37960600499E+02 -0.20600393384E+02 -0.38365157271E+01  0.43360145881E+02  0.00000000000E+00 0. -1.
         21    1    1    2  505  503  0.31528195135E+02  0.26347706097E+02  0.23388640495E+03  0.23746805916E+03  0.00000000000E+00 0.  1.
         21    1    1    2  506  501 -0.48310221273E+02 -0.82889960209E+02  0.75586315428E+03  0.76192764156E+03  0.00000000000E+00 0. -1.
<scales pt_clust_3="60.86452" pt_clust_4="43.57637" pt_clust_5="41.08806" pt_clust_6="14000.00000"></scales>
<clustering>
<clus scale="   41.088">  1  5  2 -1</clus>
<clus scale="   43.576">  2  4  1 -1</clus>
<clus scale="   60.865">  2  3  1 -1</clus>
<clus scale="   41.088">  1  3  2 -1</clus>
</clustering>
</event>
<event>
 6    0  0.8520634E+002  0.1402990E+03  0.7546771E-02  0.1212927E+00
         21   -1    0    0  504  501  0.00000000000E+00  0.00000000000E+00  0.21799302940E+03  0.21799302940E+03  0.00000000000E+00 0. -1.
         21   -1    0    0  506  502 -0.00000000000E+00 -0.00000000000E+00 -0.23986362670E+03  0.23986362670E+03  0.00000000000E+00 0.  1.
         21    1    1    2  503  502  0.47652540494E+02  0.16119927743E+02 -0.10152465043E+03  0.11330433059E+03  0.00000000000E+00 0.  1.
         21    1    1    2  504  503  0.69406923762E+02  0.21219458052E+02 -0.45897697334E+02  0.85873075447E+02  0.00000000000E+00 0.  1.
         21    1    1    2  505  501  0.26234758242E+02  0.24505247391E+02  0.92396960572E+02  0.99126020865E+02  0.00000000000E+00 0. -1.
         21    1    1    2  506  505 -0.14329422250E+03 -0.61844633186E+02  0.33154789886E+02  0.15955322920E+03  0.00000000000E+00 0. -1.
<scales pt_clust_3="43.50279" pt_clust_4="43.50279" pt_clust_5="35.89944" pt_clust_6="129.77932"></scales>
<clustering>
<clus scale="   35.899">  1  5  2 -1</clus>
<clus scale="   43.503">  3  4 -1 -1</clus>
<clus scale="  129.779">  1  6  2 -1</clus>
<clus scale="   35.899">  1  3  2 -1</clus>
</clustering>
</event>
<event>
 6    0  0.8520634E+002  0.9444816E+02  0.7546771E-02  0.1292424E+00
         21   -1    0    0  503  501  0.00000000000E+00  0.00000000000E+00  0.11539168306E+03  0.11539168306E+03  0.00000000000E+00 0. -1.
         21   -1    0    0  506  502 -0.00000000000E+00 -0.00000000000E+00 -0.35021591322E+03  0.35021591322E+03  0.00000000000E+00 0. -1.
         21    1    1    2  503  504  0.92577220718E+02 -0.19925716889E+02  0.46217539202E+02  0.10537379617E+03  0.00000000000E+00 0. -1.
         21    1    1    2  504  502 -0.10383457235E+03  0.63106267656E+02 -0.24272460764E+03  0.27143922816E+03  0.00000000000E+00 0. -1.
         21    1    1    2  505  501 -0.19182467380E+02 -0.32273357966E+02  0.14115946505E+01  0.37570324575E+02  0.00000000000E+00 0. -1.
         21    1    1    2  506  505  0.30439819008E+02 -0.10907192801E+02 -0.39728756368E+02  0.51224247370E+02  0.00000000000E+00 0. -1.
<scales pt_clust_3="14000.00000" pt_clust_4="94.44816" pt_clust_5="37.22500" pt_clust_6="32.33496"></scales>
<clustering>
<clus scale="   32.335">  2  6  1 -1</clus>
<clus scale="   37.225">  1  5  2 -1</clus>
<clus scale="   94.448">  2  4  1 -1</clus>
<clus scale="   37.225">  1  3  2 -1</clus>
</clustering>
</event>
<event>
 6    0  0.8520634E+002  0.9148414E+02  0.7546771E-02  0.1299297E+00
         21   -1    0    0  505  501  0.00000000000E+00  0.00000000000E+00  0.36623447799E+03  0.36623447799E+03  0.00000000000E+00 0.  1.
         21   -1    0    0  504  502 -0.00000000000E+00 -0.00000000000E+00 -0.30332779434E+03  0.30332779434E+03  0.00000000000E+00 0. -1.
         21    1    1    2  503  502  0.32276133509E+02  0.60822612951E+02 -0.72949163497E+02  0.10031310730E+03  0.00000000000E+00 0. -1.
         21    1    1    2  504  506 -0.11489687472E+03  0.27468180296E+02 -0.14436369773E+03  0.18653865544E+03  0.00000000000E+00 0. -1.
         21    1    1    2  505  503 -0.70189071638E+01 -0.76546994084E+02 -0.11118280466E+02  0.77668034104E+02  0.00000000000E+00 0. -1.
         21    1    1    2  506  501  0.89639648379E+02 -0.11743799164E+02  0.29133782534E+03  0.30504247549E+03  0.00000000000E+00 0.  1.
<scales pt_clust_3="68.85593" pt_clust_4="14000.00000" pt_clust_5="64.08797" pt_clust_6="91.48414"></scales>
<clustering>
<clus scale="   68.856">  2  3  1 -1</clus>
<clus scale="   64.088">  2  5  1 -1</clus>
<clus scale="   91.484">  1  6  2 -1</clus>
<clus scale="   91.484">  1  3  2 -1</clus>
</clustering>
</event>
<event>
 6    0  0.8520634E+002  0.1243506E+03  0.7546771E-02  0.1236088E+00
         21   -1    0    0  505  501  0.00000000000E+00  0.00000000000E+00  0.90328283446E+02  0.90328283446E+02  0.00000000000E+00 0.  1.
         21   -1    0    0  506  502 -0.00000000000E+00 -0.00000000000E+00 -0.61045128797E+03  0.61045128797E+03  0.00000000000E+00 0.  1.
         21    1    1    2  503  502  0.36255851469E+02 -0.33932800052E+02 -0.85253372057E+02  0.98661335549E+02  0.00000000000E+00 0. -1.
         21    1    1    2  504  503  0.63612645631E+02 -0.59810482108E+02 -0.44260503831E+03  0.45113532603E+03  0.00000000000E+00 0.  1.
         21    1    1    2  505  504 -0.83589322247E+02  0.63033669785E+02  0.30967409053E+02  0.10917599894E+03  0.00000000000E+00 0.  1.
         21    1    1    2  506  501 -0.16279174852E+02  0.30709612375E+02 -0.23232003215E+02  0.41806910906E+02  0.00000000000E+00 0.  1.
<scales pt_clust_3="46.94820" pt_clust_4="124.35057" pt_clust_5="14000.00000" pt_clust_6="34.75762"></scales>
<clustering>
<clus scale="   34.758">  1  6  2 -1</clus>
<clus scale="   46.948">  2  3  1 -1</clus>
<clus scale="  124.351">  2  4  1 -1</clus>
<clus scale="   34.758">  1  3  2 -1</clus>
</clustering>
</event>
<event>
 6    0  0.8520634E+002  0.8092460E+02  0.7546771E-02  0.1326448E+00
         21   -1    0    0  504  501  0.00000000000E+00  0.00000000000E+00  0.20038913846E+03  0.20038913846E+03  0.00000000000E+00 0. -1.
         21   -1    0    0  506  502 -0.00000000000E+00 -0.00000000000E+00 -0.75090482960E+03  0.75090482960E+03  0.00000000000E+00 0. -1.
         21    1    1    2  503  502 -0.40822212836E+02  0.47221815912E+02 -0.63822752641E+03  0.64127274106E+03  0.00000000000E+00 0. -1.
         21    1    1    2  504  505  0.39487141510E+02  0.10346283535E+02 -0.10540637780E+02  0.42159043780E+02  0.00000000000E+00 0.  1.
         21    1    1    2  505  503 -0.18234509103E+02 -0.10620517158E+03 -0.43893925006E+02  0.11635597297E+03  0.00000000000E+00 0. -1.
         21    1    1    2  506  501  0.19569580429E+02  0.48637072134E+02  0.14214639806E+03  0.15150621025E+03  0.00000000000E+00 0. -1.
<scales pt_clust_3="62.27305" pt_clust_4="40.82009" pt_clust_5="14000.00000" pt_clust_6="80.92460"></scales>
<clustering>
<clus scale="   40.820">  1  4  2 -1</clus>
<clus scale="   62.273">  2  3  1 -1</clus>
<clus scale="   80.925">  1  6  2 -1</clus>
<clus scale="   40.820">  1  3  2 -1</clus>
</clustering>
</event>
<event>
 6    0  0.8520634E+002  0.1257182E+03  0.7546771E-02  0.1233951E+00
         21   -1    0    0  504  501  0.00000000000E+00  0.00000000000E+00  0.25235324611E+03  0.25235324611E+03  0.00000000000E+00 0.  1.
         21   -1    0    0  505  502 -0.00000000000E+00 -0.00000000000E+00 -0.16526960085E+03  0.16526960085E+03  0.00000000000E+00 0.  1.
         21    1    1    2  503  506  0.70700779543E+01  0.68117407067E+02  0.88437294970E+01  0.69051999965E+02  0.00000000000E+00 0.  1.
         21    1    1    2  504  502  0.10952365777E+03 -0.58540201794E+01 -0.56175709390E+01  0.10982376003E+03  0.00000000000E+00 0.  1.
         21    1    1    2  505  503 -0.14992756036E+03 -0.73111830790E+02  0.22817695657E+02  0.16835753738E+03  0.00000000000E+00 0.  1.
         21    1    1    2  506  501  0.33333824638E+02  0.10848443902E+02  0.61039791038E+02  0.70389549580E+02  0.00000000000E+00 0.  1.
<scales pt_clust_3="71.76529" pt_clust_4="125.71817" pt_clust_5="14000.00000" pt_clust_6="35.05471"></scales>
<clustering>
<clus scale="   35.055">  1  6  2 -1</clus>
<clus scale="   71.765">  1  3  2 -1</clus>
<clus scale="  125.718">  2  4  1 -1</clus>
<clus scale="   35.055">  1  3  2 -1</clus>
</clustering>
</event>
<event>
 6    0  0.8520634E+002  0.1078443E+03  0.7546771E-02  0.1264615E+00
         21   -1    0    0  503  501  0.00000000000E+00  0.00000000000E+00  0.24877932928E+03  0.24877932928E+03  0.00000000000E+00 0.  1.
         21   -1    0    0  504  502 -0.00000000000E+00 -0.00000000000E+00 -0.90921719317E+03  0.90921719317E+03  0.00000000000E+00 0.  1.
         21    1    1    2  503  505  0.62339451517E+02  0.92995704884E+02  0.15264633721E+03  0.18930217275E+03  0.00000000000E+00 0.  1.
         21    1    1    2  504  506 -0.31651431458E+02 -0.25523750748E+02 -0.63961365266E+03  0.64090475083E+03  0.00000000000E+00 0.  1.
         21    1    1    2  505  502 -0.61215095093E+02 -0.37287786917E+02 -0.23896272366E+03  0.24948116205E+03  0.00000000000E+00 0.  1.
         21    1    1    2  506  501  0.30527075034E+02 -0.30184167219E+02  0.65492175229E+02  0.78308436819E+02  0.00000000000E+00 0.  1.
<scales pt_clust_3="14000.00000" pt_clust_4="40.66048" pt_clust_5="107.84429" pt_clust_6="42.83216"></scales>
<clustering>
<clus scale="   40.660">  2  4  1 -1</clus>
<clus scale="   42.832">  1  6  2 -1</clus>
<clus scale="  107.844">  2  5  1 -1</clus>
<clus scale="   42.832">  1  3  2 -1</clus>
</clustering>
</event>
<event>
 6    0  0.8520634E+002  0.8049940E+02  0.7546771E-02  0.1327640E+00
         21   -1    0    0  505  501  0.00000000000E+00  0.00000000000E+00  0.44783186797E+03  0.44783186797E+03  0.00000000000E+00 0. -1.
         21   -1    0    0  506  502 -0.00000000000E+00 -0.00000000000E+00 -0.12102159488E+04  0.12102159488E+04  0.00000000000E+00 0.  1.
         21    1    1    2  503  501  0.62287593995E+02 -0.12074046124E+02 -0.44516709487E+03  0.44966573064E+03  0.00000000000E+00 0.  1.
         21    1    1    2  504  502  0.41122600845E+02  0.80814411689E+02 -0.65285081982E+03  0.65911776670E+03  0.00000000000E+00 0.  1.
         21    1    1    2  505  504 -0.62996443025E+02 -0.50097426147E+02  0.43394593056E+03  0.44134722679E+03  0.00000000000E+00 0. -1.
         21    1    1    2  506  503 -0.40413751815E+02 -0.18642939418E+02 -0.98312096693E+02  0.10791709263E+03  0.00000000000E+00 0. -1.
<scales pt_clust_3="49.96350" pt_clust_4="80.49940" pt_clust_5="14000.00000" pt_clust_6="44.50652"></scales>
<clustering>
<clus scale="   44.507">  2  6  1 -1</clus>
<clus scale="   49.964">  2  3  1 -1</clus>
<clus scale="   80.499">  2  4  1 -1</clus>
<clus scale="   80.499">  1  3  2 -1</clus>
</clustering>
</event>
<event>
 6    0  0.8520634E+002  0.1000485E+03  0.7546771E-02  0.1280194E+00
         21   -1    0    0  505  501  0.00000000000E+00  0.00000000000E+00  0.44982756301E+03  0.44982756301E+03  0.00000000000E+00 0. -1.
         21   -1    0    0  501  502 -0.00000000000E+00 -0.00000000000E+00 -0.27893678424E+03  0.27893678424E+03  0.00000000000E+00 0. -1.
         21    1    1    2  503  502  0.13239484467E+02 -0.26972299191E+02 -0.25292587519E+02  0.39274722864E+02  0.00000000000E+00 0.  1.
         21    1    1    2  504  503  0.95996849246E+02 -0.21953504114E+02 -0.20153710707E+03  0.22430906566E+03  0.00000000000E+00 0. -1.
         21    1    1    2  505  506 -0.34956817072E+02  0.64438142018E+02  0.38033063009E+03  0.38733143610E+03  0.00000000000E+00 0. -1.
         21    1    1    2  506  504 -0.74279516641E+02 -0.15512338713E+02  0.17389843278E+02  0.77849122628E+02  0.00000000000E+00 0.  1.
<scales pt_clust_3="30.04645" pt_clust_4="100.04846" pt_clust_5="72.88325" pt_clust_6="14000.00000"></scales>
<clustering>
<clus scale="   30.046">  2  3  1 -1</clus>
<clus scale="   72.883">  1  5  2 -1</clus>
<clus scale="  100.048">  2  4  1 -1</clus>
<clus scale="   72.883">  1  3  2 -1</clus>
</clustering>
</event>
<event>
 6    0  0.8520634E+002  0.8758263E+02  0.7546771E-02  0.1308814E+00
         21   -1    0    0  506  501  0.00000000000E+00  0.00000000000E+00  0.75160626170E+02  0.75160626170E+02  0.00000000000E+00 0.  1.
         21   -1    0    0  503  502 -0.00000000000E+00 -0.00000000000E+00 -0.13945798461E+04  0.13945798461E+04  0.00000000000E+00 0.  1.
         21    1    1    2  503  505  0.29479355266E+02  0.69221588668E+02 -0.11501824206E+03  0.13744037519E+03  0.00000000000E+00 0.  1.
         21    1    1    2  504  502 -0.46078941479E+02  0.29403660670E+02 -0.11247917652E+04  0.11261191585E+04  0.00000000000E+00 0.  1.
         21    1    1    2  505  501  0.74366770564E+02 -0.73892630046E+01 -0.49462689423E+01  0.74896484219E+02  0.00000000000E+00 0.  1.
         21    1    1    2  506  504 -0.57767184351E+02 -0.91235986333E+02 -0.74662943739E+02  0.13128445436E+03  0.00000000000E+00 0.  1.
<scales pt_clust_3="87.58263" pt_clust_4="54.66118" pt_clust_5="67.59934" pt_clust_6="14000.00000"></scales>
<clustering>
<clus scale="   54.661">  2  4  1 -1</clus>
<clus scale="   67.599">  1  5  2 -1</clus>
<clus scale="   87.583">  2  3  1 -1</clus>
<clus scale="   67.599">  1  3  2 -1</clus>
</clustering>
</event>
<event>
 6    0  0.8520634E+002  0.1766484E+03  0.7546771E-02  0.1171087E+00
         21   -1    0    0  504  501  0.00000000000E+00  0.00000000000E+00  0.19409193618E+04  0.19409193618E+04  0.00000000000E+00 0.  1.
         21   -1    0    0  503  502 -0.00000000000E+00 -0.00000000000E+00 -0.21872646168E+04  0.21872646168E+04  0.00000000000E+00 0. -1.
         21    1    1    2  503  501  0.11508262834E+03 -0.14244558895E+03  0.36526735267E+03  0.40860126784E+03  0.00000000000E+00 0.  1.
         21    1    1    2  504  505 -0.49376293799E+02  0.12129842805E+01  0.15499960013E+04  0.15507827358E+04  0.00000000000E+00 0.  1.
         21    1    1    2  505  506 -0.80637274863E+02  0.81278740841E+02 -0.13550315211E+04  0.13598599292E+04  0.00000000000E+00 0. -1.
         21    1    1    2  506  502  0.14930940320E+02  0.59953863832E+02 -0.80657708794E+03  0.80894004571E+03  0.00000000000E+00 0. -1.
<scales pt_clust_3="155.97139" pt_clust_4="49.39119" pt_clust_5="60.84699" pt_clust_6="60.84699"></scales>
<clustering>
<clus scale="   49.391">  1  4  2 -1</clus>
<clus scale="   60.847">  5  6 -1 -1</clus>
<clus scale="  155.971">  1  3  2 -1</clus>
<clus scale="   49.391">  1  3  2 -1</clus>
</clustering>
</event>
<event>
 6    0  0.8520634E+002  0.9628567E+02  0.7546771E-02  0.1288306E+00
         21   -1    0    0  504  501  0.00000000000E+00  0.00000000000E+00  0.10241093711E+04  0.10241093711E+04  0.00000000000E+00 0. -1.
         21   -1    0    0  503  502 -0.00000000000E+00 -0.00000000000E+00 -0.13539785729E+03  0.13539785729E+03  0.00000000000E+00 0. -1.
         21    1    1    2  503  505 -0.26600528356E+02  0.10501673045E+03  0.25784689362E+03  0.27968039319E+03  0.00000000000E+00 0. -1.
         21    1    1    2  504  506  0.10714073656E+02 -0.86714229319E+02  0.20560131713E+03  0.22339662161E+03  0.00000000000E+00 0. -1.
         21    1    1    2  505  501 -0.40207372382E+02 -0.27937949629E+01  0.53271097468E+03  0.53423348887E+03  0.00000000000E+00 0. -1.
         21    1    1    2  506  502  0.56093827083E+02 -0.15508706163E+02 -0.10744767160E+03  0.12219672474E+03  0.00000000000E+00 0. -1.
<scales pt_clust_3="14000.00000" pt_clust_4="96.28567" pt_clust_5="40.30432" pt_clust_6="57.62732"></scales>
<clustering>
<clus scale="   40.304">  1  5  2 -1</clus>
<clus scale="   57.627">  2  6  1 -1</clus>
<clus scale="   96.286">  1  4  2 -1</clus>
<clus scale="   40.304">  1  3  2 -1</clus>
</clustering>
</event>
<event>
 6    0  0.8520634E+002  0.1039446E+03  0.7546771E-02  0.1272213E+00
         21   -1    0    0  505  501  0.00000000000E+00  0.00000000000E+00  0.18018786624E+04  0.18018786624E+04  0.00000000000E+00 0.  1.
         21   -1    0    0  504  502 -0.00000000000E+00 -0.00000000000E+00 -0.10384900768E+04  0.10384900768E+04  0.00000000000E+00 0.  1.
         21    1    1    2  503  506  0.81635300640E+02 -0.11420565606E+03  0.38211215882E+03  0.40708347560E+03  0.00000000000E+00 0.  1.
         21    1    1    2  504  503 -0.35368072504E+02  0.40420548004E+02 -0.83992616387E+03  0.84164165891E+03  0.00000000000E+00 0.  1.
         21    1    1    2  505  502 -0.71033096428E+02 -0.25971258261E+02 -0.17553176436E+03  0.19113243404E+03  0.00000000000E+00 0.  1.
         21    1    1    2  506  501  0.24765868292E+02  0.99756366315E+02  0.13967343550E+04  0.14005111707E+04  0.00000000000E+00 0.  1.
<scales pt_clust_3="103.94457" pt_clust_4="53.70960" pt_clust_5="14000.00000" pt_clust_6="103.07880"></scales>
<clustering>
<clus scale="   53.710">  2  4  1 -1</clus>
<clus scale="  103.079">  1  6  2 -1</clus>
<clus scale="  103.945">  1  3  2 -1</clus>
<clus scale="  103.079">  1  3  2 -1</clus>
</clustering>
</event>
<event>
 6    0  0.8520634E+002  0.8372268E+02  0.7546771E-02  0.1318807E+00
         21   -1    0    0  505  501  0.00000000000E+00  0.00000000000E+00  0.24182894271E+04  0.24182894271E+04  0.00000000000E+00 0. -1.
         21   -1    0    0  503  502 -0.00000000000E+00 -0.00000000000E+00 -0.81640606160E+02  0.81640606160E+02  0.00000000000E+00 0.  1.
         21    1    1    2  503  506  0.69999461727E+02  0.45411075547E+02 -0.40341799861E+02  0.92679831897E+02  0.00000000000E+00 0.  1.
         21    1    1    2  504  501 -0.22150961036E+02  0.39384612500E+02  0.17051789977E+04  0.17057776019E+04  0.00000000000E+00 0. -1.
         21    1    1    2  505  502  0.40300174248E+02 -0.55537769414E+02  0.94767730781E+02  0.11700201141E+03  0.00000000000E+00 0.  1.
         21    1    1    2  506  504 -0.88148674940E+02 -0.29257918633E+02  0.57704389223E+03  0.58447058802E+03  0.00000000000E+00 0.  1.
<scales pt_clust_3="83.72268" pt_clust_4="45.18642" pt_clust_5="61.95608" pt_clust_6="14000.00000"></scales>
<clustering>
<clus scale="   45.186">  1  4  2 -1</clus>
<clus scale="   61.956">  1  5  2 -1</clus>
<clus scale="   83.723">  2  3  1 -1</clus>
<clus scale="   45.186">  1  3  2 -1</clus>
</clustering>
</event>
<event>
 6    0  0.8520634E+002  0.1004168E+03  0.7546771E-02  0.1279422E+00
         21   -1    0    0  506  501  0.00000000000E+00  0.00000000000E+00  0.16153451252E+03  0.16153451252E+03  0.00000000000E+00 0. -1.
         21   -1    0    0  504  502 -0.00000000000E+00 -0.00000000000E+00 -0.62718705525E+03  0.62718705525E+03  0.00000000000E+00 0.  1.
         21    1    1    2  503  501 -0.14595033766E+02  0.10660548548E+03  0.11333515085E+03  0.15627732069E+03  0.00000000000E+00 0. -1.
         21    1    1    2  504  503  0.41833194781E+02 -0.50430559995E+02 -0.36071615545E+03  0.36661887890E+03  0.00000000000E+00 0.  1.
         21    1    1    2  505  502  0.43526872330E+02  0.99263031861E+01 -0.11921446341E+03  0.12729967948E+03  0.00000000000E+00 0.  1.
         21    1    1    2  506  505 -0.70765033345E+02 -0.66101228667E+02 -0.99057074724E+02  0.13852568870E+03  0.00000000000E+00 0. -1.
<scales pt_clust_3="14000.00000" pt_clust_4="85.06974" pt_clust_5="44.64437" pt_clust_6="100.41681"></scales>
<clustering>
<clus scale="   44.644">  2  5  1 -1</clus>
<clus scale="   85.070">  2  4  1 -1</clus>
<clus scale="  100.417">  2  6  1 -1</clus>
<clus scale="  100.417">  1  3  2 -1</clus>
</clustering>
</event>
<event>
 6    0  0.8520634E+002  0.9952227E+02  0.7546771E-02  0.1281304E+00
         21   -1    0    0  506  501  0.00000000000E+00  0.00000000000E+00  0.12111615765E+03  0.12111615765E+03  0.00000000000E+00 0.  1.
         21   -1    0    0  504  502 -0.00000000000E+00 -0.00000000000E+00 -0.12167373321E+04  0.12167373321E+04  0.00000000000E+00 0.  1.
         21    1    1    2  503  505  0.11134250082E+03  0.93630634105E+01 -0.47658965468E+02  0.12147508566E+03  0.00000000000E+00 0.  1.
         21    1    1    2  504  503 -0.70165998549E+02 -0.71173229050E+02 -0.90611624678E+02  0.13490501256E+03  0.00000000000E+00 0.  1.
         21    1    1    2  505  501 -0.19918214831E+02  0.35303885755E+02  0.55127035733E+02  0.68425797037E+02  0.00000000000E+00 0.  1.
         21    1    1    2  506  502 -0.21258287442E+02  0.26506279884E+02 -0.10124776201E+04  0.10130475945E+04  0.00000000000E+00 0.  1.
<scales pt_clust_3="99.52227" pt_clust_4="14000.00000" pt_clust_5="41.62864" pt_clust_6="33.97790"></scales>
<clustering>
<clus scale="   33.978">  2  6  1 -1</clus>
<clus scale="   41.629">  1  5  2 -1</clus>
<clus scale="   99.522">  1  3  2 -1</clus>
<clus scale="   41.629">  1  3  2 -1</clus>
</clustering>
</event>
<event>
 6    0  0.8520634E+002  0.7048837E+02  0.7546771E-02  0.1358440E+00
         21   -1    0    0  503  501  0.00000000000E+00  0.00000000000E+00  0.18858819545E+03  0.18858819545E+03  0.00000000000E+00 0. -1.
         21   -1    0    0  501  502 -0.00000000000E+00 -0.00000000000E+00 -0.18371779726E+04  0.18371779726E+04  0.00000000000E+00 0. -1.
         21    1    1    2  503  506  0.17398455411E+02 -0.67653013209E+02  0.16913309068E+03  0.18299081619E+03  0.00000000000E+00 0. -1.
         21    1    1    2  504  502 -0.28402613172E+02 -0.21076190469E+02 -0.76782608262E+03  0.76864023274E+03  0.00000000000E+00 0. -1.
         21    1    1    2  505  504  0.87739712832E+02  0.26722349886E+01 -0.70573155045E+03  0.71116975424E+03  0.00000000000E+00 0. -1.
         21    1    1    2  506  505 -0.76735555070E+02  0.86056968690E+02 -0.34416523481E+03  0.36296536491E+03  0.00000000000E+00 0. -1.
<scales pt_clust_3="14000.00000" pt_clust_4="35.36827" pt_clust_5="69.83534" pt_clust_6="70.48837"></scales>
<clustering>
<clus scale="   35.368">  2  4  1 -1</clus>
<clus scale="   69.835">  2  5  1 -1</clus>
<clus scale="   70.488">  2  6  1 -1</clus>
<clus scale="   70.488">  1  3  2 -1</clus>
</clustering>
</event>
<event>
 6    0  0.8520634E+002  0.1366143E+03  0.7546771E-02  0.1217959E+00
         21   -1    0    0  504  501  0.00000000000E+00  0.00000000000E+00  0.95054514838E+03  0.95054514838E+03  0.00000000000E+00 0.  1.
         21   -1    0    0  506  502 -0.00000000000E+00 -0.00000000000E+00 -0.65288530752E+02  0.65288530752E+02  0.00000000000E+00 0. -1.
         21    1    1    2  503  502  0.84819300909E+02  0.51387042014E+02  0.52008513072E+03  0.52945583866E+03  0.00000000000E+00 0.  1.
         21    1    1    2  504  503  0.35511557733E+02 -0.27352259180E+01  0.33478835463E+03  0.33667758255E+03  0.00000000000E+00 0.  1.
         21    1    1    2  505  501 -0.88244600501E+02 -0.64876844154E+02  0.30684312713E+02  0.11374375355E+03  0.00000000000E+00 0. -1.
         21    1    1    2  506  505 -0.32086258142E+02  0.16225028058E+02 -0.30118044101E+00  0.35956504372E+02  0.00000000000E+00 0.  1.
<scales pt_clust_3="30.15494" pt_clust_4="30.15494" pt_clust_5="127.01008" pt_clust_6="35.95524"></scales>
<clustering>
<clus scale="   30.155">  3  4 -1 -1</clus>
<clus scale="   35.955">  2  6  1 -1</clus>
<clus scale="  127.010">  2  5  1 -1</clus>
<clus scale="  136.614">  1  3  2 -1</clus>
</clustering>
</event>
<event>
 6    0  0.8520634E+002  0.6831152E+02  0.7546771E-02  0.1365931E+00
         21   -1    0    0  502  501  0.00000000000E+00  0.00000000000E+00  0.12804905533E+04  0.12804905533E+04  0.00000000000E+00 0.  1.
         21   -1    0    0  503  502 -0.00000000000E+00 -0.00000000000E+00 -0.51878782144E+02  0.51878782144E+02  0.00000000000E+00 0.  1.
         21    1    1    2  503  504  0.30082374251E+02  0.36923815102E+01 -0.20942521514E+02  0.36839817171E+02  0.00000000000E+00 0.  1.
         21    1    1    2  504  506  0.20708018849E+02  0.37804723742E+02  0.38824662798E+02  0.58011840371E+02  0.00000000000E+00 0. -1.
         21    1    1    2  505  501  0.57789657407E+00  0.64696909101E+02  0.93974790948E+03  0.94197248228E+03  0.00000000000E+00 0.  1.
         21    1    1    2  506  505 -0.51368289675E+02 -0.10619401435E+03  0.27098172044E+03  0.29554519567E+03  0.00000000000E+00 0.  1.
<scales pt_clust_3="30.30813" pt_clust_4="51.52163" pt_clust_5="14000.00000" pt_clust_6="68.31152"></scales>
<clustering>
<clus scale="   30.308">  2  3  1 -1</clus>
<clus scale="   51.522">  2  4  1 -1</clus>
<clus scale="   68.312">  2  6  1 -1</clus>
<clus scale="   68.312">  1  3  2 -1</clus>
</clustering>
</event>
<event>
 6    0  0.8520634E+002  0.9231839E+02  0.7546771E-02  0.1297333E+00
         21   -1    0    0  504  501  0.00000000000E+00  0.00000000000E+00  0.10870291658E+04  0.10870291658E+04  0.00000000000E+00 0.  1.
         21   -1    0    0  505  502 -0.00000000000E+00 -0.00000000000E+00 -0.28555043586E+02  0.28555043586E+02  0.00000000000E+00 0.  1.
         21    1    1    2  503  506  0.10696030214E+03  0.22975230628E+01  0.45054728364E+03  0.46307519869E+03  0.00000000000E+00 0.  1.
         21    1    1    2  504  503 -0.81339518372E+02 -0.24431195876E+02  0.48074155079E+03  0.48818586546E+03  0.00000000000E+00 0.  1.
         21    1    1    2  505  501 -0.35346848214E+02  0.55252408161E+02  0.10323742171E+03  0.12231186994E+03  0.00000000000E+00 0.  1.
         21    1    1    2  506  502  0.97260644499E+01 -0.33118735348E+02  0.23947866021E+02  0.42011275245E+02  0.00000000000E+00 0.  1.
<scales pt_clust_3="92.31839" pt_clust_4="14000.00000" pt_clust_5="49.62714" pt_clust_6="34.51734"></scales>
<clustering>
<clus scale="   34.517">  2  6  1 -1</clus>
<clus scale="   49.627">  2  5  1 -1</clus>
<clus scale="   92.318">  2  3  1 -1</clus>
<clus scale="   92.318">  1  3  2 -1</clus>
</clustering>
</event>
<event>
 6    0  0.8520634E+002  0.8522444E+02  0.7546771E-02  0.1314847E+00
         21   -1    0    0  504  501  0.00000000000E+00  0.00000000000E+00  0.70435308229E+03  0.70435308229E+03  0.00000000000E+00 0. -1.
         21   -1    0    0  506  502 -0.00000000000E+00 -0.00000000000E+00 -0.19792275317E+03  0.19792275317E+03  0.00000000000E+00 0. -1.
         21    1    1    2  503  502 -0.22107671147E+02 -0.30567082436E+02 -0.15638390974E+03  0.16086958344E+03  0.00000000000E+00 0. -1.
         21    1    1    2  504  503 -0.12199319468E+02 -0.33684575617E+02  0.11518991551E+03  0.12063246108E+03  0.00000000000E+00 0. -1.
         21    1    1    2  505  501 -0.66475341899E+02  0.37703926180E+01  0.48116168107E+03  0.48574659059E+03  0.00000000000E+00 0. -1.
         21    1    1    2  506  505  0.10078233251E+03  0.60481265435E+02  0.66462642275E+02  0.13502720035E+03  0.00000000000E+00 0. -1.
<scales pt_clust_3="37.85569" pt_clust_4="35.82561" pt_clust_5="14000.00000" pt_clust_6="85.22444"></scales>
<clustering>
<clus scale="   35.826">  1  4  2 -1</clus>
<clus scale="   37.856">  2  3  1 -1</clus>
<clus scale="   85.224">  2  6  1 -1</clus>
<clus scale="   35.826">  1  3  2 -1</clus>
</clustering>
</event>
<event>
 6    0  0.8520634E+002  0.8990754E+02  0.7546771E-02  0.1303076E+00
         21   -1    0    0  503  501  0.00000000000E+00  0.00000000000E+00  0.18136416387E+03  0.18136416387E+03  0.00000000000E+00 0.  1.
         21   -1    0    0  505  502 -0.00000000000E+00 -0.00000000000E+00 -0.31486447804E+03  0.31486447804E+03  0.00000000000E+00 0.  1.
         21    1    1    2  503  506 -0.11289279911E+03 -0.33747155829E+02  0.11613606213E+03  0.16544255663E+03  0.00000000000E+00 0.  1.
         21    1    1    2  504  501  0.38782546399E+02 -0.18873083344E+02  0.98791266834E+01  0.44247896268E+02  0.00000000000E+00 0.  1.
         21    1    1    2  505  504  0.39792529068E+02  0.64323395840E+02 -0.22125549020E+03  0.23382672338E+03  0.00000000000E+00 0.  1.
         21    1    1    2  506  502  0.34317723638E+02 -0.11703156667E+02 -0.38260012784E+02  0.52711465640E+02  0.00000000000E+00 0.  1.
<scales pt_clust_3="89.90754" pt_clust_4="45.42705" pt_clust_5="14000.00000" pt_clust_6="36.25838"></scales>
<clustering>
<clus scale="   36.258">  2  6  1 -1</clus>
<clus scale="   45.427">  1  4  2 -1</clus>
<clus scale="   89.908">  1  3  2 -1</clus>
<clus scale="   45.427">  1  3  2 -1</clus>
</clustering>
</event>
<event>
 6    0  0.8520634E+002  0.8623580E+02  0.7546771E-02  0.1312232E+00
         21   -1    0    0  505  501  0.00000000000E+00  0.00000000000E+00  0.39256970466E+03  0.39256970466E+03  0.00000000000E+00 0.  1.
         21   -1    0    0  506  502 -0.00000000000E+00 -0.00000000000E+00 -0.42677332707E+03  0.42677332707E+03  0.00000000000E+00 0.  1.
         21    1    1    2  503  502 -0.72383690883E+02 -0.29625293663E+01  0.12284182097E+02  0.73478407821E+02  0.00000000000E+00 0.  1.
         21    1    1    2  504  501  0.21791406388E+02 -0.72663467679E+02  0.20552312651E+03  0.21907669994E+03  0.00000000000E+00 0.  1.
         21    1    1    2  505  503 -0.26452789401E+02  0.31546770165E+02  0.12908502391E+03  0.13549129925E+03  0.00000000000E+00 0.  1.
         21    1    1    2  506  504  0.77045073895E+02  0.44079226880E+02 -0.38109595493E+03  0.39129662472E+03  0.00000000000E+00 0.  1.
<scales pt_clust_3="14000.00000" pt_clust_4="46.93268" pt_clust_5="41.16976" pt_clust_6="86.23580"></scales>
<clustering>
<clus scale="   41.170">  1  5  2 -1</clus>
<clus scale="   46.933">  1  4  2 -1</clus>
<clus scale="   86.236">  2  6  1 -1</clus>
<clus scale="   41.170">  1  3  2 -1</clus>
</clustering>
</event>
<event>
 6    0  0.8520634E+002  0.7034105E+02  0.7546771E-02  0.1358937E+00
         21   -1    0    0  504  501  0.00000000000E+00  0.00000000000E+00  0.24002721767E+04  0.24002721767E+04  0.00000000000E+00 0. -1.
         21   -1    0    0  505  502 -0.00000000000E+00 -0.00000000000E+00 -0.40022107868E+02  0.40022107868E+02  0.00000000000E+00 0. -1.
         21    1    1    2  503  506 -0.10473681820E+03 -0.55292795250E+02  0.36096333490E+03  0.37989685895E+03  0.00000000000E+00 0. -1.
         21    1    1    2  504  502  0.60358851252E+02  0.77421579117E+00  0.40253768447E+02  0.72554505090E+02  0.00000000000E+00 0. -1.
         21    1    1    2  505  503 -0.51288107829E+01  0.30782716119E+02  0.33465230432E+01  0.31385976617E+02  0.00000000000E+00 0. -1.
         21    1    1    2  506  501  0.49506777732E+02  0.23735863340E+02  0.19556864424E+04  0.19564569439E+04  0.00000000000E+00 0. -1.
<scales pt_clust_3="70.34105" pt_clust_4="14000.00000" pt_clust_5="31.20706" pt_clust_6="55.03320"></scales>
<clustering>
<clus scale="   31.207">  2  5  1 -1</clus>
<clus scale="   55.033">  1  6  2 -1</clus>
<clus scale="   70.341">  1  3  2 -1</clus>
<clus scale="   55.033">  1  3  2 -1</clus>
</clustering>
</event>
<event>
 6    0  0.8520634E+002  0.7057892E+02  0.7546771E-02  0.1358135E+00
         21   -1    0    0  503  501  0.00000000000E+00  0.00000000000E+00  0.20318188807E+03  0.20318188807E+03  0.00000000000E+00 0.  1.
         21   -1    0    0  506  502 -0.00000000000E+00 -0.00000000000E+00 -0.11789991517E+03  0.11789991517E+03  0.00000000000E+00 0.  1.
         21    1    1    2  503  505  0.58373400457E+02  0.21265350483E+02  0.87737830172E+02  0.10750625961E+03  0.00000000000E+00 0.  1.
         21    1    1    2  504  501  0.38291488757E+02 -0.45400873306E+02 -0.40894138053E+02  0.72109693768E+02  0.00000000000E+00 0.  1.
         21    1    1    2  505  502 -0.62377146569E+02  0.58947830308E+02  0.34314406775E+02  0.92429614434E+02  0.00000000000E+00 0.  1.
         21    1    1    2  506  504 -0.34287742644E+02 -0.34812307485E+02  0.41238740098E+01  0.49036235427E+02  0.00000000000E+00 0.  1.
<scales pt_clust_3="57.59681" pt_clust_4="14000.00000" pt_clust_5="70.57892" pt_clust_6="48.86252"></scales>
<clustering>
<clus scale="   48.863">  2  6  1 -1</clus>
<clus scale="   57.597">  1  3  2 -1</clus>
<clus scale="   70.579">  1  5  2 -1</clus>
<clus scale="   57.597">  1  3  2 -1</clus>
</clustering>
</event>
<event>
 6    0  0.8520634E+002  0.1212331E+03  0.7546771E-02  0.1241077E+00
         21   -1    0    0  504  501  0.00000000000E+00  0.00000000000E+00  0.60216874793E+03  0.60216874793E+03  0.00000000000E+00 0. -1.
         21   -1    0    0  506  502 -0.00000000000E+00 -0.00000000000E+00 -0.59110701376E+02  0.59110701376E+02  0.00000000000E+00 0. -1.
         21    1    1    2  503  505 -0.42404639798E+02  0.40994784471E+02  0.65543641256E+02  0.88174229451E+02  0.00000000000E+00 0. -1.
         21    1    1    2  504  503  0.10101206089E+03 -0.11768516686E+03  0.19137051890E+03  0.24632480681E+03  0.00000000000E+00 0. -1.
         21    1    1    2  505  502 -0.24889556006E+02  0.26154266584E+02  0.19408153653E+01  0.36156637330E+02  0.00000000000E+00 0. -1.
         21    1    1    2  506  501 -0.33717865089E+02  0.50536115808E+02  0.28420307102E+03  0.29062377571E+03  0.00000000000E+00 0. -1.
<scales pt_clust_3="33.80187" pt_clust_4="113.27377" pt_clust_5="33.80187" pt_clust_6="60.75190"></scales>
<clustering>
<clus scale="   33.802">  3  5 -1 -1</clus>
<clus scale="   60.752">  1  6  2 -1</clus>
<clus scale="  113.274">  1  4  2 -1</clus>
<clus scale="   60.752">  1  3  2 -1</clus>
</clustering>
</event>
<event>
 6    0  0.8520634E+002  0.1413436E+03  0.7546771E-02  0.1211532E+00
         21   -1    0    0  504  501  0.00000000000E+00  0.00000000000E+00  0.89031582971E+03  0.89031582971E+03  0.00000000000E+00 0. -1.
         21   -1    0    0  505  502 -0.00000000000E+00 -0.00000000000E+00 -0.11359599431E+03  0.11359599431E+03  0.00000000000E+00 0.  1.
         21    1    1    2  503  501  0.54892836609E+02  0.64229515671E+02  0.38788978952E+03  0.39698506648E+03  0.00000000000E+00 0. -1.
         21    1    1    2  504  502 -0.96622400328E+02 -0.14292191359E+03  0.24914341877E+03  0.30304290908E+03  0.00000000000E+00 0.  1.
         21    1    1    2  505  506  0.10867093207E+02 -0.61688329214E+02 -0.39591575490E+02  0.74101528498E+02  0.00000000000E+00 0.  1.
         21    1    1    2  506  503  0.30862470512E+02  0.14038072713E+03  0.17927820261E+03  0.22978231996E+03  0.00000000000E+00 0. -1.
<scales pt_clust_3="81.39059" pt_clust_4="141.34364" pt_clust_5="62.63820" pt_clust_6="14000.00000"></scales>
<clustering>
<clus scale="   62.638">  2  5  1 -1</clus>
<clus scale="   81.391">  1  3  2 -1</clus>
<clus scale="  141.344">  1  4  2 -1</clus>
<clus scale="   81.391">  1  3  2 -1</clus>
</clustering>
</event>
<event>
 6    0  0.8520634E+002  0.1098588E+03  0.7546771E-02  0.1260832E+00
         21   -1    0    0  505  501  0.00000000000E+00  0.00000000000E+00  0.53214078340E+03  0.53214078340E+03  0.00000000000E+00 0.  1.
         21   -1    0    0  503  502 -0.00000000000E+00 -0.00000000000E+00 -0.24992531638E+03  0.24992531638E+03  0.00000000000E+00 0. -1.
         21    1    1    2  503  506 -0.34407137576E+02 -0.10123056784E+02 -0.56623628725E+02  0.67026582226E+02  0.00000000000E+00 0.  1.
         21    1    1    2  504  501  0.36410019950E+01  0.11105470984E+03  0.46331434500E+03  0.47645208338E+03  0.00000000000E+00 0.  1.
         21    1    1    2  505  502 -0.44845399915E+02 -0.21280959183E+02  0.23002846403E+02  0.54709414729E+02  0.00000000000E+00 0.  1.
         21    1    1    2  506  504  0.75611535497E+02 -0.79650693875E+02 -0.14747809566E+03  0.18387801944E+03  0.00000000000E+00 0. -1.
<scales pt_clust_3="35.86541" pt_clust_4="109.85882" pt_clust_5="52.62633" pt_clust_6="14000.00000"></scales>
<clustering>
<clus scale="   35.865">  2  3  1 -1</clus>
<clus scale="   52.626">  2  5  1 -1</clus>
<clus scale="  109.859">  1  4  2 -1</clus>
<clus scale="  109.859">  1  3  2 -1</clus>
</clustering>
</event>
<event>
 6    0  0.8520634E+002  0.8891443E+02  0.7546771E-02  0.1305502E+00
         21   -1    0    0  503  501  0.00000000000E+00  0.00000000000E+00  0.74888531860E+03  0.74888531860E+03  0.00000000000E+00 0. -1.
         21   -1    0    0  505  502 -0.00000000000E+00 -0.00000000000E+00 -0.29719940561E+03  0.29719940561E+03  0.00000000000E+00 0.  1.
         21    1    1    2  503  502 -0.28748803741E+02 -0.10006864519E+03  0.53879602182E+03  0.54876350152E+03  0.00000000000E+00 0. -1.
         21    1    1    2  504  506  0.48323970044E+02  0.11957510774E+03  0.62928841732E+02  0.14350418668E+03  0.00000000000E+00 0. -1.
         21    1    1    2  505  504 -0.43516432326E+01 -0.54425428995E+02 -0.24525747597E+03  0.25126140500E+03  0.00000000000E+00 0.  1.
         21    1    1    2  506  501 -0.15223523070E+02  0.34918966449E+02  0.95218525408E+02  0.10255563102E+03  0.00000000000E+00 0. -1.
<scales pt_clust_3="88.91443" pt_clust_4="14000.00000" pt_clust_5="54.44403" pt_clust_6="38.09317"></scales>
<clustering>
<clus scale="   38.093">  1  6  2 -1</clus>
<clus scale="   54.444">  2  5  1 -1</clus>
<clus scale="   88.914">  1  3  2 -1</clus>
<clus scale="   38.093">  1  3  2 -1</clus>
</clustering>
</event>
<event>
 6    0  0.8520634E+002  0.1188977E+03  0.7546771E-02  0.1244927E+00
         21   -1    0    0  504  501  0.00000000000E+00  0.00000000000E+00  0.40493071046E+03  0.40493071046E+03  0.00000000000E+00 0. -1.
         21   -1    0    0  505  502 -0.00000000000E+00 -0.00000000000E+00 -0.11626107057E+03  0.11626107057E+03  0.00000000000E+00 0.  1.
         21    1    1    2  503  502 -0.22213639170E+02 -0.12553888212E+03  0.86068774003E+01  0.12777924333E+03  0.00000000000E+00 0.  1.
         21    1    1    2  504  503  0.37344856239E+02 -0.11619024570E+02  0.97900594787E+02  0.10542374723E+03  0.00000000000E+00 0.  1.
         21    1    1    2  505  506  0.42931565328E+02  0.10321994776E+03  0.21530845275E+02  0.11384662584E+03  0.00000000000E+00 0. -1.
         21    1    1    2  506  501 -0.58062782397E+02  0.33937958924E+02  0.16063132243E+03  0.17414216463E+03  0.00000000000E+00 0. -1.
<scales pt_clust_3="14000.00000" pt_clust_4="39.11061" pt_clust_5="118.89768" pt_clust_6="46.47760"></scales>
<clustering>
<clus scale="   39.111">  1  4  2 -1</clus>
<clus scale="   46.478">  1  6  2 -1</clus>
<clus scale="  118.898">  2  5  1 -1</clus>
<clus scale="   39.111">  1  3  2 -1</clus>
</clustering>
</event>
<event>
 6    0  0.8520634E+002  0.7486587E+02  0.7546771E-02  0.1344287E+00
         21   -1    0    0  505  501  0.00000000000E+00  0.00000000000E+00  0.61145992849E+03  0.61145992849E+03  0.00000000000E+00 0. -1.
         21   -1    0    0  504  502 -0.00000000000E+00 -0.00000000000E+00 -0.35524629434E+02  0.35524629434E+02  0.00000000000E+00 0. -1.
         21    1    1    2  503  502 -0.38923553843E+02 -0.13524026032E+02  0.40067744129E+02  0.57474920126E+02  0.00000000000E+00 0. -1.
         21    1    1    2  504  506  0.10542742659E+03 -0.40727438101E+00  0.12296211430E+03  0.16197157066E+03  0.00000000000E+00 0. -1.
         21    1    1    2  505  503 -0.14731908508E+02 -0.35950400510E+02  0.15569497124E+03  0.16046926340E+03  0.00000000000E+00 0. -1.
         21    1    1    2  506  501 -0.51771964241E+02  0.49881700923E+02  0.25721046939E+03  0.26706880374E+03  0.00000000000E+00 0. -1.
<scales pt_clust_3="44.08380" pt_clust_4="14000.00000" pt_clust_5="38.85178" pt_clust_6="74.86587"></scales>
<clustering>
<clus scale="   38.852">  1  5  2 -1</clus>
<clus scale="   44.084">  2  3  1 -1</clus>
<clus scale="   74.866">  1  6  2 -1</clus>
<clus scale="   38.852">  1  3  2 -1</clus>
</clustering>
</event>
<event>
 6    0  0.8520634E+002  0.9691213E+02  0.7546771E-02  0.1286927E+00
         21   -1    0    0  506  501  0.00000000000E+00  0.00000000000E+00  0.24119147512E+04  0.24119147512E+04  0.00000000000E+00 0. -1.
         21   -1    0    0  503  502 -0.00000000000E+00 -0.00000000000E+00 -0.25431125367E+03  0.25431125367E+03  0.00000000000E+00 0.  1.
         21    1    1    2  503  505 -0.29659883823E+02  0.18758583354E+02 -0.11745864809E+03  0.12258926204E+03  0.00000000000E+00 0.  1.
         21    1    1    2  504  502 -0.29866388012E+02 -0.61934516248E+02 -0.11286772492E+03  0.13216281158E+03  0.00000000000E+00 0.  1.
         21    1    1    2  505  501  0.90576823729E+02 -0.42697150514E+02  0.22025433723E+04  0.22048184766E+04  0.00000000000E+00 0. -1.
         21    1    1    2  506  504 -0.31050551894E+02  0.85873083408E+02  0.18538649819E+03  0.20665545465E+03  0.00000000000E+00 0.  1.
<scales pt_clust_3="35.09406" pt_clust_4="72.45314" pt_clust_5="14000.00000" pt_clust_6="96.91213"></scales>
<clustering>
<clus scale="   35.094">  2  3  1 -1</clus>
<clus scale="   72.453">  2  4  1 -1</clus>
<clus scale="   96.912">  2  6  1 -1</clus>
<clus scale="   96.912">  1  3  2 -1</clus>
</clustering>
</event>
<event>
 6    0  0.8520634E+002  0.1429164E+03  0.7546771E-02  0.1209458E+00
         21   -1    0    0  505  501  0.00000000000E+00  0.00000000000E+00  0.41544744637E+02  0.41544744637E+02  0.00000000000E+00 0.  1.
         21   -1    0    0  503  502 -0.00000000000E+00 -0.00000000000E+00 -0.22737421029E+04  0.22737421029E+04  0.00000000000E+00 0.  1.
         21    1    1    2  503  501 -0.16148240387E+03  0.94611668325E+01 -0.18589707163E+04  0.18659952316E+04  0.00000000000E+00 0.  1.
         21    1    1    2  504  502  0.31551872776E+02  0.15281525787E+02 -0.27528493781E+03  0.27750827500E+03  0.00000000000E+00 0.  1.
         21    1    1    2  505  506  0.44505372925E+02 -0.19538353422E+01 -0.72628274479E+01  0.45136397223E+02  0.00000000000E+00 0.  1.
         21    1    1    2  506  504  0.85425158172E+02 -0.22788857278E+02 -0.90678876735E+02  0.12664694371E+03  0.00000000000E+00 0.  1.
<scales pt_clust_3="134.17264" pt_clust_4="35.05775" pt_clust_5="34.93949" pt_clust_6="34.93949"></scales>
<clustering>
<clus scale="   34.939">  5  6 -1 -1</clus>
<clus scale="   35.058">  2  4  1 -1</clus>
<clus scale="  134.173">  2  3  1 -1</clus>
<clus scale="  142.916">  1  3  2 -1</clus>
</clustering>
</event>
<event>
 6    0  0.8520634E+002  0.1826193E+03  0.7546771E-02  0.1165292E+00
         21   -1    0    0  504  501  0.00000000000E+00  0.00000000000E+00  0.22201217764E+03  0.22201217764E+03  0.00000000000E+00 0.  1.
         21   -1    0    0  506  502 -0.00000000000E+00 -0.00000000000E+00 -0.98429278414E+03  0.98429278414E+03  0.00000000000E+00 0.  1.
         21    1    1    2  503  502  0.44304233131E+01  0.64430017342E+02 -0.17442979325E+03  0.18600163590E+03  0.00000000000E+00 0. -1.
         21    1    1    2  504  503 -0.70121705766E+02  0.59246469241E+02 -0.12248665852E+03  0.15306919760E+03  0.00000000000E+00 0.  1.
         21    1    1    2  505  501  0.18780316227E+02  0.44716632573E+02  0.18631152136E+03  0.19252080536E+03  0.00000000000E+00 0.  1.
         21    1    1    2  506  505  0.46910966225E+02 -0.16839311916E+03 -0.65167567608E+03  0.67471332292E+03  0.00000000000E+00 0.  1.
<scales pt_clust_3="72.03387" pt_clust_4="72.03387" pt_clust_5="48.50028" pt_clust_6="161.71390"></scales>
<clustering>
<clus scale="   48.500">  1  5  2 -1</clus>
<clus scale="   72.034">  3  4 -1 -1</clus>
<clus scale="  161.714">  2  6  1 -1</clus>
<clus scale="   48.500">  1  3  2 -1</clus>
</clustering>
</event>
<event>
 6    0  0.8520634E+002  0.8395060E+02  0.7546771E-02  0.1318200E+00
         21   -1    0    0  506  501  0.00000000000E+00  0.00000000000E+00  0.54261475740E+03  0.54261475740E+03  0.00000000000E+00 0.  1.
         21   -1    0    0  503  502 -0.00000000000E+00 -0.00000000000E+00 -0.11537069946E+04  0.11537069946E+04  0.00000000000E+00 0.  1.
         21    1    1    2  503  504  0.22679421457E+02 -0.48145392988E+02 -0.62021016022E+03  0.62248933956E+03  0.00000000000E+00 0.  1.
         21    1    1    2  504  501  0.53156606977E+02 -0.32425781086E+02 -0.36295211953E+02  0.72072176012E+02  0.00000000000E+00 0. -1.
         21    1    1    2  505  502 -0.11200786021E+03  0.45832994352E+02 -0.46927770944E+03  0.48463181148E+03  0.00000000000E+00 0.  1.
         21    1    1    2  506  505  0.36171831780E+02  0.34738179721E+02  0.51469084443E+03  0.51712842494E+03  0.00000000000E+00 0.  1.
<scales pt_clust_3="52.57556" pt_clust_4="83.95060" pt_clust_5="14000.00000" pt_clust_6="50.15120"></scales>
<clustering>
<clus scale="   50.151">  1  6  2 -1</clus>
<clus scale="   52.576">  2  3  1 -1</clus>
<clus scale="   83.951">  1  4  2 -1</clus>
<clus scale="   50.151">  1  3  2 -1</clus>
</clustering>
</event>
<event>
 6    0  0.8520634E+002  0.9874716E+02  0.7546771E-02  0.1282953E+00
         21   -1    0    0  506  501  0.00000000000E+00  0.00000000000E+00  0.12108066016E+04  0.12108066016E+04  0.00000000000E+00 0. -1.
         21   -1    0    0  503  502 -0.00000000000E+00 -0.00000000000E+00 -0.29942513559E+02  0.29942513559E+02  0.00000000000E+00 0. -1.
         21    1    1    2  503  501 -0.11136784769E+03  0.77359568438E+02  0.31334668508E+03  0.34142853627E+03  0.00000000000E+00 0. -1.
         21    1    1    2  504  505  0.44527431038E+02 -0.58994062729E+02  0.64317552242E+03  0.64740848325E+03  0.00000000000E+00 0. -1.
         21    1    1    2  505  502  0.25322760617E+02 -0.30253571961E+02  0.22326173529E+02  0.45331874505E+02  0.00000000000E+00 0.  1.
         21    1    1    2  506  504  0.41517656037E+02  0.11888066253E+02  0.20201570705E+03  0.20658022117E+03  0.00000000000E+00 0.  1.
<scales pt_clust_3="14000.00000" pt_clust_4="98.74716" pt_clust_5="39.45277" pt_clust_6="45.38837"></scales>
<clustering>
<clus scale="   39.453">  2  5  1 -1</clus>
<clus scale="   45.388">  1  6  2 -1</clus>
<clus scale="   98.747">  1  4  2 -1</clus>
<clus scale="   45.388">  1  3  2 -1</clus>
</clustering>
</event>
<event>
 6    0  0.8520634E+002  0.8761194E+02  0.7546771E-02  0.1308740E+00
         21   -1    0    0  505  501  0.00000000000E+00  0.00000000000E+00  0.30516486579E+03  0.30516486579E+03  0.00000000000E+00 0.  1.
         21   -1    0    0  503  502 -0.00000000000E+00 -0.00000000000E+00 -0.79742075791E+03  0.79742075791E+03  0.00000000000E+00 0.  1.
         21    1    1    2  503  504 -0.35720522528E+02  0.26861527465E+02 -0.12895484459E+03  0.13648021589E+03  0.00000000000E+00 0. -1.
         21    1    1    2  504  501  0.39542237391E+02 -0.89425413905E+02  0.18647694726E+03  0.21055675018E+03  0.00000000000E+00 0.  1.
         21    1    1    2  505  506  0.46632378336E+02  0.82867704533E+02  0.79488863030E+02  0.12393592905E+03  0.00000000000E+00 0.  1.
         21    1    1    2  506  502 -0.50454093199E+02 -0.20303818092E+02 -0.62926685782E+03  0.63161272858E+03  0.00000000000E+00 0.  1.
<scales pt_clust_3="44.69337" pt_clust_4="14000.00000" pt_clust_5="87.61194" pt_clust_6="84.49184"></scales>
<clustering>
<clus scale="   44.693">  2  3  1 -1</clus>
<clus scale="   84.492">  2  6  1 -1</clus>
<clus scale="   87.612">  2  5  1 -1</clus>
<clus scale="   87.612">  1  3  2 -1</clus>
</clustering>
</event>
<event>
 6    0  0.8520634E+002  0.9585676E+02  0.7546771E-02  0.1289258E+00
         21   -1    0    0  505  501  0.00000000000E+00  0.00000000000E+00  0.10835509070E+03  0.10835509070E+03  0.00000000000E+00 0.  1.
         21   -1    0    0  504  502 -0.00000000000E+00 -0.00000000000E+00 -0.57909315813E+03  0.57909315813E+03  0.00000000000E+00 0. -1.
         21    1    1    2  503  502 -0.39802015716E+02 -0.10438085425E+03 -0.38084588395E+03  0.39689186249E+03  0.00000000000E+00 0. -1.
         21    1    1    2  504  506  0.51821645160E+02  0.53723591514E+02 -0.95171506577E+02  0.12095173772E+03  0.00000000000E+00 0.  1.
         21    1    1    2  505  503 -0.42095737041E+02  0.27587501863E+02 -0.69474743752E+02  0.85789634313E+02  0.00000000000E+00 0.  1.
         21    1    1    2  506  501  0.30076107597E+02  0.23069760871E+02  0.74754066847E+02  0.83815014317E+02  0.00000000000E+00 0.  1.
<scales pt_clust_3="14000.00000" pt_clust_4="95.85676" pt_clust_5="47.88415" pt_clust_6="37.90496"></scales>
<clustering>
<clus scale="   37.905">  1  6  2 -1</clus>
<clus scale="   47.884">  1  5  2 -1</clus>
<clus scale="   95.857">  1  4  2 -1</clus>
<clus scale="   37.905">  1  3  2 -1</clus>
</clustering>
</event>
<event>
 6    0  0.8520634E+002  0.2476909E+03  0.7546771E-02  0.1114773E+00
         21   -1    0    0  505  501  0.00000000000E+00  0.00000000000E+00  0.11823260514E+03  0.11823260514E+03  0.00000000000E+00 0.  1.
         21   -1    0    0  504  502 -0.00000000000E+00 -0.00000000000E+00 -0.13941449841E+04  0.13941449841E+04  0.00000000000E+00 0.  1.
         21    1    1    2  503  501  0.31174880270E+02 -0.14695286043E+02  0.29523171285E+02  0.45381077934E+02  0.00000000000E+00 0.  1.
         21    1    1    2  504  506 -0.32611017788E+01 -0.61490213626E+02 -0.58648409244E+03  0.58970778513E+03  0.00000000000E+00 0.  1.
         21    1    1    2  505  502 -0.18587190812E+03  0.21972619065E+03 -0.37897027533E+03  0.47586388251E+03  0.00000000000E+00 0.  1.
         21    1    1    2  506  503  0.15795812963E+03 -0.14354069098E+03 -0.33998118245E+03  0.40142484366E+03  0.00000000000E+00 0.  1.
<scales pt_clust_3="34.46483" pt_clust_4="61.83977" pt_clust_5="247.69085" pt_clust_6="14000.00000"></scales>
<clustering>
<clus scale="   34.465">  1  3  2 -1</clus>
<clus scale="   61.840">  2  4  1 -1</clus>
<clus scale="  247.691">  1  5  2 -1</clus>
<clus scale="   34.465">  1  3  2 -1</clus>
</clustering>
</event>
<event>
 6    0  0.8520634E+002  0.1199807E+03  0.7546771E-02  0.1243129E+00
         21   -1    0    0  506  501  0.00000000000E+00  0.00000000000E+00  0.55864224502E+03  0.55864224502E+03  0.00000000000E+00 0.  1.
         21   -1    0    0  503  502 -0.00000000000E+00 -0.00000000000E+00 -0.24618098838E+03  0.24618098838E+03  0.00000000000E+00 0.  1.
         21    1    1    2  503  505  0.38072981404E+02  0.11172622377E+02 -0.57312434028E+02  0.69707205496E+02  0.00000000000E+00 0.  1.
         21    1    1    2  504  502  0.44357645012E+01  0.56079609529E+02 -0.14826940713E+03  0.15858252017E+03  0.00000000000E+00 0.  1.
         21    1    1    2  505  501  0.50549297757E+02  0.64659856374E+02  0.10646477787E+03  0.13442796382E+03  0.00000000000E+00 0. -1.
         21    1    1    2  506  504 -0.93058043663E+02 -0.13191208828E+03  0.41157831992E+03  0.44210554391E+03  0.00000000000E+00 0.  1.
<scales pt_clust_3="39.67845" pt_clust_4="74.90931" pt_clust_5="119.98074" pt_clust_6="14000.00000"></scales>
<clustering>
<clus scale="   39.678">  2  3  1 -1</clus>
<clus scale="   74.909">  2  4  1 -1</clus>
<clus scale="  119.981">  1  5  2 -1</clus>
<clus scale="  119.981">  1  3  2 -1</clus>
</clustering>
</event>
<event>
 6    0  0.8520634E+002  0.9223667E+02  0.7546771E-02  0.1297524E+00
         21   -1    0    0  504  501  0.00000000000E+00  0.00000000000E+00  0.95428833363E+02  0.95428833363E+02  0.00000000000E+00 0. -1.
         21   -1    0    0  501  502 -0.00000000000E+00 -0.00000000000E+00 -0.10669335535E+04  0.10669335535E+04  0.00000000000E+00 0.  1.
         21    1    1    2  503  502  0.34626050121E+01 -0.40720468455E+02 -0.93364196781E+03  0.93453596520E+03  0.00000000000E+00 0.  1.
         21    1    1    2  504  505  0.28069395000E+02  0.13233864180E+02 -0.11253271557E+02  0.33010032074E+02  0.00000000000E+00 0. -1.
         21    1    1    2  505  506 -0.34384424374E+02  0.10042145520E+03  0.20276503139E+02  0.10806430439E+03  0.00000000000E+00 0. -1.
         21    1    1    2  506  503  0.28524243623E+01 -0.72934850922E+02 -0.46885983950E+02  0.86752085247E+02  0.00000000000E+00 0.  1.
<scales pt_clust_3="40.81057" pt_clust_4="31.03266" pt_clust_5="14000.00000" pt_clust_6="92.23667"></scales>
<clustering>
<clus scale="   31.033">  1  4  2 -1</clus>
<clus scale="   40.811">  2  3  1 -1</clus>
<clus scale="   92.237">  2  6  1 -1</clus>
<clus scale="   31.033">  1  3  2 -1</clus>
</clustering>
</event>
<event>
 6    0  0.8520634E+002  0.8460985E+02  0.7546771E-02  0.1316456E+00
         21   -1    0    0  505  501  0.00000000000E+00  0.00000000000E+00  0.13951630865E+04  0.13951630865E+04  0.00000000000E+00 0.  1.
         21   -1    0    0  504  502 -0.00000000000E+00 -0.00000000000E+00 -0.49026349501E+03  0.49026349501E+03  0.00000000000E+00 0. -1.
         21    1    1    2  503  506  0.24962551589E+02  0.57796055488E+02  0.12868306054E+03  0.14325795992E+03  0.00000000000E+00 0.  1.
         21    1    1    2  504  501 -0.40523291667E+02  0.33189490764E+02 -0.91083792069E+02  0.10507110279E+03  0.00000000000E+00 0. -1.
         21    1    1    2  505  503  0.42493890310E+02 -0.20442461683E+01  0.12462214157E+04  0.12469473632E+04  0.00000000000E+00 0.  1.
         21    1    1    2  506  502 -0.26933150233E+02 -0.88941300084E+02 -0.37892109267E+03  0.39015015560E+03  0.00000000000E+00 0. -1.
<scales pt_clust_3="84.60985" pt_clust_4="50.78575" pt_clust_5="42.54303" pt_clust_6="14000.00000"></scales>
<clustering>
<clus scale="   42.543">  1  5  2 -1</clus>
<clus scale="   50.786">  2  4  1 -1</clus>
<clus scale="   84.610">  1  3  2 -1</clus>
<clus scale="   42.543">  1  3  2 -1</clus>
</clustering>
</event>
<event>
 6    0  0.8520634E+002  0.7075106E+02  0.7546771E-02  0.1357557E+00
         21   -1    0    0  504  501  0.00000000000E+00  0.00000000000E+00  0.77803224244E+03  0.77803224244E+03  0.00000000000E+00 0. -1.
         21   -1    0    0  503  502 -0.00000000000E+00 -0.00000000000E+00 -0.13005060266E+03  0.13005060266E+03  0.00000000000E+00 0. -1.
         21    1    1    2  503  505 -0.39669926051E+02  0.38103725380E+02 -0.17678849143E+02  0.57776627003E+02  0.00000000000E+00 0. -1.
         21    1    1    2  504  506  0.29492914797E+00  0.66285413951E+02  0.30301133809E+03  0.31017690774E+03  0.00000000000E+00 0. -1.
         21    1    1    2  505  501 -0.31842024355E+02 -0.71422646603E+02  0.42979256339E+03  0.43684866546E+03  0.00000000000E+00 0. -1.
         21    1    1    2  506  502  0.71217021259E+02 -0.32966492728E+02 -0.67143412565E+02  0.10328064490E+03  0.00000000000E+00 0. -1.
<scales pt_clust_3="55.00543" pt_clust_4="70.75106" pt_clust_5="14000.00000" pt_clust_6="34.67255"></scales>
<clustering>
<clus scale="   55.005">  2  3  1 -1</clus>
<clus scale="   34.673">  2  6  1 -1</clus>
<clus scale="   70.751">  2  4  1 -1</clus>
<clus scale="   70.751">  1  3  2 -1</clus>
</clustering>
</event>
<event>
 6    0  0.8520634E+002  0.7583487E+02  0.7546771E-02  0.1341305E+00
         21   -1    0    0  503  501  0.00000000000E+00  0.00000000000E+00  0.23801826502E+03  0.23801826502E+03  0.00000000000E+00 0. -1.
         21   -1    0    0  505  502 -0.00000000000E+00 -0.00000000000E+00 -0.52882426809E+03  0.52882426809E+03  0.00000000000E+00 0.  1.
         21    1    1    2  503  506  0.36388146571E+02  0.75627546407E+02  0.83472652693E+02  0.11836936569E+03  0.00000000000E+00 0. -1.
         21    1    1    2  504  502  0.38632867840E+02 -0.39218956242E+01 -0.46268111615E+03  0.46430775891E+03  0.00000000000E+00 0.  1.
         21    1    1    2  505  501  0.11033671186E+02 -0.57792678659E+02 -0.16131495392E+01  0.58858626028E+02  0.00000000000E+00 0. -1.
         21    1    1    2  506  504 -0.86054685597E+02 -0.13912972123E+02  0.90015609922E+02  0.12530678248E+03  0.00000000000E+00 0. -1.
<scales pt_clust_3="75.83487" pt_clust_4="38.83143" pt_clust_5="66.25023" pt_clust_6="14000.00000"></scales>
<clustering>
<clus scale="   38.831">  2  4  1 -1</clus>
<clus scale="   66.250">  2  5  1 -1</clus>
<clus scale="   75.835">  1  3  2 -1</clus>
<clus scale="   75.835">  1  3  2 -1</clus>
</clustering>
</event>
<event>
 6    0  0.8520634E+002  0.1107439E+03  0.7546771E-02  0.1259199E+00
         21   -1    0    0  505  501  0.00000000000E+00  0.00000000000E+00  0.27468565569E+02  0.27468565569E+02  0.00000000000E+00 0. -1.
         21   -1    0    0  504  502 -0.00000000000E+00 -0.00000000000E+00 -0.15934437650E+04  0.15934437650E+04  0.00000000000E+00 0. -1.
         21    1    1    2  503  502 -0.90855154901E+02 -0.52514934444E+02 -0.46058320272E+03  0.47238687972E+03  0.00000000000E+00 0. -1.
         21    1    1    2  504  506  0.76265220963E+02  0.87509777909E+02 -0.10227596255E+04  0.10293257972E+04  0.00000000000E+00 0. -1.
         21    1    1    2  505  503  0.45925949766E+02 -0.14538945373E+02 -0.41404994559E+02  0.63521235574E+02  0.00000000000E+00 0. -1.
         21    1    1    2  506  501 -0.31336015828E+02 -0.20455898092E+02 -0.41227376587E+02  0.55678418035E+02  0.00000000000E+00 0. -1.
<scales pt_clust_3="110.74387" pt_clust_4="14000.00000" pt_clust_5="38.61454" pt_clust_6="37.42178"></scales>
<clustering>
<clus scale="   37.422">  1  6  2 -1</clus>
<clus scale="   38.615">  1  5  2 -1</clus>
<clus scale="  110.744">  1  3  2 -1</clus>
<clus scale="   37.422">  1  3  2 -1</clus>
</clustering>
</event>
<event>
 6    0  0.8520634E+002  0.7999365E+02  0.7546771E-02  0.1329069E+00
         21   -1    0    0  506  501  0.00000000000E+00  0.00000000000E+00  0.29323545562E+03  0.29323545562E+03  0.00000000000E+00 0.  1.
         21   -1    0    0  504  502 -0.00000000000E+00 -0.00000000000E+00 -0.29322085513E+03  0.29322085513E+03  0.00000000000E+00 0.  1.
         21    1    1    2  503  501 -0.46213303924E+02 -0.22133556152E+01  0.13595249872E+03  0.14360936707E+03  0.00000000000E+00 0.  1.
         21    1    1    2  504  503  0.41233292376E+01  0.34827874502E+02 -0.21139719433E+02  0.40949608351E+02  0.00000000000E+00 0. -1.
         21    1    1    2  505  502 -0.74522540922E+02 -0.50938036422E+01 -0.22624860844E+03  0.23826033820E+03  0.00000000000E+00 0.  1.
         21    1    1    2  506  505  0.11661251561E+03 -0.27520715245E+02  0.11145042964E+03  0.16363699713E+03  0.00000000000E+00 0.  1.
<scales pt_clust_3="46.18457" pt_clust_4="35.07111" pt_clust_5="79.99365" pt_clust_6="14000.00000"></scales>
<clustering>
<clus scale="   35.071">  2  4  1 -1</clus>
<clus scale="   46.185">  1  3  2 -1</clus>
<clus scale="   79.994">  2  5  1 -1</clus>
<clus scale="   46.185">  1  3  2 -1</clus>
</clustering>
</event>
<event>
 6    0  0.8520634E+002  0.7100318E+02  0.7546771E-02  0.1356715E+00
         21   -1    0    0  503  501  0.00000000000E+00  0.00000000000E+00  0.65993619865E+03  0.65993619865E+03  0.00000000000E+00 0.  1.
         21   -1    0    0  504  502 -0.00000000000E+00 -0.00000000000E+00 -0.30499476435E+03  0.30499476435E+03  0.00000000000E+00 0. -1.
         21    1    1    2  503  502 -0.63485165143E+02  0.57497117874E+02 -0.12712089746E+03  0.15328407396E+03  0.00000000000E+00 0. -1.
         21    1    1    2  504  505  0.71737871078E+02  0.67769168247E+01 -0.14041846267E+03  0.15782773333E+03  0.00000000000E+00 0. -1.
         21    1    1    2  505  506 -0.69569882300E+02 -0.36314960573E+02  0.10052301826E+03  0.12752890686E+03  0.00000000000E+00 0. -1.
         21    1    1    2  506  501  0.61317176364E+02 -0.27959074125E+02  0.52195777617E+03  0.52629024886E+03  0.00000000000E+00 0.  1.
<scales pt_clust_3="14000.00000" pt_clust_4="71.00318" pt_clust_5="62.46544" pt_clust_6="67.39070"></scales>
<clustering>
<clus scale="   67.391">  1  6  2 -1</clus>
<clus scale="   62.465">  1  5  2 -1</clus>
<clus scale="   71.003">  2  4  1 -1</clus>
<clus scale="   67.391">  1  3  2 -1</clus>
</clustering>
</event>
<event>
 6    0  0.8520634E+002  0.6148981E+02  0.7546771E-02  0.1391684E+00
         21   -1    0    0  504  501  0.00000000000E+00  0.00000000000E+00  0.34394670014E+03  0.34394670014E+03  0.00000000000E+00 0. -1.
         21   -1    0    0  506  502 -0.00000000000E+00 -0.00000000000E+00 -0.77753887005E+03  0.77753887005E+03  0.00000000000E+00 0.  1.
         21    1    1    2  503  505  0.12217628977E+02 -0.82859230833E+02 -0.28466307406E+03  0.29672881276E+03  0.00000000000E+00 0.  1.
         21    1    1    2  504  503  0.89959062588E+01 -0.51342292274E+02  0.25952147029E+03  0.26470427055E+03  0.00000000000E+00 0. -1.
         21    1    1    2  505  502  0.29888230628E+02  0.50445059268E+02 -0.44978170901E+03  0.45358747348E+03  0.00000000000E+00 0.  1.
         21    1    1    2  506  501 -0.51101765864E+02  0.83756463839E+02  0.41331142872E+02  0.10646501341E+03  0.00000000000E+00 0. -1.
<scales pt_clust_3="14000.00000" pt_clust_4="52.12444" pt_clust_5="61.48981" pt_clust_6="56.96813"></scales>
<clustering>
<clus scale="   52.124">  1  4  2 -1</clus>
<clus scale="   56.968">  1  6  2 -1</clus>
<clus scale="   61.490">  2  5  1 -1</clus>
<clus scale="   52.124">  1  3  2 -1</clus>
</clustering>
</event>
<event>
 6    0  0.8520634E+002  0.8357166E+02  0.7546771E-02  0.1319211E+00
         21   -1    0    0  505  501  0.00000000000E+00  0.00000000000E+00  0.18817559715E+03  0.18817559715E+03  0.00000000000E+00 0. -1.
         21   -1    0    0  503  502 -0.00000000000E+00 -0.00000000000E+00 -0.33316755515E+03  0.33316755515E+03  0.00000000000E+00 0. -1.
         21    1    1    2  503  506 -0.85051431781E+02 -0.72330667563E+02  0.39634888083E+02  0.11847529646E+03  0.00000000000E+00 0. -1.
         21    1    1    2  504  502  0.64258862560E+02 -0.22671485561E+02 -0.25465584721E+03  0.26361486717E+03  0.00000000000E+00 0. -1.
         21    1    1    2  505  504 -0.35783442905E+01  0.38970690988E+02 -0.82050325687E+01  0.39985520672E+02  0.00000000000E+00 0. -1.
         21    1    1    2  506  501  0.24370913511E+02  0.56031462135E+02  0.78234033696E+02  0.99267467998E+02  0.00000000000E+00 0. -1.
<scales pt_clust_3="83.57166" pt_clust_4="67.72246" pt_clust_5="39.13463" pt_clust_6="14000.00000"></scales>
<clustering>
<clus scale="   39.135">  1  5  2 -1</clus>
<clus scale="   67.722">  2  4  1 -1</clus>
<clus scale="   83.572">  2  3  1 -1</clus>
<clus scale="   39.135">  1  3  2 -1</clus>
</clustering>
</event>
<event>
 6    0  0.8520634E+002  0.1162214E+03  0.7546771E-02  0.1249464E+00
         21   -1    0    0  504  501  0.00000000000E+00  0.00000000000E+00  0.62914399141E+03  0.62914399141E+03  0.00000000000E+00 0.  1.
         21   -1    0    0  503  502 -0.00000000000E+00 -0.00000000000E+00 -0.25330479441E+03  0.25330479441E+03  0.00000000000E+00 0. -1.
         21    1    1    2  503  506 -0.16113569303E+02  0.43919371089E+02  0.30802313038E+02  0.56011969801E+02  0.00000000000E+00 0. -1.
         21    1    1    2  504  505 -0.49690708628E+02 -0.12599952385E+02  0.47356435487E+03  0.47633089710E+03  0.00000000000E+00 0.  1.
         21    1    1    2  505  502  0.79953725157E+02 -0.79144614222E+02 -0.21933460914E+03  0.24650383140E+03  0.00000000000E+00 0. -1.
         21    1    1    2  506  501 -0.14149447227E+02  0.47825195518E+02  0.90807138238E+02  0.10360208752E+03  0.00000000000E+00 0. -1.
<scales pt_clust_3="35.64921" pt_clust_4="51.26329" pt_clust_5="110.23857" pt_clust_6="35.64921"></scales>
<clustering>
<clus scale="   35.649">  3  6 -1 -1</clus>
<clus scale="   51.263">  1  4  2 -1</clus>
<clus scale="  110.239">  2  5  1 -1</clus>
<clus scale="   51.263">  1  3  2 -1</clus>
</clustering>
</event>
<event>
 6    0  0.8520634E+002  0.9306909E+02  0.7546771E-02  0.1295585E+00
         21   -1    0    0  506  501  0.00000000000E+00  0.00000000000E+00  0.16572443111E+04  0.16572443111E+04  0.00000000000E+00 0. -1.
         21   -1    0    0  505  502 -0.00000000000E+00 -0.00000000000E+00 -0.52220686298E+02  0.52220686298E+02  0.00000000000E+00 0. -1.
         21    1    1    2  503  501  0.40509585841E+01 -0.69752944827E+02  0.12197127236E+04  0.12217123277E+04  0.00000000000E+00 0. -1.
         21    1    1    2  504  503 -0.51932329166E+02  0.10222870504E+03  0.23450030252E+03  0.26103269303E+03  0.00000000000E+00 0. -1.
         21    1    1    2  505  504 -0.42897042980E+01 -0.89251931483E+02  0.60197673209E+02  0.10774074761E+03  0.00000000000E+00 0. -1.
         21    1    1    2  506  502  0.52171074880E+02  0.56776171272E+02  0.90612925420E+02  0.11897922899E+03  0.00000000000E+00 0. -1.
<scales pt_clust_3="69.87048" pt_clust_4="14000.00000" pt_clust_5="93.06909" pt_clust_6="66.53355"></scales>
<clustering>
<clus scale="   69.870">  1  3  2 -1</clus>
<clus scale="   66.534">  1  6  2 -1</clus>
<clus scale="   93.069">  2  5  1 -1</clus>
<clus scale="   69.870">  1  3  2 -1</clus>
</clustering>
</event>
<event>
 6    0  0.8520634E+002  0.1191040E+03  0.7546771E-02  0.1244583E+00
         21   -1    0    0  503  501  0.00000000000E+00  0.00000000000E+00  0.13400563649E+03  0.13400563649E+03  0.00000000000E+00 0. -1.
         21   -1    0    0  506  502 -0.00000000000E+00 -0.00000000000E+00 -0.22922492614E+03  0.22922492614E+03  0.00000000000E+00 0. -1.
         21    1    1    2  503  505 -0.35437977175E+02  0.30685688978E+02  0.15619547364E+02  0.49410848952E+02  0.00000000000E+00 0. -1.
         21    1    1    2  504  501 -0.45440290654E+02 -0.46952515565E+02  0.39208272023E+02  0.76201360405E+02  0.00000000000E+00 0. -1.
         21    1    1    2  505  502  0.92223381276E+02  0.64430213676E+02 -0.15078782310E+03  0.18813126291E+03  0.00000000000E+00 0. -1.
         21    1    1    2  506  504 -0.11345113448E+02 -0.48163387089E+02  0.74071407621E+00  0.49487090360E+02  0.00000000000E+00 0. -1.
<scales pt_clust_3="46.87709" pt_clust_4="38.23095" pt_clust_5="110.70552" pt_clust_6="38.23095"></scales>
<clustering>
<clus scale="   38.231">  4  6 -1 -1</clus>
<clus scale="   46.877">  1  3  2 -1</clus>
<clus scale="  110.706">  2  5  1 -1</clus>
<clus scale="   46.877">  1  3  2 -1</clus>
</clustering>
</event>
<event>
 6    0  0.8520634E+002  0.9729474E+02  0.7546771E-02  0.1286090E+00
         21   -1    0    0  506  501  0.00000000000E+00  0.00000000000E+00  0.93811996142E+03  0.93811996142E+03  0.00000000000E+00 0.  1.
         21   -1    0    0  504  502 -0.00000000000E+00 -0.00000000000E+00 -0.25116005350E+03  0.25116005350E+03  0.00000000000E+00 0.  1.
         21    1    1    2  503  505  0.87751576076E+02  0.21138745234E+02  0.49210582251E+03  0.50031522683E+03  0.00000000000E+00 0.  1.
         21    1    1    2  504  501 -0.97790987950E+02 -0.29907876437E+02  0.28939461880E+03  0.30693126883E+03  0.00000000000E+00 0.  1.
         21    1    1    2  505  502 -0.68231711452E+01  0.36878894171E+02 -0.23491119676E+03  0.23788627296E+03  0.00000000000E+00 0.  1.
         21    1    1    2  506  503  0.16862583018E+02 -0.28109762968E+02  0.14037066338E+03  0.14414724631E+03  0.00000000000E+00 0.  1.
<scales pt_clust_3="97.29474" pt_clust_4="14000.00000" pt_clust_5="37.44739" pt_clust_6="32.77965"></scales>
<clustering>
<clus scale="   32.780">  1  6  2 -1</clus>
<clus scale="   37.447">  2  5  1 -1</clus>
<clus scale="   97.295">  1  3  2 -1</clus>
<clus scale="   32.780">  1  3  2 -1</clus>
</clustering>
</event>
<event>
 6    0  0.8520634E+002  0.7395317E+02  0.7546771E-02  0.1347144E+00
         21   -1    0    0  504  501  0.00000000000E+00  0.00000000000E+00  0.23870791116E+03  0.23870791116E+03  0.00000000000E+00 0.  1.
         21   -1    0    0  506  502 -0.00000000000E+00 -0.00000000000E+00 -0.11849127615E+03  0.11849127615E+03  0.00000000000E+00 0.  1.
         21    1    1    2  503  505 -0.98759676305E+02  0.75524539834E+02 -0.13351868127E+02  0.12504280133E+03  0.00000000000E+00 0.  1.
         21    1    1    2  504  503  0.32352994950E+00 -0.33350175495E+02  0.31111499605E+02  0.45609914326E+02  0.00000000000E+00 0.  1.
         21    1    1    2  505  502  0.53539299325E+02 -0.17113178377E+02 -0.15130433631E+02  0.58208654582E+02  0.00000000000E+00 0.  1.
         21    1    1    2  506  501  0.44896847031E+02 -0.25061185961E+02  0.11758743716E+03  0.12833781708E+03  0.00000000000E+00 0.  1.
<scales pt_clust_3="73.95317" pt_clust_4="33.35174" pt_clust_5="57.43357" pt_clust_6="14000.00000"></scales>
<clustering>
<clus scale="   33.352">  1  4  2 -1</clus>
<clus scale="   57.434">  2  5  1 -1</clus>
<clus scale="   73.953">  2  3  1 -1</clus>
<clus scale="   33.352">  1  3  2 -1</clus>
</clustering>
</event>
<event>
 6    0  0.8520634E+002  0.1138812E+03  0.7546771E-02  0.1253547E+00
         21   -1    0    0  505  501  0.00000000000E+00  0.00000000000E+00  0.71404108731E+03  0.71404108731E+03  0.00000000000E+00 0. -1.
         21   -1    0    0  503  502 -0.00000000000E+00 -0.00000000000E+00 -0.61443983405E+02  0.61443983405E+02  0.00000000000E+00 0. -1.
         21    1    1    2  503  501  0.67869189243E+01 -0.12618353159E+03  0.12307896575E+03  0.17639948334E+03  0.00000000000E+00 0. -1.
         21    1    1    2  504  506 -0.40152334823E+02  0.10838661057E+03  0.16897188317E+03  0.20472265299E+03  0.00000000000E+00 0. -1.
         21    1    1    2  505  504  0.28830626131E+02 -0.13730716900E+02  0.36109682615E+03  0.36250607642E+03  0.00000000000E+00 0. -1.
         21    1    1    2  506  502  0.45347897673E+01  0.31527637921E+02 -0.55057115650E+00  0.31856857969E+02  0.00000000000E+00 0. -1.
<scales pt_clust_3="113.88124" pt_clust_4="14000.00000" pt_clust_5="31.78949" pt_clust_6="31.85210"></scales>
<clustering>
<clus scale="   31.852">  2  6  1 -1</clus>
<clus scale="   31.789">  1  5  2 -1</clus>
<clus scale="  113.881">  2  3  1 -1</clus>
<clus scale="   31.789">  1  3  2 -1</clus>
</clustering>
</event>
<event>
 6    0  0.8520634E+002  0.1070213E+03  0.7546771E-02  0.1266188E+00
         21   -1    0    0  503  501  0.00000000000E+00  0.00000000000E+00  0.56679273660E+03  0.56679273660E+03  0.00000000000E+00 0.  1.
         21   -1    0    0  504  502 -0.00000000000E+00 -0.00000000000E+00 -0.34043204448E+03  0.34043204448E+03  0.00000000000E+00 0.  1.
         21    1    1    2  503  505 -0.95210240035E+01  0.42660050348E+02  0.14861551651E+03  0.15490997883E+03  0.00000000000E+00 0.  1.
         21    1    1    2  504  506 -0.93138612820E+00 -0.33544079223E+02 -0.90279283311E+01  0.34750197423E+02  0.00000000000E+00 0.  1.
         21    1    1    2  505  502  0.25758266819E+02  0.13374925647E+03 -0.28669771210E+03  0.31740814425E+03  0.00000000000E+00 0.  1.
         21    1    1    2  506  501 -0.15305856687E+02 -0.14286522760E+03  0.37347081603E+03  0.40015646057E+03  0.00000000000E+00 0.  1.
<scales pt_clust_3="43.38823" pt_clust_4="33.55701" pt_clust_5="107.02125" pt_clust_6="14000.00000"></scales>
<clustering>
<clus scale="   33.557">  2  4  1 -1</clus>
<clus scale="   43.388">  1  3  2 -1</clus>
<clus scale="  107.021">  2  5  1 -1</clus>
<clus scale="   43.388">  1  3  2 -1</clus>
</clustering>
</event>
<event>
 6    0  0.8520634E+002  0.7487565E+02  0.7546771E-02  0.1344257E+00
         21   -1    0    0  505  501  0.00000000000E+00  0.00000000000E+00  0.59162354174E+03  0.59162354174E+03  0.00000000000E+00 0.  1.
         21   -1    0    0  506  502 -0.00000000000E+00 -0.00000000000E+00 -0.91337245060E+02  0.91337245060E+02  0.00000000000E+00 0. -1.
         21    1    1    2  503  504 -0.80010713470E+02  0.27651529439E+02  0.15676752251E+03  0.17816390618E+03  0.00000000000E+00 0.  1.
         21    1    1    2  504  501  0.28768392703E+02  0.38547957612E+02  0.31851375964E+03  0.32212510075E+03  0.00000000000E+00 0.  1.
         21    1    1    2  505  502  0.39880679538E+02  0.11859958187E+02  0.77469787820E+02  0.87935744914E+02  0.00000000000E+00 0.  1.
         21    1    1    2  506  503  0.11361641229E+02 -0.78059445238E+02 -0.52464773293E+02  0.94736034955E+02  0.00000000000E+00 0. -1.
<scales pt_clust_3="74.87565" pt_clust_4="70.84569" pt_clust_5="41.60682" pt_clust_6="14000.00000"></scales>
<clustering>
<clus scale="   41.607">  1  5  2 -1</clus>
<clus scale="   70.846">  1  4  2 -1</clus>
<clus scale="   74.876">  1  3  2 -1</clus>
<clus scale="   41.607">  1  3  2 -1</clus>
</clustering>
</event>
<event>
 6    0  0.8520634E+002  0.1273009E+03  0.7546771E-02  0.1231516E+00
         21   -1    0    0  503  501  0.00000000000E+00  0.00000000000E+00  0.21969329706E+03  0.21969329706E+03  0.00000000000E+00 0. -1.
         21   -1    0    0  506  502 -0.00000000000E+00 -0.00000000000E+00 -0.45210734300E+03  0.45210734300E+03  0.00000000000E+00 0.  1.
         21    1    1    2  503  505 -0.13084070415E+03  0.14075984480E+02  0.16348063086E+03  0.20986505156E+03  0.00000000000E+00 0. -1.
         21    1    1    2  504  502 -0.59990142637E+01 -0.29709793911E+02 -0.21300859130E+03  0.21515417727E+03  0.00000000000E+00 0.  1.
         21    1    1    2  505  504  0.93950226041E+02  0.18301318683E+02 -0.17981030146E+03  0.20369911082E+03  0.00000000000E+00 0.  1.
         21    1    1    2  506  501  0.42889492371E+02 -0.26675092516E+01 -0.30757840462E+01  0.43082300414E+02  0.00000000000E+00 0.  1.
<scales pt_clust_3="14000.00000" pt_clust_4="30.30940" pt_clust_5="127.30095" pt_clust_6="42.67007"></scales>
<clustering>
<clus scale="   30.309">  2  4  1 -1</clus>
<clus scale="   42.670">  2  6  1 -1</clus>
<clus scale="  127.301">  2  5  1 -1</clus>
<clus scale="  127.301">  1  3  2 -1</clus>
</clustering>
</event>
<event>
 6    0  0.8520634E+002  0.7672958E+02  0.7546771E-02  0.1338597E+00
         21   -1    0    0  506  501  0.00000000000E+00  0.00000000000E+00  0.18755077365E+04  0.18755077365E+04  0.00000000000E+00 0.  1.
         21   -1    0    0  504  502 -0.00000000000E+00 -0.00000000000E+00 -0.25057198212E+03  0.25057198212E+03  0.00000000000E+00 0. -1.
         21    1    1    2  503  501 -0.67329014811E+02  0.81279937021E+02  0.16131197615E+04  0.16165688941E+04  0.00000000000E+00 0.  1.
         21    1    1    2  504  503  0.34176889479E+02  0.27933948557E+02 -0.21392309508E+03  0.21842952150E+03  0.00000000000E+00 0. -1.
         21    1    1    2  505  502 -0.87414179368E+01 -0.97296912036E+02  0.49450502510E+02  0.10949179731E+03  0.00000000000E+00 0.  1.
         21    1    1    2  506  505  0.41893543269E+02 -0.11916973542E+02  0.17628858548E+03  0.18158950574E+03  0.00000000000E+00 0.  1.
<scales pt_clust_3="76.72958" pt_clust_4="44.17338" pt_clust_5="14000.00000" pt_clust_6="43.55552"></scales>
<clustering>
<clus scale="   43.556">  1  6  2 -1</clus>
<clus scale="   44.173">  2  4  1 -1</clus>
<clus scale="   76.730">  1  3  2 -1</clus>
<clus scale="   43.556">  1  3  2 -1</clus>
</clustering>
</event>
<event>
 6    0  0.8520634E+002  0.1113315E+03  0.7546771E-02  0.1258124E+00
         21   -1    0    0  504  501  0.00000000000E+00  0.00000000000E+00  0.29171027469E+02  0.29171027469E+02  0.00000000000E+00 0.  1.
         21   -1    0    0  506  502 -0.00000000000E+00 -0.00000000000E+00 -0.78594190728E+03  0.78594190728E+03  0.00000000000E+00 0.  1.
         21    1    1    2  503  501 -0.30975599977E+02 -0.75746676909E+02 -0.18621596143E+03  0.20340459962E+03  0.00000000000E+00 0.  1.
         21    1    1    2  504  505  0.24236367218E+02  0.42097914431E+02 -0.43621311190E+02  0.65287477247E+02  0.00000000000E+00 0.  1.
         21    1    1    2  505  502  0.51594049227E+02  0.56006163220E+02 -0.17382037532E+03  0.18976869897E+03  0.00000000000E+00 0.  1.
         21    1    1    2  506  503 -0.44854816468E+02 -0.22357400742E+02 -0.35311323187E+03  0.35665215891E+03  0.00000000000E+00 0.  1.
<scales pt_clust_3="99.98303" pt_clust_4="39.11234" pt_clust_5="39.11234" pt_clust_6="50.11794"></scales>
<clustering>
<clus scale="   39.112">  4  5 -1 -1</clus>
<clus scale="   50.118">  2  6  1 -1</clus>
<clus scale="   99.983">  1  3  2 -1</clus>
<clus scale="   99.983">  1  3  2 -1</clus>
</clustering>
</event>
<event>
 6    0  0.8520634E+002  0.3343511E+03  0.7546771E-02  0.1069228E+00
         21   -1    0    0  506  501  0.00000000000E+00  0.00000000000E+00  0.88440220786E+03  0.88440220786E+03  0.00000000000E+00 0.  1.
         21   -1    0    0  505  502 -0.00000000000E+00 -0.00000000000E+00 -0.19412316266E+04  0.19412316266E+04  0.00000000000E+00 0.  1.
         21    1    1    2  503  501 -0.21945088506E+02  0.24529863000E+02  0.24139579127E+03  0.24362928628E+03  0.00000000000E+00 0.  1.
         21    1    1    2  504  503  0.35352237603E+03  0.13089753357E+03  0.10307164817E+03  0.39081453313E+03  0.00000000000E+00 0.  1.
         21    1    1    2  505  504 -0.27699509546E+02 -0.98366290651E+02 -0.17339946709E+04  0.17370033703E+04  0.00000000000E+00 0.  1.
         21    1    1    2  506  502 -0.30387777798E+03 -0.57061105918E+02  0.33269781263E+03  0.45418664477E+03  0.00000000000E+00 0.  1.
<scales pt_clust_3="32.91354" pt_clust_4="14000.00000" pt_clust_5="102.15055" pt_clust_6="334.35110"></scales>
<clustering>
<clus scale="   32.914">  1  3  2 -1</clus>
<clus scale="  102.151">  2  5  1 -1</clus>
<clus scale="  334.351">  1  6  2 -1</clus>
<clus scale="   32.914">  1  3  2 -1</clus>
</clustering>
</event>
<event>
 6    0  0.8520634E+002  0.1151907E+03  0.7546771E-02  0.1251249E+00
         21   -1    0    0  505  501  0.00000000000E+00  0.00000000000E+00  0.12472448495E+04  0.12472448495E+04  0.00000000000E+00 0.  1.
         21   -1    0    0  504  502 -0.00000000000E+00 -0.00000000000E+00 -0.30406442676E+03  0.30406442676E+03  0.00000000000E+00 0. -1.
         21    1    1    2  503  501 -0.15375571234E+01 -0.33503428990E+02  0.23256005457E+03  0.23496600354E+03  0.00000000000E+00 0.  1.
         21    1    1    2  504  506 -0.28193188149E+02 -0.84304430082E+02 -0.96731641115E+02  0.13137390602E+03  0.00000000000E+00 0. -1.
         21    1    1    2  505  502  0.15201586606E+02 -0.30686467803E+02 -0.18161257124E+03  0.18481307738E+03  0.00000000000E+00 0. -1.
         21    1    1    2  506  503  0.14529158667E+02  0.14849432687E+03  0.98896458052E+03  0.10001562893E+04  0.00000000000E+00 0.  1.
<scales pt_clust_3="33.53869" pt_clust_4="115.19073" pt_clust_5="34.29174" pt_clust_6="14000.00000"></scales>
<clustering>
<clus scale="   33.539">  1  3  2 -1</clus>
<clus scale="   34.292">  2  5  1 -1</clus>
<clus scale="  115.191">  2  4  1 -1</clus>
<clus scale="   33.539">  1  3  2 -1</clus>
</clustering>
</event>
<event>
 6    0  0.8520634E+002  0.9529464E+02  0.7546771E-02  0.1290514E+00
         21   -1    0    0  503  501  0.00000000000E+00  0.00000000000E+00  0.30351402966E+03  0.30351402966E+03  0.00000000000E+00 0. -1.
         21   -1    0    0  504  502 -0.00000000000E+00 -0.00000000000E+00 -0.66506808140E+03  0.66506808140E+03  0.00000000000E+00 0.  1.
         21    1    1    2  503  505 -0.16336178174E+02  0.33690721926E+02  0.21708955041E+03  0.22029482145E+03  0.00000000000E+00 0. -1.
         21    1    1    2  504  501 -0.80633179245E+02 -0.34401866958E+02  0.51536676153E+02  0.10169182383E+03  0.00000000000E+00 0. -1.
         21    1    1    2  505  506  0.92526450764E+02  0.38283556897E+02 -0.35590673005E+03  0.36972472911E+03  0.00000000000E+00 0.  1.
         21    1    1    2  506  502  0.44429066556E+01 -0.37572411864E+02 -0.27427354824E+03  0.27687073666E+03  0.00000000000E+00 0.  1.
<scales pt_clust_3="37.44243" pt_clust_4="14000.00000" pt_clust_5="95.29464" pt_clust_6="37.29306"></scales>
<clustering>
<clus scale="   37.442">  1  3  2 -1</clus>
<clus scale="   37.293">  2  6  1 -1</clus>
<clus scale="   95.295">  2  5  1 -1</clus>
<clus scale="   37.442">  1  3  2 -1</clus>
</clustering>
</event>
<event>
 6    0  0.8520634E+002  0.9057983E+02  0.7546771E-02  0.1301454E+00
         21   -1    0    0  503  501  0.00000000000E+00  0.00000000000E+00  0.93314630142E+03  0.93314630142E+03  0.00000000000E+00 0. -1.
         21   -1    0    0  506  502 -0.00000000000E+00 -0.00000000000E+00 -0.75284551312E+03  0.75284551312E+03  0.00000000000E+00 0.  1.
         21    1    1    2  503  504 -0.38603280691E+02  0.18573333770E+00  0.25255244861E+03  0.25548578644E+03  0.00000000000E+00 0. -1.
         21    1    1    2  504  502  0.62122906884E+02 -0.85516237303E+02  0.55978695194E+03  0.56967860585E+03  0.00000000000E+00 0. -1.
         21    1    1    2  505  501 -0.60180493686E+02  0.71125415179E+02  0.94804002309E+02  0.13292221544E+03  0.00000000000E+00 0. -1.
         21    1    1    2  506  505  0.36660867493E+02  0.14205088786E+02 -0.72684261456E+03  0.72790520680E+03  0.00000000000E+00 0.  1.
<scales pt_clust_3="38.60373" pt_clust_4="90.57983" pt_clust_5="14000.00000" pt_clust_6="39.28860"></scales>
<clustering>
<clus scale="   38.604">  1  3  2 -1</clus>
<clus scale="   39.289">  2  6  1 -1</clus>
<clus scale="   90.580">  1  4  2 -1</clus>
<clus scale="   38.604">  1  3  2 -1</clus>
</clustering>
</event>
<event>
 6    0  0.8520634E+002  0.7018468E+02  0.7546771E-02  0.1359466E+00
         21   -1    0    0  505  501  0.00000000000E+00  0.00000000000E+00  0.52423797289E+03  0.52423797289E+03  0.00000000000E+00 0. -1.
         21   -1    0    0  506  502 -0.00000000000E+00 -0.00000000000E+00 -0.41791285456E+02  0.41791285456E+02  0.00000000000E+00 0. -1.
         21    1    1    2  503  504 -0.73679892160E+02 -0.61903716907E+02  0.93229679178E+02  0.13398719997E+03  0.00000000000E+00 0. -1.
         21    1    1    2  504  502  0.47971915330E+02  0.20829201742E+02  0.44366620705E+02  0.68582485653E+02  0.00000000000E+00 0. -1.
         21    1    1    2  505  503 -0.26833071884E+02 -0.20084666228E+02  0.11986056615E+03  0.12445867942E+03  0.00000000000E+00 0. -1.
         21    1    1    2  506  501  0.52541048715E+02  0.61159181393E+02  0.22498982140E+03  0.23900089331E+03  0.00000000000E+00 0. -1.
<scales pt_clust_3="14000.00000" pt_clust_4="47.73052" pt_clust_5="33.51727" pt_clust_6="70.18468"></scales>
<clustering>
<clus scale="   33.517">  1  5  2 -1</clus>
<clus scale="   47.731">  2  4  1 -1</clus>
<clus scale="   70.185">  1  6  2 -1</clus>
<clus scale="   33.517">  1  3  2 -1</clus>
</clustering>
</event>
<event>
 6    0  0.8520634E+002  0.1958536E+03  0.7546771E-02  0.1153285E+00
         21   -1    0    0  506  501  0.00000000000E+00  0.00000000000E+00  0.60026068488E+03  0.60026068488E+03  0.00000000000E+00 0.  1.
         21   -1    0    0  505  502 -0.00000000000E+00 -0.00000000000E+00 -0.23116216473E+03  0.23116216473E+03  0.00000000000E+00 0. -1.
         21    1    1    2  503  501  0.15393805073E+03  0.63759249479E+02 -0.11176004489E+03  0.20063018963E+03  0.00000000000E+00 0. -1.
         21    1    1    2  504  502 -0.10290431732E+03 -0.40383174213E+02  0.21862817999E+03  0.24498649018E+03  0.00000000000E+00 0.  1.
         21    1    1    2  505  503  0.25059801861E+02 -0.30527145376E+02 -0.50364372421E+02  0.64003673984E+02  0.00000000000E+00 0. -1.
         21    1    1    2  506  504 -0.76093535263E+02  0.71510701094E+01  0.31259475747E+03  0.32180249581E+03  0.00000000000E+00 0.  1.
<scales pt_clust_3="180.14243" pt_clust_4="63.85750" pt_clust_5="39.49557" pt_clust_6="63.85750"></scales>
<clustering>
<clus scale="   39.496">  2  5  1 -1</clus>
<clus scale="   63.857">  4  6 -1 -1</clus>
<clus scale="  180.142">  2  3  1 -1</clus>
<clus scale="  195.854">  1  3  2 -1</clus>
</clustering>
</event>
<event>
 6    0  0.8520634E+002  0.1257008E+03  0.7546771E-02  0.1233978E+00
         21   -1    0    0  503  501  0.00000000000E+00  0.00000000000E+00  0.71277657886E+03  0.71277657886E+03  0.00000000000E+00 0. -1.
         21   -1    0    0  506  502 -0.00000000000E+00 -0.00000000000E+00 -0.94505949898E+02  0.94505949898E+02  0.00000000000E+00 0. -1.
         21    1    1    2  503  505  0.28638316769E+02  0.38323335903E+02  0.24441239540E+03  0.24905069823E+03  0.00000000000E+00 0. -1.
         21    1    1    2  504  502 -0.10838472608E+03 -0.76058935021E+02  0.16767326953E+01  0.13241986965E+03  0.00000000000E+00 0. -1.
         21    1    1    2  505  504  0.79272763342E+02  0.82071308592E+02  0.10528349921E+03  0.15525619443E+03  0.00000000000E+00 0. -1.
         21    1    1    2  506  501  0.47364597391E+00 -0.44335709473E+02  0.26689800165E+03  0.27055576645E+03  0.00000000000E+00 0. -1.
<scales pt_clust_3="31.97930" pt_clust_4="14000.00000" pt_clust_5="125.70080" pt_clust_6="44.33824"></scales>
<clustering>
<clus scale="   44.338">  1  6  2 -1</clus>
<clus scale="   31.979">  1  3  2 -1</clus>
<clus scale="  125.701">  1  5  2 -1</clus>
<clus scale="   44.338">  1  3  2 -1</clus>
</clustering>
</event>
<event>
 6    0  0.8520634E+002  0.1275000E+03  0.7546771E-02  0.1231213E+00
         21   -1    0    0  505  501  0.00000000000E+00  0.00000000000E+00  0.96796522680E+02  0.96796522680E+02  0.00000000000E+00 0. -1.
         21   -1    0    0  503  502 -0.00000000000E+00 -0.00000000000E+00 -0.89615185927E+03  0.89615185927E+03  0.00000000000E+00 0. -1.
         21    1    1    2  503  506 -0.34393018418E+02 -0.18071577881E+02 -0.78107275724E+02  0.87236507060E+02  0.00000000000E+00 0. -1.
         21    1    1    2  504  502 -0.42494923262E+02 -0.83927782978E+02 -0.67674081277E+03  0.68324799226E+03  0.00000000000E+00 0. -1.
         21    1    1    2  505  504 -0.21530935866E+02 -0.23157172377E+02  0.32722489518E+02  0.45503814698E+02  0.00000000000E+00 0. -1.
         21    1    1    2  506  501  0.98418877547E+02  0.12515653324E+03 -0.77229737607E+02  0.17696006793E+03  0.00000000000E+00 0. -1.
<scales pt_clust_3="41.22076" pt_clust_4="14000.00000" pt_clust_5="31.62018" pt_clust_6="127.50003"></scales>
<clustering>
<clus scale="   31.620">  1  5  2 -1</clus>
<clus scale="   41.221">  2  3  1 -1</clus>
<clus scale="  127.500">  1  6  2 -1</clus>
<clus scale="   31.620">  1  3  2 -1</clus>
</clustering>
</event>
<event>
 6    0  0.8520634E+002  0.6444612E+02  0.7546771E-02  0.1380067E+00
         21   -1    0    0  505  501  0.00000000000E+00  0.00000000000E+00  0.11795942081E+04  0.11795942081E+04  0.00000000000E+00 0.  1.
         21   -1    0    0  503  502 -0.00000000000E+00 -0.00000000000E+00 -0.26981209861E+02  0.26981209861E+02  0.00000000000E+00 0.  1.
         21    1    1    2  503  501 -0.61526158002E+02  0.40647040245E+02  0.10271691841E+03  0.12644530567E+03  0.00000000000E+00 0.  1.
         21    1    1    2  504  502  0.46700892942E+02 -0.26234773113E+02  0.72105313335E+02  0.89824344880E+02  0.00000000000E+00 0.  1.
         21    1    1    2  505  506 -0.52013845856E+02  0.29964278837E+02  0.65297690297E+03  0.65573022957E+03  0.00000000000E+00 0.  1.
         21    1    1    2  506  504  0.66839110915E+02 -0.44376545969E+02  0.32481386356E+03  0.33457553787E+03  0.00000000000E+00 0.  1.
<scales pt_clust_3="38.84433" pt_clust_4="53.56526" pt_clust_5="64.44612" pt_clust_6="14000.00000"></scales>
<clustering>
<clus scale="   53.565">  2  4  1 -1</clus>
<clus scale="   38.844">  2  3  1 -1</clus>
<clus scale="   64.446">  1  5  2 -1</clus>
<clus scale="   64.446">  1  3  2 -1</clus>
</clustering>
</event>
<event>
 6    0  0.8520634E+002  0.8977142E+02  0.7546771E-02  0.1303406E+00
         21   -1    0    0  504  501  0.00000000000E+00  0.00000000000E+00  0.84118428345E+03  0.84118428345E+03  0.00000000000E+00 0. -1.
         21   -1    0    0  503  502 -0.00000000000E+00 -0.00000000000E+00 -0.54513701657E+02  0.54513701657E+02  0.00000000000E+00 0.  1.
         21    1    1    2  503  506 -0.10232355201E+03  0.72638587023E+02  0.49912348257E+02  0.13504708857E+03  0.00000000000E+00 0.  1.
         21    1    1    2  504  505  0.34490682405E+02 -0.48886781386E-01  0.38216865342E+03  0.38372189046E+03  0.00000000000E+00 0. -1.
         21    1    1    2  505  502  0.35641328565E+02 -0.89852132933E+01  0.39832445119E+02  0.54200203357E+02  0.00000000000E+00 0.  1.
         21    1    1    2  506  501  0.32191541045E+02 -0.63604486949E+02  0.31475713501E+03  0.32272880273E+03  0.00000000000E+00 0. -1.
<scales pt_clust_3="89.77142" pt_clust_4="34.49072" pt_clust_5="40.19836" pt_clust_6="14000.00000"></scales>
<clustering>
<clus scale="   34.491">  1  4  2 -1</clus>
<clus scale="   40.198">  2  5  1 -1</clus>
<clus scale="   89.771">  2  3  1 -1</clus>
<clus scale="   34.491">  1  3  2 -1</clus>
</clustering>
</event>
<event>
 6    0  0.8520634E+002  0.7180816E+02  0.7546771E-02  0.1354050E+00
         21   -1    0    0  506  501  0.00000000000E+00  0.00000000000E+00  0.44696630064E+02  0.44696630064E+02  0.00000000000E+00 0. -1.
         21   -1    0    0  504  502 -0.00000000000E+00 -0.00000000000E+00 -0.12406499975E+04  0.12406499975E+04  0.00000000000E+00 0. -1.
         21    1    1    2  503  502  0.56542444242E+02  0.48438763476E+02 -0.62184925828E+03  0.62629055703E+03  0.00000000000E+00 0.  1.
         21    1    1    2  504  501 -0.53464464699E+02  0.39032746827E+02 -0.48343222806E+03  0.48794336090E+03  0.00000000000E+00 0. -1.
         21    1    1    2  505  503 -0.40921064533E+02 -0.47496053654E+02 -0.97216608697E+02  0.11567833696E+03  0.00000000000E+00 0.  1.
         21    1    1    2  506  505  0.37843084989E+02 -0.39975456649E+02  0.65447275939E+01  0.55434372686E+02  0.00000000000E+00 0. -1.
<scales pt_clust_3="71.80816" pt_clust_4="57.31190" pt_clust_5="14000.00000" pt_clust_6="55.04667"></scales>
<clustering>
<clus scale="   55.047">  1  6  2 -1</clus>
<clus scale="   57.312">  2  4  1 -1</clus>
<clus scale="   71.808">  2  3  1 -1</clus>
<clus scale="   55.047">  1  3  2 -1</clus>
</clustering>
</event>
<event>
 6    0  0.8520634E+002  0.1207419E+03  0.7546771E-02  0.1241878E+00
         21   -1    0    0  506  501  0.00000000000E+00  0.00000000000E+00  0.28009979768E+02  0.28009979768E+02  0.00000000000E+00 0.  1.
         21   -1    0    0  503  502 -0.00000000000E+00 -0.00000000000E+00 -0.13177178323E+04  0.13177178323E+04  0.00000000000E+00 0.  1.
         21    1    1    2  503  504 -0.19982517235E+02  0.53110335531E+02 -0.36440392136E+03  0.36879564346E+03  0.00000000000E+00 0.  1.
         21    1    1    2  504  501 -0.94730168736E+02 -0.23068087056E+02 -0.77337954490E+03  0.77950103398E+03  0.00000000000E+00 0.  1.
         21    1    1    2  505  502  0.42098099500E+02 -0.14832574010E+02 -0.27083169649E+02  0.52208747461E+02  0.00000000000E+00 0.  1.
         21    1    1    2  506  505  0.72614586471E+02 -0.15209674465E+02 -0.12484121664E+03  0.14522238718E+03  0.00000000000E+00 0.  1.
<scales pt_clust_3="56.74512" pt_clust_4="112.88098" pt_clust_5="33.23973" pt_clust_6="33.23973"></scales>
<clustering>
<clus scale="   33.240">  5  6 -1 -1</clus>
<clus scale="   56.745">  2  3  1 -1</clus>
<clus scale="  112.881">  2  4  1 -1</clus>
<clus scale="  120.742">  1  3  2 -1</clus>
</clustering>
</event>
<event>
 6    0  0.8520634E+002  0.1091688E+03  0.7546771E-02  0.1262117E+00
         21   -1    0    0  505  501  0.00000000000E+00  0.00000000000E+00  0.57402403221E+03  0.57402403221E+03  0.00000000000E+00 0. -1.
         21   -1    0    0  501  502 -0.00000000000E+00 -0.00000000000E+00 -0.29384294867E+03  0.29384294867E+03  0.00000000000E+00 0.  1.
         21    1    1    2  503  502  0.38847787123E+02  0.43176555691E+01 -0.23640010377E+03  0.23960968631E+03  0.00000000000E+00 0.  1.
         21    1    1    2  504  503 -0.11013388996E+03 -0.71138179382E+02  0.13300254064E+03  0.18676131853E+03  0.00000000000E+00 0.  1.
         21    1    1    2  505  506 -0.29462209262E+02  0.73304975536E+02  0.30061678467E+03  0.31082485815E+03  0.00000000000E+00 0. -1.
         21    1    1    2  506  504  0.10074831210E+03 -0.64844517228E+01  0.82961861988E+02  0.13067111789E+03  0.00000000000E+00 0.  1.
<scales pt_clust_3="39.08699" pt_clust_4="14000.00000" pt_clust_5="78.12188" pt_clust_6="109.16876"></scales>
<clustering>
<clus scale="   39.087">  2  3  1 -1</clus>
<clus scale="   78.122">  1  5  2 -1</clus>
<clus scale="  109.169">  1  6  2 -1</clus>
<clus scale="   78.122">  1  3  2 -1</clus>
</clustering>
</event>
<event>
 6    0  0.8520634E+002  0.9033064E+02  0.7546771E-02  0.1302053E+00
         21   -1    0    0  505  501  0.00000000000E+00  0.00000000000E+00  0.24394831233E+03  0.24394831233E+03  0.00000000000E+00 0. -1.
         21   -1    0    0  504  502 -0.00000000000E+00 -0.00000000000E+00 -0.12607253853E+03  0.12607253853E+03  0.00000000000E+00 0.  1.
         21    1    1    2  503  506  0.44947231592E+02 -0.95286371511E+02  0.52545610694E+02  0.11773184542E+03  0.00000000000E+00 0. -1.
         21    1    1    2  504  501 -0.38160713108E+02  0.65354358450E+02 -0.21244270266E+02  0.78605032997E+02  0.00000000000E+00 0.  1.
         21    1    1    2  505  503  0.31893216579E+02  0.32824803124E+02  0.11619236460E+03  0.12488118575E+03  0.00000000000E+00 0. -1.
         21    1    1    2  506  502 -0.38679735063E+02 -0.28927900629E+01 -0.29617931228E+02  0.48802786694E+02  0.00000000000E+00 0.  1.
<scales pt_clust_3="14000.00000" pt_clust_4="90.33064" pt_clust_5="44.33408" pt_clust_6="38.78776"></scales>
<clustering>
<clus scale="   38.788">  2  6  1 -1</clus>
<clus scale="   44.334">  1  5  2 -1</clus>
<clus scale="   90.331">  2  4  1 -1</clus>
<clus scale="   44.334">  1  3  2 -1</clus>
</clustering>
</event>
<event>
 6    0  0.8520634E+002  0.7372222E+02  0.7546771E-02  0.1347874E+00
         21   -1    0    0  505  501  0.00000000000E+00  0.00000000000E+00  0.67840015688E+03  0.67840015688E+03  0.00000000000E+00 0. -1.
         21   -1    0    0  506  502 -0.00000000000E+00 -0.00000000000E+00 -0.15651240153E+03  0.15651240153E+03  0.00000000000E+00 0. -1.
         21    1    1    2  503  501 -0.22977193937E+02  0.54952124257E+02  0.91286519418E+02  0.10899961481E+03  0.00000000000E+00 0. -1.
         21    1    1    2  504  502  0.76766045011E+02  0.30201710027E+02  0.97363742689E+02  0.12761217554E+03  0.00000000000E+00 0. -1.
         21    1    1    2  505  504  0.62370226708E+01 -0.43412872860E+02  0.45454939503E+03  0.45666041048E+03  0.00000000000E+00 0. -1.
         21    1    1    2  506  503 -0.60025873745E+02 -0.41740961424E+02 -0.12131190178E+03  0.14164035757E+03  0.00000000000E+00 0. -1.
<scales pt_clust_3="40.77844" pt_clust_4="14000.00000" pt_clust_5="43.85861" pt_clust_6="73.72222"></scales>
<clustering>
<clus scale="   43.859">  1  5  2 -1</clus>
<clus scale="   40.778">  1  3  2 -1</clus>
<clus scale="   73.722">  2  6  1 -1</clus>
<clus scale="   43.859">  1  3  2 -1</clus>
</clustering>
</event>
<event>
 6    0  0.8520634E+002  0.9687799E+02  0.7546771E-02  0.1287002E+00
         21   -1    0    0  506  501  0.00000000000E+00  0.00000000000E+00  0.34549490938E+03  0.34549490938E+03  0.00000000000E+00 0.  1.
         21   -1    0    0  503  502 -0.00000000000E+00 -0.00000000000E+00 -0.16492023183E+03  0.16492023183E+03  0.00000000000E+00 0.  1.
         21    1    1    2  503  505 -0.10400679877E+03  0.91305911858E+02  0.93134430061E+02  0.16681788211E+03  0.00000000000E+00 0.  1.
         21    1    1    2  504  502  0.88632102552E+02 -0.26690818828E+02 -0.10083648701E+03  0.13687967901E+03  0.00000000000E+00 0.  1.
         21    1    1    2  505  501 -0.73804176009E+01 -0.43971644246E+02  0.15561430778E+03  0.16187584392E+03  0.00000000000E+00 0.  1.
         21    1    1    2  506  504  0.22755113815E+02 -0.20643448784E+02  0.32662426722E+02  0.44841736160E+02  0.00000000000E+00 0. -1.
<scales pt_clust_3="14000.00000" pt_clust_4="96.87799" pt_clust_5="54.83150" pt_clust_6="30.72372"></scales>
<clustering>
<clus scale="   30.724">  1  6  2 -1</clus>
<clus scale="   54.831">  1  5  2 -1</clus>
<clus scale="   96.878">  2  4  1 -1</clus>
<clus scale="   30.724">  1  3  2 -1</clus>
</clustering>
</event>
<event>
 6    0  0.8520634E+002  0.1607897E+03  0.7546771E-02  0.1187808E+00
         21   -1    0    0  506  501  0.00000000000E+00  0.00000000000E+00  0.44619920760E+03  0.44619920760E+03  0.00000000000E+00 0.  1.
         21   -1    0    0  505  502 -0.00000000000E+00 -0.00000000000E+00 -0.21918008183E+03  0.21918008183E+03  0.00000000000E+00 0.  1.
         21    1    1    2  503  501  0.57292990494E+01  0.48933260552E+02  0.10241608456E+03  0.11365009121E+03  0.00000000000E+00 0. -1.
         21    1    1    2  504  502  0.19669449304E+02  0.42738718092E+02 -0.12260034056E+03  0.13131766357E+03  0.00000000000E+00 0.  1.
         21    1    1    2  505  503 -0.10417092907E+03  0.87897036058E+02  0.14605473312E+03  0.19977351295E+03  0.00000000000E+00 0.  1.
         21    1    1    2  506  504  0.78772180712E+02 -0.17956901470E+03  0.10114864865E+03  0.22063802170E+03  0.00000000000E+00 0.  1.
<scales pt_clust_3="51.99988" pt_clust_4="47.04769" pt_clust_5="160.78969" pt_clust_6="14000.00000"></scales>
<clustering>
<clus scale="   47.048">  2  4  1 -1</clus>
<clus scale="   52.000">  1  3  2 -1</clus>
<clus scale="  160.790">  1  5  2 -1</clus>
<clus scale="   52.000">  1  3  2 -1</clus>
</clustering>
</event>
<event>
 6    0  0.8520634E+002  0.6829051E+02  0.7546771E-02  0.1366005E+00
         21   -1    0    0  503  501  0.00000000000E+00  0.00000000000E+00  0.16778153762E+03  0.16778153762E+03  0.00000000000E+00 0. -1.
         21   -1    0    0  504  502 -0.00000000000E+00 -0.00000000000E+00 -0.76072687552E+03  0.76072687552E+03  0.00000000000E+00 0.  1.
         21    1    1    2  503  506 -0.65698997415E+02 -0.32231620802E+02  0.12347955019E+03  0.14353548327E+03  0.00000000000E+00 0. -1.
         21    1    1    2  504  505 -0.64570470660E+01  0.33251370616E+02 -0.61922179488E+02  0.70581183166E+02  0.00000000000E+00 0.  1.
         21    1    1    2  505  501  0.21064196627E+02  0.61782149318E+02 -0.11460032742E+02  0.66272669362E+02  0.00000000000E+00 0.  1.
         21    1    1    2  506  502  0.51091847854E+02 -0.62801899132E+02 -0.64304267586E+03  0.64811907736E+03  0.00000000000E+00 0.  1.
<scales pt_clust_3="14000.00000" pt_clust_4="33.87251" pt_clust_5="68.29051" pt_clust_6="55.22796"></scales>
<clustering>
<clus scale="   33.873">  2  4  1 -1</clus>
<clus scale="   55.228">  2  6  1 -1</clus>
<clus scale="   68.291">  2  5  1 -1</clus>
<clus scale="   68.291">  1  3  2 -1</clus>
</clustering>
</event>
<event>
 6    0  0.8520634E+002  0.1301477E+03  0.7546771E-02  0.1227237E+00
         21   -1    0    0  503  501  0.00000000000E+00  0.00000000000E+00  0.10129729484E+04  0.10129729484E+04  0.00000000000E+00 0.  1.
         21   -1    0    0  506  502 -0.00000000000E+00 -0.00000000000E+00 -0.23853800917E+03  0.23853800917E+03  0.00000000000E+00 0. -1.
         21    1    1    2  503  504 -0.99951883939E+02  0.83663956974E+02  0.91565213332E+03  0.92488316346E+03  0.00000000000E+00 0.  1.
         21    1    1    2  504  505  0.71857527902E+02 -0.10729065669E+03 -0.11053893280E+03  0.16998130778E+03  0.00000000000E+00 0. -1.
         21    1    1    2  505  502 -0.39053621804E+02 -0.83437883634E+01 -0.63772943063E+02  0.75244883196E+02  0.00000000000E+00 0.  1.
         21    1    1    2  506  501  0.67147977841E+02  0.31970488081E+02  0.33094681820E+02  0.81401603185E+02  0.00000000000E+00 0.  1.
<scales pt_clust_3="14000.00000" pt_clust_4="130.14773" pt_clust_5="39.93500" pt_clust_6="68.83199"></scales>
<clustering>
<clus scale="   39.935">  2  5  1 -1</clus>
<clus scale="   68.832">  2  6  1 -1</clus>
<clus scale="  130.148">  2  4  1 -1</clus>
<clus scale="  130.148">  1  3  2 -1</clus>
</clustering>
</event>
<event>
 6    0  0.8520634E+002  0.8339707E+02  0.7546771E-02  0.1319678E+00
         21   -1    0    0  506  501  0.00000000000E+00  0.00000000000E+00  0.11937805203E+03  0.11937805203E+03  0.00000000000E+00 0. -1.
         21   -1    0    0  504  502 -0.00000000000E+00 -0.00000000000E+00 -0.10070451192E+04  0.10070451192E+04  0.00000000000E+00 0. -1.
         21    1    1    2  503  501  0.71916595683E+02  0.43972773129E+02  0.90516494001E+02  0.12368846833E+03  0.00000000000E+00 0. -1.
         21    1    1    2  504  503 -0.46162849121E+02 -0.62744225357E+02 -0.19359704951E+03  0.20868077064E+03  0.00000000000E+00 0. -1.
         21    1    1    2  505  502  0.65099838635E+01 -0.32368816523E+02 -0.57425164430E+03  0.57520002708E+03  0.00000000000E+00 0. -1.
         21    1    1    2  506  505 -0.32263730426E+02  0.51140268751E+02 -0.21033486735E+03  0.21885390518E+03  0.00000000000E+00 0. -1.
<scales pt_clust_3="14000.00000" pt_clust_4="83.39707" pt_clust_5="33.01697" pt_clust_6="45.53015"></scales>
<clustering>
<clus scale="   33.017">  2  5  1 -1</clus>
<clus scale="   45.530">  2  6  1 -1</clus>
<clus scale="   83.397">  2  4  1 -1</clus>
<clus scale="   83.397">  1  3  2 -1</clus>
</clustering>
</event>
<event>
 6    0  0.8520634E+002  0.1007917E+03  0.7546771E-02  0.1278640E+00
         21   -1    0    0  504  501  0.00000000000E+00  0.00000000000E+00  0.10248209215E+04  0.10248209215E+04  0.00000000000E+00 0. -1.
         21   -1    0    0  506  502 -0.00000000000E+00 -0.00000000000E+00 -0.52689243894E+02  0.52689243894E+02  0.00000000000E+00 0.  1.
         21    1    1    2  503  501 -0.92012709365E+02  0.52612395870E+02  0.43693768566E+03  0.44960976862E+03  0.00000000000E+00 0. -1.
         21    1    1    2  504  505  0.31210763144E+02  0.75706814400E+01  0.22812959105E+03  0.23037911639E+03  0.00000000000E+00 0.  1.
         21    1    1    2  505  502 -0.89255203351E+02 -0.39663100125E+02  0.15270469926E+03  0.18126880044E+03  0.00000000000E+00 0. -1.
         21    1    1    2  506  503  0.15005714957E+03 -0.20519977185E+02  0.15435970167E+03  0.21625247999E+03  0.00000000000E+00 0.  1.
<scales pt_clust_3="100.79175" pt_clust_4="32.11584" pt_clust_5="91.04731" pt_clust_6="14000.00000"></scales>
<clustering>
<clus scale="   32.116">  1  4  2 -1</clus>
<clus scale="   91.047">  2  5  1 -1</clus>
<clus scale="  100.792">  1  3  2 -1</clus>
<clus scale="   32.116">  1  3  2 -1</clus>
</clustering>
</event>
<event>
 6    0  0.8520634E+002  0.1379722E+03  0.7546771E-02  0.1216084E+00
         21   -1    0    0  506  501  0.00000000000E+00  0.00000000000E+00  0.60709306161E+02  0.60709306161E+02  0.00000000000E+00 0. -1.
         21   -1    0    0  505  502 -0.00000000000E+00 -0.00000000000E+00 -0.15221359220E+04  0.15221359220E+04  0.00000000000E+00 0. -1.
         21    1    1    2  503  502 -0.24511459209E+02  0.32719921389E+02 -0.75893571463E+03  0.76003606745E+03  0.00000000000E+00 0. -1.
         21    1    1    2  504  503 -0.52759415515E+02 -0.79933553348E+02 -0.19036188107E+03  0.21309757071E+03  0.00000000000E+00 0. -1.
         21    1    1    2  505  501  0.25306209202E+02  0.16943749785E+03 -0.40269636181E+03  0.43762293097E+03  0.00000000000E+00 0. -1.
         21    1    1    2  506  504  0.51964665523E+02 -0.12222386589E+03 -0.10943265832E+03  0.17208865902E+03  0.00000000000E+00 0. -1.
<scales pt_clust_3="40.88282" pt_clust_4="92.68437" pt_clust_5="137.97224" pt_clust_6="14000.00000"></scales>
<clustering>
<clus scale="   40.883">  2  3  1 -1</clus>
<clus scale="   92.684">  2  4  1 -1</clus>
<clus scale="  137.972">  2  5  1 -1</clus>
<clus scale="  137.972">  1  3  2 -1</clus>
</clustering>
</event>
<event>
 6    0  0.8520634E+002  0.1215820E+03  0.7546771E-02  0.1240510E+00
         21   -1    0    0  503  501  0.00000000000E+00  0.00000000000E+00  0.84373529180E+02  0.84373529180E+02  0.00000000000E+00 0. -1.
         21   -1    0    0  505  502 -0.00000000000E+00 -0.00000000000E+00 -0.59561525561E+03  0.59561525561E+03  0.00000000000E+00 0. -1.
         21    1    1    2  503  504  0.46227360873E+02 -0.10237372434E+02  0.24875385595E+02  0.53484179868E+02  0.00000000000E+00 0. -1.
         21    1    1    2  504  506  0.63840217488E+02  0.22865398843E+01 -0.95689441888E+01  0.64593856723E+02  0.00000000000E+00 0. -1.
         21    1    1    2  505  501 -0.14508171319E+03  0.54837127990E+01 -0.30730092089E+03  0.33987149128E+03  0.00000000000E+00 0. -1.
         21    1    1    2  506  502  0.35014134826E+02  0.24671197511E+01 -0.21924724695E+03  0.22203925692E+03  0.00000000000E+00 0. -1.
<scales pt_clust_3="33.67550" pt_clust_4="33.67550" pt_clust_5="115.11787" pt_clust_6="35.10094"></scales>
<clustering>
<clus scale="   33.676">  3  4 -1 -1</clus>
<clus scale="   35.101">  2  6  1 -1</clus>
<clus scale="  115.118">  2  5  1 -1</clus>
<clus scale="  121.582">  1  3  2 -1</clus>
</clustering>
</event>
<event>
 6    0  0.8520634E+002  0.9666064E+02  0.7546771E-02  0.1287479E+00
         21   -1    0    0  506  501  0.00000000000E+00  0.00000000000E+00  0.40210875960E+03  0.40210875960E+03  0.00000000000E+00 0. -1.
         21   -1    0    0  503  502 -0.00000000000E+00 -0.00000000000E+00 -0.25870954984E+03  0.25870954984E+03  0.00000000000E+00 0. -1.
         21    1    1    2  503  505 -0.69779326043E+02 -0.12495546310E+02 -0.19042021799E+03  0.20318748101E+03  0.00000000000E+00 0. -1.
         21    1    1    2  504  502  0.41187536439E+02  0.20930270293E+02 -0.75087113294E+01  0.46806731549E+02  0.00000000000E+00 0.  1.
         21    1    1    2  505  501 -0.69963626232E+02 -0.36914243091E+02  0.32708053480E+02  0.85600158300E+02  0.00000000000E+00 0. -1.
         21    1    1    2  506  504  0.98555415836E+02  0.28479519108E+02  0.30862008559E+03  0.32522393859E+03  0.00000000000E+00 0. -1.
<scales pt_clust_3="35.17328" pt_clust_4="46.20053" pt_clust_5="14000.00000" pt_clust_6="96.66064"></scales>
<clustering>
<clus scale="   46.201">  2  4  1 -1</clus>
<clus scale="   35.173">  2  3  1 -1</clus>
<clus scale="   96.661">  1  6  2 -1</clus>
<clus scale="   96.661">  1  3  2 -1</clus>
</clustering>
</event>
<event>
 6    0  0.8520634E+002  0.2215562E+03  0.7546771E-02  0.1132728E+00
         21   -1    0    0  503  501  0.00000000000E+00  0.00000000000E+00  0.10966425252E+04  0.10966425252E+04  0.00000000000E+00 0. -1.
         21   -1    0    0  505  502 -0.00000000000E+00 -0.00000000000E+00 -0.86500885612E+03  0.86500885612E+03  0.00000000000E+00 0. -1.
         21    1    1    2  503  506  0.17317208602E+03  0.14027216094E+03 -0.29295527779E+02  0.22477339357E+03  0.00000000000E+00 0. -1.
         21    1    1    2  504  501  0.39687973809E+02  0.47523400159E+02  0.91923507042E+03  0.92131792749E+03  0.00000000000E+00 0. -1.
         21    1    1    2  505  504 -0.40557654953E+02 -0.48874890088E+02  0.45268998627E+02  0.77993336209E+02  0.00000000000E+00 0. -1.
         21    1    1    2  506  502 -0.17230240487E+03 -0.13892067101E+03 -0.70357487221E+03  0.73756672401E+03  0.00000000000E+00 0. -1.
<scales pt_clust_3="14000.00000" pt_clust_4="61.91614" pt_clust_5="41.87479" pt_clust_6="221.55619"></scales>
<clustering>
<clus scale="   61.916">  1  4  2 -1</clus>
<clus scale="   41.875">  1  5  2 -1</clus>
<clus scale="  221.556">  2  6  1 -1</clus>
<clus scale="   61.916">  1  3  2 -1</clus>
</clustering>
</event>
<event>
 6    0  0.8520634E+002  0.2099189E+03  0.7546771E-02  0.1141630E+00
         21   -1    0    0  506  501  0.00000000000E+00  0.00000000000E+00  0.17172489622E+04  0.17172489622E+04  0.00000000000E+00 0.  1.
         21   -1    0    0  503  502 -0.00000000000E+00 -0.00000000000E+00 -0.76855735813E+03  0.76855735813E+03  0.00000000000E+00 0. -1.
         21    1    1    2  503  504 -0.12923327615E+03 -0.15957304962E+03 -0.63193216827E+03  0.66445696860E+03  0.00000000000E+00 0. -1.
         21    1    1    2  504  501 -0.99672594513E+02  0.66149358186E+02  0.89886758109E+02  0.14963286059E+03  0.00000000000E+00 0. -1.
         21    1    1    2  505  502  0.30758688971E+03  0.13110435752E+03  0.22509277852E+03  0.40306923255E+03  0.00000000000E+00 0.  1.
         21    1    1    2  506  505 -0.78681019046E+02 -0.37680666092E+02  0.12656442357E+04  0.12686472586E+04  0.00000000000E+00 0.  1.
<scales pt_clust_3="14000.00000" pt_clust_4="133.02632" pt_clust_5="209.91890" pt_clust_6="87.23838"></scales>
<clustering>
<clus scale="   87.238">  1  6  2 -1</clus>
<clus scale="  133.026">  1  4  2 -1</clus>
<clus scale="  209.919">  1  5  2 -1</clus>
<clus scale="   87.238">  1  3  2 -1</clus>
</clustering>
</event>
<event>
 6    0  0.8520634E+002  0.1124973E+03  0.7546771E-02  0.1256014E+00
         21   -1    0    0  506  501  0.00000000000E+00  0.00000000000E+00  0.14398132463E+03  0.14398132463E+03  0.00000000000E+00 0. -1.
         21   -1    0    0  505  502 -0.00000000000E+00 -0.00000000000E+00 -0.39064360035E+03  0.39064360035E+03  0.00000000000E+00 0.  1.
         21    1    1    2  503  502 -0.55214701741E+02 -0.24984004985E+02  0.98622515202E+01  0.61401366422E+02  0.00000000000E+00 0. -1.
         21    1    1    2  504  501  0.92824246493E+02  0.36413080208E+02  0.17642632138E+02  0.10125964456E+03  0.00000000000E+00 0.  1.
         21    1    1    2  505  504 -0.46054396036E+01  0.37973062381E+02 -0.30336325667E+03  0.30576531693E+03  0.00000000000E+00 0.  1.
         21    1    1    2  506  503 -0.33004105149E+02 -0.49402137603E+02  0.29196097288E+02  0.66198597064E+02  0.00000000000E+00 0. -1.
<scales pt_clust_3="37.57683" pt_clust_4="105.90237" pt_clust_5="38.25132" pt_clust_6="37.57683"></scales>
<clustering>
<clus scale="   37.577">  3  6 -1 -1</clus>
<clus scale="   38.251">  2  5  1 -1</clus>
<clus scale="  105.902">  2  4  1 -1</clus>
<clus scale="  112.497">  1  3  2 -1</clus>
</clustering>
</event>
<event>
 6    0  0.8520634E+002  0.1101997E+03  0.7546771E-02  0.1260201E+00
         21   -1    0    0  504  501  0.00000000000E+00  0.00000000000E+00  0.45753626166E+02  0.45753626166E+02  0.00000000000E+00 0.  1.
         21   -1    0    0  505  502 -0.00000000000E+00 -0.00000000000E+00 -0.30681157597E+04  0.30681157597E+04  0.00000000000E+00 0.  1.
         21    1    1    2  503  506 -0.14624601530E+03 -0.11922996074E+02 -0.19689258477E+03  0.24555395489E+03  0.00000000000E+00 0.  1.
         21    1    1    2  504  503  0.53500127991E+01  0.45799095736E+02 -0.41866508633E+02  0.62281492856E+02  0.00000000000E+00 0.  1.
         21    1    1    2  505  501  0.76508979915E+02 -0.45574378363E+02 -0.17268171173E+03  0.19429261833E+03  0.00000000000E+00 0.  1.
         21    1    1    2  506  502  0.64387022584E+02  0.11698278700E+02 -0.26109213284E+04  0.26117413198E+04  0.00000000000E+00 0.  1.
<scales pt_clust_3="14000.00000" pt_clust_4="46.11052" pt_clust_5="110.19970" pt_clust_6="65.59822"></scales>
<clustering>
<clus scale="   46.111">  1  4  2 -1</clus>
<clus scale="   65.598">  2  6  1 -1</clus>
<clus scale="  110.200">  1  5  2 -1</clus>
<clus scale="   46.111">  1  3  2 -1</clus>
</clustering>
</event>
<event>
 6    0  0.8520634E+002  0.8823333E+02  0.7546771E-02  0.1307187E+00
         21   -1    0    0  503  501  0.00000000000E+00  0.00000000000E+00  0.16639316856E+03  0.16639316856E+03  0.00000000000E+00 0. -1.
         21   -1    0    0  505  502 -0.00000000000E+00 -0.00000000000E+00 -0.15393828173E+03  0.15393828173E+03  0.00000000000E+00 0. -1.
         21    1    1    2  503  506  0.63241388906E+02  0.77965922175E+01  0.17307134568E+02  0.66028759097E+02  0.00000000000E+00 0. -1.
         21    1    1    2  504  501 -0.68753638286E+02 -0.16130541612E+01  0.47198931721E+02  0.83411053685E+02  0.00000000000E+00 0. -1.
         21    1    1    2  505  504 -0.58146340014E+02  0.28999003754E+02  0.20525657086E+02  0.68141336020E+02  0.00000000000E+00 0. -1.
         21    1    1    2  506  502  0.63658589394E+02 -0.35182541810E+02 -0.72576836543E+02  0.10275030148E+03  0.00000000000E+00 0. -1.
<scales pt_clust_3="63.72017" pt_clust_4="37.99440" pt_clust_5="37.99440" pt_clust_6="79.10252"></scales>
<clustering>
<clus scale="   37.994">  4  5 -1 -1</clus>
<clus scale="   63.720">  1  3  2 -1</clus>
<clus scale="   79.103">  2  6  1 -1</clus>
<clus scale="   63.720">  1  3  2 -1</clus>
</clustering>
</event>
<event>
 6    0  0.8520634E+002  0.1606994E+03  0.7546771E-02  0.1187909E+00
         21   -1    0    0  505  501  0.00000000000E+00  0.00000000000E+00  0.36852028718E+03  0.36852028718E+03  0.00000000000E+00 0.  1.
         21   -1    0    0  504  502 -0.00000000000E+00 -0.00000000000E+00 -0.44954595874E+03  0.44954595874E+03  0.00000000000E+00 0. -1.
         21    1    1    2  503  506  0.33931322127E+02  0.86562389397E+02  0.81098994657E+02  0.12337515477E+03  0.00000000000E+00 0.  1.
         21    1    1    2  504  501  0.14613778024E+03 -0.99761013191E+02 -0.29146820015E+03  0.34097246556E+03  0.00000000000E+00 0. -1.
         21    1    1    2  505  503 -0.32622669070E+02  0.14644949227E+02  0.19068924742E+03  0.19401314944E+03  0.00000000000E+00 0.  1.
         21    1    1    2  506  502 -0.14744643330E+03 -0.14463254331E+01 -0.61345713485E+02  0.15970547615E+03  0.00000000000E+00 0. -1.
<scales pt_clust_3="96.23742" pt_clust_4="14000.00000" pt_clust_5="35.75910" pt_clust_6="160.69943"></scales>
<clustering>
<clus scale="   35.759">  1  5  2 -1</clus>
<clus scale="   96.237">  1  3  2 -1</clus>
<clus scale="  160.699">  1  6  2 -1</clus>
<clus scale="   35.759">  1  3  2 -1</clus>
</clustering>
</event>
<event>
 6    0  0.8520634E+002  0.7201558E+02  0.7546771E-02  0.1353370E+00
         21   -1    0    0  506  501  0.00000000000E+00  0.00000000000E+00  0.40237356401E+03  0.40237356401E+03  0.00000000000E+00 0.  1.
         21   -1    0    0  504  502 -0.00000000000E+00 -0.00000000000E+00 -0.59335348565E+02  0.59335348565E+02  0.00000000000E+00 0.  1.
         21    1    1    2  503  505 -0.44082700180E+02  0.83776471629E+02  0.12968860077E+03  0.16056436350E+03  0.00000000000E+00 0.  1.
         21    1    1    2  504  501  0.11122054772E+02 -0.71947857866E+02  0.42175555819E+02  0.84136626165E+02  0.00000000000E+00 0.  1.
         21    1    1    2  505  502  0.29879107180E+02  0.33655851978E+02  0.56952885186E+01  0.45364234035E+02  0.00000000000E+00 0.  1.
         21    1    1    2  506  503  0.30815382279E+01 -0.45484465741E+02  0.16547877033E+03  0.17164368887E+03  0.00000000000E+00 0.  1.
<scales pt_clust_3="14000.00000" pt_clust_4="72.01558" pt_clust_5="45.00530" pt_clust_6="43.19862"></scales>
<clustering>
<clus scale="   45.005">  2  5  1 -1</clus>
<clus scale="   43.199">  1  6  2 -1</clus>
<clus scale="   72.016">  2  4  1 -1</clus>
<clus scale="   43.199">  1  3  2 -1</clus>
</clustering>
</event>
<event>
 6    0  0.8520634E+002  0.2667733E+03  0.7546771E-02  0.1103141E+00
         21   -1    0    0  503  501  0.00000000000E+00  0.00000000000E+00  0.76811704598E+03  0.76811704598E+03  0.00000000000E+00 0. -1.
         21   -1    0    0  506  502 -0.00000000000E+00 -0.00000000000E+00 -0.12363552671E+03  0.12363552671E+03  0.00000000000E+00 0. -1.
         21    1    1    2  503  502  0.17651080570E+03 -0.19399267001E+03  0.41306537977E+03  0.48929768905E+03  0.00000000000E+00 0. -1.
         21    1    1    2  504  501 -0.13875110476E+03  0.94221534260E+02  0.12846516561E+03  0.21126491750E+03  0.00000000000E+00 0. -1.
         21    1    1    2  505  504 -0.25590337555E+02  0.66803628737E+02  0.12895811557E+03  0.14747130487E+03  0.00000000000E+00 0. -1.
         21    1    1    2  506  505 -0.12169363386E+02  0.32967507018E+02 -0.26007141685E+02  0.43718661265E+02  0.00000000000E+00 0.  1.
<scales pt_clust_3="248.35518" pt_clust_4="62.73255" pt_clust_5="62.73255" pt_clust_6="35.14185"></scales>
<clustering>
<clus scale="   35.142">  2  6  1 -1</clus>
<clus scale="   62.733">  4  5 -1 -1</clus>
<clus scale="  248.355">  1  3  2 -1</clus>
<clus scale="  248.355">  1  3  2 -1</clus>
</clustering>
</event>
<event>
 6    0  0.8520634E+002  0.6218462E+02  0.7546771E-02  0.1388886E+00
         21   -1    0    0  505  501  0.00000000000E+00  0.00000000000E+00  0.93368578705E+03  0.93368578705E+03  0.00000000000E+00 0. -1.
         21   -1    0    0  504  502 -0.00000000000E+00 -0.00000000000E+00 -0.17832319731E+04  0.17832319731E+04  0.00000000000E+00 0.  1.
         21    1    1    2  503  501  0.61485832991E+02  0.68785453980E+01  0.91055695860E+03  0.91265645065E+03  0.00000000000E+00 0. -1.
         21    1    1    2  504  503  0.34826622259E+01 -0.46392902948E+02 -0.99070501497E+03  0.99179678214E+03  0.00000000000E+00 0.  1.
         21    1    1    2  505  506 -0.11808315388E+03 -0.21696038754E+02 -0.17296050073E+03  0.21054615680E+03  0.00000000000E+00 0.  1.
         21    1    1    2  506  502  0.53114658667E+02  0.61210396304E+02 -0.59643762900E+03  0.60191837061E+03  0.00000000000E+00 0.  1.
<scales pt_clust_3="14000.00000" pt_clust_4="46.52344" pt_clust_5="62.18462" pt_clust_6="61.56151"></scales>
<clustering>
<clus scale="   46.523">  2  4  1 -1</clus>
<clus scale="   61.562">  2  6  1 -1</clus>
<clus scale="   62.185">  2  5  1 -1</clus>
<clus scale="   62.185">  1  3  2 -1</clus>
</clustering>
</event>
<event>
 6    0  0.8520634E+002  0.1121313E+03  0.7546771E-02  0.1256673E+00
         21   -1    0    0  506  501  0.00000000000E+00  0.00000000000E+00  0.98141152019E+03  0.98141152019E+03  0.00000000000E+00 0.  1.
         21   -1    0    0  503  502 -0.00000000000E+00 -0.00000000000E+00 -0.95769207784E+02  0.95769207784E+02  0.00000000000E+00 0. -1.
         21    1    1    2  503  504 -0.68037753946E+02 -0.50895036839E+02  0.15021074832E+03  0.17257667759E+03  0.00000000000E+00 0. -1.
         21    1    1    2  504  501 -0.29218497350E+02  0.12382603829E+02  0.79077417849E+02  0.85207320570E+02  0.00000000000E+00 0. -1.
         21    1    1    2  505  502  0.12226519098E+03  0.12576510920E+02 -0.34455269152E+02  0.12764838865E+03  0.00000000000E+00 0. -1.
         21    1    1    2  506  505 -0.25008939682E+02  0.25935922091E+02  0.69080941539E+03  0.69174834116E+03  0.00000000000E+00 0.  1.
<scales pt_clust_3="14000.00000" pt_clust_4="31.73404" pt_clust_5="112.13132" pt_clust_6="59.24850"></scales>
<clustering>
<clus scale="   31.734">  1  4  2 -1</clus>
<clus scale="   59.249">  1  6  2 -1</clus>
<clus scale="  112.131">  2  5  1 -1</clus>
<clus scale="   31.734">  1  3  2 -1</clus>
</clustering>
</event>
<event>
 6    0  0.8520634E+002  0.9999975E+02  0.7546771E-02  0.1280296E+00
         21   -1    0    0  505  501  0.00000000000E+00  0.00000000000E+00  0.10625478149E+04  0.10625478149E+04  0.00000000000E+00 0. -1.
         21   -1    0    0  503  502 -0.00000000000E+00 -0.00000000000E+00 -0.12763236017E+03  0.12763236017E+03  0.00000000000E+00 0. -1.
         21    1    1    2  503  504  0.14610211660E+02 -0.52474623992E+02  0.27322183997E+02  0.60938872539E+02  0.00000000000E+00 0. -1.
         21    1    1    2  504  506  0.59321309669E+02 -0.43329538915E+02 -0.58807326114E+02  0.94099778576E+02  0.00000000000E+00 0. -1.
         21    1    1    2  505  502 -0.71574931358E+02 -0.28568320825E+02  0.88074119108E+03  0.88410642200E+03  0.00000000000E+00 0. -1.
         21    1    1    2  506  501 -0.23565899710E+01  0.12437248373E+03  0.85659405771E+02  0.15103510196E+03  0.00000000000E+00 0.  1.
<scales pt_clust_3="54.47058" pt_clust_4="14000.00000" pt_clust_5="77.15939" pt_clust_6="99.99975"></scales>
<clustering>
<clus scale="   54.471">  2  3  1 -1</clus>
<clus scale="   77.159">  1  5  2 -1</clus>
<clus scale="  100.000">  1  6  2 -1</clus>
<clus scale="   77.159">  1  3  2 -1</clus>
</clustering>
</event>
<event>
 6    0  0.8520634E+002  0.2071523E+03  0.7546771E-02  0.1143841E+00
         21   -1    0    0  503  501  0.00000000000E+00  0.00000000000E+00  0.17470369286E+04  0.17470369286E+04  0.00000000000E+00 0. -1.
         21   -1    0    0  501  502 -0.00000000000E+00 -0.00000000000E+00 -0.20417273165E+03  0.20417273165E+03  0.00000000000E+00 0. -1.
         21    1    1    2  503  505  0.16278948497E+03 -0.96921534756E+02  0.13375642631E+04  0.13509153779E+04  0.00000000000E+00 0. -1.
         21    1    1    2  504  506 -0.46138961689E+02  0.15509730966E+02  0.11839333823E+03  0.12800913279E+03  0.00000000000E+00 0. -1.
         21    1    1    2  505  504 -0.15656794748E+03  0.11440860258E+03  0.24122773907E+03  0.30950552922E+03  0.00000000000E+00 0. -1.
         21    1    1    2  506  502  0.39917424196E+02 -0.32996798789E+02 -0.15432114345E+03  0.16277962035E+03  0.00000000000E+00 0. -1.
<scales pt_clust_3="196.94967" pt_clust_4="32.17018" pt_clust_5="32.17018" pt_clust_6="51.78986"></scales>
<clustering>
<clus scale="   32.170">  4  5 -1 -1</clus>
<clus scale="   51.790">  2  6  1 -1</clus>
<clus scale="  196.950">  1  3  2 -1</clus>
<clus scale="  196.950">  1  3  2 -1</clus>
</clustering>
</event>
<event>
 6    0  0.8520634E+002  0.9405918E+02  0.7546771E-02  0.1293309E+00
         21   -1    0    0  503  501  0.00000000000E+00  0.00000000000E+00  0.59812373803E+03  0.59812373803E+03  0.00000000000E+00 0.  1.
         21   -1    0    0  505  502 -0.00000000000E+00 -0.00000000000E+00 -0.17587315602E+03  0.17587315602E+03  0.00000000000E+00 0. -1.
         21    1    1    2  503  502  0.56150657859E+02  0.17666009977E+02 -0.11752954842E+03  0.13144648735E+03  0.00000000000E+00 0. -1.
         21    1    1    2  504  501  0.33592794557E+01 -0.56280141810E+02  0.28000732065E+03  0.28562709735E+03  0.00000000000E+00 0.  1.
         21    1    1    2  505  506  0.12539477163E+02  0.70531880937E+02 -0.13164747364E+02  0.72837458008E+02  0.00000000000E+00 0. -1.
         21    1    1    2  506  504 -0.72049414477E+02 -0.31917749103E+02  0.27293755714E+03  0.28408585134E+03  0.00000000000E+00 0.  1.
<scales pt_clust_3="58.57452" pt_clust_4="56.38031" pt_clust_5="94.05918" pt_clust_6="14000.00000"></scales>
<clustering>
<clus scale="   56.380">  1  4  2 -1</clus>
<clus scale="   58.575">  2  3  1 -1</clus>
<clus scale="   94.059">  2  5  1 -1</clus>
<clus scale="   56.380">  1  3  2 -1</clus>
</clustering>
</event>
<event>
 6    0  0.8520634E+002  0.1400524E+03  0.7546771E-02  0.1213258E+00
         21   -1    0    0  504  501  0.00000000000E+00  0.00000000000E+00  0.94395894273E+02  0.94395894273E+02  0.00000000000E+00 0.  1.
         21   -1    0    0  506  502 -0.00000000000E+00 -0.00000000000E+00 -0.20357710792E+04  0.20357710792E+04  0.00000000000E+00 0. -1.
         21    1    1    2  503  505 -0.84047789287E+02  0.38315964143E+02 -0.41640387519E+01  0.92463415527E+02  0.00000000000E+00 0.  1.
         21    1    1    2  504  502  0.60462571755E+02 -0.84995415998E+02 -0.17460742729E+04  0.17491870425E+04  0.00000000000E+00 0. -1.
         21    1    1    2  505  501 -0.39237412313E+02  0.63190428050E+01  0.33384459724E+02  0.51904016974E+02  0.00000000000E+00 0.  1.
         21    1    1    2  506  503  0.62822629845E+02  0.40360409050E+02 -0.22452133298E+03  0.23661249841E+03  0.00000000000E+00 0.  1.
<scales pt_clust_3="34.68811" pt_clust_4="129.68452" pt_clust_5="34.68811" pt_clust_6="74.67024"></scales>
<clustering>
<clus scale="   34.688">  3  5 -1 -1</clus>
<clus scale="   74.670">  2  6  1 -1</clus>
<clus scale="  129.685">  2  4  1 -1</clus>
<clus scale="  140.052">  1  3  2 -1</clus>
</clustering>
</event>
<event>
 6    0  0.8520634E+002  0.9140664E+02  0.7546771E-02  0.1299481E+00
         21   -1    0    0  506  501  0.00000000000E+00  0.00000000000E+00  0.33681207996E+03  0.33681207996E+03  0.00000000000E+00 0.  1.
         21   -1    0    0  503  502 -0.00000000000E+00 -0.00000000000E+00 -0.57498878570E+03  0.57498878570E+03  0.00000000000E+00 0. -1.
         21    1    1    2  503  504 -0.45172851602E+02  0.10772446833E+03 -0.49163513440E+03  0.50532193004E+03  0.00000000000E+00 0. -1.
         21    1    1    2  504  505  0.28168909130E+02 -0.54752096989E+02  0.14688427952E+03  0.15926792250E+03  0.00000000000E+00 0.  1.
         21    1    1    2  505  501 -0.34620145856E+02 -0.40149220725E+02  0.16196166541E+03  0.17041741544E+03  0.00000000000E+00 0.  1.
         21    1    1    2  506  502  0.51624088329E+02 -0.12823150617E+02 -0.55387516268E+02  0.76793597688E+02  0.00000000000E+00 0.  1.
<scales pt_clust_3="91.40664" pt_clust_4="14000.00000" pt_clust_5="53.01429" pt_clust_6="51.77747"></scales>
<clustering>
<clus scale="   53.014">  1  5  2 -1</clus>
<clus scale="   51.777">  2  6  1 -1</clus>
<clus scale="   91.407">  2  3  1 -1</clus>
<clus scale="   53.014">  1  3  2 -1</clus>
</clustering>
</event>
<event>
 6    0  0.8520634E+002  0.8822806E+02  0.7546771E-02  0.1307200E+00
         21   -1    0    0  505  501  0.00000000000E+00  0.00000000000E+00  0.45948540856E+03  0.45948540856E+03  0.00000000000E+00 0. -1.
         21   -1    0    0  506  502 -0.00000000000E+00 -0.00000000000E+00 -0.31528458817E+03  0.31528458817E+03  0.00000000000E+00 0. -1.
         21    1    1    2  503  501  0.78241767780E+02 -0.34578040775E+02  0.34772143081E+03  0.35808882777E+03  0.00000000000E+00 0. -1.
         21    1    1    2  504  502 -0.34319904935E+02  0.22236922438E+02 -0.57475482148E+02  0.70539121361E+02  0.00000000000E+00 0. -1.
         21    1    1    2  505  504 -0.10277118359E+03  0.21510516588E+02  0.67249420639E+02  0.12468802299E+03  0.00000000000E+00 0. -1.
         21    1    1    2  506  503  0.58849320746E+02 -0.91693982508E+01 -0.21329454891E+03  0.22145402460E+03  0.00000000000E+00 0. -1.
<scales pt_clust_3="88.22806" pt_clust_4="40.89421" pt_clust_5="14000.00000" pt_clust_6="30.84886"></scales>
<clustering>
<clus scale="   40.894">  2  4  1 -1</clus>
<clus scale="   30.849">  2  6  1 -1</clus>
<clus scale="   88.228">  1  3  2 -1</clus>
<clus scale="   88.228">  1  3  2 -1</clus>
</clustering>
</event>
<event>
 6    0  0.8520634E+002  0.1137089E+03  0.7546771E-02  0.1253852E+00
         21   -1    0    0  504  501  0.00000000000E+00  0.00000000000E+00  0.45257765355E+03  0.45257765355E+03  0.00000000000E+00 0.  1.
         21   -1    0    0  505  502 -0.00000000000E+00 -0.00000000000E+00 -0.47987730270E+03  0.47987730270E+03  0.00000000000E+00 0.  1.
         21    1    1    2  503  501  0.13825100847E+03 -0.14112751653E+03  0.30832013664E+03  0.36618523171E+03  0.00000000000E+00 0.  1.
         21    1    1    2  504  506 -0.54493342477E+02  0.85330348123E+02  0.61008261732E+02  0.11820660170E+03  0.00000000000E+00 0.  1.
         21    1    1    2  505  503 -0.12572075525E+03  0.81708861077E+02 -0.23224621688E+03  0.27644231140E+03  0.00000000000E+00 0.  1.
         21    1    1    2  506  502  0.41963089253E+02 -0.25911692675E+02 -0.16438183064E+03  0.17162081144E+03  0.00000000000E+00 0.  1.
<scales pt_clust_3="14000.00000" pt_clust_4="97.19235" pt_clust_5="113.70893" pt_clust_6="49.31852"></scales>
<clustering>
<clus scale="   49.319">  2  6  1 -1</clus>
<clus scale="   97.192">  1  4  2 -1</clus>
<clus scale="  113.709">  2  5  1 -1</clus>
<clus scale="   97.192">  1  3  2 -1</clus>
</clustering>
</event>
<event>
 6    0  0.8520634E+002  0.7423458E+02  0.7546771E-02  0.1346258E+00
         21   -1    0    0  504  501  0.00000000000E+00  0.00000000000E+00  0.26238508381E+04  0.26238508381E+04  0.00000000000E+00 0. -1.
         21   -1    0    0  505  502 -0.00000000000E+00 -0.00000000000E+00 -0.15158408991E+02  0.15158408991E+02  0.00000000000E+00 0.  1.
         21    1    1    2  503  502 -0.81657014091E+02  0.29255792572E+02  0.30096226801E+03  0.31321247758E+03  0.00000000000E+00 0.  1.
         21    1    1    2  504  503  0.44643626614E+02  0.34136775465E+01  0.40096576617E+03  0.40345786922E+03  0.00000000000E+00 0.  1.
         21    1    1    2  505  506  0.19148135053E+02 -0.80103164624E+02  0.22156275722E+03  0.23637517519E+03  0.00000000000E+00 0.  1.
         21    1    1    2  506  501  0.17865252423E+02  0.47433694506E+02  0.16852016377E+04  0.16859637251E+04  0.00000000000E+00 0. -1.
<scales pt_clust_3="14000.00000" pt_clust_4="44.77395" pt_clust_5="74.23458" pt_clust_6="71.96578"></scales>
<clustering>
<clus scale="   44.774">  1  4  2 -1</clus>
<clus scale="   71.966">  1  6  2 -1</clus>
<clus scale="   74.235">  2  5  1 -1</clus>
<clus scale="   44.774">  1  3  2 -1</clus>
</clustering>
</event>
<event>
 6    0  0.8520634E+002  0.5522677E+02  0.7546771E-02  0.1419029E+00
         21   -1    0    0  503  501  0.00000000000E+00  0.00000000000E+00  0.33424284959E+03  0.33424284959E+03  0.00000000000E+00 0. -1.
         21   -1    0    0  506  502 -0.00000000000E+00 -0.00000000000E+00 -0.89309738786E+03  0.89309738786E+03  0.00000000000E+00 0. -1.
         21    1    1    2  503  505 -0.46814076401E+02  0.23763099799E+02  0.17131830362E+03  0.17918204100E+03  0.00000000000E+00 0. -1.
         21    1    1    2  504  501  0.43753357498E+02 -0.76961075020E+02  0.13647415531E+03  0.16267316444E+03  0.00000000000E+00 0. -1.
         21    1    1    2  505  502  0.20825997723E+02  0.93599973917E+02 -0.79887229235E+03  0.80460649810E+03  0.00000000000E+00 0. -1.
         21    1    1    2  506  504 -0.17765278821E+02 -0.40401998696E+02 -0.67774704851E+02  0.80878533913E+02  0.00000000000E+00 0.  1.
<scales pt_clust_3="52.48861" pt_clust_4="14000.00000" pt_clust_5="55.22677" pt_clust_6="44.13532"></scales>
<clustering>
<clus scale="   44.135">  2  6  1 -1</clus>
<clus scale="   52.489">  1  3  2 -1</clus>
<clus scale="   55.227">  2  5  1 -1</clus>
<clus scale="   52.489">  1  3  2 -1</clus>
</clustering>
</event>
<event>
 6    0  0.8520634E+002  0.8378330E+02  0.7546771E-02  0.1318645E+00
         21   -1    0    0  505  501  0.00000000000E+00  0.00000000000E+00  0.82692332534E+02  0.82692332534E+02  0.00000000000E+00 0.  1.
         21   -1    0    0  506  502 -0.00000000000E+00 -0.00000000000E+00 -0.45539704258E+03  0.45539704258E+03  0.00000000000E+00 0.  1.
         21    1    1    2  503  501  0.97151468648E+02 -0.31249769186E+02 -0.70424058663E+01  0.10229639004E+03  0.00000000000E+00 0.  1.
         21    1    1    2  504  502 -0.93307043477E+02 -0.19447880138E+02 -0.99080426043E+02  0.13748219968E+03  0.00000000000E+00 0.  1.
         21    1    1    2  505  504 -0.29661863872E+02  0.19297912921E+02 -0.76461693866E+01  0.36203584322E+02  0.00000000000E+00 0.  1.
         21    1    1    2  506  503  0.25817438701E+02  0.31399736403E+02 -0.25893570875E+03  0.26210720107E+03  0.00000000000E+00 0.  1.
<scales pt_clust_3="14000.00000" pt_clust_4="83.78330" pt_clust_5="35.38694" pt_clust_6="40.56780"></scales>
<clustering>
<clus scale="   35.387">  1  5  2 -1</clus>
<clus scale="   40.568">  2  6  1 -1</clus>
<clus scale="   83.783">  2  4  1 -1</clus>
<clus scale="   35.387">  1  3  2 -1</clus>
</clustering>
</event>
<event>
 6    0  0.8520634E+002  0.2250344E+03  0.7546771E-02  0.1130184E+00
         21   -1    0    0  506  501  0.00000000000E+00  0.00000000000E+00  0.89506821007E+02  0.89506821007E+02  0.00000000000E+00 0. -1.
         21   -1    0    0  503  502 -0.00000000000E+00 -0.00000000000E+00 -0.14084375557E+04  0.14084375557E+04  0.00000000000E+00 0. -1.
         21    1    1    2  503  501  0.13926285587E+03 -0.14917635215E+03 -0.70441988793E+02  0.21589303103E+03  0.00000000000E+00 0. -1.
         21    1    1    2  504  502 -0.92382439305E+01  0.33050708373E+02 -0.62686863063E+03  0.62780727500E+03  0.00000000000E+00 0. -1.
         21    1    1    2  505  504 -0.49498057761E+02  0.11114481405E+03 -0.33182401859E+03  0.35342666386E+03  0.00000000000E+00 0. -1.
         21    1    1    2  506  505 -0.80526554175E+02  0.49808297202E+01 -0.28979609667E+03  0.30081740681E+03  0.00000000000E+00 0. -1.
<scales pt_clust_3="198.51522" pt_clust_4="34.31755" pt_clust_5="84.00960" pt_clust_6="84.00960"></scales>
<clustering>
<clus scale="   34.318">  2  4  1 -1</clus>
<clus scale="   84.010">  5  6 -1 -1</clus>
<clus scale="  198.515">  1  3  2 -1</clus>
<clus scale="  198.515">  1  3  2 -1</clus>
</clustering>
</event>
<event>
 6    0  0.8520634E+002  0.9833554E+02  0.7546771E-02  0.1283836E+00
         21   -1    0    0  504  501  0.00000000000E+00  0.00000000000E+00  0.73418955453E+02  0.73418955453E+02  0.00000000000E+00 0. -1.
         21   -1    0    0  503  502 -0.00000000000E+00 -0.00000000000E+00 -0.38904789376E+03  0.38904789376E+03  0.00000000000E+00 0. -1.
         21    1    1    2  503  505 -0.68828975470E+02  0.61422605812E+02 -0.49914596750E+02  0.10488866163E+03  0.00000000000E+00 0. -1.
         21    1    1    2  504  506  0.44044703638E+02 -0.85715940318E+02 -0.14726345085E+03  0.17599341550E+03  0.00000000000E+00 0. -1.
         21    1    1    2  505  501 -0.29965907795E+01  0.41450098267E+02  0.15011444946E+02  0.44186351761E+02  0.00000000000E+00 0. -1.
         21    1    1    2  506  502  0.27780862612E+02 -0.17156763761E+02 -0.13346233565E+03  0.13739842032E+03  0.00000000000E+00 0. -1.
<scales pt_clust_3="98.33554" pt_clust_4="14000.00000" pt_clust_5="40.48745" pt_clust_6="32.65166"></scales>
<clustering>
<clus scale="   32.652">  2  6  1 -1</clus>
<clus scale="   40.487">  1  5  2 -1</clus>
<clus scale="   98.336">  1  3  2 -1</clus>
<clus scale="   40.487">  1  3  2 -1</clus>
</clustering>
</event>
<event>
 6    0  0.8520634E+002  0.1024156E+03  0.7546771E-02  0.1275297E+00
         21   -1    0    0  504  501  0.00000000000E+00  0.00000000000E+00  0.22587520239E+03  0.22587520239E+03  0.00000000000E+00 0. -1.
         21   -1    0    0  503  502 -0.00000000000E+00 -0.00000000000E+00 -0.95818070135E+03  0.95818070135E+03  0.00000000000E+00 0. -1.
         21    1    1    2  503  505 -0.83379369951E+02  0.31361460730E+02 -0.65156462858E+03  0.65762612918E+03  0.00000000000E+00 0. -1.
         21    1    1    2  504  506 -0.11956756523E+03 -0.56061283288E+02  0.73879034780E+02  0.15131880888E+03  0.00000000000E+00 0.  1.
         21    1    1    2  505  501  0.88842510767E+02  0.73725266783E+01  0.76050216249E+02  0.11717926976E+03  0.00000000000E+00 0. -1.
         21    1    1    2  506  502  0.11410442442E+03  0.17327295879E+02 -0.23067012141E+03  0.25793169593E+03  0.00000000000E+00 0.  1.
<scales pt_clust_3="89.08232" pt_clust_4="14000.00000" pt_clust_5="102.41560" pt_clust_6="63.41478"></scales>
<clustering>
<clus scale="   89.082">  2  3  1 -1</clus>
<clus scale="   63.415">  2  6  1 -1</clus>
<clus scale="  102.416">  1  5  2 -1</clus>
<clus scale="  102.416">  1  3  2 -1</clus>
</clustering>
</event>
<event>
 6    0  0.8520634E+002  0.1480658E+03  0.7546771E-02  0.1202870E+00
         21   -1    0    0  505  501  0.00000000000E+00  0.00000000000E+00  0.17754614097E+03  0.17754614097E+03  0.00000000000E+00 0. -1.
         21   -1    0    0  503  502 -0.00000000000E+00 -0.00000000000E+00 -0.12778283181E+04  0.12778283181E+04  0.00000000000E+00 0.  1.
         21    1    1    2  503  501 -0.18304944450E+01  0.14148443654E+03  0.46887744824E+02  0.14906259459E+03  0.00000000000E+00 0. -1.
         21    1    1    2  504  502  0.93692171516E+01 -0.14809365606E+03 -0.11644374843E+04  0.11738544067E+04  0.00000000000E+00 0.  1.
         21    1    1    2  505  506 -0.19181069785E+02 -0.26040894271E+02  0.65506466329E+02  0.73055723551E+02  0.00000000000E+00 0. -1.
         21    1    1    2  506  504  0.11642347078E+02  0.32650113792E+02 -0.48238903973E+02  0.59401734256E+02  0.00000000000E+00 0.  1.
<scales pt_clust_3="14000.00000" pt_clust_4="148.06581" pt_clust_5="32.34257" pt_clust_6="33.07059"></scales>
<clustering>
<clus scale="   32.343">  1  5  2 -1</clus>
<clus scale="   33.071">  1  6  2 -1</clus>
<clus scale="  148.066">  2  4  1 -1</clus>
<clus scale="   32.343">  1  3  2 -1</clus>
</clustering>
</event>
<event>
 6    0  0.8520634E+002  0.7998260E+02  0.7546771E-02  0.1329101E+00
         21   -1    0    0  506  501  0.00000000000E+00  0.00000000000E+00  0.14012609256E+04  0.14012609256E+04  0.00000000000E+00 0. -1.
         21   -1    0    0  505  502 -0.00000000000E+00 -0.00000000000E+00 -0.52803270175E+02  0.52803270175E+02  0.00000000000E+00 0. -1.
         21    1    1    2  503  501  0.48517004054E+02 -0.47687456638E+02  0.25831191769E+03  0.26711989822E+03  0.00000000000E+00 0. -1.
         21    1    1    2  504  502 -0.42969548205E+02 -0.39700716855E+02  0.25897164254E+02  0.63978059584E+02  0.00000000000E+00 0. -1.
         21    1    1    2  505  503 -0.91544056325E+01 -0.30184712485E+02 -0.16662992598E+02  0.35673173851E+02  0.00000000000E+00 0. -1.
         21    1    1    2  506  504  0.36069497840E+01  0.11757288598E+03  0.10809115661E+04  0.10872930641E+04  0.00000000000E+00 0. -1.
<scales pt_clust_3="70.59975" pt_clust_4="14000.00000" pt_clust_5="31.54235" pt_clust_6="79.98260"></scales>
<clustering>
<clus scale="   31.542">  2  5  1 -1</clus>
<clus scale="   70.600">  1  3  2 -1</clus>
<clus scale="   79.983">  1  6  2 -1</clus>
<clus scale="   70.600">  1  3  2 -1</clus>
</clustering>
</event>
<event>
 6    0  0.8520634E+002  0.9968117E+02  0.7546771E-02  0.1280968E+00
         21   -1    0    0  506  501  0.00000000000E+00  0.00000000000E+00  0.20007784475E+04  0.20007784475E+04  0.00000000000E+00 0. -1.
         21   -1    0    0  504  502 -0.00000000000E+00 -0.00000000000E+00 -0.23628742331E+03  0.23628742331E+03  0.00000000000E+00 0. -1.
         21    1    1    2  503  501 -0.16815396290E+01 -0.34472632304E+02  0.15535830567E+04  0.15539663780E+04  0.00000000000E+00 0. -1.
         21    1    1    2  504  503  0.19680045976E+01 -0.46591307444E+02  0.39502945838E+03  0.39777241729E+03  0.00000000000E+00 0. -1.
         21    1    1    2  505  502 -0.99021973754E+02  0.21180448042E+02 -0.10120448535E+03  0.14316532583E+03  0.00000000000E+00 0. -1.
         21    1    1    2  506  505  0.98735508785E+02  0.59883491706E+02 -0.82917005514E+02  0.14216174970E+03  0.00000000000E+00 0. -1.
<scales pt_clust_3="34.51362" pt_clust_4="77.16296" pt_clust_5="99.68117" pt_clust_6="14000.00000"></scales>
<clustering>
<clus scale="   34.514">  1  3  2 -1</clus>
<clus scale="   77.163">  1  4  2 -1</clus>
<clus scale="   99.681">  2  5  1 -1</clus>
<clus scale="   34.514">  1  3  2 -1</clus>
</clustering>
</event>
<event>
 6    0  0.8520634E+002  0.8711458E+02  0.7546771E-02  0.1309994E+00
         21   -1    0    0  503  501  0.00000000000E+00  0.00000000000E+00  0.25475144840E+03  0.25475144840E+03  0.00000000000E+00 0.  1.
         21   -1    0    0  504  502 -0.00000000000E+00 -0.00000000000E+00 -0.93603190656E+02  0.93603190656E+02  0.00000000000E+00 0.  1.
         21    1    1    2  503  502 -0.55600305400E+02  0.43078014292E+02  0.41528712045E+01  0.70458183451E+02  0.00000000000E+00 0.  1.
         21    1    1    2  504  506  0.85452123975E+02 -0.79495091228E+02  0.13084475722E+02  0.11744249029E+03  0.00000000000E+00 0.  1.
         21    1    1    2  505  501  0.75587832480E+01  0.32458456897E+02  0.69087513071E+02  0.76705743531E+02  0.00000000000E+00 0.  1.
         21    1    1    2  506  505 -0.37410601822E+02  0.39586200394E+01  0.74823397743E+02  0.83748221779E+02  0.00000000000E+00 0.  1.
<scales pt_clust_3="14000.00000" pt_clust_4="87.11458" pt_clust_5="33.32697" pt_clust_6="38.62397"></scales>
<clustering>
<clus scale="   33.327">  1  5  2 -1</clus>
<clus scale="   38.624">  1  6  2 -1</clus>
<clus scale="   87.115">  1  4  2 -1</clus>
<clus scale="   33.327">  1  3  2 -1</clus>
</clustering>
</event>
<event>
 6    0  0.8520634E+002  0.1191816E+03  0.7546771E-02  0.1244453E+00
         21   -1    0    0  505  501  0.00000000000E+00  0.00000000000E+00  0.13976932750E+04  0.13976932750E+04  0.00000000000E+00 0. -1.
         21   -1    0    0  504  502 -0.00000000000E+00 -0.00000000000E+00 -0.27886684057E+02  0.27886684057E+02  0.00000000000E+00 0. -1.
         21    1    1    2  503  501 -0.23701167613E+02  0.18615637832E+02  0.17577779701E+03  0.17834270728E+03  0.00000000000E+00 0. -1.
         21    1    1    2  504  503  0.12191627069E+03  0.26590147780E+02  0.28443670623E+03  0.31060401296E+03  0.00000000000E+00 0. -1.
         21    1    1    2  505  506 -0.86647119846E+01  0.38262691597E+02  0.63235857798E+03  0.63357436971E+03  0.00000000000E+00 0. -1.
         21    1    1    2  506  502 -0.89550391095E+02 -0.83468477210E+02  0.27723350974E+03  0.30305886913E+03  0.00000000000E+00 0. -1.
<scales pt_clust_3="30.13781" pt_clust_4="119.18165" pt_clust_5="52.29774" pt_clust_6="14000.00000"></scales>
<clustering>
<clus scale="   30.138">  1  3  2 -1</clus>
<clus scale="   52.298">  1  5  2 -1</clus>
<clus scale="  119.182">  1  4  2 -1</clus>
<clus scale="   30.138">  1  3  2 -1</clus>
</clustering>
</event>
<event>
 6    0  0.8520634E+002  0.1263628E+03  0.7546771E-02  0.1232955E+00
         21   -1    0    0  506  501  0.00000000000E+00  0.00000000000E+00  0.16160314817E+03  0.16160314817E+03  0.00000000000E+00 0. -1.
         21   -1    0    0  505  502 -0.00000000000E+00 -0.00000000000E+00 -0.13515464336E+04  0.13515464336E+04  0.00000000000E+00 0.  1.
         21    1    1    2  503  501  0.10524509109E+03  0.37031450034E+02 -0.28572376039E+02  0.11517047435E+03  0.00000000000E+00 0.  1.
         21    1    1    2  504  502  0.90255604727E+01 -0.28749440930E+02 -0.95158436748E+03  0.95206134231E+03  0.00000000000E+00 0.  1.
         21    1    1    2  505  503  0.24692197218E+02 -0.36163422560E+02 -0.28301720544E+03  0.28638476969E+03  0.00000000000E+00 0.  1.
         21    1    1    2  506  504 -0.13896284878E+03  0.27881413456E+02  0.73230663503E+02  0.15953299544E+03  0.00000000000E+00 0. -1.
<scales pt_clust_3="126.36279" pt_clust_4="30.13289" pt_clust_5="64.62653" pt_clust_6="14000.00000"></scales>
<clustering>
<clus scale="   30.133">  2  4  1 -1</clus>
<clus scale="   64.627">  2  5  1 -1</clus>
<clus scale="  126.363">  2  3  1 -1</clus>
<clus scale="  126.363">  1  3  2 -1</clus>
</clustering>
</event>
<event>
 6    0  0.8520634E+002  0.8717012E+02  0.7546771E-02  0.1309853E+00
         21   -1    0    0  504  501  0.00000000000E+00  0.00000000000E+00  0.79206225515E+03  0.79206225515E+03  0.00000000000E+00 0.  1.
         21   -1    0    0  505  502 -0.00000000000E+00 -0.00000000000E+00 -0.87325450124E+02  0.87325450124E+02  0.00000000000E+00 0.  1.
         21    1    1    2  503  502  0.37686026462E+02 -0.57862236674E+01 -0.41633359596E+02  0.56453995484E+02  0.00000000000E+00 0.  1.
         21    1    1    2  504  506  0.15321245523E+02  0.62073904663E+02  0.14299236774E+03  0.15663565187E+03  0.00000000000E+00 0.  1.
         21    1    1    2  505  501 -0.11264681345E+03 -0.60112985605E+02  0.59180951927E+03  0.60542661217E+03  0.00000000000E+00 0.  1.
         21    1    1    2  506  503  0.59639541460E+02  0.38253046099E+01  0.11568277603E+02  0.60871445749E+02  0.00000000000E+00 0.  1.
<scales pt_clust_3="38.12764" pt_clust_4="64.89872" pt_clust_5="14000.00000" pt_clust_6="87.17012"></scales>
<clustering>
<clus scale="   38.128">  2  3  1 -1</clus>
<clus scale="   64.899">  1  4  2 -1</clus>
<clus scale="   87.170">  2  6  1 -1</clus>
<clus scale="   64.899">  1  3  2 -1</clus>
</clustering>
</event>
<event>
 6    0  0.8520634E+002  0.1331033E+03  0.7546771E-02  0.1222922E+00
         21   -1    0    0  505  501  0.00000000000E+00  0.00000000000E+00  0.13162051815E+04  0.13162051815E+04  0.00000000000E+00 0. -1.
         21   -1    0    0  503  502 -0.00000000000E+00 -0.00000000000E+00 -0.36192290984E+03  0.36192290984E+03  0.00000000000E+00 0. -1.
         21    1    1    2  503  504  0.12860629346E+03 -0.15089725704E+02 -0.43195492815E+01  0.12956055358E+03  0.00000000000E+00 0. -1.
         21    1    1    2  504  501 -0.32318375733E+02  0.14831691164E+02  0.96371480483E+03  0.96437061419E+03  0.00000000000E+00 0. -1.
         21    1    1    2  505  506 -0.10885568170E+03 -0.30291631807E+02  0.27751969195E+03  0.29964032075E+03  0.00000000000E+00 0. -1.
         21    1    1    2  506  502  0.12567763974E+02  0.30549666347E+02 -0.28263267579E+03  0.28455660286E+03  0.00000000000E+00 0. -1.
<scales pt_clust_3="133.10333" pt_clust_4="35.56499" pt_clust_5="14000.00000" pt_clust_6="33.03378"></scales>
<clustering>
<clus scale="   33.034">  2  6  1 -1</clus>
<clus scale="   35.565">  1  4  2 -1</clus>
<clus scale="  133.103">  2  3  1 -1</clus>
<clus scale="   35.565">  1  3  2 -1</clus>
</clustering>
</event>
<event>
 6    0  0.8520634E+002  0.1590374E+03  0.7546771E-02  0.1189788E+00
         21   -1    0    0  504  501  0.00000000000E+00  0.00000000000E+00  0.14134253539E+04  0.14134253539E+04  0.00000000000E+00 0.  1.
         21   -1    0    0  505  502 -0.00000000000E+00 -0.00000000000E+00 -0.16126912301E+03  0.16126912301E+03  0.00000000000E+00 0.  1.
         21    1    1    2  503  501  0.52366845560E+01 -0.35386705730E+02  0.88452285854E+02  0.95411994426E+02  0.00000000000E+00 0.  1.
         21    1    1    2  504  502 -0.14532729034E+03 -0.64538140380E+01  0.12761355987E+04  0.12844001477E+04  0.00000000000E+00 0.  1.
         21    1    1    2  505  506  0.89165198733E+02 -0.37908054457E+01 -0.76985817666E+02  0.11786271248E+03  0.00000000000E+00 0.  1.
         21    1    1    2  506  503  0.50925407056E+02  0.45631325213E+02 -0.35445836052E+02  0.77019622292E+02  0.00000000000E+00 0.  1.
<scales pt_clust_3="35.77208" pt_clust_4="146.05015" pt_clust_5="54.94108" pt_clust_6="54.94108"></scales>
<clustering>
<clus scale="   35.772">  1  3  2 -1</clus>
<clus scale="   54.941">  5  6 -1 -1</clus>
<clus scale="  146.050">  1  4  2 -1</clus>
<clus scale="   35.772">  1  3  2 -1</clus>
</clustering>
</event>
<event>
 6    0  0.8520634E+002  0.1170335E+03  0.7546771E-02  0.1248073E+00
         21   -1    0    0  506  501  0.00000000000E+00  0.00000000000E+00  0.18717168060E+04  0.18717168060E+04  0.00000000000E+00 0.  1.
         21   -1    0    0  504  502 -0.00000000000E+00 -0.00000000000E+00 -0.88182891480E+02  0.88182891480E+02  0.00000000000E+00 0. -1.
         21    1    1    2  503  501 -0.67095430831E+02 -0.15360453063E+02  0.15527161244E+04  0.15542410056E+04  0.00000000000E+00 0.  1.
         21    1    1    2  504  505  0.28773678321E+02 -0.10763103807E+02 -0.36226695660E+02  0.47498867841E+02  0.00000000000E+00 0. -1.
         21    1    1    2  505  503  0.12781558973E+03  0.59880845908E+00  0.84386826017E+02  0.15316109152E+03  0.00000000000E+00 0. -1.
         21    1    1    2  506  502 -0.89493837223E+02  0.25524748411E+02  0.18265765970E+03  0.20499873251E+03  0.00000000000E+00 0. -1.
<scales pt_clust_3="68.40967" pt_clust_4="30.72082" pt_clust_5="117.03353" pt_clust_6="14000.00000"></scales>
<clustering>
<clus scale="   30.721">  2  4  1 -1</clus>
<clus scale="   68.410">  1  3  2 -1</clus>
<clus scale="  117.034">  2  5  1 -1</clus>
<clus scale="   68.410">  1  3  2 -1</clus>
</clustering>
</event>
<event>
 6    0  0.8520634E+002  0.1675828E+03  0.7546771E-02  0.1180392E+00
         21   -1    0    0  505  501  0.00000000000E+00  0.00000000000E+00  0.18770768211E+04  0.18770768211E+04  0.00000000000E+00 0. -1.
         21   -1    0    0  506  502 -0.00000000000E+00 -0.00000000000E+00 -0.12153248115E+04  0.12153248115E+04  0.00000000000E+00 0. -1.
         21    1    1    2  503  504  0.78873003522E+02  0.75235798079E+02 -0.64684595765E+03  0.65596575286E+03  0.00000000000E+00 0. -1.
         21    1    1    2  504  502  0.51434544500E+02  0.15611607006E+02 -0.53999326294E+03  0.54266191931E+03  0.00000000000E+00 0. -1.
         21    1    1    2  505  503 -0.45780386000E+02 -0.15204184251E+03  0.17238152823E+04  0.17311128481E+04  0.00000000000E+00 0. -1.
         21    1    1    2  506  501 -0.84527162021E+02  0.61194437427E+02  0.12477594790E+03  0.16266111233E+03  0.00000000000E+00 0.  1.
<scales pt_clust_3="37.73562" pt_clust_4="37.73562" pt_clust_5="158.73353" pt_clust_6="104.35325"></scales>
<clustering>
<clus scale="   37.736">  3  4 -1 -1</clus>
<clus scale="  104.353">  1  6  2 -1</clus>
<clus scale="  158.734">  1  5  2 -1</clus>
<clus scale="  104.353">  1  3  2 -1</clus>
</clustering>
</event>
<event>
 6    0  0.8520634E+002  0.9513827E+02  0.7546771E-02  0.1290865E+00
         21   -1    0    0  504  501  0.00000000000E+00  0.00000000000E+00  0.19245841485E+04  0.19245841485E+04  0.00000000000E+00 0. -1.
         21   -1    0    0  505  502 -0.00000000000E+00 -0.00000000000E+00 -0.14440208228E+02  0.14440208228E+02  0.00000000000E+00 0. -1.
         21    1    1    2  503  506  0.58726674402E+02  0.53587245940E+02  0.39991560182E+03  0.40774122160E+03  0.00000000000E+00 0. -1.
         21    1    1    2  504  503 -0.31644596945E+02  0.21208591852E+02  0.29913980202E+03  0.30155564335E+03  0.00000000000E+00 0. -1.
         21    1    1    2  505  501 -0.27530560007E+02 -0.11343274588E+03  0.11590469367E+04  0.11649097480E+04  0.00000000000E+00 0. -1.
         21    1    1    2  506  502  0.44848255031E+00  0.38636908091E+02  0.52041599780E+02  0.64817743799E+02  0.00000000000E+00 0. -1.
<scales pt_clust_3="95.13827" pt_clust_4="38.09442" pt_clust_5="14000.00000" pt_clust_6="39.40590"></scales>
<clustering>
<clus scale="   38.094">  1  4  2 -1</clus>
<clus scale="   39.406">  2  6  1 -1</clus>
<clus scale="   95.138">  2  3  1 -1</clus>
<clus scale="   38.094">  1  3  2 -1</clus>
</clustering>
</event>
<event>
 6    0  0.8520634E+002  0.7496154E+02  0.7546771E-02  0.1343990E+00
         21   -1    0    0  505  501  0.00000000000E+00  0.00000000000E+00  0.18502285570E+04  0.18502285570E+04  0.00000000000E+00 0.  1.
         21   -1    0    0  506  502 -0.00000000000E+00 -0.00000000000E+00 -0.30381185293E+02  0.30381185293E+02  0.00000000000E+00 0. -1.
         21    1    1    2  503  501  0.27642718405E+02  0.43359751470E+02  0.10058308957E+04  0.10071444676E+04  0.00000000000E+00 0.  1.
         21    1    1    2  504  502 -0.92940876287E+01  0.67577763593E+02  0.42310697804E+02  0.80270351599E+02  0.00000000000E+00 0. -1.
         21    1    1    2  505  504  0.31916185604E+02 -0.12259386605E+03  0.45468600973E+03  0.47200346009E+03  0.00000000000E+00 0. -1.
         21    1    1    2  506  503 -0.50264816380E+02  0.11656350990E+02  0.31701976850E+03  0.32119146300E+03  0.00000000000E+00 0. -1.
<scales pt_clust_3="51.42167" pt_clust_4="74.96154" pt_clust_5="14000.00000" pt_clust_6="48.70264"></scales>
<clustering>
<clus scale="   51.422">  1  3  2 -1</clus>
<clus scale="   48.703">  1  6  2 -1</clus>
<clus scale="   74.962">  2  4  1 -1</clus>
<clus scale="   51.422">  1  3  2 -1</clus>
</clustering>
</event>
<event>
 6    0  0.8520634E+002  0.1128552E+03  0.7546771E-02  0.1255372E+00
         21   -1    0    0  504  501  0.00000000000E+00  0.00000000000E+00  0.14345344599E+03  0.14345344599E+03  0.00000000000E+00 0. -1.
         21   -1    0    0  505  502 -0.00000000000E+00 -0.00000000000E+00 -0.23167365746E+04  0.23167365746E+04  0.00000000000E+00 0.  1.
         21    1    1    2  503  502  0.29979405091E+02  0.23130636370E+02 -0.17037388333E+04  0.17041595592E+04  0.00000000000E+00 0.  1.
         21    1    1    2  504  506 -0.47978240674E+02 -0.23510568295E+02  0.72866371008E+02  0.90355776925E+02  0.00000000000E+00 0. -1.
         21    1    1    2  505  501  0.71182466818E+02 -0.81717355969E+02 -0.55640443377E+03  0.56686026829E+03  0.00000000000E+00 0. -1.
         21    1    1    2  506  503 -0.53183631235E+02  0.82097287895E+02  0.13993767495E+02  0.98814416153E+02  0.00000000000E+00 0. -1.
<scales pt_clust_3="37.86543" pt_clust_4="52.89969" pt_clust_5="112.85520" pt_clust_6="14000.00000"></scales>
<clustering>
<clus scale="   37.865">  2  3  1 -1</clus>
<clus scale="   52.900">  1  4  2 -1</clus>
<clus scale="  112.855">  2  5  1 -1</clus>
<clus scale="   52.900">  1  3  2 -1</clus>
</clustering>
</event>
<event>
 6    0  0.8520634E+002  0.1044898E+03  0.7546771E-02  0.1271128E+00
         21   -1    0    0  505  501  0.00000000000E+00  0.00000000000E+00  0.18493908286E+04  0.18493908286E+04  0.00000000000E+00 0. -1.
         21   -1    0    0  503  502 -0.00000000000E+00 -0.00000000000E+00 -0.62955630394E+02  0.62955630394E+02  0.00000000000E+00 0. -1.
         21    1    1    2  503  504  0.74724991830E+02 -0.56811197564E+02  0.30232658594E+03  0.31656389740E+03  0.00000000000E+00 0. -1.
         21    1    1    2  504  501  0.24638377904E+02 -0.21895778046E+02  0.11658606225E+04  0.11663264834E+04  0.00000000000E+00 0. -1.
         21    1    1    2  505  506  0.91473559448E+01  0.70051500620E+02  0.31256838992E+03  0.32045262557E+03  0.00000000000E+00 0. -1.
         21    1    1    2  506  502 -0.10851072568E+03  0.86554749902E+01  0.56795998672E+01  0.10900345265E+03  0.00000000000E+00 0. -1.
<scales pt_clust_3="104.48977" pt_clust_4="32.96172" pt_clust_5="63.33896" pt_clust_6="14000.00000"></scales>
<clustering>
<clus scale="   32.962">  1  4  2 -1</clus>
<clus scale="   63.339">  1  5  2 -1</clus>
<clus scale="  104.490">  1  3  2 -1</clus>
<clus scale="   32.962">  1  3  2 -1</clus>
</clustering>
</event>
<event>
 6    0  0.8520634E+002  0.8576132E+02  0.7546771E-02  0.1313454E+00
         21   -1    0    0  503  501  0.00000000000E+00  0.00000000000E+00  0.11202003058E+03  0.11202003058E+03  0.00000000000E+00 0.  1.
         21   -1    0    0  504  502 -0.00000000000E+00 -0.00000000000E+00 -0.56760318264E+03  0.56760318264E+03  0.00000000000E+00 0. -1.
         21    1    1    2  503  505 -0.60589084451E+01  0.80000428153E+02  0.62587781193E+02  0.10175465213E+03  0.00000000000E+00 0.  1.
         21    1    1    2  504  506 -0.68899233039E+02  0.25447956221E+02 -0.15680538176E+03  0.17315493218E+03  0.00000000000E+00 0.  1.
         21    1    1    2  505  502  0.66760269579E+02 -0.75621938228E+02 -0.35987477474E+03  0.37374518677E+03  0.00000000000E+00 0. -1.
         21    1    1    2  506  501  0.81978719054E+01 -0.29826446146E+02 -0.14907767495E+01  0.30968442144E+02  0.00000000000E+00 0.  1.
<scales pt_clust_3="54.81354" pt_clust_4="14000.00000" pt_clust_5="85.76132" pt_clust_6="30.93254"></scales>
<clustering>
<clus scale="   30.933">  1  6  2 -1</clus>
<clus scale="   54.814">  1  3  2 -1</clus>
<clus scale="   85.761">  2  5  1 -1</clus>
<clus scale="   30.933">  1  3  2 -1</clus>
</clustering>
</event>
<event>
 6    0  0.8520634E+002  0.2181456E+03  0.7546771E-02  0.1135273E+00
         21   -1    0    0  506  501  0.00000000000E+00  0.00000000000E+00  0.19488020585E+03  0.19488020585E+03  0.00000000000E+00 0.  1.
         21   -1    0    0  503  502 -0.00000000000E+00 -0.00000000000E+00 -0.77968348990E+03  0.77968348990E+03  0.00000000000E+00 0.  1.
         21    1    1    2  503  505  0.23391339701E+01 -0.37663458381E+02 -0.52966918399E+03  0.53101172503E+03  0.00000000000E+00 0.  1.
         21    1    1    2  504  502 -0.14221029221E+03  0.78340209982E+01 -0.83880067583E+02  0.16529066771E+03  0.00000000000E+00 0.  1.
         21    1    1    2  505  501  0.20670459416E+03  0.35147743346E+02  0.24182349012E+02  0.21106145815E+03  0.00000000000E+00 0.  1.
         21    1    1    2  506  504 -0.66833435923E+02 -0.53183059636E+01  0.45636185074E+01  0.67199844862E+02  0.00000000000E+00 0. -1.
<scales pt_clust_3="37.73603" pt_clust_4="43.91986" pt_clust_5="208.64409" pt_clust_6="43.91986"></scales>
<clustering>
<clus scale="   37.736">  2  3  1 -1</clus>
<clus scale="   43.920">  4  6 -1 -1</clus>
<clus scale="  208.644">  1  5  2 -1</clus>
<clus scale="  208.644">  1  3  2 -1</clus>
</clustering>
</event>
<event>
 6    0  0.8520634E+002  0.3243545E+03  0.7546771E-02  0.1073662E+00
         21   -1    0    0  504  501  0.00000000000E+00  0.00000000000E+00  0.10319064841E+04  0.10319064841E+04  0.00000000000E+00 0. -1.
         21   -1    0    0  506  502 -0.00000000000E+00 -0.00000000000E+00 -0.26910774419E+03  0.26910774419E+03  0.00000000000E+00 0. -1.
         21    1    1    2  503  501 -0.92958160572E+02 -0.32032346750E+03  0.57341810901E+03  0.66336767421E+03  0.00000000000E+00 0. -1.
         21    1    1    2  504  505 -0.56848625264E+02  0.59779075608E+02  0.14507909123E+03  0.16689292013E+03  0.00000000000E+00 0.  1.
         21    1    1    2  505  502 -0.61133845297E+02 -0.58783860055E+02  0.20794599608E+02  0.87322990195E+02  0.00000000000E+00 0. -1.
         21    1    1    2  506  503  0.21094063113E+03  0.31932825195E+03  0.23506940084E+02  0.38343064378E+03  0.00000000000E+00 0. -1.
<scales pt_clust_3="324.35451" pt_clust_4="82.49427" pt_clust_5="84.93549" pt_clust_6="14000.00000"></scales>
<clustering>
<clus scale="   82.494">  1  4  2 -1</clus>
<clus scale="   84.935">  2  5  1 -1</clus>
<clus scale="  324.355">  1  3  2 -1</clus>
<clus scale="   82.494">  1  3  2 -1</clus>
</clustering>
</event>
<event>
 6    0  0.8520634E+002  0.1260542E+03  0.7546771E-02  0.1233431E+00
         21   -1    0    0  504  501  0.00000000000E+00  0.00000000000E+00  0.15092498446E+03  0.15092498446E+03  0.00000000000E+00 0.  1.
         21   -1    0    0  505  502 -0.00000000000E+00 -0.00000000000E+00 -0.92447960008E+03  0.92447960008E+03  0.00000000000E+00 0.  1.
         21    1    1    2  503  501 -0.52780771427E+02  0.22885583377E+01  0.87982614333E+02  0.10262547323E+03  0.00000000000E+00 0.  1.
         21    1    1    2  504  506 -0.43058567936E+02 -0.86009738872E+02 -0.48542460106E+02  0.10774082739E+03  0.00000000000E+00 0.  1.
         21    1    1    2  505  503  0.15281328326E+03  0.10305792944E+03 -0.32729308284E+03  0.37562427829E+03  0.00000000000E+00 0.  1.
         21    1    1    2  506  502 -0.56973943895E+02 -0.19336748910E+02 -0.48570168701E+03  0.48941400563E+03  0.00000000000E+00 0.  1.
<scales pt_clust_3="52.83036" pt_clust_4="14000.00000" pt_clust_5="126.05418" pt_clust_6="61.81262"></scales>
<clustering>
<clus scale="   52.830">  1  3  2 -1</clus>
<clus scale="   61.813">  2  6  1 -1</clus>
<clus scale="  126.054">  2  5  1 -1</clus>
<clus scale="   52.830">  1  3  2 -1</clus>
</clustering>
</event>
<event>
 6    0  0.8520634E+002  0.1248472E+03  0.7546771E-02  0.1235308E+00
         21   -1    0    0  506  501  0.00000000000E+00  0.00000000000E+00  0.16549595484E+03  0.16549595484E+03  0.00000000000E+00 0.  1.
         21   -1    0    0  503  502 -0.00000000000E+00 -0.00000000000E+00 -0.38296479573E+03  0.38296479573E+03  0.00000000000E+00 0.  1.
         21    1    1    2  503  501 -0.82546251652E+02 -0.27822660368E+02 -0.65696219340E+02  0.10910534967E+03  0.00000000000E+00 0.  1.
         21    1    1    2  504  502 -0.13838532531E+02 -0.32020053817E+02 -0.10684769720E+03  0.11239759439E+03  0.00000000000E+00 0.  1.
         21    1    1    2  505  504  0.52252042824E+01  0.15006303655E+03 -0.10708950442E+03  0.18442987734E+03  0.00000000000E+00 0.  1.
         21    1    1    2  506  505  0.91159579901E+02 -0.90220322360E+02  0.62164580072E+02  0.14252792916E+03  0.00000000000E+00 0.  1.
<scales pt_clust_3="94.93479" pt_clust_4="34.88250" pt_clust_5="124.84723" pt_clust_6="14000.00000"></scales>
<clustering>
<clus scale="   34.883">  2  4  1 -1</clus>
<clus scale="   94.935">  2  3  1 -1</clus>
<clus scale="  124.847">  2  5  1 -1</clus>
<clus scale="  124.847">  1  3  2 -1</clus>
</clustering>
</event>
<event>
 6    0  0.8520634E+002  0.7465207E+02  0.7546771E-02  0.1344952E+00
         21   -1    0    0  503  501  0.00000000000E+00  0.00000000000E+00  0.74586207092E+02  0.74586207092E+02  0.00000000000E+00 0. -1.
         21   -1    0    0  504  502 -0.00000000000E+00 -0.00000000000E+00 -0.33482591875E+03  0.33482591875E+03  0.00000000000E+00 0. -1.
         21    1    1    2  503  506 -0.34407560913E+02 -0.35673977121E+02 -0.68137146897E+01  0.50029387358E+02  0.00000000000E+00 0. -1.
         21    1    1    2  504  505 -0.21136944888E+02  0.35281691565E+02 -0.57802408828E+02  0.70941431231E+02  0.00000000000E+00 0.  1.
         21    1    1    2  505  501  0.84418748124E+02  0.69727085974E+02 -0.41686093774E+02  0.11715853348E+03  0.00000000000E+00 0. -1.
         21    1    1    2  506  502 -0.28874242324E+02 -0.69334800417E+02 -0.15393749436E+03  0.17128277377E+03  0.00000000000E+00 0. -1.
<scales pt_clust_3="48.61597" pt_clust_4="41.12868" pt_clust_5="14000.00000" pt_clust_6="74.65207"></scales>
<clustering>
<clus scale="   41.129">  2  4  1 -1</clus>
<clus scale="   48.616">  1  3  2 -1</clus>
<clus scale="   74.652">  2  6  1 -1</clus>
<clus scale="   48.616">  1  3  2 -1</clus>
</clustering>
</event>
<event>
 6    0  0.8520634E+002  0.8394854E+02  0.7546771E-02  0.1318205E+00
         21   -1    0    0  505  501  0.00000000000E+00  0.00000000000E+00  0.31556230990E+03  0.31556230990E+03  0.00000000000E+00 0. -1.
         21   -1    0    0  503  502 -0.00000000000E+00 -0.00000000000E+00 -0.40710185680E+03  0.40710185680E+03  0.00000000000E+00 0. -1.
         21    1    1    2  503  506 -0.73705681517E+02 -0.39113653801E+02 -0.36877060590E+03  0.37809279969E+03  0.00000000000E+00 0. -1.
         21    1    1    2  504  502 -0.83153466661E+01  0.45652704697E+02  0.34885834465E+02  0.58054593984E+02  0.00000000000E+00 0. -1.
         21    1    1    2  505  504 -0.31157267457E+02 -0.98670440978E+01  0.96464976014E+02  0.10185099642E+03  0.00000000000E+00 0. -1.
         21    1    1    2  506  501  0.11317829564E+03  0.33279932024E+01  0.14588024852E+03  0.18466577661E+03  0.00000000000E+00 0. -1.
<scales pt_clust_3="14000.00000" pt_clust_4="46.04756" pt_clust_5="32.68232" pt_clust_6="83.94854"></scales>
<clustering>
<clus scale="   32.682">  1  5  2 -1</clus>
<clus scale="   46.048">  1  4  2 -1</clus>
<clus scale="   83.949">  1  6  2 -1</clus>
<clus scale="   32.682">  1  3  2 -1</clus>
</clustering>
</event>
<event>
 6    0  0.8520634E+002  0.1546966E+03  0.7546771E-02  0.1194818E+00
         21   -1    0    0  504  501  0.00000000000E+00  0.00000000000E+00  0.32215366069E+03  0.32215366069E+03  0.00000000000E+00 0.  1.
         21   -1    0    0  506  502 -0.00000000000E+00 -0.00000000000E+00 -0.16017002203E+04  0.16017002203E+04  0.00000000000E+00 0.  1.
         21    1    1    2  503  505 -0.12505250149E+00  0.15657698790E+03 -0.38305266696E+02  0.16119448574E+03  0.00000000000E+00 0. -1.
         21    1    1    2  504  502 -0.15464742005E+01 -0.49577371679E+02 -0.55709291649E+03  0.55929672354E+03  0.00000000000E+00 0.  1.
         21    1    1    2  505  501 -0.39091529791E+02 -0.15021648161E+03  0.23536105672E+03  0.28193610281E+03  0.00000000000E+00 0.  1.
         21    1    1    2  506  503  0.40763056493E+02  0.43216865391E+02 -0.91950943311E+03  0.92142656886E+03  0.00000000000E+00 0.  1.
<scales pt_clust_3="14000.00000" pt_clust_4="49.60149" pt_clust_5="154.69662" pt_clust_6="39.40229"></scales>
<clustering>
<clus scale="   49.601">  2  4  1 -1</clus>
<clus scale="   39.402">  2  6  1 -1</clus>
<clus scale="  154.697">  1  5  2 -1</clus>
<clus scale="  154.697">  1  3  2 -1</clus>
</clustering>
</event>
<event>
 6    0  0.8520634E+002  0.1448286E+03  0.7546771E-02  0.1206976E+00
         21   -1    0    0  503  501  0.00000000000E+00  0.00000000000E+00  0.52042739767E+02  0.52042739767E+02  0.00000000000E+00 0. -1.
         21   -1    0    0  506  502 -0.00000000000E+00 -0.00000000000E+00 -0.98922152285E+03  0.98922152285E+03  0.00000000000E+00 0. -1.
         21    1    1    2  503  505 -0.41217877081E+02  0.29731961094E+02 -0.12416062976E+01  0.50837431955E+02  0.00000000000E+00 0. -1.
         21    1    1    2  504  502  0.37074716487E+02  0.67984630090E+02 -0.43232655536E+03  0.43920689316E+03  0.00000000000E+00 0. -1.
         21    1    1    2  505  504 -0.14003687176E+02  0.57128629635E+02 -0.21836761636E+03  0.22615083341E+03  0.00000000000E+00 0. -1.
         21    1    1    2  506  501  0.18146847770E+02 -0.15484522082E+03 -0.28524300507E+03  0.32506910409E+03  0.00000000000E+00 0. -1.
<scales pt_clust_3="50.82227" pt_clust_4="48.62240" pt_clust_5="48.62240" pt_clust_6="133.65225"></scales>
<clustering>
<clus scale="   48.622">  4  5 -1 -1</clus>
<clus scale="   50.822">  1  3  2 -1</clus>
<clus scale="  133.652">  1  6  2 -1</clus>
<clus scale="   50.822">  1  3  2 -1</clus>
</clustering>
</event>
<event>
 6    0  0.8520634E+002  0.1157215E+03  0.7546771E-02  0.1250327E+00
         21   -1    0    0  504  501  0.00000000000E+00  0.00000000000E+00  0.28375552065E+03  0.28375552065E+03  0.00000000000E+00 0. -1.
         21   -1    0    0  506  502 -0.00000000000E+00 -0.00000000000E+00 -0.10793100102E+03  0.10793100102E+03  0.00000000000E+00 0. -1.
         21    1    1    2  503  501  0.57043254981E+02 -0.67236546544E+02  0.11144185044E+03  0.14210549658E+03  0.00000000000E+00 0. -1.
         21    1    1    2  504  505 -0.40057004909E+02  0.24820924636E+01 -0.46782845719E+01  0.40405578473E+02  0.00000000000E+00 0.  1.
         21    1    1    2  505  502 -0.93810093460E+02  0.57373884933E+02  0.72848058461E+02  0.13190502617E+03  0.00000000000E+00 0. -1.
         21    1    1    2  506  503  0.76823843387E+02  0.73805691481E+01 -0.37871046977E+01  0.77270420445E+02  0.00000000000E+00 0. -1.
<scales pt_clust_3="99.25106" pt_clust_4="35.94792" pt_clust_5="35.94792" pt_clust_6="77.17756"></scales>
<clustering>
<clus scale="   35.948">  4  5 -1 -1</clus>
<clus scale="   77.178">  2  6  1 -1</clus>
<clus scale="   99.251">  1  3  2 -1</clus>
<clus scale="   99.251">  1  3  2 -1</clus>
</clustering>
</event>
<event>
 6    0  0.8520634E+002  0.1394258E+03  0.7546771E-02  0.1214104E+00
         21   -1    0    0  504  501  0.00000000000E+00  0.00000000000E+00  0.90946704820E+02  0.90946704820E+02  0.00000000000E+00 0.  1.
         21   -1    0    0  505  502 -0.00000000000E+00 -0.00000000000E+00 -0.10217867238E+04  0.10217867238E+04  0.00000000000E+00 0.  1.
         21    1    1    2  503  501  0.54004801627E+02  0.21742003008E+02 -0.10960470121E+02  0.59239895332E+02  0.00000000000E+00 0.  1.
         21    1    1    2  504  502  0.41381534798E+02 -0.10703735103E+03  0.78970541040E+01  0.11502951535E+03  0.00000000000E+00 0.  1.
         21    1    1    2  505  506 -0.67681137773E+02  0.36778777882E+02 -0.37231902936E+03  0.38020372767E+03  0.00000000000E+00 0.  1.
         21    1    1    2  506  503 -0.27705198653E+02  0.48516570143E+02 -0.55545757357E+03  0.55826029023E+03  0.00000000000E+00 0.  1.
<scales pt_clust_3="58.21712" pt_clust_4="125.96875" pt_clust_5="50.89604" pt_clust_6="50.89604"></scales>
<clustering>
<clus scale="   50.896">  5  6 -1 -1</clus>
<clus scale="   58.217">  1  3  2 -1</clus>
<clus scale="  125.969">  1  4  2 -1</clus>
<clus scale="   58.217">  1  3  2 -1</clus>
</clustering>
</event>
<event>
 6    0  0.8520634E+002  0.1689406E+03  0.7546771E-02  0.1178957E+00
         21   -1    0    0  505  501  0.00000000000E+00  0.00000000000E+00  0.19863928153E+03  0.19863928153E+03  0.00000000000E+00 0.  1.
         21   -1    0    0  506  502 -0.00000000000E+00 -0.00000000000E+00 -0.55830157273E+03  0.55830157273E+03  0.00000000000E+00 0.  1.
         21    1    1    2  503  502  0.35248101384E+01  0.39079147989E+02 -0.41325970465E+03  0.41511828144E+03  0.00000000000E+00 0.  1.
         21    1    1    2  504  501  0.87488517869E+02  0.28915007030E+02  0.13574263087E+02  0.93137420025E+02  0.00000000000E+00 0.  1.
         21    1    1    2  505  503 -0.13481722343E+03 -0.98647614154E+02  0.76730066162E+02  0.18383290936E+03  0.00000000000E+00 0.  1.
         21    1    1    2  506  504  0.43803895422E+02  0.30653459135E+02 -0.36706915800E+02  0.64852243436E+02  0.00000000000E+00 0.  1.
<scales pt_clust_3="39.23779" pt_clust_4="48.73090" pt_clust_5="157.80184" pt_clust_6="48.73090"></scales>
<clustering>
<clus scale="   39.238">  2  3  1 -1</clus>
<clus scale="   48.731">  4  6 -1 -1</clus>
<clus scale="  157.802">  1  5  2 -1</clus>
<clus scale="  157.802">  1  3  2 -1</clus>
</clustering>
</event>
<event>
 6    0  0.8520634E+002  0.1271739E+03  0.7546771E-02  0.1231710E+00
         21   -1    0    0  505  501  0.00000000000E+00  0.00000000000E+00  0.46243631715E+03  0.46243631715E+03  0.00000000000E+00 0. -1.
         21   -1    0    0  506  502 -0.00000000000E+00 -0.00000000000E+00 -0.11794855113E+03  0.11794855113E+03  0.00000000000E+00 0. -1.
         21    1    1    2  503  504  0.25365915230E+02 -0.59383890408E+02 -0.17885101854E+02  0.67005618897E+02  0.00000000000E+00 0. -1.
         21    1    1    2  504  502 -0.28114937407E+02 -0.49756426770E+02 -0.39248192388E+02  0.69329447683E+02  0.00000000000E+00 0. -1.
         21    1    1    2  505  503  0.49533180402E+01 -0.38695288177E+02  0.57216153618E+02  0.69249901960E+02  0.00000000000E+00 0.  1.
         21    1    1    2  506  501 -0.22042958632E+01  0.14783560535E+03  0.34440490664E+03  0.37479989974E+03  0.00000000000E+00 0. -1.
<scales pt_clust_3="54.48521" pt_clust_4="54.48521" pt_clust_5="39.01103" pt_clust_6="113.00144"></scales>
<clustering>
<clus scale="   39.011">  1  5  2 -1</clus>
<clus scale="   54.485">  3  4 -1 -1</clus>
<clus scale="  113.001">  1  6  2 -1</clus>
<clus scale="   39.011">  1  3  2 -1</clus>
</clustering>
</event>
<event>
 6    0  0.8520634E+002  0.6820119E+02  0.7546771E-02  0.1366319E+00
         21   -1    0    0  505  501  0.00000000000E+00  0.00000000000E+00  0.16490560654E+04  0.16490560654E+04  0.00000000000E+00 0.  1.
         21   -1    0    0  503  502 -0.00000000000E+00 -0.00000000000E+00 -0.87979605440E+03  0.87979605440E+03  0.00000000000E+00 0. -1.
         21    1    1    2  503  501 -0.88526132569E+01  0.12639822978E+03 -0.10323275276E+03  0.16343770218E+03  0.00000000000E+00 0.  1.
         21    1    1    2  504  506 -0.94427571548E+01 -0.31907880768E+02 -0.55122637598E+01  0.33729268737E+02  0.00000000000E+00 0.  1.
         21    1    1    2  505  504  0.36141644247E+01 -0.67789932477E+02  0.16038073747E+04  0.16052434807E+04  0.00000000000E+00 0.  1.
         21    1    1    2  506  502  0.14681205987E+02 -0.26700416538E+02 -0.72580234721E+03  0.72644166818E+03  0.00000000000E+00 0. -1.
<scales pt_clust_3="68.20119" pt_clust_4="36.11876" pt_clust_5="14000.00000" pt_clust_6="30.47048"></scales>
<clustering>
<clus scale="   30.470">  2  6  1 -1</clus>
<clus scale="   36.119">  2  4  1 -1</clus>
<clus scale="   68.201">  2  3  1 -1</clus>
<clus scale="   68.201">  1  3  2 -1</clus>
</clustering>
</event>
<event>
 6    0  0.8520634E+002  0.9882331E+02  0.7546771E-02  0.1282790E+00
         21   -1    0    0  503  501  0.00000000000E+00  0.00000000000E+00  0.55764471662E+02  0.55764471662E+02  0.00000000000E+00 0.  1.
         21   -1    0    0  504  502 -0.00000000000E+00 -0.00000000000E+00 -0.11285524128E+04  0.11285524128E+04  0.00000000000E+00 0.  1.
         21    1    1    2  503  502 -0.95512519029E+02  0.88557570809E+02 -0.15574060182E+03  0.20302763283E+03  0.00000000000E+00 0.  1.
         21    1    1    2  504  506  0.94539378321E+02  0.34277174550E+02 -0.40036872517E+03  0.41280471756E+03  0.00000000000E+00 0.  1.
         21    1    1    2  505  501  0.44753131956E+02 -0.15316499536E+02 -0.95729591901E+01  0.48260537974E+02  0.00000000000E+00 0.  1.
         21    1    1    2  506  505 -0.43779991248E+02 -0.10751824582E+03 -0.50710565500E+03  0.52022399613E+03  0.00000000000E+00 0.  1.
<scales pt_clust_3="102.94235" pt_clust_4="14000.00000" pt_clust_5="47.30156" pt_clust_6="98.82331"></scales>
<clustering>
<clus scale="   47.302">  1  5  2 -1</clus>
<clus scale="  102.942">  1  3  2 -1</clus>
<clus scale="   98.823">  1  6  2 -1</clus>
<clus scale="   47.302">  1  3  2 -1</clus>
</clustering>
</event>
<event>
 6    0  0.8520634E+002  0.8155096E+02  0.7546771E-02  0.1324707E+00
         21   -1    0    0  505  501  0.00000000000E+00  0.00000000000E+00  0.20299099986E+03  0.20299099986E+03  0.00000000000E+00 0. -1.
         21   -1    0    0  503  502 -0.00000000000E+00 -0.00000000000E+00 -0.50378879996E+03  0.50378879996E+03  0.00000000000E+00 0.  1.
         21    1    1    2  503  504  0.12925588929E+02 -0.32987710777E+02 -0.20737052372E+02  0.41052225914E+02  0.00000000000E+00 0.  1.
         21    1    1    2  504  501  0.87857042889E+02 -0.75957062538E+01  0.14298854018E+03  0.16799487302E+03  0.00000000000E+00 0. -1.
         21    1    1    2  505  506 -0.64718494669E+02 -0.20160416640E+02  0.10460909705E+01  0.67793954433E+02  0.00000000000E+00 0.  1.
         21    1    1    2  506  502 -0.36064137149E+02  0.60743833671E+02 -0.42409537887E+03  0.42993874645E+03  0.00000000000E+00 0.  1.
<scales pt_clust_3="35.42965" pt_clust_4="81.55096" pt_clust_5="14000.00000" pt_clust_6="39.41182"></scales>
<clustering>
<clus scale="   35.430">  2  3  1 -1</clus>
<clus scale="   39.412">  2  6  1 -1</clus>
<clus scale="   81.551">  1  4  2 -1</clus>
<clus scale="   81.551">  1  3  2 -1</clus>
</clustering>
</event>
<event>
 6    0  0.8520634E+002  0.6557267E+02  0.7546771E-02  0.1375830E+00
         21   -1    0    0  505  501  0.00000000000E+00  0.00000000000E+00  0.94507802890E+02  0.94507802890E+02  0.00000000000E+00 0. -1.
         21   -1    0    0  504  502 -0.00000000000E+00 -0.00000000000E+00 -0.50249518769E+03  0.50249518769E+03  0.00000000000E+00 0.  1.
         21    1    1    2  503  502  0.38300373941E+02  0.40984094216E+02 -0.12361646450E+03  0.13574846194E+03  0.00000000000E+00 0. -1.
         21    1    1    2  504  506 -0.16667478118E+02 -0.75642650082E+02 -0.29607371108E+03  0.30603800047E+03  0.00000000000E+00 0.  1.
         21    1    1    2  505  503 -0.27406563260E+02  0.79349361429E+02  0.48576655386E+02  0.96990372292E+02  0.00000000000E+00 0. -1.
         21    1    1    2  506  501  0.57736674378E+01 -0.44690805562E+02 -0.36873864596E+02  0.58226155872E+02  0.00000000000E+00 0.  1.
<scales pt_clust_3="14000.00000" pt_clust_4="65.57267" pt_clust_5="46.32117" pt_clust_6="45.06222"></scales>
<clustering>
<clus scale="   45.062">  1  6  2 -1</clus>
<clus scale="   46.321">  1  5  2 -1</clus>
<clus scale="   65.573">  2  4  1 -1</clus>
<clus scale="   45.062">  1  3  2 -1</clus>
</clustering>
</event>
<event>
 6    0  0.8520634E+002  0.1303600E+03  0.7546771E-02  0.1226923E+00
         21   -1    0    0  503  501  0.00000000000E+00  0.00000000000E+00  0.52779506423E+02  0.52779506423E+02  0.00000000000E+00 0. -1.
         21   -1    0    0  505  502 -0.00000000000E+00 -0.00000000000E+00 -0.13383165898E+04  0.13383165898E+04  0.00000000000E+00 0. -1.
         21    1    1    2  503  502 -0.71847998461E+02 -0.15910442965E+03 -0.81785743041E+03  0.83628172938E+03  0.00000000000E+00 0. -1.
         21    1    1    2  504  501  0.28513936789E+02  0.12214511589E+03 -0.58649888393E+02  0.13846401459E+03  0.00000000000E+00 0. -1.
         21    1    1    2  505  506  0.20422059986E+01  0.36361362620E+02 -0.19605174300E+03  0.19940562989E+03  0.00000000000E+00 0. -1.
         21    1    1    2  506  504  0.41291855674E+02  0.59795113311E+00 -0.21297802159E+03  0.21694472239E+03  0.00000000000E+00 0. -1.
<scales pt_clust_3="130.35999" pt_clust_4="14000.00000" pt_clust_5="36.41867" pt_clust_6="42.33752"></scales>
<clustering>
<clus scale="   36.419">  2  5  1 -1</clus>
<clus scale="   42.338">  2  6  1 -1</clus>
<clus scale="  130.360">  2  3  1 -1</clus>
<clus scale="  130.360">  1  3  2 -1</clus>
</clustering>
</event>
<event>
 6    0  0.8520634E+002  0.1779947E+03  0.7546771E-02  0.1169758E+00
         21   -1    0    0  502  501  0.00000000000E+00  0.00000000000E+00  0.40113654546E+03  0.40113654546E+03  0.00000000000E+00 0.  1.
         21   -1    0    0  503  502 -0.00000000000E+00 -0.00000000000E+00 -0.50511638857E+03  0.50511638857E+03  0.00000000000E+00 0.  1.
         21    1    1    2  503  505  0.77388187612E+02  0.41749230405E+02 -0.38879011289E+02  0.96143160652E+02  0.00000000000E+00 0.  1.
         21    1    1    2  504  506 -0.16526256732E+03 -0.36501081545E+02 -0.20430211212E+03  0.26529869605E+03  0.00000000000E+00 0.  1.
         21    1    1    2  505  504 -0.71283370806E+02 -0.12659587453E+01 -0.17698451375E+03  0.19080471617E+03  0.00000000000E+00 0.  1.
         21    1    1    2  506  501  0.15915775051E+03 -0.39821901147E+01  0.31618579405E+03  0.35400636116E+03  0.00000000000E+00 0.  1.
<scales pt_clust_3="87.93139" pt_clust_4="47.11896" pt_clust_5="47.11896" pt_clust_6="162.51653"></scales>
<clustering>
<clus scale="   47.119">  4  5 -1 -1</clus>
<clus scale="   87.931">  2  3  1 -1</clus>
<clus scale="  162.517">  1  6  2 -1</clus>
<clus scale="  162.517">  1  3  2 -1</clus>
</clustering>
</event>
<event>
 6    0  0.8520634E+002  0.7566252E+02  0.7546771E-02  0.1341832E+00
         21   -1    0    0  503  501  0.00000000000E+00  0.00000000000E+00  0.14798065639E+04  0.14798065639E+04  0.00000000000E+00 0.  1.
         21   -1    0    0  506  502 -0.00000000000E+00 -0.00000000000E+00 -0.38032912421E+02  0.38032912421E+02  0.00000000000E+00 0.  1.
         21    1    1    2  503  502 -0.76563525215E+02  0.82375074821E+02  0.34316710185E+03  0.36112502840E+03  0.00000000000E+00 0.  1.
         21    1    1    2  504  501 -0.10975374120E+02 -0.44493135086E+02  0.97707517167E+03  0.97814926724E+03  0.00000000000E+00 0.  1.
         21    1    1    2  505  504  0.30482270342E+02 -0.39633468911E+02  0.10928926551E+03  0.12018371029E+03  0.00000000000E+00 0.  1.
         21    1    1    2  506  505  0.57056628993E+02  0.17515291761E+01  0.12242112432E+02  0.58381470376E+02  0.00000000000E+00 0.  1.
<scales pt_clust_3="14000.00000" pt_clust_4="45.82683" pt_clust_5="75.66252" pt_clust_6="56.30174"></scales>
<clustering>
<clus scale="   45.827">  1  4  2 -1</clus>
<clus scale="   56.302">  2  6  1 -1</clus>
<clus scale="   75.663">  2  5  1 -1</clus>
<clus scale="   45.827">  1  3  2 -1</clus>
</clustering>
</event>
<event>
 6    0  0.8520634E+002  0.1173112E+03  0.7546771E-02  0.1247600E+00
         21   -1    0    0  505  501  0.00000000000E+00  0.00000000000E+00  0.84299171176E+03  0.84299171176E+03  0.00000000000E+00 0. -1.
         21   -1    0    0  501  502 -0.00000000000E+00 -0.00000000000E+00 -0.22042370942E+03  0.22042370942E+03  0.00000000000E+00 0.  1.
         21    1    1    2  503  502 -0.53147057479E+02 -0.96933717601E+02 -0.18201487315E+03  0.21295579206E+03  0.00000000000E+00 0.  1.
         21    1    1    2  504  506 -0.33781162379E+02  0.45092994458E+02  0.11281326504E+03  0.12610066554E+03  0.00000000000E+00 0. -1.
         21    1    1    2  505  504  0.96771234706E+02  0.71763826828E+01  0.66357116178E+03  0.67062870434E+03  0.00000000000E+00 0. -1.
         21    1    1    2  506  503 -0.98430148488E+01  0.44664340460E+02  0.28198448669E+02  0.53730259234E+02  0.00000000000E+00 0.  1.
<scales pt_clust_3="106.14383" pt_clust_4="45.00700" pt_clust_5="97.03696" pt_clust_6="45.00700"></scales>
<clustering>
<clus scale="   45.007">  4  6 -1 -1</clus>
<clus scale="   97.037">  1  5  2 -1</clus>
<clus scale="  106.144">  2  3  1 -1</clus>
<clus scale="   97.037">  1  3  2 -1</clus>
</clustering>
</event>
<event>
 6    0  0.8520634E+002  0.1108856E+03  0.7546771E-02  0.1258939E+00
         21   -1    0    0  504  501  0.00000000000E+00  0.00000000000E+00  0.12049370295E+03  0.12049370295E+03  0.00000000000E+00 0.  1.
         21   -1    0    0  503  502 -0.00000000000E+00 -0.00000000000E+00 -0.63166155253E+03  0.63166155253E+03  0.00000000000E+00 0. -1.
         21    1    1    2  503  506  0.18498834710E+03 -0.39704110234E+02 -0.28314187035E+03  0.34053843201E+03  0.00000000000E+00 0. -1.
         21    1    1    2  504  505 -0.77517941395E+02 -0.42290444038E+02 -0.31383077664E+02  0.93714515731E+02  0.00000000000E+00 0.  1.
         21    1    1    2  505  502 -0.83635766032E+02  0.30101975177E+02 -0.23356074114E+03  0.24990336147E+03  0.00000000000E+00 0.  1.
         21    1    1    2  506  501 -0.23834639673E+02  0.51892579095E+02  0.36917839577E+02  0.67998946260E+02  0.00000000000E+00 0.  1.
<scales pt_clust_3="14000.00000" pt_clust_4="90.35442" pt_clust_5="110.88562" pt_clust_6="57.10455"></scales>
<clustering>
<clus scale="   57.105">  1  6  2 -1</clus>
<clus scale="   90.354">  1  4  2 -1</clus>
<clus scale="  110.886">  2  5  1 -1</clus>
<clus scale="   57.105">  1  3  2 -1</clus>
</clustering>
</event>
<event>
 6    0  0.8520634E+002  0.1103940E+03  0.7546771E-02  0.1259842E+00
         21   -1    0    0  503  501  0.00000000000E+00  0.00000000000E+00  0.77720084944E+03  0.77720084944E+03  0.00000000000E+00 0. -1.
         21   -1    0    0  506  502 -0.00000000000E+00 -0.00000000000E+00 -0.79938523250E+02  0.79938523250E+02  0.00000000000E+00 0. -1.
         21    1    1    2  503  504  0.34794743416E+02 -0.93410030235E+01  0.19805274123E+03  0.20130279883E+03  0.00000000000E+00 0. -1.
         21    1    1    2  504  505  0.12753711263E+02 -0.10071556013E+03  0.45285537917E+03  0.46409511487E+03  0.00000000000E+00 0. -1.
         21    1    1    2  505  502 -0.67011319506E+02  0.82291927102E+02  0.88123095641E+02  0.13794259021E+03  0.00000000000E+00 0. -1.
         21    1    1    2  506  501  0.19462864827E+02  0.27764636050E+02 -0.41768889855E+02  0.53798868780E+02  0.00000000000E+00 0. -1.
<scales pt_clust_3="36.64833" pt_clust_4="14000.00000" pt_clust_5="110.39402" pt_clust_6="33.90690"></scales>
<clustering>
<clus scale="   33.907">  2  6  1 -1</clus>
<clus scale="   36.648">  1  3  2 -1</clus>
<clus scale="  110.394">  2  5  1 -1</clus>
<clus scale="   36.648">  1  3  2 -1</clus>
</clustering>
</event>
<event>
 6    0  0.8520634E+002  0.9267464E+02  0.7546771E-02  0.1296501E+00
         21   -1    0    0  505  501  0.00000000000E+00  0.00000000000E+00  0.10676455170E+03  0.10676455170E+03  0.00000000000E+00 0.  1.
         21   -1    0    0  506  502 -0.00000000000E+00 -0.00000000000E+00 -0.59220945656E+03  0.59220945656E+03  0.00000000000E+00 0.  1.
         21    1    1    2  503  504  0.69605095918E+02 -0.22569189481E+02 -0.77676941069E+02  0.10671431425E+03  0.00000000000E+00 0. -1.
         21    1    1    2  504  501  0.42551055839E+02 -0.44105885154E+02  0.51543230878E+02  0.80078874291E+02  0.00000000000E+00 0.  1.
         21    1    1    2  505  502 -0.19782408275E+02  0.28801933306E+02  0.67149784040E+01  0.35580696653E+02  0.00000000000E+00 0.  1.
         21    1    1    2  506  503 -0.92373743482E+02  0.37873141329E+02 -0.46602617307E+03  0.47660012307E+03  0.00000000000E+00 0.  1.
<scales pt_clust_3="14000.00000" pt_clust_4="35.07533" pt_clust_5="34.94131" pt_clust_6="92.67464"></scales>
<clustering>
<clus scale="   34.941">  1  5  2 -1</clus>
<clus scale="   35.075">  1  4  2 -1</clus>
<clus scale="   92.675">  2  6  1 -1</clus>
<clus scale="   34.941">  1  3  2 -1</clus>
</clustering>
</event>
<event>
 6    0  0.8520634E+002  0.1148985E+03  0.7546771E-02  0.1251758E+00
         21   -1    0    0  504  501  0.00000000000E+00  0.00000000000E+00  0.64238218515E+03  0.64238218515E+03  0.00000000000E+00 0. -1.
         21   -1    0    0  505  502 -0.00000000000E+00 -0.00000000000E+00 -0.33307022634E+03  0.33307022634E+03  0.00000000000E+00 0. -1.
         21    1    1    2  503  506 -0.73737039207E+02  0.70640909853E+02  0.27419733731E+03  0.29259437602E+03  0.00000000000E+00 0. -1.
         21    1    1    2  504  503  0.32947880940E+01  0.30024984136E+02  0.25478819015E+03  0.25657236239E+03  0.00000000000E+00 0. -1.
         21    1    1    2  505  501  0.30697004782E+02 -0.11924791080E+03  0.64320394132E+02  0.13892258072E+03  0.00000000000E+00 0.  1.
         21    1    1    2  506  502  0.39745246331E+02  0.18582016809E+02 -0.28399396278E+03  0.28736309236E+03  0.00000000000E+00 0. -1.
<scales pt_clust_3="14000.00000" pt_clust_4="30.20522" pt_clust_5="114.89845" pt_clust_6="43.94309"></scales>
<clustering>
<clus scale="   30.205">  1  4  2 -1</clus>
<clus scale="   43.943">  2  6  1 -1</clus>
<clus scale="  114.898">  2  5  1 -1</clus>
<clus scale="   30.205">  1  3  2 -1</clus>
</clustering>
</event>
<event>
 6    0  0.8520634E+002  0.1622150E+03  0.7546771E-02  0.1186218E+00
         21   -1    0    0  503  501  0.00000000000E+00  0.00000000000E+00  0.38174592001E+03  0.38174592001E+03  0.00000000000E+00 0. -1.
         21   -1    0    0  506  502 -0.00000000000E+00 -0.00000000000E+00 -0.11866849486E+03  0.11866849486E+03  0.00000000000E+00 0.  1.
         21    1    1    2  503  505 -0.14513411976E+02 -0.60830860911E+02  0.10013374450E+03  0.11805845821E+03  0.00000000000E+00 0.  1.
         21    1    1    2  504  501  0.30099359259E+02  0.62942824350E+02  0.82329520182E+02  0.10791626596E+03  0.00000000000E+00 0. -1.
         21    1    1    2  505  502 -0.28681682579E+02 -0.12896331391E+03  0.21396539681E+02  0.13383567223E+03  0.00000000000E+00 0.  1.
         21    1    1    2  506  504  0.13095735295E+02  0.12685135047E+03  0.59217620784E+02  0.14060401847E+03  0.00000000000E+00 0. -1.
<scales pt_clust_3="62.53825" pt_clust_4="45.82983" pt_clust_5="149.91536" pt_clust_6="45.82983"></scales>
<clustering>
<clus scale="   45.830">  4  6 -1 -1</clus>
<clus scale="   62.538">  1  3  2 -1</clus>
<clus scale="  149.915">  2  5  1 -1</clus>
<clus scale="   62.538">  1  3  2 -1</clus>
</clustering>
</event>
<event>
 6    0  0.8520634E+002  0.9574813E+02  0.7546771E-02  0.1289500E+00
         21   -1    0    0  505  501  0.00000000000E+00  0.00000000000E+00  0.30490805681E+02  0.30490805681E+02  0.00000000000E+00 0. -1.
         21   -1    0    0  504  502 -0.00000000000E+00 -0.00000000000E+00 -0.18704823208E+04  0.18704823208E+04  0.00000000000E+00 0. -1.
         21    1    1    2  503  501  0.78121225822E+02  0.86020811109E+02 -0.46081128363E+03  0.47523630437E+03  0.00000000000E+00 0. -1.
         21    1    1    2  504  503 -0.40048135486E+02  0.99510595747E+01 -0.12315630659E+04  0.12322542197E+04  0.00000000000E+00 0. -1.
         21    1    1    2  505  506  0.14021804653E+02 -0.39872685012E+02 -0.25532537399E+02  0.49379676810E+02  0.00000000000E+00 0. -1.
         21    1    1    2  506  502 -0.52094894989E+02 -0.56099185671E+02 -0.12208462811E+03  0.14410292550E+03  0.00000000000E+00 0. -1.
<scales pt_clust_3="95.74813" pt_clust_4="41.26593" pt_clust_5="40.98632" pt_clust_6="14000.00000"></scales>
<clustering>
<clus scale="   41.266">  2  4  1 -1</clus>
<clus scale="   40.986">  1  5  2 -1</clus>
<clus scale="   95.748">  2  3  1 -1</clus>
<clus scale="   40.986">  1  3  2 -1</clus>
</clustering>
</event>
<event>
 6    0  0.8520634E+002  0.6195660E+02  0.7546771E-02  0.1389799E+00
         21   -1    0    0  503  501  0.00000000000E+00  0.00000000000E+00  0.79995456203E+03  0.79995456203E+03  0.00000000000E+00 0.  1.
         21   -1    0    0  505  502 -0.00000000000E+00 -0.00000000000E+00 -0.12926493439E+03  0.12926493439E+03  0.00000000000E+00 0.  1.
         21    1    1    2  503  506  0.38301096857E+02  0.24227393406E+02  0.14999297738E+03  0.15669024818E+03  0.00000000000E+00 0.  1.
         21    1    1    2  504  501  0.16908552449E+02 -0.32516180499E+02  0.34835130870E+03  0.35027394338E+03  0.00000000000E+00 0.  1.
         21    1    1    2  505  504 -0.94497046693E+02  0.54703269839E+02  0.27893227504E+03  0.29954190629E+03  0.00000000000E+00 0.  1.
         21    1    1    2  506  502  0.39287397387E+02 -0.46414482746E+02 -0.10658693347E+03  0.12271339857E+03  0.00000000000E+00 0.  1.
<scales pt_clust_3="45.97907" pt_clust_4="36.64971" pt_clust_5="61.95660" pt_clust_6="14000.00000"></scales>
<clustering>
<clus scale="   36.650">  1  4  2 -1</clus>
<clus scale="   45.979">  1  3  2 -1</clus>
<clus scale="   61.957">  1  5  2 -1</clus>
<clus scale="   36.650">  1  3  2 -1</clus>
</clustering>
</event>
<event>
 6    0  0.8520634E+002  0.1263957E+03  0.7546771E-02  0.1232904E+00
         21   -1    0    0  505  501  0.00000000000E+00  0.00000000000E+00  0.23147261322E+03  0.23147261322E+03  0.00000000000E+00 0.  1.
         21   -1    0    0  504  502 -0.00000000000E+00 -0.00000000000E+00 -0.53039351263E+03  0.53039351263E+03  0.00000000000E+00 0.  1.
         21    1    1    2  503  502  0.68243444600E+02  0.77685022578E+02 -0.28092511087E+03  0.29935104540E+03  0.00000000000E+00 0.  1.
         21    1    1    2  504  506 -0.32710223125E+02  0.45344586837E+02 -0.17969557123E+03  0.18819295569E+03  0.00000000000E+00 0.  1.
         21    1    1    2  505  503 -0.18805717002E+02 -0.15460757980E+03  0.60649204579E+02  0.16713911792E+03  0.00000000000E+00 0.  1.
         21    1    1    2  506  501 -0.16727504473E+02  0.31577970383E+02  0.10105057811E+03  0.10718300684E+03  0.00000000000E+00 0.  1.
<scales pt_clust_3="126.39573" pt_clust_4="57.09253" pt_clust_5="14000.00000" pt_clust_6="35.73482"></scales>
<clustering>
<clus scale="   35.735">  1  6  2 -1</clus>
<clus scale="   57.093">  2  4  1 -1</clus>
<clus scale="  126.396">  2  3  1 -1</clus>
<clus scale="   35.735">  1  3  2 -1</clus>
</clustering>
</event>
<event>
 6    0  0.8520634E+002  0.1551139E+03  0.7546771E-02  0.1194326E+00
         21   -1    0    0  506  501  0.00000000000E+00  0.00000000000E+00  0.80875883073E+03  0.80875883073E+03  0.00000000000E+00 0. -1.
         21   -1    0    0  504  502 -0.00000000000E+00 -0.00000000000E+00 -0.66976887264E+03  0.66976887264E+03  0.00000000000E+00 0. -1.
         21    1    1    2  503  501  0.48150501841E+02  0.97070093325E+02  0.69512386293E+03  0.70351848495E+03  0.00000000000E+00 0. -1.
         21    1    1    2  504  505 -0.17694202202E+03  0.10802089831E+02 -0.48191917138E+03  0.51348929107E+03  0.00000000000E+00 0. -1.
         21    1    1    2  505  503  0.10202104536E+03 -0.13712331716E+03  0.70919693299E+01  0.17105962070E+03  0.00000000000E+00 0. -1.
         21    1    1    2  506  502  0.26770474823E+02  0.29251134001E+02 -0.81306702787E+02  0.90460306658E+02  0.00000000000E+00 0. -1.
<scales pt_clust_3="108.63015" pt_clust_4="155.11392" pt_clust_5="14000.00000" pt_clust_6="39.65208"></scales>
<clustering>
<clus scale="   39.652">  2  6  1 -1</clus>
<clus scale="  108.630">  1  3  2 -1</clus>
<clus scale="  155.114">  2  4  1 -1</clus>
<clus scale="  108.630">  1  3  2 -1</clus>
</clustering>
</event>
<event>
 6    0  0.8520634E+002  0.1337678E+03  0.7546771E-02  0.1221970E+00
         21   -1    0    0  503  501  0.00000000000E+00  0.00000000000E+00  0.15011697798E+04  0.15011697798E+04  0.00000000000E+00 0. -1.
         21   -1    0    0  506  502 -0.00000000000E+00 -0.00000000000E+00 -0.13500185240E+03  0.13500185240E+03  0.00000000000E+00 0.  1.
         21    1    1    2  503  502 -0.24451139560E+02  0.42157613288E+02  0.55058284121E+02  0.73529159075E+02  0.00000000000E+00 0. -1.
         21    1    1    2  504  505  0.14046192764E+03 -0.90048096071E+02  0.46313540654E+03  0.49227290958E+03  0.00000000000E+00 0. -1.
         21    1    1    2  505  501 -0.20410148729E+02 -0.42082560025E+02  0.91962167091E+03  0.92081025930E+03  0.00000000000E+00 0. -1.
         21    1    1    2  506  504 -0.95600639351E+02  0.89973042808E+02 -0.71647434137E+02  0.14955930427E+03  0.00000000000E+00 0.  1.
<scales pt_clust_3="46.04017" pt_clust_4="14000.00000" pt_clust_5="46.77089" pt_clust_6="133.76783"></scales>
<clustering>
<clus scale="   46.771">  1  5  2 -1</clus>
<clus scale="   46.040">  1  3  2 -1</clus>
<clus scale="  133.768">  2  6  1 -1</clus>
<clus scale="   46.771">  1  3  2 -1</clus>
</clustering>
</event>
<event>
 6    0  0.8520634E+002  0.7880636E+02  0.7546771E-02  0.1332473E+00
         21   -1    0    0  504  501  0.00000000000E+00  0.00000000000E+00  0.38166027930E+03  0.38166027930E+03  0.00000000000E+00 0.  1.
         21   -1    0    0  505  502 -0.00000000000E+00 -0.00000000000E+00 -0.96491204892E+02  0.96491204892E+02  0.00000000000E+00 0.  1.
         21    1    1    2  503  501 -0.39353886140E+02  0.20921685092E+02  0.24833998126E+03  0.25230773186E+03  0.00000000000E+00 0.  1.
         21    1    1    2  504  502 -0.54635981237E+02 -0.68051726595E+02  0.49933677495E+02  0.10054600980E+03  0.00000000000E+00 0.  1.
         21    1    1    2  505  506  0.58677819745E+02 -0.78992253610E+01 -0.73122095828E+01  0.59656958523E+02  0.00000000000E+00 0.  1.
         21    1    1    2  506  503  0.35312047633E+02  0.55029266864E+02 -0.57923747721E+01  0.65640784008E+02  0.00000000000E+00 0.  1.
<scales pt_clust_3="44.56956" pt_clust_4="78.80636" pt_clust_5="50.97214" pt_clust_6="14000.00000"></scales>
<clustering>
<clus scale="   44.570">  1  3  2 -1</clus>
<clus scale="   50.972">  2  5  1 -1</clus>
<clus scale="   78.806">  1  4  2 -1</clus>
<clus scale="   44.570">  1  3  2 -1</clus>
</clustering>
</event>
<event>
 6    0  0.8520634E+002  0.6396356E+02  0.7546771E-02  0.1381913E+00
         21   -1    0    0  504  501  0.00000000000E+00  0.00000000000E+00  0.10319126499E+04  0.10319126499E+04  0.00000000000E+00 0.  1.
         21   -1    0    0  505  502 -0.00000000000E+00 -0.00000000000E+00 -0.21837598434E+03  0.21837598434E+03  0.00000000000E+00 0.  1.
         21    1    1    2  503  502  0.28198856360E+02  0.55015233308E+02 -0.14920766732E+03  0.16150783071E+03  0.00000000000E+00 0.  1.
         21    1    1    2  504  506 -0.71432755383E+02  0.24967875368E+01  0.62081427924E+03  0.62491538771E+03  0.00000000000E+00 0.  1.
         21    1    1    2  505  501  0.32354186525E+02  0.28938804943E+02  0.36983472204E+03  0.37237342741E+03  0.00000000000E+00 0.  1.
         21    1    1    2  506  503  0.10879712498E+02 -0.86450825787E+02 -0.27904668403E+02  0.91491988403E+02  0.00000000000E+00 0.  1.
<scales pt_clust_3="63.96356" pt_clust_4="50.61888" pt_clust_5="43.40792" pt_clust_6="14000.00000"></scales>
<clustering>
<clus scale="   43.408">  1  5  2 -1</clus>
<clus scale="   50.619">  1  4  2 -1</clus>
<clus scale="   63.964">  2  3  1 -1</clus>
<clus scale="   43.408">  1  3  2 -1</clus>
</clustering>
</event>
<event>
 6    0  0.8520634E+002  0.1387344E+03  0.7546771E-02  0.1215042E+00
         21   -1    0    0  503  501  0.00000000000E+00  0.00000000000E+00  0.76737628982E+03  0.76737628982E+03  0.00000000000E+00 0. -1.
         21   -1    0    0  506  502 -0.00000000000E+00 -0.00000000000E+00 -0.53332396404E+03  0.53332396404E+03  0.00000000000E+00 0. -1.
         21    1    1    2  503  504  0.35707017674E+02  0.38384980512E+01  0.61323178278E+03  0.61428246320E+03  0.00000000000E+00 0. -1.
         21    1    1    2  504  502  0.59564519473E+02  0.97354213643E+02  0.18638454092E+02  0.11564240946E+03  0.00000000000E+00 0. -1.
         21    1    1    2  505  501 -0.12584799837E+03 -0.11785403849E+03 -0.98621807162E+00  0.17241886703E+03  0.00000000000E+00 0. -1.
         21    1    1    2  506  505  0.30576461222E+02  0.16661326799E+02 -0.39683169303E+03  0.39835651417E+03  0.00000000000E+00 0. -1.
<scales pt_clust_3="36.03734" pt_clust_4="14000.00000" pt_clust_5="138.73438" pt_clust_6="34.82125"></scales>
<clustering>
<clus scale="   34.821">  2  6  1 -1</clus>
<clus scale="   36.037">  1  3  2 -1</clus>
<clus scale="  138.734">  2  5  1 -1</clus>
<clus scale="   36.037">  1  3  2 -1</clus>
</clustering>
</event>
<event>
 6    0  0.8520634E+002  0.7886130E+02  0.7546771E-02  0.1332314E+00
         21   -1    0    0  506  501  0.00000000000E+00  0.00000000000E+00  0.68080845433E+02  0.68080845433E+02  0.00000000000E+00 0.  1.
         21   -1    0    0  501  502 -0.00000000000E+00 -0.00000000000E+00 -0.20868367411E+04  0.20868367411E+04  0.00000000000E+00 0. -1.
         21    1    1    2  503  505  0.35754914256E+01 -0.13251720642E+03 -0.20572433245E+03  0.24473678738E+03  0.00000000000E+00 0.  1.
         21    1    1    2  504  502 -0.34052251651E+02  0.31452743227E+02 -0.15216218199E+04  0.15223277550E+04  0.00000000000E+00 0. -1.
         21    1    1    2  505  504 -0.11715883381E+01  0.47900541013E+02 -0.31721712735E+03  0.32081543032E+03  0.00000000000E+00 0. -1.
         21    1    1    2  506  503  0.31648348564E+02  0.53163922178E+02  0.25807384071E+02  0.67037613776E+02  0.00000000000E+00 0.  1.
<scales pt_clust_3="78.86130" pt_clust_4="46.35548" pt_clust_5="14000.00000" pt_clust_6="62.24366"></scales>
<clustering>
<clus scale="   46.355">  2  4  1 -1</clus>
<clus scale="   62.244">  1  6  2 -1</clus>
<clus scale="   78.861">  1  3  2 -1</clus>
<clus scale="   62.244">  1  3  2 -1</clus>
</clustering>
</event>
<event>
 6    0  0.8520634E+002  0.9261339E+02  0.7546771E-02  0.1296644E+00
         21   -1    0    0  505  501  0.00000000000E+00  0.00000000000E+00  0.39234005355E+03  0.39234005355E+03  0.00000000000E+00 0.  1.
         21   -1    0    0  503  502 -0.00000000000E+00 -0.00000000000E+00 -0.47474149699E+03  0.47474149699E+03  0.00000000000E+00 0.  1.
         21    1    1    2  503  506  0.23329616291E+01 -0.89754980480E+02 -0.31525555080E+03  0.32779179602E+03  0.00000000000E+00 0.  1.
         21    1    1    2  504  502 -0.13091397950E+02  0.10725675272E+03 -0.54244980485E+02  0.12090456407E+03  0.00000000000E+00 0.  1.
         21    1    1    2  505  504  0.75034476748E+02 -0.27932619362E+01 -0.39744745378E+02  0.84956575956E+02  0.00000000000E+00 0. -1.
         21    1    1    2  506  501 -0.64276040427E+02 -0.14708510303E+02  0.32684383322E+03  0.33342861449E+03  0.00000000000E+00 0.  1.
<scales pt_clust_3="92.61339" pt_clust_4="14000.00000" pt_clust_5="52.31245" pt_clust_6="65.93747"></scales>
<clustering>
<clus scale="   65.937">  1  6  2 -1</clus>
<clus scale="   52.312">  1  5  2 -1</clus>
<clus scale="   92.613">  2  3  1 -1</clus>
<clus scale="   65.937">  1  3  2 -1</clus>
</clustering>
</event>
<event>
 6    0  0.8520634E+002  0.7407597E+02  0.7546771E-02  0.1346757E+00
         21   -1    0    0  505  501  0.00000000000E+00  0.00000000000E+00  0.40686683766E+03  0.40686683766E+03  0.00000000000E+00 0.  1.
         21   -1    0    0  501  502 -0.00000000000E+00 -0.00000000000E+00 -0.64289177404E+03  0.64289177404E+03  0.00000000000E+00 0. -1.
         21    1    1    2  503  504  0.72404287677E+02 -0.49333641672E+02 -0.66745385273E+01  0.87867733209E+02  0.00000000000E+00 0.  1.
         21    1    1    2  504  506 -0.47900693072E+02  0.38302894261E+02 -0.14806703659E+03  0.16026676334E+03  0.00000000000E+00 0. -1.
         21    1    1    2  505  503 -0.50624511986E+02 -0.29979409474E+02  0.35641241674E+03  0.36123595753E+03  0.00000000000E+00 0.  1.
         21    1    1    2  506  502  0.26120917380E+02  0.41010156886E+02 -0.43769577800E+03  0.44038815762E+03  0.00000000000E+00 0. -1.
<scales pt_clust_3="74.07597" pt_clust_4="14000.00000" pt_clust_5="58.32285" pt_clust_6="48.62237"></scales>
<clustering>
<clus scale="   48.622">  2  6  1 -1</clus>
<clus scale="   58.323">  1  5  2 -1</clus>
<clus scale="   74.076">  1  3  2 -1</clus>
<clus scale="   58.323">  1  3  2 -1</clus>
</clustering>
</event>
<event>
 6    0  0.8520634E+002  0.8015897E+02  0.7546771E-02  0.1328601E+00
         21   -1    0    0  504  501  0.00000000000E+00  0.00000000000E+00  0.24913426434E+03  0.24913426434E+03  0.00000000000E+00 0. -1.
         21   -1    0    0  505  502 -0.00000000000E+00 -0.00000000000E+00 -0.69145088993E+03  0.69145088993E+03  0.00000000000E+00 0.  1.
         21    1    1    2  503  501 -0.26879418035E+02 -0.33132376503E+02  0.19459567961E+03  0.19921781047E+03  0.00000000000E+00 0. -1.
         21    1    1    2  504  502 -0.51763034465E+02  0.63938793138E+02 -0.59040352666E+03  0.59610729344E+03  0.00000000000E+00 0.  1.
         21    1    1    2  505  506  0.22923756446E+02 -0.65048496229E+02 -0.39515787993E+02  0.79487753597E+02  0.00000000000E+00 0.  1.
         21    1    1    2  506  503  0.55718696054E+02  0.34242079594E+02 -0.69929905537E+01  0.65772296765E+02  0.00000000000E+00 0.  1.
<scales pt_clust_3="42.66448" pt_clust_4="14000.00000" pt_clust_5="80.15897" pt_clust_6="43.48657"></scales>
<clustering>
<clus scale="   42.664">  1  3  2 -1</clus>
<clus scale="   43.487">  1  6  2 -1</clus>
<clus scale="   80.159">  1  5  2 -1</clus>
<clus scale="   42.664">  1  3  2 -1</clus>
</clustering>
</event>
<event>
 6    0  0.8520634E+002  0.1618038E+03  0.7546771E-02  0.1186675E+00
         21   -1    0    0  505  501  0.00000000000E+00  0.00000000000E+00  0.93937053096E+02  0.93937053096E+02  0.00000000000E+00 0. -1.
         21   -1    0    0  503  502 -0.00000000000E+00 -0.00000000000E+00 -0.51694628014E+03  0.51694628014E+03  0.00000000000E+00 0. -1.
         21    1    1    2  503  506 -0.33735232959E+02 -0.19168141303E+02 -0.68144814085E+02  0.78416830275E+02  0.00000000000E+00 0.  1.
         21    1    1    2  504  501  0.47534755321E+02 -0.15014715351E+03 -0.12675541370E+03  0.20216492172E+03  0.00000000000E+00 0. -1.
         21    1    1    2  505  502  0.64543006224E+02  0.21479908086E+02 -0.41556014846E+02  0.79712536490E+02  0.00000000000E+00 0. -1.
         21    1    1    2  506  504 -0.78342528586E+02  0.14783538673E+03 -0.18655298441E+03  0.25058904475E+03  0.00000000000E+00 0. -1.
<scales pt_clust_3="38.80056" pt_clust_4="161.80381" pt_clust_5="62.83006" pt_clust_6="14000.00000"></scales>
<clustering>
<clus scale="   38.801">  2  3  1 -1</clus>
<clus scale="   62.830">  1  5  2 -1</clus>
<clus scale="  161.804">  1  4  2 -1</clus>
<clus scale="   62.830">  1  3  2 -1</clus>
</clustering>
</event>
<event>
 6    0  0.8520634E+002  0.6185946E+02  0.7546771E-02  0.1390190E+00
         21   -1    0    0  505  501  0.00000000000E+00  0.00000000000E+00  0.23213080973E+03  0.23213080973E+03  0.00000000000E+00 0.  1.
         21   -1    0    0  506  502 -0.00000000000E+00 -0.00000000000E+00 -0.83344133360E+03  0.83344133360E+03  0.00000000000E+00 0.  1.
         21    1    1    2  503  501 -0.23047041847E+02  0.50425642099E+02 -0.23280786400E+02  0.60132408353E+02  0.00000000000E+00 0. -1.
         21    1    1    2  504  502  0.11003886550E+03  0.40218536897E+01 -0.66507727312E+03  0.67413092679E+03  0.00000000000E+00 0.  1.
         21    1    1    2  505  504 -0.33733813461E+02 -0.66680491833E+02  0.19581310952E+03  0.20958776687E+03  0.00000000000E+00 0.  1.
         21    1    1    2  506  503 -0.53258010190E+02  0.12232996045E+02 -0.10876557386E+03  0.12172104132E+03  0.00000000000E+00 0.  1.
<scales pt_clust_3="57.42980" pt_clust_4="61.85946" pt_clust_5="14000.00000" pt_clust_6="54.64487"></scales>
<clustering>
<clus scale="   54.645">  2  6  1 -1</clus>
<clus scale="   57.430">  1  3  2 -1</clus>
<clus scale="   61.859">  2  4  1 -1</clus>
<clus scale="   57.430">  1  3  2 -1</clus>
</clustering>
</event>
<event>
 6    0  0.8520634E+002  0.9743558E+02  0.7546771E-02  0.1285783E+00
         21   -1    0    0  503  501  0.00000000000E+00  0.00000000000E+00  0.33640737276E+04  0.33640737276E+04  0.00000000000E+00 0. -1.
         21   -1    0    0  505  502 -0.00000000000E+00 -0.00000000000E+00 -0.29484174009E+02  0.29484174009E+02  0.00000000000E+00 0. -1.
         21    1    1    2  503  504 -0.11563414259E+03 -0.71801787645E+01  0.22962229177E+04  0.22991438619E+04  0.00000000000E+00 0. -1.
         21    1    1    2  504  506  0.41984598196E+02  0.12416482216E+02  0.45112989278E+02  0.62865390461E+02  0.00000000000E+00 0. -1.
         21    1    1    2  505  501  0.73672577982E+02  0.31008800094E+02  0.99206926657E+03  0.99528419263E+03  0.00000000000E+00 0. -1.
         21    1    1    2  506  502 -0.23033584188E-01 -0.36245103545E+02  0.11843800895E+01  0.36264456672E+02  0.00000000000E+00 0. -1.
<scales pt_clust_3="97.43558" pt_clust_4="44.40794" pt_clust_5="14000.00000" pt_clust_6="36.24511"></scales>
<clustering>
<clus scale="   36.245">  2  6  1 -1</clus>
<clus scale="   44.408">  2  4  1 -1</clus>
<clus scale="   97.436">  1  3  2 -1</clus>
<clus scale="   97.436">  1  3  2 -1</clus>
</clustering>
</event>
<event>
 6    0  0.8520634E+002  0.8021853E+02  0.7546771E-02  0.1328432E+00
         21   -1    0    0  504  501  0.00000000000E+00  0.00000000000E+00  0.29222814160E+03  0.29222814160E+03  0.00000000000E+00 0. -1.
         21   -1    0    0  505  502 -0.00000000000E+00 -0.00000000000E+00 -0.24373235965E+03  0.24373235965E+03  0.00000000000E+00 0. -1.
         21    1    1    2  503  506  0.60798059577E+02  0.53953612043E+02 -0.81944284223E+02  0.11542210368E+03  0.00000000000E+00 0. -1.
         21    1    1    2  504  503 -0.43761283347E+02 -0.67364328474E+02  0.23705615771E+03  0.25029707265E+03  0.00000000000E+00 0. -1.
         21    1    1    2  505  501 -0.10984183052E+02  0.56292262480E+02 -0.24211932311E+01  0.57404993416E+02  0.00000000000E+00 0. -1.
         21    1    1    2  506  502 -0.60525931784E+01 -0.42881546048E+02 -0.10419489830E+03  0.11283633151E+03  0.00000000000E+00 0. -1.
<scales pt_clust_3="14000.00000" pt_clust_4="80.21853" pt_clust_5="48.40092" pt_clust_6="43.30659"></scales>
<clustering>
<clus scale="   43.307">  2  6  1 -1</clus>
<clus scale="   48.401">  2  5  1 -1</clus>
<clus scale="   80.219">  1  4  2 -1</clus>
<clus scale="   80.219">  1  3  2 -1</clus>
</clustering>
</event>
<event>
 6    0  0.8520634E+002  0.1157979E+03  0.7546771E-02  0.1250195E+00
         21   -1    0    0  505  501  0.00000000000E+00  0.00000000000E+00  0.66318224036E+03  0.66318224036E+03  0.00000000000E+00 0. -1.
         21   -1    0    0  506  502 -0.00000000000E+00 -0.00000000000E+00 -0.21422680158E+03  0.21422680158E+03  0.00000000000E+00 0. -1.
         21    1    1    2  503  504 -0.97731379411E+02  0.60258786797E+02  0.22002054043E+03  0.24817651404E+03  0.00000000000E+00 0. -1.
         21    1    1    2  504  502  0.28015335724E+02  0.41323925619E+02 -0.18193216432E+03  0.18865799288E+03  0.00000000000E+00 0. -1.
         21    1    1    2  505  503  0.23691555628E+02  0.18660216275E+02  0.85267434898E+02  0.90443512390E+02  0.00000000000E+00 0. -1.
         21    1    1    2  506  501  0.46024488059E+02 -0.12024292869E+03  0.32559962777E+03  0.35013102262E+03  0.00000000000E+00 0. -1.
<scales pt_clust_3="115.79793" pt_clust_4="50.09322" pt_clust_5="30.15781" pt_clust_6="14000.00000"></scales>
<clustering>
<clus scale="   30.158">  1  5  2 -1</clus>
<clus scale="   50.093">  2  4  1 -1</clus>
<clus scale="  115.798">  2  3  1 -1</clus>
<clus scale="   30.158">  1  3  2 -1</clus>
</clustering>
</event>
<event>
 6    0  0.8520634E+002  0.1062053E+03  0.7546771E-02  0.1267763E+00
         21   -1    0    0  503  501  0.00000000000E+00  0.00000000000E+00  0.26116940606E+02  0.26116940606E+02  0.00000000000E+00 0.  1.
         21   -1    0    0  504  502 -0.00000000000E+00 -0.00000000000E+00 -0.14612120366E+04  0.14612120366E+04  0.00000000000E+00 0.  1.
         21    1    1    2  503  506  0.96199316324E+02 -0.54372695209E+02 -0.22074955299E+03  0.24686243860E+03  0.00000000000E+00 0.  1.
         21    1    1    2  504  505 -0.31624104694E+02  0.48585017927E+02 -0.54599481045E+03  0.54906367664E+03  0.00000000000E+00 0.  1.
         21    1    1    2  505  501 -0.10861686044E+03  0.88012749927E+00 -0.27675064408E+03  0.29730340731E+03  0.00000000000E+00 0.  1.
         21    1    1    2  506  502  0.44041648813E+02  0.49075497831E+01 -0.39160008849E+03  0.39409945468E+03  0.00000000000E+00 0.  1.
<scales pt_clust_3="106.20533" pt_clust_4="51.89584" pt_clust_5="14000.00000" pt_clust_6="44.31423"></scales>
<clustering>
<clus scale="   44.314">  2  6  1 -1</clus>
<clus scale="   51.896">  2  4  1 -1</clus>
<clus scale="  106.205">  1  3  2 -1</clus>
<clus scale="  106.205">  1  3  2 -1</clus>
</clustering>
</event>
<event>
 6    0  0.8520634E+002  0.9626511E+02  0.7546771E-02  0.1288352E+00
         21   -1    0    0  506  501  0.00000000000E+00  0.00000000000E+00  0.10843126626E+04  0.10843126626E+04  0.00000000000E+00 0. -1.
         21   -1    0    0  503  502 -0.00000000000E+00 -0.00000000000E+00 -0.43119337222E+02  0.43119337222E+02  0.00000000000E+00 0.  1.
         21    1    1    2  503  505  0.52231035572E+02  0.11823452393E+03  0.80587062121E+02  0.15232123394E+03  0.00000000000E+00 0.  1.
         21    1    1    2  504  501 -0.32510870523E+02 -0.26110707059E+02  0.51614352802E+03  0.51782513191E+03  0.00000000000E+00 0. -1.
         21    1    1    2  505  504 -0.92781909411E+01 -0.47340504441E+02  0.33646203713E+03  0.33990279584E+03  0.00000000000E+00 0. -1.
         21    1    1    2  506  502 -0.10441974108E+02 -0.44783312435E+02  0.10800069807E+03  0.11738283810E+03  0.00000000000E+00 0.  1.
<scales pt_clust_3="87.44958" pt_clust_4="37.41494" pt_clust_5="37.41494" pt_clust_6="45.98456"></scales>
<clustering>
<clus scale="   37.415">  4  5 -1 -1</clus>
<clus scale="   45.985">  2  6  1 -1</clus>
<clus scale="   87.450">  2  3  1 -1</clus>
<clus scale="   96.265">  1  3  2 -1</clus>
</clustering>
</event>
<event>
 6    0  0.8520634E+002  0.1093437E+03  0.7546771E-02  0.1261790E+00
         21   -1    0    0  506  501  0.00000000000E+00  0.00000000000E+00  0.28137077757E+03  0.28137077757E+03  0.00000000000E+00 0.  1.
         21   -1    0    0  503  502 -0.00000000000E+00 -0.00000000000E+00 -0.16912156728E+03  0.16912156728E+03  0.00000000000E+00 0.  1.
         21    1    1    2  503  505  0.81034389346E+02 -0.48823433890E+01  0.38765806624E+02  0.89962199266E+02  0.00000000000E+00 0.  1.
         21    1    1    2  504  501  0.60652870550E+01  0.32425012618E+02  0.57358753914E+02  0.66167936351E+02  0.00000000000E+00 0. -1.
         21    1    1    2  505  504  0.25173244111E+02 -0.84795381648E+02  0.10711806159E+03  0.13891806249E+03  0.00000000000E+00 0.  1.
         21    1    1    2  506  502 -0.11227292051E+03  0.57252712419E+02 -0.90993411837E+02  0.15544414675E+03  0.00000000000E+00 0.  1.
<scales pt_clust_3="14000.00000" pt_clust_4="32.98741" pt_clust_5="72.49888" pt_clust_6="109.34367"></scales>
<clustering>
<clus scale="   32.987">  1  4  2 -1</clus>
<clus scale="   72.499">  1  5  2 -1</clus>
<clus scale="  109.344">  2  6  1 -1</clus>
<clus scale="   32.987">  1  3  2 -1</clus>
</clustering>
</event>
<event>
 6    0  0.8520634E+002  0.2500492E+03  0.7546771E-02  0.1113274E+00
         21   -1    0    0  505  501  0.00000000000E+00  0.00000000000E+00  0.35755813467E+03  0.35755813467E+03  0.00000000000E+00 0.  1.
         21   -1    0    0  503  502 -0.00000000000E+00 -0.00000000000E+00 -0.28004176233E+03  0.28004176233E+03  0.00000000000E+00 0. -1.
         21    1    1    2  503  506 -0.47801079687E+02  0.17121836431E+03  0.14707052078E+03  0.23071716360E+03  0.00000000000E+00 0.  1.
         21    1    1    2  504  502  0.83561309978E+01 -0.18577262668E+03 -0.15043078463E+03  0.23918761405E+03  0.00000000000E+00 0. -1.
         21    1    1    2  505  504  0.42895059187E+02 -0.39163541739E+02 -0.12962860896E+02  0.59513064673E+02  0.00000000000E+00 0. -1.
         21    1    1    2  506  501 -0.34501104980E+01  0.53717804112E+02  0.93839497092E+02  0.10818205468E+03  0.00000000000E+00 0. -1.
<scales pt_clust_3="238.35906" pt_clust_4="53.90120" pt_clust_5="53.90120" pt_clust_6="32.98033"></scales>
<clustering>
<clus scale="   32.980">  3  6 -1 -1</clus>
<clus scale="   53.901">  4  5 -1 -1</clus>
<clus scale="  238.359">  1  3  2 -1</clus>
<clus scale="  238.359">  1  3  2 -1</clus>
</clustering>
</event>
<event>
 6    0  0.8520634E+002  0.1086117E+03  0.7546771E-02  0.1263163E+00
         21   -1    0    0  505  501  0.00000000000E+00  0.00000000000E+00  0.13678505061E+03  0.13678505061E+03  0.00000000000E+00 0. -1.
         21   -1    0    0  503  502 -0.00000000000E+00 -0.00000000000E+00 -0.68328653448E+03  0.68328653448E+03  0.00000000000E+00 0. -1.
         21    1    1    2  503  501 -0.11793737563E+03 -0.41337205614E+02  0.44956412658E+02  0.13281215373E+03  0.00000000000E+00 0. -1.
         21    1    1    2  504  502  0.29477518663E+02 -0.61045978651E+01 -0.41330635198E+03  0.41440117134E+03  0.00000000000E+00 0. -1.
         21    1    1    2  505  506  0.93992340864E+02 -0.71948907125E+01 -0.86275628749E+01  0.94661298505E+02  0.00000000000E+00 0.  1.
         21    1    1    2  506  504 -0.55324838937E+01  0.54636694192E+02 -0.16952398167E+03  0.17819696151E+03  0.00000000000E+00 0. -1.
<scales pt_clust_3="14000.00000" pt_clust_4="30.10299" pt_clust_5="108.61173" pt_clust_6="52.46128"></scales>
<clustering>
<clus scale="   30.103">  2  4  1 -1</clus>
<clus scale="   52.461">  2  6  1 -1</clus>
<clus scale="  108.612">  2  5  1 -1</clus>
<clus scale="  108.612">  1  3  2 -1</clus>
</clustering>
</event>
<event>
 6    0  0.8520634E+002  0.1401526E+03  0.7546771E-02  0.1213124E+00
         21   -1    0    0  506  501  0.00000000000E+00  0.00000000000E+00  0.11826559048E+03  0.11826559048E+03  0.00000000000E+00 0.  1.
         21   -1    0    0  503  502 -0.00000000000E+00 -0.00000000000E+00 -0.21292284105E+04  0.21292284105E+04  0.00000000000E+00 0. -1.
         21    1    1    2  503  504 -0.34693584296E+02  0.26949275528E+01 -0.11749082588E+04  0.11754234658E+04  0.00000000000E+00 0. -1.
         21    1    1    2  504  501 -0.68517965987E+02 -0.99649567355E+02 -0.80402880516E+03  0.81307260898E+03  0.00000000000E+00 0. -1.
         21    1    1    2  505  502  0.16270002188E+03  0.80580291118E+02  0.13883266625E+02  0.18209125605E+03  0.00000000000E+00 0.  1.
         21    1    1    2  506  505 -0.59488471600E+02  0.16374348684E+02 -0.45909022729E+02  0.76906670166E+02  0.00000000000E+00 0. -1.
<scales pt_clust_3="34.79810" pt_clust_4="14000.00000" pt_clust_5="140.15265" pt_clust_6="63.90129"></scales>
<clustering>
<clus scale="   34.798">  2  3  1 -1</clus>
<clus scale="   63.901">  1  6  2 -1</clus>
<clus scale="  140.153">  1  5  2 -1</clus>
<clus scale="   63.901">  1  3  2 -1</clus>
</clustering>
</event>
<event>
 6    0  0.8520634E+002  0.1996514E+03  0.7546771E-02  0.1150033E+00
         21   -1    0    0  506  501  0.00000000000E+00  0.00000000000E+00  0.16731481377E+04  0.16731481377E+04  0.00000000000E+00 0. -1.
         21   -1    0    0  503  502 -0.00000000000E+00 -0.00000000000E+00 -0.93720991300E+03  0.93720991300E+03  0.00000000000E+00 0.  1.
         21    1    1    2  503  504 -0.73035480709E+02 -0.45373303261E+02 -0.58639450826E+03  0.59266469222E+03  0.00000000000E+00 0.  1.
         21    1    1    2  504  505  0.20224997432E+03  0.20578156374E+03 -0.26944167886E+03  0.39477832058E+03  0.00000000000E+00 0.  1.
         21    1    1    2  505  501 -0.44124380517E+02 -0.11964443796E+03  0.27908261034E+03  0.30683685549E+03  0.00000000000E+00 0. -1.
         21    1    1    2  506  502 -0.85090113091E+02 -0.40763822525E+02  0.13126918014E+04  0.13160781824E+04  0.00000000000E+00 0. -1.
<scales pt_clust_3="85.98208" pt_clust_4="199.65140" pt_clust_5="14000.00000" pt_clust_6="94.76675"></scales>
<clustering>
<clus scale="   85.982">  2  3  1 -1</clus>
<clus scale="   94.767">  1  6  2 -1</clus>
<clus scale="  199.651">  2  4  1 -1</clus>
<clus scale="   94.767">  1  3  2 -1</clus>
</clustering>
</event>
<event>
 6    0  0.8520634E+002  0.1463342E+03  0.7546771E-02  0.1205051E+00
         21   -1    0    0  505  501  0.00000000000E+00  0.00000000000E+00  0.51923173016E+03  0.51923173016E+03  0.00000000000E+00 0.  1.
         21   -1    0    0  503  502 -0.00000000000E+00 -0.00000000000E+00 -0.80011962115E+03  0.80011962115E+03  0.00000000000E+00 0.  1.
         21    1    1    2  503  506 -0.77723993282E+02  0.11452072644E+03  0.29690172816E+02  0.14155395536E+03  0.00000000000E+00 0.  1.
         21    1    1    2  504  501  0.23177435889E+01  0.67521268969E+02  0.24256874460E+03  0.25180168696E+03  0.00000000000E+00 0.  1.
         21    1    1    2  505  502  0.48735285225E+02  0.54673372096E+01 -0.69037188627E+03  0.69211152364E+03  0.00000000000E+00 0.  1.
         21    1    1    2  506  504  0.26670964468E+02 -0.18750933262E+03  0.13722507787E+03  0.23388418535E+03  0.00000000000E+00 0.  1.
<scales pt_clust_3="14000.00000" pt_clust_4="67.89478" pt_clust_5="49.04100" pt_clust_6="146.33423"></scales>
<clustering>
<clus scale="   49.041">  2  5  1 -1</clus>
<clus scale="   67.895">  1  4  2 -1</clus>
<clus scale="  146.334">  1  6  2 -1</clus>
<clus scale="   67.895">  1  3  2 -1</clus>
</clustering>
</event>
<event>
 6    0  0.8520634E+002  0.1140920E+03  0.7546771E-02  0.1253174E+00
         21   -1    0    0  505  501  0.00000000000E+00  0.00000000000E+00  0.38710398009E+03  0.38710398009E+03  0.00000000000E+00 0. -1.
         21   -1    0    0  501  502 -0.00000000000E+00 -0.00000000000E+00 -0.12239782548E+03  0.12239782548E+03  0.00000000000E+00 0. -1.
         21    1    1    2  503  502 -0.80367559312E+02 -0.26440467048E+01 -0.55863595445E+02  0.97911576786E+02  0.00000000000E+00 0. -1.
         21    1    1    2  504  506  0.11741287337E+03 -0.25126819064E+02  0.16720891464E+03  0.20585422270E+03  0.00000000000E+00 0. -1.
         21    1    1    2  505  504 -0.79139831098E+02  0.53998640137E+01  0.13085482010E+03  0.15302044092E+03  0.00000000000E+00 0. -1.
         21    1    1    2  506  503  0.42094517043E+02  0.22371001755E+02  0.22506015310E+02  0.52715565156E+02  0.00000000000E+00 0. -1.
<scales pt_clust_3="87.18140" pt_clust_4="46.37206" pt_clust_5="79.32384" pt_clust_6="46.37206"></scales>
<clustering>
<clus scale="   46.372">  4  6 -1 -1</clus>
<clus scale="   79.324">  1  5  2 -1</clus>
<clus scale="   87.181">  2  3  1 -1</clus>
<clus scale="   79.324">  1  3  2 -1</clus>
</clustering>
</event>
<event>
 6    0  0.8520634E+002  0.9667920E+02  0.7546771E-02  0.1287438E+00
         21   -1    0    0  504  501  0.00000000000E+00  0.00000000000E+00  0.18002834495E+03  0.18002834495E+03  0.00000000000E+00 0.  1.
         21   -1    0    0  503  502 -0.00000000000E+00 -0.00000000000E+00 -0.35047895274E+03  0.35047895274E+03  0.00000000000E+00 0.  1.
         21    1    1    2  503  505 -0.62474480212E+02 -0.29681598082E+02 -0.17692001497E+03  0.18995986323E+03  0.00000000000E+00 0.  1.
         21    1    1    2  504  506  0.70100559180E+02  0.94781569348E+02  0.20586774987E+02  0.11967225907E+03  0.00000000000E+00 0.  1.
         21    1    1    2  505  501 -0.37807252304E+02 -0.80418188506E+02  0.80799546647E+02  0.12010428846E+03  0.00000000000E+00 0.  1.
         21    1    1    2  506  502  0.30181173336E+02  0.15318217240E+02 -0.94916914459E+02  0.10077088694E+03  0.00000000000E+00 0.  1.
<scales pt_clust_3="44.60411" pt_clust_4="14000.00000" pt_clust_5="96.67920" pt_clust_6="33.84599"></scales>
<clustering>
<clus scale="   33.846">  2  6  1 -1</clus>
<clus scale="   44.604">  2  3  1 -1</clus>
<clus scale="   96.679">  1  5  2 -1</clus>
<clus scale="   96.679">  1  3  2 -1</clus>
</clustering>
</event>
<event>
 6    0  0.8520634E+002  0.1576605E+03  0.7546771E-02  0.1191364E+00
         21   -1    0    0  506  501  0.00000000000E+00  0.00000000000E+00  0.23136782358E+04  0.23136782358E+04  0.00000000000E+00 0.  1.
         21   -1    0    0  503  502 -0.00000000000E+00 -0.00000000000E+00 -0.47492194131E+02  0.47492194131E+02  0.00000000000E+00 0.  1.
         21    1    1    2  503  505 -0.16823644859E+03 -0.44613157035E+01  0.23974914514E+03  0.29292159116E+03  0.00000000000E+00 0.  1.
         21    1    1    2  504  502  0.37031793014E+02  0.40173857363E+02  0.85370607208E+02  0.10135794534E+03  0.00000000000E+00 0.  1.
         21    1    1    2  505  501 -0.90581653933E+02 -0.24122178946E+02  0.48365876231E+03  0.49265882099E+03  0.00000000000E+00 0.  1.
         21    1    1    2  506  504  0.22178630951E+03 -0.11590362714E+02  0.14574075270E+04  0.14742320724E+04  0.00000000000E+00 0.  1.
<scales pt_clust_3="14000.00000" pt_clust_4="54.63783" pt_clust_5="88.54673" pt_clust_6="157.66051"></scales>
<clustering>
<clus scale="   54.638">  2  4  1 -1</clus>
<clus scale="   88.547">  1  5  2 -1</clus>
<clus scale="  157.661">  1  6  2 -1</clus>
<clus scale="   88.547">  1  3  2 -1</clus>
</clustering>
</event>
<event>
 6    0  0.8520634E+002  0.1975572E+03  0.7546771E-02  0.1151817E+00
         21   -1    0    0  504  501  0.00000000000E+00  0.00000000000E+00  0.14848619017E+04  0.14848619017E+04  0.00000000000E+00 0.  1.
         21   -1    0    0  503  502 -0.00000000000E+00 -0.00000000000E+00 -0.22173567388E+04  0.22173567388E+04  0.00000000000E+00 0.  1.
         21    1    1    2  503  501  0.19117440506E+03 -0.72363745764E+02 -0.71020470067E+03  0.73903645492E+03  0.00000000000E+00 0.  1.
         21    1    1    2  504  505 -0.13754442351E+03  0.14196934901E+03  0.14620679618E+04  0.14753699501E+04  0.00000000000E+00 0.  1.
         21    1    1    2  505  506 -0.37637136322E+02 -0.44014764903E+02 -0.56526909573E+03  0.56822795086E+03  0.00000000000E+00 0.  1.
         21    1    1    2  506  502 -0.15992845234E+02 -0.25590838341E+02 -0.91908900254E+03  0.91958428471E+03  0.00000000000E+00 0.  1.
<scales pt_clust_3="14000.00000" pt_clust_4="197.55716" pt_clust_5="70.96973" pt_clust_6="30.17718"></scales>
<clustering>
<clus scale="   30.177">  2  6  1 -1</clus>
<clus scale="   70.970">  2  5  1 -1</clus>
<clus scale="  197.557">  1  4  2 -1</clus>
<clus scale="  197.557">  1  3  2 -1</clus>
</clustering>
</event>
<event>
 6    0  0.8520634E+002  0.9291319E+02  0.7546771E-02  0.1295946E+00
         21   -1    0    0  506  501  0.00000000000E+00  0.00000000000E+00  0.19116765879E+03  0.19116765879E+03  0.00000000000E+00 0.  1.
         21   -1    0    0  504  502 -0.00000000000E+00 -0.00000000000E+00 -0.16631662239E+03  0.16631662239E+03  0.00000000000E+00 0. -1.
         21    1    1    2  503  501  0.50764278062E+02 -0.43749182475E+02  0.70315878671E+02  0.97135604634E+02  0.00000000000E+00 0.  1.
         21    1    1    2  504  505 -0.44307527599E+02  0.89253374767E+02 -0.87765170280E+02  0.13278571845E+03  0.00000000000E+00 0. -1.
         21    1    1    2  505  503  0.17995205996E+02 -0.77194451757E+02  0.20022897494E+02  0.81754065617E+02  0.00000000000E+00 0.  1.
         21    1    1    2  506  502 -0.24451956459E+02  0.31690259465E+02  0.22277430515E+02  0.45808892477E+02  0.00000000000E+00 0.  1.
<scales pt_clust_3="46.31968" pt_clust_4="14000.00000" pt_clust_5="92.91319" pt_clust_6="40.02712"></scales>
<clustering>
<clus scale="   40.027">  1  6  2 -1</clus>
<clus scale="   46.320">  1  3  2 -1</clus>
<clus scale="   92.913">  1  5  2 -1</clus>
<clus scale="   40.027">  1  3  2 -1</clus>
</clustering>
</event>
<event>
 6    0  0.8520634E+002  0.2341829E+03  0.7546771E-02  0.1123730E+00
         21   -1    0    0  503  501  0.00000000000E+00  0.00000000000E+00  0.34414008807E+04  0.34414008807E+04  0.00000000000E+00 0.  1.
         21   -1    0    0  504  502 -0.00000000000E+00 -0.00000000000E+00 -0.35412727060E+03  0.35412727060E+03  0.00000000000E+00 0. -1.
         21    1    1    2  503  505  0.53458719363E+01 -0.45029653700E+02  0.27068074765E+04  0.27071872788E+04  0.00000000000E+00 0.  1.
         21    1    1    2  504  506  0.57106730118E+02  0.25144291227E+02 -0.26636910120E+03  0.27357980935E+03  0.00000000000E+00 0. -1.
         21    1    1    2  505  502  0.21073641438E+03  0.30641237877E+02  0.36167566355E+03  0.41971181471E+03  0.00000000000E+00 0.  1.
         21    1    1    2  506  501 -0.27318901643E+03 -0.10755875404E+02  0.28515957124E+03  0.39504924836E+03  0.00000000000E+00 0.  1.
<scales pt_clust_3="45.34587" pt_clust_4="62.33253" pt_clust_5="234.18288" pt_clust_6="14000.00000"></scales>
<clustering>
<clus scale="   45.346">  1  3  2 -1</clus>
<clus scale="   62.333">  2  4  1 -1</clus>
<clus scale="  234.183">  1  5  2 -1</clus>
<clus scale="   45.346">  1  3  2 -1</clus>
</clustering>
</event>
<event>
 6    0  0.8520634E+002  0.1077476E+03  0.7546771E-02  0.1264799E+00
         21   -1    0    0  505  501  0.00000000000E+00  0.00000000000E+00  0.46150055277E+02  0.46150055277E+02  0.00000000000E+00 0. -1.
         21   -1    0    0  503  502 -0.00000000000E+00 -0.00000000000E+00 -0.88153554858E+03  0.88153554858E+03  0.00000000000E+00 0.  1.
         21    1    1    2  503  506 -0.74359916542E+01 -0.30059084937E+02 -0.12195005303E+03  0.12581994275E+03  0.00000000000E+00 0.  1.
         21    1    1    2  504  501  0.21927614036E+02 -0.79663367790E+02 -0.25450665109E+02  0.86456976465E+02  0.00000000000E+00 0. -1.
         21    1    1    2  505  502  0.41922853132E+02 -0.10027152485E+02 -0.61564484899E+02  0.75154874776E+02  0.00000000000E+00 0. -1.
         21    1    1    2  506  504 -0.56414475514E+02  0.11974960521E+03 -0.62642029027E+03  0.64025380987E+03  0.00000000000E+00 0.  1.
<scales pt_clust_3="30.96518" pt_clust_4="107.74756" pt_clust_5="43.17419" pt_clust_6="14000.00000"></scales>
<clustering>
<clus scale="   30.965">  2  3  1 -1</clus>
<clus scale="   43.174">  1  5  2 -1</clus>
<clus scale="  107.748">  1  4  2 -1</clus>
<clus scale="   43.174">  1  3  2 -1</clus>
</clustering>
</event>
<event>
 6    0  0.8520634E+002  0.1492649E+03  0.7546771E-02  0.1201379E+00
         21   -1    0    0  506  501  0.00000000000E+00  0.00000000000E+00  0.27408159932E+03  0.27408159932E+03  0.00000000000E+00 0.  1.
         21   -1    0    0  503  502 -0.00000000000E+00 -0.00000000000E+00 -0.35848463467E+03  0.35848463467E+03  0.00000000000E+00 0.  1.
         21    1    1    2  503  504 -0.35153561627E+02  0.61068996300E+02 -0.12131560276E+03  0.14029494173E+03  0.00000000000E+00 0.  1.
         21    1    1    2  504  501  0.77978080352E+01  0.75734123348E+02 -0.19990054230E+03  0.21390813463E+03  0.00000000000E+00 0.  1.
         21    1    1    2  505  502 -0.44259616129E+01 -0.82351166331E+02  0.11974018531E+03  0.14539262605E+03  0.00000000000E+00 0.  1.
         21    1    1    2  506  505  0.31781715205E+02 -0.54451953317E+02  0.11707292439E+03  0.13297053157E+03  0.00000000000E+00 0.  1.
<scales pt_clust_3="51.05686" pt_clust_4="51.05686" pt_clust_5="146.30652" pt_clust_6="38.53294"></scales>
<clustering>
<clus scale="   38.533">  5  6 -1 -1</clus>
<clus scale="   51.057">  3  4 -1 -1</clus>
<clus scale="  146.307">  1  5  2 -1</clus>
<clus scale="  146.307">  1  3  2 -1</clus>
</clustering>
</event>
<event>
 6    0  0.8520634E+002  0.8960542E+02  0.7546771E-02  0.1303810E+00
         21   -1    0    0  506  501  0.00000000000E+00  0.00000000000E+00  0.65598800914E+03  0.65598800914E+03  0.00000000000E+00 0.  1.
         21   -1    0    0  505  502 -0.00000000000E+00 -0.00000000000E+00 -0.61865747153E+03  0.61865747153E+03  0.00000000000E+00 0.  1.
         21    1    1    2  503  504  0.57963017404E+02  0.99864404405E+02  0.10079088974E+03  0.15326909052E+03  0.00000000000E+00 0.  1.
         21    1    1    2  504  501 -0.49280870151E+01 -0.87296048785E+02  0.50858131872E+03  0.51604248267E+03  0.00000000000E+00 0.  1.
         21    1    1    2  505  503  0.62616256340E+00 -0.32194388350E+02 -0.18148193350E+01  0.32251578101E+02  0.00000000000E+00 0.  1.
         21    1    1    2  506  502 -0.53661092952E+02  0.19626032730E+02 -0.57022685151E+03  0.57308232937E+03  0.00000000000E+00 0.  1.
<scales pt_clust_3="14000.00000" pt_clust_4="89.60542" pt_clust_5="32.20048" pt_clust_6="54.18705"></scales>
<clustering>
<clus scale="   32.200">  2  5  1 -1</clus>
<clus scale="   54.187">  2  6  1 -1</clus>
<clus scale="   89.605">  1  4  2 -1</clus>
<clus scale="   89.605">  1  3  2 -1</clus>
</clustering>
</event>
<event>
 6    0  0.8520634E+002  0.1336338E+03  0.7546771E-02  0.1222161E+00
         21   -1    0    0  506  501  0.00000000000E+00  0.00000000000E+00  0.19846346173E+03  0.19846346173E+03  0.00000000000E+00 0. -1.
         21   -1    0    0  504  502 -0.00000000000E+00 -0.00000000000E+00 -0.20165361936E+04  0.20165361936E+04  0.00000000000E+00 0.  1.
         21    1    1    2  503  502 -0.90689686446E+01 -0.14120971860E+03 -0.94759195402E+03  0.95809860774E+03  0.00000000000E+00 0. -1.
         21    1    1    2  504  505  0.30564232876E+02  0.77109583311E+01 -0.10229118510E+04  0.10233974234E+04  0.00000000000E+00 0.  1.
         21    1    1    2  505  501  0.36231502805E+02  0.55697033988E+02  0.19941217673E+02  0.69372426459E+02  0.00000000000E+00 0. -1.
         21    1    1    2  506  503 -0.57726767036E+02  0.77801726283E+02  0.13248985554E+03  0.16413119772E+03  0.00000000000E+00 0. -1.
<scales pt_clust_3="133.63377" pt_clust_4="31.52192" pt_clust_5="67.02217" pt_clust_6="14000.00000"></scales>
<clustering>
<clus scale="   31.522">  2  4  1 -1</clus>
<clus scale="   67.022">  1  5  2 -1</clus>
<clus scale="  133.634">  2  3  1 -1</clus>
<clus scale="   67.022">  1  3  2 -1</clus>
</clustering>
</event>
<event>
 6    0  0.8520634E+002  0.8188383E+02  0.7546771E-02  0.1323789E+00
         21   -1    0    0  504  501  0.00000000000E+00  0.00000000000E+00  0.35083107595E+02  0.35083107595E+02  0.00000000000E+00 0.  1.
         21   -1    0    0  506  502 -0.00000000000E+00 -0.00000000000E+00 -0.20184125619E+04  0.20184125619E+04  0.00000000000E+00 0. -1.
         21    1    1    2  503  502 -0.10730009579E+02 -0.51020961167E+02 -0.28450362697E+03  0.28924139631E+03  0.00000000000E+00 0. -1.
         21    1    1    2  504  503 -0.58977325352E+02 -0.61645766689E+02 -0.32176452573E+02  0.91180313426E+02  0.00000000000E+00 0.  1.
         21    1    1    2  505  501  0.26626486482E+02  0.54611716058E+02 -0.42489274360E+03  0.42921469322E+03  0.00000000000E+00 0. -1.
         21    1    1    2  506  505  0.43080848449E+02  0.58055011798E+02 -0.12417566312E+04  0.12438592666E+04  0.00000000000E+00 0. -1.
<scales pt_clust_3="52.13705" pt_clust_4="14000.00000" pt_clust_5="81.88383" pt_clust_6="41.36612"></scales>
<clustering>
<clus scale="   52.137">  2  3  1 -1</clus>
<clus scale="   41.366">  2  6  1 -1</clus>
<clus scale="   81.884">  2  5  1 -1</clus>
<clus scale="   81.884">  1  3  2 -1</clus>
</clustering>
</event>
<event>
 6    0  0.8520634E+002  0.7582236E+02  0.7546771E-02  0.1341343E+00
         21   -1    0    0  504  501  0.00000000000E+00  0.00000000000E+00  0.24929872327E+04  0.24929872327E+04  0.00000000000E+00 0.  1.
         21   -1    0    0  506  502 -0.00000000000E+00 -0.00000000000E+00 -0.69157138439E+02  0.69157138439E+02  0.00000000000E+00 0.  1.
         21    1    1    2  503  502 -0.49511875593E+02  0.62670996888E+02  0.26339779332E+02  0.84100318971E+02  0.00000000000E+00 0.  1.
         21    1    1    2  504  505 -0.60227079602E+02 -0.36974387689E+02  0.22242407484E+04  0.22253631869E+04  0.00000000000E+00 0.  1.
         21    1    1    2  505  503  0.97244288069E+02  0.48174518882E+02  0.93328506548E+02  0.14313436333E+03  0.00000000000E+00 0.  1.
         21    1    1    2  506  501  0.12494667127E+02 -0.73871128081E+02  0.79921059938E+02  0.10954650196E+03  0.00000000000E+00 0.  1.
<scales pt_clust_3="75.82236" pt_clust_4="70.67111" pt_clust_5="77.54625" pt_clust_6="14000.00000"></scales>
<clustering>
<clus scale="   70.671">  1  4  2 -1</clus>
<clus scale="   77.546">  1  5  2 -1</clus>
<clus scale="   75.822">  2  3  1 -1</clus>
<clus scale="   70.671">  1  3  2 -1</clus>
</clustering>
</event>
<event>
 6    0  0.8520634E+002  0.1618866E+03  0.7546771E-02  0.1186583E+00
         21   -1    0    0  503  501  0.00000000000E+00  0.00000000000E+00  0.14428833752E+04  0.14428833752E+04  0.00000000000E+00 0. -1.
         21   -1    0    0  505  502 -0.00000000000E+00 -0.00000000000E+00 -0.59159275983E+03  0.59159275983E+03  0.00000000000E+00 0. -1.
         21    1    1    2  503  504  0.12481258546E+03  0.74610803632E+02  0.85926374163E+03  0.87148099875E+03  0.00000000000E+00 0. -1.
         21    1    1    2  504  502 -0.88961852010E+02 -0.59029520266E+02 -0.55975543215E+02  0.12054856620E+03  0.00000000000E+00 0. -1.
         21    1    1    2  505  506 -0.61588491630E+01 -0.84661541760E+02 -0.49097027739E+03  0.49825427379E+03  0.00000000000E+00 0. -1.
         21    1    1    2  506  501 -0.29691884287E+02  0.69080258394E+02  0.53897269439E+03  0.54419229633E+03  0.00000000000E+00 0. -1.
<scales pt_clust_3="14000.00000" pt_clust_4="161.88659" pt_clust_5="84.61568" pt_clust_6="75.19102"></scales>
<clustering>
<clus scale="   75.191">  1  6  2 -1</clus>
<clus scale="   84.616">  2  5  1 -1</clus>
<clus scale="  161.887">  2  4  1 -1</clus>
<clus scale="   75.191">  1  3  2 -1</clus>
</clustering>
</event>
<event>
 6    0  0.8520634E+002  0.1006522E+03  0.7546771E-02  0.1278930E+00
         21   -1    0    0  505  501  0.00000000000E+00  0.00000000000E+00  0.91263442639E+02  0.91263442639E+02  0.00000000000E+00 0.  1.
         21   -1    0    0  501  502 -0.00000000000E+00 -0.00000000000E+00 -0.51041785427E+03  0.51041785427E+03  0.00000000000E+00 0.  1.
         21    1    1    2  503  506 -0.83477861729E+02  0.49371177077E+02 -0.19909230368E+03  0.22145837511E+03  0.00000000000E+00 0.  1.
         21    1    1    2  504  502  0.28033964458E+02 -0.25307132534E+02 -0.16153258464E+03  0.16588890867E+03  0.00000000000E+00 0.  1.
         21    1    1    2  505  503  0.10348947075E+03  0.22245626219E+02  0.23660434564E+02  0.10846545352E+03  0.00000000000E+00 0.  1.
         21    1    1    2  506  504 -0.48045573482E+02 -0.46309670762E+02 -0.82189957881E+02  0.10586855961E+03  0.00000000000E+00 0. -1.
<scales pt_clust_3="14000.00000" pt_clust_4="37.76710" pt_clust_5="100.65223" pt_clust_6="66.80557"></scales>
<clustering>
<clus scale="   37.767">  2  4  1 -1</clus>
<clus scale="   66.806">  2  6  1 -1</clus>
<clus scale="  100.652">  1  5  2 -1</clus>
<clus scale="  100.652">  1  3  2 -1</clus>
</clustering>
</event>
<event>
 6    0  0.8520634E+002  0.1383109E+03  0.7546771E-02  0.1215620E+00
         21   -1    0    0  505  501  0.00000000000E+00  0.00000000000E+00  0.16012902319E+03  0.16012902319E+03  0.00000000000E+00 0.  1.
         21   -1    0    0  504  502 -0.00000000000E+00 -0.00000000000E+00 -0.61030708833E+03  0.61030708833E+03  0.00000000000E+00 0. -1.
         21    1    1    2  503  502  0.17949267612E+02 -0.26633581053E+02 -0.41092743055E+03  0.41218063640E+03  0.00000000000E+00 0. -1.
         21    1    1    2  504  506  0.47073977690E+02 -0.34410331152E+02 -0.12712212893E+03  0.13985730560E+03  0.00000000000E+00 0. -1.
         21    1    1    2  505  503 -0.84585893678E+02  0.99052318190E+02  0.10979593664E+03  0.17035634080E+03  0.00000000000E+00 0.  1.
         21    1    1    2  506  501  0.19562648377E+02 -0.38008405985E+02 -0.21924442297E+02  0.48041828723E+02  0.00000000000E+00 0. -1.
<scales pt_clust_3="32.11734" pt_clust_4="45.68398" pt_clust_5="125.39387" pt_clust_6="45.68398"></scales>
<clustering>
<clus scale="   32.117">  2  3  1 -1</clus>
<clus scale="   45.684">  4  6 -1 -1</clus>
<clus scale="  125.394">  1  5  2 -1</clus>
<clus scale="  125.394">  1  3  2 -1</clus>
</clustering>
</event>
<event>
 6    0  0.8520634E+002  0.1513315E+03  0.7546771E-02  0.1198846E+00
         21   -1    0    0  505  501  0.00000000000E+00  0.00000000000E+00  0.14510072365E+04  0.14510072365E+04  0.00000000000E+00 0. -1.
         21   -1    0    0  506  502 -0.00000000000E+00 -0.00000000000E+00 -0.20650137475E+03  0.20650137475E+03  0.00000000000E+00 0. -1.
         21    1    1    2  503  502 -0.23072167345E+02 -0.48296115899E+02 -0.13608661704E+03  0.14623408308E+03  0.00000000000E+00 0. -1.
         21    1    1    2  504  501 -0.79459749996E+02  0.13819264581E+03  0.13399563226E+04  0.13494050562E+04  0.00000000000E+00 0. -1.
         21    1    1    2  505  503  0.77315998807E+02 -0.71210015633E+02  0.63712076720E+02  0.12291402979E+03  0.00000000000E+00 0. -1.
         21    1    1    2  506  504  0.25215918534E+02 -0.18686514279E+02 -0.23075920559E+02  0.38955442149E+02  0.00000000000E+00 0.  1.
<scales pt_clust_3="63.38888" pt_clust_4="14000.00000" pt_clust_5="151.33146" pt_clust_6="31.38516"></scales>
<clustering>
<clus scale="   31.385">  2  6  1 -1</clus>
<clus scale="   63.389">  2  3  1 -1</clus>
<clus scale="  151.331">  2  5  1 -1</clus>
<clus scale="  151.331">  1  3  2 -1</clus>
</clustering>
</event>
<event>
 6    0  0.8520634E+002  0.1401639E+03  0.7546771E-02  0.1213109E+00
         21   -1    0    0  503  501  0.00000000000E+00  0.00000000000E+00  0.16370062093E+04  0.16370062093E+04  0.00000000000E+00 0. -1.
         21   -1    0    0  505  502 -0.00000000000E+00 -0.00000000000E+00 -0.42311455019E+03  0.42311455019E+03  0.00000000000E+00 0. -1.
         21    1    1    2  503  502  0.93635046110E+02  0.15821192205E+02  0.35405270567E+03  0.36656670659E+03  0.00000000000E+00 0. -1.
         21    1    1    2  504  506 -0.18144524435E+03 -0.11120373142E+02  0.15287181964E+03  0.23752017311E+03  0.00000000000E+00 0. -1.
         21    1    1    2  505  504  0.29764771587E+02  0.71727290566E+01 -0.37309440676E+03  0.37434853549E+03  0.00000000000E+00 0. -1.
         21    1    1    2  506  501  0.58045426651E+02 -0.11873548120E+02  0.10800615406E+04  0.10816853443E+04  0.00000000000E+00 0. -1.
<scales pt_clust_3="14000.00000" pt_clust_4="140.16393" pt_clust_5="30.61682" pt_clust_6="59.70347"></scales>
<clustering>
<clus scale="   30.617">  2  5  1 -1</clus>
<clus scale="   59.703">  1  6  2 -1</clus>
<clus scale="  140.164">  2  4  1 -1</clus>
<clus scale="   59.703">  1  3  2 -1</clus>
</clustering>
</event>
<event>
 6    0  0.8520634E+002  0.2376981E+03  0.7546771E-02  0.1121336E+00
         21   -1    0    0  505  501  0.00000000000E+00  0.00000000000E+00  0.16370128975E+04  0.16370128975E+04  0.00000000000E+00 0. -1.
         21   -1    0    0  503  502 -0.00000000000E+00 -0.00000000000E+00 -0.21793753892E+03  0.21793753892E+03  0.00000000000E+00 0. -1.
         21    1    1    2  503  504 -0.15649395494E+03 -0.17372042356E+03  0.28126244292E+03  0.36575634690E+03  0.00000000000E+00 0. -1.
         21    1    1    2  504  501  0.75133109968E+02 -0.91952717237E+02  0.38334670719E+03  0.40131656374E+03  0.00000000000E+00 0. -1.
         21    1    1    2  505  506 -0.18713810870E+02  0.46351724273E+02  0.83287414871E+03  0.83437284031E+03  0.00000000000E+00 0. -1.
         21    1    1    2  506  502  0.10007465585E+03  0.21932141653E+03 -0.78407940206E+02  0.25350468551E+03  0.00000000000E+00 0. -1.
<scales pt_clust_3="14000.00000" pt_clust_4="95.70843" pt_clust_5="49.98689" pt_clust_6="237.69813"></scales>
<clustering>
<clus scale="   49.987">  1  5  2 -1</clus>
<clus scale="   95.708">  1  4  2 -1</clus>
<clus scale="  237.698">  2  6  1 -1</clus>
<clus scale="   49.987">  1  3  2 -1</clus>
</clustering>
</event>
<event>
 6    0  0.8520634E+002  0.7685745E+02  0.7546771E-02  0.1338214E+00
         21   -1    0    0  503  501  0.00000000000E+00  0.00000000000E+00  0.18759217540E+04  0.18759217540E+04  0.00000000000E+00 0.  1.
         21   -1    0    0  506  502 -0.00000000000E+00 -0.00000000000E+00 -0.35022064645E+02  0.35022064645E+02  0.00000000000E+00 0.  1.
         21    1    1    2  503  502 -0.51277953486E+02 -0.40807496712E+02  0.40770454279E+02  0.77181022562E+02  0.00000000000E+00 0.  1.
         21    1    1    2  504  501 -0.27004929282E+02 -0.66619273677E+02  0.13435549604E+04  0.13454766165E+04  0.00000000000E+00 0.  1.
         21    1    1    2  505  504  0.44784191615E+02  0.12245409378E+03  0.40111929961E+03  0.42177875886E+03  0.00000000000E+00 0.  1.
         21    1    1    2  506  505  0.33498691154E+02 -0.15027323391E+02  0.55454975073E+02  0.66507420771E+02  0.00000000000E+00 0.  1.
<scales pt_clust_3="58.69200" pt_clust_4="76.85745" pt_clust_5="14000.00000" pt_clust_6="36.71488"></scales>
<clustering>
<clus scale="   36.715">  2  6  1 -1</clus>
<clus scale="   58.692">  2  3  1 -1</clus>
<clus scale="   76.857">  1  4  2 -1</clus>
<clus scale="   76.857">  1  3  2 -1</clus>
</clustering>
</event>
<event>
 6    0  0.8520634E+002  0.7503240E+02  0.7546771E-02  0.1343771E+00
         21   -1    0    0  503  501  0.00000000000E+00  0.00000000000E+00  0.32526334242E+03  0.32526334242E+03  0.00000000000E+00 0. -1.
         21   -1    0    0  505  502 -0.00000000000E+00 -0.00000000000E+00 -0.25280429292E+03  0.25280429292E+03  0.00000000000E+00 0. -1.
         21    1    1    2  503  506  0.98245350722E+02  0.32854764662E+02  0.19632161893E+03  0.22197694151E+03  0.00000000000E+00 0. -1.
         21    1    1    2  504  501 -0.35326439084E+02 -0.49774384677E+01  0.77882700253E+02  0.85664737149E+02  0.00000000000E+00 0.  1.
         21    1    1    2  505  504 -0.72501277437E+02 -0.79911733916E+02 -0.18633033844E+03  0.21531677935E+03  0.00000000000E+00 0. -1.
         21    1    1    2  506  502  0.95823657986E+01  0.52034407722E+02 -0.15414931250E+02  0.55109177336E+02  0.00000000000E+00 0. -1.
<scales pt_clust_3="14000.00000" pt_clust_4="35.67537" pt_clust_5="75.03240" pt_clust_6="52.06198"></scales>
<clustering>
<clus scale="   35.675">  1  4  2 -1</clus>
<clus scale="   52.062">  2  6  1 -1</clus>
<clus scale="   75.032">  2  5  1 -1</clus>
<clus scale="   35.675">  1  3  2 -1</clus>
</clustering>
</event>
<event>
 6    0  0.8520634E+002  0.1606758E+03  0.7546771E-02  0.1187936E+00
         21   -1    0    0  505  501  0.00000000000E+00  0.00000000000E+00  0.89092674500E+03  0.89092674500E+03  0.00000000000E+00 0. -1.
         21   -1    0    0  504  502 -0.00000000000E+00 -0.00000000000E+00 -0.30439976247E+03  0.30439976247E+03  0.00000000000E+00 0. -1.
         21    1    1    2  503  501  0.14540721945E+02  0.43011899099E+02  0.71639653464E+02  0.84815658974E+02  0.00000000000E+00 0.  1.
         21    1    1    2  504  503 -0.37254369031E+01 -0.16388217563E+03 -0.23490736540E+03  0.28644845380E+03  0.00000000000E+00 0. -1.
         21    1    1    2  505  506 -0.55563257929E+02  0.11461028428E+03  0.76565433097E+03  0.77617610594E+03  0.00000000000E+00 0. -1.
         21    1    1    2  506  502  0.44747972887E+02  0.62599922548E+01 -0.15859636510E+02  0.47886288755E+02  0.00000000000E+00 0. -1.
<scales pt_clust_3="45.90343" pt_clust_4="14000.00000" pt_clust_5="160.67582" pt_clust_6="45.18372"></scales>
<clustering>
<clus scale="   45.184">  2  6  1 -1</clus>
<clus scale="   45.903">  1  3  2 -1</clus>
<clus scale="  160.676">  1  5  2 -1</clus>
<clus scale="   45.903">  1  3  2 -1</clus>
</clustering>
</event>
<event>
 6    0  0.8520634E+002  0.1282436E+03  0.7546771E-02  0.1230085E+00
         21   -1    0    0  506  501  0.00000000000E+00  0.00000000000E+00  0.25091187428E+03  0.25091187428E+03  0.00000000000E+00 0. -1.
         21   -1    0    0  504  502 -0.00000000000E+00 -0.00000000000E+00 -0.27812498788E+03  0.27812498788E+03  0.00000000000E+00 0.  1.
         21    1    1    2  503  501 -0.12867833982E+02 -0.14352600105E+03  0.46019838414E+02  0.15127167499E+03  0.00000000000E+00 0. -1.
         21    1    1    2  504  505 -0.43195698174E+01  0.54634179019E+02 -0.13352601319E+03  0.14433554101E+03  0.00000000000E+00 0.  1.
         21    1    1    2  505  503  0.57778646028E+02  0.90013972769E+02 -0.48397156587E+02  0.11740175466E+03  0.00000000000E+00 0.  1.
         21    1    1    2  506  502 -0.40591242229E+02 -0.11221507422E+01  0.10869021777E+03  0.11602789150E+03  0.00000000000E+00 0. -1.
<scales pt_clust_3="14000.00000" pt_clust_4="54.90863" pt_clust_5="128.24363" pt_clust_6="40.60675"></scales>
<clustering>
<clus scale="   40.607">  1  6  2 -1</clus>
<clus scale="   54.909">  2  4  1 -1</clus>
<clus scale="  128.244">  2  5  1 -1</clus>
<clus scale="   40.607">  1  3  2 -1</clus>
</clustering>
</event>
<event>
 6    0  0.8520634E+002  0.5454657E+02  0.7546771E-02  0.1422255E+00
         21   -1    0    0  503  501  0.00000000000E+00  0.00000000000E+00  0.64356403851E+03  0.64356403851E+03  0.00000000000E+00 0.  1.
         21   -1    0    0  504  502 -0.00000000000E+00 -0.00000000000E+00 -0.42698378974E+03  0.42698378974E+03  0.00000000000E+00 0. -1.
         21    1    1    2  503  506 -0.43549006322E+02 -0.68510623474E+02  0.24603461127E+03  0.25908155362E+03  0.00000000000E+00 0.  1.
         21    1    1    2  504  505 -0.38727094561E+02 -0.35782900317E+02 -0.36441200716E+03  0.36820689126E+03  0.00000000000E+00 0. -1.
         21    1    1    2  505  501  0.10022115491E+02  0.38439023129E+02  0.34288302392E+03  0.34517643227E+03  0.00000000000E+00 0.  1.
         21    1    1    2  506  502  0.72253985393E+02  0.65854500662E+02 -0.79253792623E+01  0.98082951113E+02  0.00000000000E+00 0.  1.
<scales pt_clust_3="50.35006" pt_clust_4="54.54657" pt_clust_5="39.72406" pt_clust_6="14000.00000"></scales>
<clustering>
<clus scale="   39.724">  1  5  2 -1</clus>
<clus scale="   50.350">  1  3  2 -1</clus>
<clus scale="   54.547">  2  4  1 -1</clus>
<clus scale="   39.724">  1  3  2 -1</clus>
</clustering>
</event>
<event>
 6    0  0.8520634E+002  0.1134598E+03  0.7546771E-02  0.1254294E+00
         21   -1    0    0  505  501  0.00000000000E+00  0.00000000000E+00  0.60670165201E+03  0.60670165201E+03  0.00000000000E+00 0.  1.
         21   -1    0    0  504  502 -0.00000000000E+00 -0.00000000000E+00 -0.10845839260E+03  0.10845839260E+03  0.00000000000E+00 0.  1.
         21    1    1    2  503  501  0.12305466765E+03  0.13638032722E+02  0.46480198031E+03  0.48100865696E+03  0.00000000000E+00 0.  1.
         21    1    1    2  504  503 -0.42150895287E+02 -0.75336949587E+02 -0.74234049345E+01  0.86645605124E+02  0.00000000000E+00 0.  1.
         21    1    1    2  505  506 -0.55933132757E+02  0.30077615368E+02  0.72424650871E+02  0.96325014093E+02  0.00000000000E+00 0.  1.
         21    1    1    2  506  502 -0.24970639608E+02  0.31621301497E+02 -0.31559966840E+02  0.51180768436E+02  0.00000000000E+00 0.  1.
<scales pt_clust_3="14000.00000" pt_clust_4="113.45978" pt_clust_5="70.15051" pt_clust_6="40.29193"></scales>
<clustering>
<clus scale="   40.292">  2  6  1 -1</clus>
<clus scale="   70.151">  2  5  1 -1</clus>
<clus scale="  113.460">  2  4  1 -1</clus>
<clus scale="  113.460">  1  3  2 -1</clus>
</clustering>
</event>
<event>
 6    0  0.8520634E+002  0.7628097E+02  0.7546771E-02  0.1339950E+00
         21   -1    0    0  503  501  0.00000000000E+00  0.00000000000E+00  0.26458507798E+03  0.26458507798E+03  0.00000000000E+00 0. -1.
         21   -1    0    0  504  502 -0.00000000000E+00 -0.00000000000E+00 -0.77542397129E+02  0.77542397129E+02  0.00000000000E+00 0. -1.
         21    1    1    2  503  505  0.56971368402E+02  0.91938747697E+00  0.47795374878E+02  0.74370558359E+02  0.00000000000E+00 0.  1.
         21    1    1    2  504  506 -0.43869332249E+02  0.60188802940E+02 -0.49270047048E+01  0.74642385323E+02  0.00000000000E+00 0. -1.
         21    1    1    2  505  502  0.13523303846E+02 -0.87765033963E+02  0.84745872433E+02  0.12274951661E+03  0.00000000000E+00 0. -1.
         21    1    1    2  506  501 -0.26625339999E+02  0.26656843546E+02  0.59428438241E+02  0.70365014813E+02  0.00000000000E+00 0. -1.
<scales pt_clust_3="49.66281" pt_clust_4="14000.00000" pt_clust_5="76.28097" pt_clust_6="37.67620"></scales>
<clustering>
<clus scale="   37.676">  1  6  2 -1</clus>
<clus scale="   49.663">  1  3  2 -1</clus>
<clus scale="   76.281">  1  5  2 -1</clus>
<clus scale="   37.676">  1  3  2 -1</clus>
</clustering>
</event>
<event>
 6    0  0.8520634E+002  0.6387919E+02  0.7546771E-02  0.1382238E+00
         21   -1    0    0  506  501  0.00000000000E+00  0.00000000000E+00  0.86700750649E+02  0.86700750649E+02  0.00000000000E+00 0. -1.
         21   -1    0    0  505  502 -0.00000000000E+00 -0.00000000000E+00 -0.72583135224E+03  0.72583135224E+03  0.00000000000E+00 0. -1.
         21    1    1    2  503  504  0.58576988586E+02 -0.12732924634E+02 -0.40952921754E+02  0.72598434981E+02  0.00000000000E+00 0. -1.
         21    1    1    2  504  502  0.14462483728E+01  0.63584934810E+02 -0.59639001666E+03  0.59977177955E+03  0.00000000000E+00 0. -1.
         21    1    1    2  505  501 -0.71147294161E+02  0.55588641607E+01 -0.28396256594E+02  0.76806157473E+02  0.00000000000E+00 0. -1.
         21    1    1    2  506  503  0.11124057202E+02 -0.56410874336E+02  0.26608593421E+02  0.63355730884E+02  0.00000000000E+00 0. -1.
<scales pt_clust_3="14000.00000" pt_clust_4="61.32792" pt_clust_5="63.87919" pt_clust_6="57.49723"></scales>
<clustering>
<clus scale="   57.497">  1  6  2 -1</clus>
<clus scale="   61.328">  2  4  1 -1</clus>
<clus scale="   63.879">  1  5  2 -1</clus>
<clus scale="   57.497">  1  3  2 -1</clus>
</clustering>
</event>
<event>
 6    0  0.8520634E+002  0.8019719E+02  0.7546771E-02  0.1328493E+00
         21   -1    0    0  506  501  0.00000000000E+00  0.00000000000E+00  0.70846920679E+03  0.70846920679E+03  0.00000000000E+00 0. -1.
         21   -1    0    0  504  502 -0.00000000000E+00 -0.00000000000E+00 -0.69730137639E+02  0.69730137639E+02  0.00000000000E+00 0. -1.
         21    1    1    2  503  501  0.78515660902E+02 -0.32418951238E+01  0.14890538502E+03  0.16836873991E+03  0.00000000000E+00 0. -1.
         21    1    1    2  504  503 -0.40237141301E+02 -0.33536281756E+02 -0.31495643796E+02  0.61120252881E+02  0.00000000000E+00 0. -1.
         21    1    1    2  505  502  0.95976787243E+01 -0.43528071273E+02  0.45172919865E+02  0.63461808317E+02  0.00000000000E+00 0. -1.
         21    1    1    2  506  505 -0.47876198325E+02  0.80306248153E+02  0.47615640806E+03  0.48524854333E+03  0.00000000000E+00 0. -1.
<scales pt_clust_3="14000.00000" pt_clust_4="74.46875" pt_clust_5="44.57363" pt_clust_6="80.19719"></scales>
<clustering>
<clus scale="   44.574">  2  5  1 -1</clus>
<clus scale="   74.469">  2  4  1 -1</clus>
<clus scale="   80.197">  1  6  2 -1</clus>
<clus scale="   80.197">  1  3  2 -1</clus>
</clustering>
</event>
<event>
 6    0  0.2366213E+003  0.8939976E+02  0.7546771E-02  0.1304312E+00
         21   -1    0    0  506  501  0.00000000000E+00  0.00000000000E+00  0.14016518593E+04  0.14016518593E+04  0.00000000000E+00 0. -1.
         21   -1    0    0  505  502 -0.00000000000E+00 -0.00000000000E+00 -0.47904556928E+03  0.47904556928E+03  0.00000000000E+00 0. -1.
         21    1    1    2  503  501  0.60222880626E+02  0.14569169867E+02  0.24470249766E+03  0.25242497583E+03  0.00000000000E+00 0.  1.
         21    1    1    2  504  502  0.13318807709E+02 -0.59974518236E+02 -0.36527400574E+03  0.37040441782E+03  0.00000000000E+00 0. -1.
         21    1    1    2  505  503 -0.98473491563E+02  0.21872140809E+02 -0.83328704755E+02  0.13083994849E+03  0.00000000000E+00 0.  1.
         21    1    1    2  506  504  0.24931803228E+02  0.23533207560E+02  0.11265065029E+04  0.11270280865E+04  0.00000000000E+00 0. -1.
<scales pt_clust_3="14000.00000" pt_clust_4="61.27227" pt_clust_5="89.39976" pt_clust_6="34.28420"></scales>
<clustering>
<clus scale="   34.284">  1  6  2 -1</clus>
<clus scale="   61.272">  2  4  1 -1</clus>
<clus scale="   89.400">  2  5  1 -1</clus>
<clus scale="   34.284">  1  3  2 -1</clus>
</clustering>
</event>
<event>
 6    0  0.8520634E+002  0.1003289E+03  0.7546771E-02  0.1279606E+00
         21   -1    0    0  503  501  0.00000000000E+00  0.00000000000E+00  0.88147260960E+03  0.88147260960E+03  0.00000000000E+00 0. -1.
         21   -1    0    0  504  502 -0.00000000000E+00 -0.00000000000E+00 -0.18642932342E+03  0.18642932342E+03  0.00000000000E+00 0. -1.
         21    1    1    2  503  506 -0.58325423939E+02 -0.20616775884E+02  0.10015483782E+03  0.11771957384E+03  0.00000000000E+00 0. -1.
         21    1    1    2  504  501 -0.23078098903E+01  0.51211138232E+02  0.57505666867E+03  0.57733705826E+03  0.00000000000E+00 0. -1.
         21    1    1    2  505  502  0.45186858933E+02 -0.94414239234E+02 -0.15446590222E+03  0.18658943094E+03  0.00000000000E+00 0. -1.
         21    1    1    2  506  505  0.15446374897E+02  0.63819876886E+02  0.17429768191E+03  0.18625586998E+03  0.00000000000E+00 0. -1.
<scales pt_clust_3="59.19532" pt_clust_4="51.26311" pt_clust_5="100.32893" pt_clust_6="14000.00000"></scales>
<clustering>
<clus scale="   51.263">  1  4  2 -1</clus>
<clus scale="   59.195">  1  3  2 -1</clus>
<clus scale="  100.329">  2  5  1 -1</clus>
<clus scale="   51.263">  1  3  2 -1</clus>
</clustering>
</event>
<event>
 6    0  0.8520634E+002  0.1076753E+03  0.7546771E-02  0.1264936E+00
         21   -1    0    0  503  501  0.00000000000E+00  0.00000000000E+00  0.14644769383E+03  0.14644769383E+03  0.00000000000E+00 0.  1.
         21   -1    0    0  506  502 -0.00000000000E+00 -0.00000000000E+00 -0.12963023924E+04  0.12963023924E+04  0.00000000000E+00 0. -1.
         21    1    1    2  503  504  0.10854791207E+03  0.21739358066E+02  0.95958326239E+02  0.14650341046E+03  0.00000000000E+00 0.  1.
         21    1    1    2  504  502 -0.51036770272E+02 -0.94679156748E+02 -0.17859437170E+03  0.20848223964E+03  0.00000000000E+00 0.  1.
         21    1    1    2  505  501 -0.12849619446E+02  0.39583997176E+02 -0.35962356225E+02  0.55002696457E+02  0.00000000000E+00 0.  1.
         21    1    1    2  506  505 -0.44661522348E+02  0.33355801507E+02 -0.10312562968E+04  0.10327617396E+04  0.00000000000E+00 0. -1.
<scales pt_clust_3="14000.00000" pt_clust_4="107.67530" pt_clust_5="41.61737" pt_clust_6="55.92977"></scales>
<clustering>
<clus scale="   41.617">  1  5  2 -1</clus>
<clus scale="   55.930">  2  6  1 -1</clus>
<clus scale="  107.675">  2  4  1 -1</clus>
<clus scale="   41.617">  1  3  2 -1</clus>
</clustering>
</event>
<event>
 6    0  0.8520634E+002  0.9664262E+02  0.7546771E-02  0.1287519E+00
         21   -1    0    0  506  501  0.00000000000E+00  0.00000000000E+00  0.88511596064E+02  0.88511596064E+02  0.00000000000E+00 0.  1.
         21   -1    0    0  505  502 -0.00000000000E+00 -0.00000000000E+00 -0.69513197799E+03  0.69513197799E+03  0.00000000000E+00 0.  1.
         21    1    1    2  503  502 -0.12827050311E+02 -0.33788972382E+02 -0.17825091267E+03  0.18187802436E+03  0.00000000000E+00 0.  1.
         21    1    1    2  504  501 -0.58743331151E+02 -0.97839311463E+02 -0.33393343609E+02  0.11890511015E+03  0.00000000000E+00 0.  1.
         21    1    1    2  505  504 -0.88300671889E+01  0.89527917055E+02 -0.38045915243E+03  0.39095061669E+03  0.00000000000E+00 0.  1.
         21    1    1    2  506  503  0.80400448651E+02  0.42100366789E+02 -0.14516973209E+02  0.91909822860E+02  0.00000000000E+00 0.  1.
<scales pt_clust_3="36.14177" pt_clust_4="14000.00000" pt_clust_5="66.81881" pt_clust_6="96.64262"></scales>
<clustering>
<clus scale="   36.142">  2  3  1 -1</clus>
<clus scale="   66.819">  2  5  1 -1</clus>
<clus scale="   96.643">  1  6  2 -1</clus>
<clus scale="   96.643">  1  3  2 -1</clus>
</clustering>
</event>
<event>
 6    0  0.8520634E+002  0.1171736E+03  0.7546771E-02  0.1247834E+00
         21   -1    0    0  505  501  0.00000000000E+00  0.00000000000E+00  0.59831914318E+02  0.59831914318E+02  0.00000000000E+00 0.  1.
         21   -1    0    0  504  502 -0.00000000000E+00 -0.00000000000E+00 -0.99788880720E+03  0.99788880720E+03  0.00000000000E+00 0.  1.
         21    1    1    2  503  501  0.35744240474E+01 -0.39244079241E+02 -0.44801595896E+02  0.59666215378E+02  0.00000000000E+00 0. -1.
         21    1    1    2  504  503  0.10216049045E+03 -0.46564594686E+02 -0.37121961091E+03  0.38782602648E+03  0.00000000000E+00 0.  1.
         21    1    1    2  505  506 -0.90730163457E+02  0.11251267060E+03 -0.76297744846E+02  0.16343931435E+03  0.00000000000E+00 0.  1.
         21    1    1    2  506  502 -0.15004751040E+02 -0.26703996670E+02 -0.44573794123E+03  0.44678916532E+03  0.00000000000E+00 0.  1.
<scales pt_clust_3="41.82818" pt_clust_4="14000.00000" pt_clust_5="117.17356" pt_clust_6="30.63080"></scales>
<clustering>
<clus scale="   30.631">  2  6  1 -1</clus>
<clus scale="   41.828">  1  3  2 -1</clus>
<clus scale="  117.174">  1  5  2 -1</clus>
<clus scale="   41.828">  1  3  2 -1</clus>
</clustering>
</event>
<event>
 6    0  0.8520634E+002  0.9569471E+02  0.7546771E-02  0.1289619E+00
         21   -1    0    0  506  501  0.00000000000E+00  0.00000000000E+00  0.19463500635E+03  0.19463500635E+03  0.00000000000E+00 0.  1.
         21   -1    0    0  503  502 -0.00000000000E+00 -0.00000000000E+00 -0.67101157535E+03  0.67101157535E+03  0.00000000000E+00 0.  1.
         21    1    1    2  503  505  0.39237621684E+02  0.32217632658E+02 -0.28275824746E+03  0.28727999115E+03  0.00000000000E+00 0.  1.
         21    1    1    2  504  501  0.11729256719E+03  0.85016394444E+02  0.99220945184E+02  0.17558510644E+03  0.00000000000E+00 0.  1.
         21    1    1    2  505  504 -0.10550428039E+03 -0.83873241031E+02 -0.31118309588E+03  0.33911766822E+03  0.00000000000E+00 0.  1.
         21    1    1    2  506  502 -0.51025908483E+02 -0.33360786071E+02  0.18343829152E+02  0.63663815875E+02  0.00000000000E+00 0.  1.
<scales pt_clust_3="50.76974" pt_clust_4="95.69471" pt_clust_5="14000.00000" pt_clust_6="58.00173"></scales>
<clustering>
<clus scale="   50.770">  2  3  1 -1</clus>
<clus scale="   58.002">  1  6  2 -1</clus>
<clus scale="   95.695">  1  4  2 -1</clus>
<clus scale="   58.002">  1  3  2 -1</clus>
</clustering>
</event>
<event>
 6    0  0.8520634E+002  0.8780915E+02  0.7546771E-02  0.1308246E+00
         21   -1    0    0  503  501  0.00000000000E+00  0.00000000000E+00  0.21502310286E+03  0.21502310286E+03  0.00000000000E+00 0. -1.
         21   -1    0    0  506  502 -0.00000000000E+00 -0.00000000000E+00 -0.41582363407E+03  0.41582363407E+03  0.00000000000E+00 0.  1.
         21    1    1    2  503  504  0.73250462170E+02  0.94233303777E+02  0.16188761840E+03  0.20112967643E+03  0.00000000000E+00 0. -1.
         21    1    1    2  504  505 -0.27964379669E+02 -0.58523068438E+02 -0.11017865996E+03  0.12785262289E+03  0.00000000000E+00 0.  1.
         21    1    1    2  505  502 -0.36497449199E+02 -0.54318766447E+01 -0.26529039434E+03  0.26784428762E+03  0.00000000000E+00 0.  1.
         21    1    1    2  506  501 -0.87886333018E+01 -0.30278358694E+02  0.12780904692E+02  0.34020149989E+02  0.00000000000E+00 0. -1.
<scales pt_clust_3="14000.00000" pt_clust_4="87.80915" pt_clust_5="36.98757" pt_clust_6="31.52807"></scales>
<clustering>
<clus scale="   31.528">  1  6  2 -1</clus>
<clus scale="   36.988">  2  5  1 -1</clus>
<clus scale="   87.809">  2  4  1 -1</clus>
<clus scale="   31.528">  1  3  2 -1</clus>
</clustering>
</event>
<event>
 6    0  0.8520634E+002  0.6599367E+02  0.7546771E-02  0.1374272E+00
         21   -1    0    0  503  501  0.00000000000E+00  0.00000000000E+00  0.38837195684E+03  0.38837195684E+03  0.00000000000E+00 0.  1.
         21   -1    0    0  506  502 -0.00000000000E+00 -0.00000000000E+00 -0.10700143215E+03  0.10700143215E+03  0.00000000000E+00 0.  1.
         21    1    1    2  503  502 -0.34541206917E+02 -0.10768606636E+02  0.18066270579E+03  0.18425002341E+03  0.00000000000E+00 0.  1.
         21    1    1    2  504  501  0.80675391036E+02  0.14123282313E+02  0.11516467076E+03  0.14131838951E+03  0.00000000000E+00 0.  1.
         21    1    1    2  505  504 -0.69593682425E+02  0.54473318103E+02  0.29836554063E+02  0.93278309253E+02  0.00000000000E+00 0.  1.
         21    1    1    2  506  505  0.23459498306E+02 -0.57827993780E+02 -0.44293405922E+02  0.76526666813E+02  0.00000000000E+00 0.  1.
<scales pt_clust_3="36.18090" pt_clust_4="59.62665" pt_clust_5="14000.00000" pt_clust_6="65.99367"></scales>
<clustering>
<clus scale="   36.181">  1  3  2 -1</clus>
<clus scale="   59.627">  1  4  2 -1</clus>
<clus scale="   65.994">  2  6  1 -1</clus>
<clus scale="   36.181">  1  3  2 -1</clus>
</clustering>
</event>
<event>
 6    0  0.8520634E+002  0.8773023E+02  0.7546771E-02  0.1308443E+00
         21   -1    0    0  506  501  0.00000000000E+00  0.00000000000E+00  0.87712297858E+03  0.87712297858E+03  0.00000000000E+00 0. -1.
         21   -1    0    0  504  502 -0.00000000000E+00 -0.00000000000E+00 -0.23515958992E+03  0.23515958992E+03  0.00000000000E+00 0. -1.
         21    1    1    2  503  502 -0.40756510688E+02  0.43807441149E+01 -0.41321869118E+02  0.58204647150E+02  0.00000000000E+00 0. -1.
         21    1    1    2  504  501  0.84457774051E+02  0.33156248202E+02 -0.16280984675E+03  0.18638534972E+03  0.00000000000E+00 0. -1.
         21    1    1    2  505  503 -0.61337936537E+02  0.56977049051E+02  0.24384030167E+03  0.25781159651E+03  0.00000000000E+00 0. -1.
         21    1    1    2  506  505  0.17636673174E+02 -0.94514041367E+02  0.60225480285E+03  0.60988097512E+03  0.00000000000E+00 0. -1.
<scales pt_clust_3="40.99127" pt_clust_4="59.26937" pt_clust_5="14000.00000" pt_clust_6="87.73023"></scales>
<clustering>
<clus scale="   40.991">  2  3  1 -1</clus>
<clus scale="   59.269">  2  4  1 -1</clus>
<clus scale="   87.730">  1  6  2 -1</clus>
<clus scale="   87.730">  1  3  2 -1</clus>
</clustering>
</event>
<event>
 6    0  0.8520634E+002  0.1061018E+03  0.7546771E-02  0.1267964E+00
         21   -1    0    0  504  501  0.00000000000E+00  0.00000000000E+00  0.36768579663E+03  0.36768579663E+03  0.00000000000E+00 0.  1.
         21   -1    0    0  503  502 -0.00000000000E+00 -0.00000000000E+00 -0.14841845793E+03  0.14841845793E+03  0.00000000000E+00 0.  1.
         21    1    1    2  503  501 -0.22184391806E+02 -0.23977179397E+02  0.14010283858E+03  0.14386054967E+03  0.00000000000E+00 0.  1.
         21    1    1    2  504  506 -0.27042460932E+02  0.13034700137E+03  0.15867441559E+03  0.20712123412E+03  0.00000000000E+00 0.  1.
         21    1    1    2  505  502  0.31927720969E+02 -0.31813783631E+02 -0.76178145570E+02  0.88513310060E+02  0.00000000000E+00 0.  1.
         21    1    1    2  506  505  0.17299131770E+02 -0.74556038347E+02 -0.33317698957E+01  0.76609160710E+02  0.00000000000E+00 0.  1.
<scales pt_clust_3="32.66577" pt_clust_4="14000.00000" pt_clust_5="45.11399" pt_clust_6="106.10179"></scales>
<clustering>
<clus scale="   32.666">  1  3  2 -1</clus>
<clus scale="   45.114">  2  5  1 -1</clus>
<clus scale="  106.102">  2  6  1 -1</clus>
<clus scale="   32.666">  1  3  2 -1</clus>
</clustering>
</event>
<event>
 6    0  0.8520634E+002  0.9291168E+02  0.7546771E-02  0.1295950E+00
         21   -1    0    0  503  501  0.00000000000E+00  0.00000000000E+00  0.66281710779E+03  0.66281710779E+03  0.00000000000E+00 0.  1.
         21   -1    0    0  505  502 -0.00000000000E+00 -0.00000000000E+00 -0.43151237858E+03  0.43151237858E+03  0.00000000000E+00 0.  1.
         21    1    1    2  503  504 -0.45913542131E+02  0.32057622437E+02  0.13054634464E+03  0.14204961318E+03  0.00000000000E+00 0.  1.
         21    1    1    2  504  506 -0.69720144597E+02 -0.18924943724E+02  0.43030947771E+03  0.43633163840E+03  0.00000000000E+00 0.  1.
         21    1    1    2  505  501  0.46617689379E+02  0.43059483684E+02 -0.39840292629E+03  0.40342560625E+03  0.00000000000E+00 0.  1.
         21    1    1    2  506  502  0.69015997349E+02 -0.56192162397E+02  0.68851833153E+02  0.11252262854E+03  0.00000000000E+00 0.  1.
<scales pt_clust_3="55.99772" pt_clust_4="92.91168" pt_clust_5="63.40465" pt_clust_6="14000.00000"></scales>
<clustering>
<clus scale="   55.998">  1  3  2 -1</clus>
<clus scale="   63.405">  2  5  1 -1</clus>
<clus scale="   92.912">  1  4  2 -1</clus>
<clus scale="   55.998">  1  3  2 -1</clus>
</clustering>
</event>
<event>
 6    0  0.8520634E+002  0.2030751E+03  0.7546771E-02  0.1147170E+00
         21   -1    0    0  503  501  0.00000000000E+00  0.00000000000E+00  0.27125412543E+04  0.27125412543E+04  0.00000000000E+00 0.  1.
         21   -1    0    0  505  502 -0.00000000000E+00 -0.00000000000E+00 -0.40119890051E+03  0.40119890051E+03  0.00000000000E+00 0. -1.
         21    1    1    2  503  506 -0.37110751736E+02  0.10821160592E+03  0.14262839431E+04  0.14308643702E+04  0.00000000000E+00 0. -1.
         21    1    1    2  504  501 -0.26468941575E+03 -0.89954343970E+01  0.52718813397E+03  0.58997350216E+03  0.00000000000E+00 0.  1.
         21    1    1    2  505  504  0.13534018176E+03 -0.15348378234E+03 -0.32714124952E+03  0.38586996953E+03  0.00000000000E+00 0. -1.
         21    1    1    2  506  502  0.16645998572E+03  0.54267610816E+02  0.68501152626E+03  0.70703231293E+03  0.00000000000E+00 0.  1.
<scales pt_clust_3="114.39825" pt_clust_4="203.07505" pt_clust_5="14000.00000" pt_clust_6="184.84822"></scales>
<clustering>
<clus scale="  114.398">  1  3  2 -1</clus>
<clus scale="  184.848">  1  6  2 -1</clus>
<clus scale="  203.075">  1  4  2 -1</clus>
<clus scale="  114.398">  1  3  2 -1</clus>
</clustering>
</event>
<event>
 6    0  0.8520634E+002  0.9533444E+02  0.7546771E-02  0.1290425E+00
         21   -1    0    0  503  501  0.00000000000E+00  0.00000000000E+00  0.12508997917E+04  0.12508997917E+04  0.00000000000E+00 0.  1.
         21   -1    0    0  504  502 -0.00000000000E+00 -0.00000000000E+00 -0.60493458324E+02  0.60493458324E+02  0.00000000000E+00 0.  1.
         21    1    1    2  503  506 -0.45733050220E+02 -0.22107053642E+02  0.22336042169E+03  0.22906355380E+03  0.00000000000E+00 0. -1.
         21    1    1    2  504  505  0.44924351978E+02 -0.97229757250E+02  0.12672867181E+02  0.10785371880E+03  0.00000000000E+00 0.  1.
         21    1    1    2  505  501  0.32109501729E+02  0.58018320024E+02  0.82728692576E+03  0.82994024068E+03  0.00000000000E+00 0.  1.
         21    1    1    2  506  502 -0.31300803488E+02  0.61318490868E+02  0.12708611879E+03  0.14453573679E+03  0.00000000000E+00 0. -1.
<scales pt_clust_3="50.79600" pt_clust_4="14000.00000" pt_clust_5="40.43610" pt_clust_6="95.33444"></scales>
<clustering>
<clus scale="   50.796">  1  3  2 -1</clus>
<clus scale="   40.436">  1  5  2 -1</clus>
<clus scale="   95.334">  1  6  2 -1</clus>
<clus scale="   50.796">  1  3  2 -1</clus>
</clustering>
</event>
<event>
 6    0  0.8520634E+002  0.9322862E+02  0.7546771E-02  0.1295216E+00
         21   -1    0    0  504  501  0.00000000000E+00  0.00000000000E+00  0.17786590619E+03  0.17786590619E+03  0.00000000000E+00 0.  1.
         21   -1    0    0  506  502 -0.00000000000E+00 -0.00000000000E+00 -0.37837821811E+03  0.37837821811E+03  0.00000000000E+00 0. -1.
         21    1    1    2  503  501 -0.72446457498E+02  0.14910073391E+01  0.70784086658E+02  0.10129708402E+03  0.00000000000E+00 0.  1.
         21    1    1    2  504  502 -0.14089840526E+02 -0.33578193172E+02 -0.58501289672E+02  0.68908777061E+02  0.00000000000E+00 0.  1.
         21    1    1    2  505  503  0.11764684456E+02  0.80481778712E+02  0.58700178897E+02  0.10030670719E+03  0.00000000000E+00 0.  1.
         21    1    1    2  506  505  0.74771613569E+02 -0.48394592879E+02 -0.27149528779E+03  0.28573155603E+03  0.00000000000E+00 0. -1.
<scales pt_clust_3="73.12971" pt_clust_4="36.41454" pt_clust_5="14000.00000" pt_clust_6="93.22862"></scales>
<clustering>
<clus scale="   36.415">  2  4  1 -1</clus>
<clus scale="   73.130">  1  3  2 -1</clus>
<clus scale="   93.229">  2  6  1 -1</clus>
<clus scale="   73.130">  1  3  2 -1</clus>
</clustering>
</event>
<event>
 6    0  0.8520634E+002  0.1234153E+03  0.7546771E-02  0.1237567E+00
         21   -1    0    0  505  501  0.00000000000E+00  0.00000000000E+00  0.12782629017E+03  0.12782629017E+03  0.00000000000E+00 0. -1.
         21   -1    0    0  506  502 -0.00000000000E+00 -0.00000000000E+00 -0.55914597370E+03  0.55914597370E+03  0.00000000000E+00 0. -1.
         21    1    1    2  503  501 -0.55801289784E+02 -0.58931443234E+02  0.63160194528E+02  0.10283923918E+03  0.00000000000E+00 0. -1.
         21    1    1    2  504  503 -0.24772372405E+02  0.84514604382E+02 -0.91185657538E+02  0.12677228770E+03  0.00000000000E+00 0. -1.
         21    1    1    2  505  502  0.86132596539E+02 -0.77791033432E+02 -0.38443622152E+03  0.40157375099E+03  0.00000000000E+00 0. -1.
         21    1    1    2  506  504 -0.55589343497E+01  0.52207872283E+02 -0.18857999006E+02  0.55786985991E+02  0.00000000000E+00 0.  1.
<scales pt_clust_3="81.15848" pt_clust_4="30.93496" pt_clust_5="116.73082" pt_clust_6="30.93496"></scales>
<clustering>
<clus scale="   30.935">  4  6 -1 -1</clus>
<clus scale="   81.158">  1  3  2 -1</clus>
<clus scale="  116.731">  2  5  1 -1</clus>
<clus scale="   81.158">  1  3  2 -1</clus>
</clustering>
</event>
<event>
 6    0  0.8520634E+002  0.6344486E+02  0.7546771E-02  0.1383919E+00
         21   -1    0    0  505  501  0.00000000000E+00  0.00000000000E+00  0.62988718255E+02  0.62988718255E+02  0.00000000000E+00 0.  1.
         21   -1    0    0  504  502 -0.00000000000E+00 -0.00000000000E+00 -0.66798500505E+03  0.66798500505E+03  0.00000000000E+00 0. -1.
         21    1    1    2  503  501 -0.43023898075E+02  0.84481382626E+01  0.16311053185E+01  0.43875817374E+02  0.00000000000E+00 0. -1.
         21    1    1    2  504  506  0.37868026305E+02 -0.55346353518E+02 -0.48887424191E+03  0.49345235906E+03  0.00000000000E+00 0. -1.
         21    1    1    2  505  502  0.70226341230E+02  0.40341799646E+02 -0.35151995757E+02  0.88288519112E+02  0.00000000000E+00 0.  1.
         21    1    1    2  506  503 -0.65070469461E+02  0.65564156093E+01 -0.82601154443E+02  0.10535702775E+03  0.00000000000E+00 0. -1.
<scales pt_clust_3="43.84549" pt_clust_4="14000.00000" pt_clust_5="62.10723" pt_clust_6="63.44486"></scales>
<clustering>
<clus scale="   43.845">  1  3  2 -1</clus>
<clus scale="   62.107">  1  5  2 -1</clus>
<clus scale="   63.445">  1  6  2 -1</clus>
<clus scale="   43.845">  1  3  2 -1</clus>
</clustering>
</event>
<event>
 6    0  0.8520634E+002  0.8510855E+02  0.7546771E-02  0.1315149E+00
         21   -1    0    0  505  501  0.00000000000E+00  0.00000000000E+00  0.25425521722E+03  0.25425521722E+03  0.00000000000E+00 0. -1.
         21   -1    0    0  506  502 -0.00000000000E+00 -0.00000000000E+00 -0.46870016982E+03  0.46870016982E+03  0.00000000000E+00 0. -1.
         21    1    1    2  503  502  0.33011242121E+02  0.52454486421E+02 -0.33300504177E+02  0.70357223016E+02  0.00000000000E+00 0. -1.
         21    1    1    2  504  501  0.78180803326E+02 -0.22033803374E+02  0.14835919550E+03  0.16913952048E+03  0.00000000000E+00 0. -1.
         21    1    1    2  505  503 -0.77729344498E+01  0.70460965167E+02  0.43693777465E+02  0.83272518344E+02  0.00000000000E+00 0. -1.
         21    1    1    2  506  504 -0.10341911100E+03 -0.10088164821E+03 -0.37319742139E+03  0.40018612519E+03  0.00000000000E+00 0. -1.
<scales pt_clust_3="61.97754" pt_clust_4="85.10855" pt_clust_5="73.21453" pt_clust_6="14000.00000"></scales>
<clustering>
<clus scale="   61.978">  2  3  1 -1</clus>
<clus scale="   73.215">  1  5  2 -1</clus>
<clus scale="   85.109">  1  4  2 -1</clus>
<clus scale="   73.215">  1  3  2 -1</clus>
</clustering>
</event>
<event>
 6    0  0.8520634E+002  0.9482229E+02  0.7546771E-02  0.1291577E+00
         21   -1    0    0  505  501  0.00000000000E+00  0.00000000000E+00  0.89377029103E+02  0.89377029103E+02  0.00000000000E+00 0. -1.
         21   -1    0    0  506  502 -0.00000000000E+00 -0.00000000000E+00 -0.87186739327E+03  0.87186739327E+03  0.00000000000E+00 0. -1.
         21    1    1    2  503  504 -0.49835416856E+02 -0.96891136134E+02 -0.34907523965E+03  0.36568426814E+03  0.00000000000E+00 0. -1.
         21    1    1    2  504  501 -0.20002593939E+02  0.29601054744E+02  0.47294861788E+02  0.59271664038E+02  0.00000000000E+00 0. -1.
         21    1    1    2  505  502  0.88962206298E+02  0.34955527448E+02 -0.57773329770E+02  0.11168670772E+03  0.00000000000E+00 0. -1.
         21    1    1    2  506  503 -0.19124195502E+02  0.32334553942E+02 -0.42293665654E+03  0.42460178247E+03  0.00000000000E+00 0.  1.
<scales pt_clust_3="14000.00000" pt_clust_4="35.72571" pt_clust_5="94.82229" pt_clust_6="38.38933"></scales>
<clustering>
<clus scale="   35.726">  1  4  2 -1</clus>
<clus scale="   38.389">  2  6  1 -1</clus>
<clus scale="   94.822">  1  5  2 -1</clus>
<clus scale="   35.726">  1  3  2 -1</clus>
</clustering>
</event>
<event>
 6    0  0.8520634E+002  0.1267063E+03  0.7546771E-02  0.1232426E+00
         21   -1    0    0  506  501  0.00000000000E+00  0.00000000000E+00  0.12180055142E+03  0.12180055142E+03  0.00000000000E+00 0. -1.
         21   -1    0    0  503  502 -0.00000000000E+00 -0.00000000000E+00 -0.62896872624E+03  0.62896872624E+03  0.00000000000E+00 0.  1.
         21    1    1    2  503  501  0.17503117287E+02  0.35066737480E+02  0.65022042456E+02  0.75920360889E+02  0.00000000000E+00 0. -1.
         21    1    1    2  504  502 -0.92087223208E+02 -0.70087236619E+02 -0.56053829901E+03  0.57235955664E+03  0.00000000000E+00 0.  1.
         21    1    1    2  505  504  0.55189296717E+02 -0.43907911836E+01  0.48297942006E+01  0.55573954614E+02  0.00000000000E+00 0.  1.
         21    1    1    2  506  505  0.19394809203E+02  0.39411290322E+02 -0.16481712465E+02  0.46915405515E+02  0.00000000000E+00 0. -1.
<scales pt_clust_3="39.19228" pt_clust_4="111.69342" pt_clust_5="54.28007" pt_clust_6="54.28007"></scales>
<clustering>
<clus scale="   39.192">  1  3  2 -1</clus>
<clus scale="   54.280">  5  6 -1 -1</clus>
<clus scale="  111.693">  2  4  1 -1</clus>
<clus scale="   39.192">  1  3  2 -1</clus>
</clustering>
</event>
<event>
 6    0  0.8520634E+002  0.1065268E+03  0.7546771E-02  0.1267140E+00
         21   -1    0    0  504  501  0.00000000000E+00  0.00000000000E+00  0.14610790189E+03  0.14610790189E+03  0.00000000000E+00 0.  1.
         21   -1    0    0  505  502 -0.00000000000E+00 -0.00000000000E+00 -0.41340593727E+03  0.41340593727E+03  0.00000000000E+00 0.  1.
         21    1    1    2  503  501  0.77087323107E+01  0.11856277574E+03 -0.47477095659E+02  0.12794776652E+03  0.00000000000E+00 0.  1.
         21    1    1    2  504  506  0.26777566736E+02 -0.30004094005E+02  0.63332072307E+02  0.75021564367E+02  0.00000000000E+00 0.  1.
         21    1    1    2  505  503 -0.66711839470E+02  0.11153722522E+02 -0.22861616887E+03  0.23841188670E+03  0.00000000000E+00 0.  1.
         21    1    1    2  506  502  0.32225540423E+02 -0.99712404253E+02 -0.54536843160E+02  0.11813262157E+03  0.00000000000E+00 0.  1.
<scales pt_clust_3="14000.00000" pt_clust_4="40.21547" pt_clust_5="65.66092" pt_clust_6="106.52678"></scales>
<clustering>
<clus scale="   40.215">  1  4  2 -1</clus>
<clus scale="   65.661">  2  5  1 -1</clus>
<clus scale="  106.527">  2  6  1 -1</clus>
<clus scale="   40.215">  1  3  2 -1</clus>
</clustering>
</event>
<event>
 6    0  0.8520634E+002  0.2016961E+03  0.7546771E-02  0.1148316E+00
         21   -1    0    0  505  501  0.00000000000E+00  0.00000000000E+00  0.21148648726E+03  0.21148648726E+03  0.00000000000E+00 0. -1.
         21   -1    0    0  504  502 -0.00000000000E+00 -0.00000000000E+00 -0.32732535487E+03  0.32732535487E+03  0.00000000000E+00 0. -1.
         21    1    1    2  503  502 -0.29619593374E+02  0.67021659487E+01 -0.56452626047E+02  0.64102561007E+02  0.00000000000E+00 0.  1.
         21    1    1    2  504  506  0.16337120029E+03 -0.13024285166E+03  0.46956094502E+02  0.21414533454E+03  0.00000000000E+00 0. -1.
         21    1    1    2  505  503 -0.10663239187E+03  0.15794698604E+03 -0.10300422224E+03  0.21662776183E+03  0.00000000000E+00 0. -1.
         21    1    1    2  506  501 -0.27119215042E+02 -0.34406300327E+02 -0.33381138334E+01  0.43936184753E+02  0.00000000000E+00 0. -1.
<scales pt_clust_3="30.36839" pt_clust_4="201.69614" pt_clust_5="14000.00000" pt_clust_6="45.03162"></scales>
<clustering>
<clus scale="   30.368">  2  3  1 -1</clus>
<clus scale="   45.032">  1  6  2 -1</clus>
<clus scale="  201.696">  1  4  2 -1</clus>
<clus scale="   45.032">  1  3  2 -1</clus>
</clustering>
</event>
<event>
 6    0  0.8520634E+002  0.1299441E+03  0.7546771E-02  0.1227539E+00
         21   -1    0    0  505  501  0.00000000000E+00  0.00000000000E+00  0.71749440829E+03  0.71749440829E+03  0.00000000000E+00 0.  1.
         21   -1    0    0  503  502 -0.00000000000E+00 -0.00000000000E+00 -0.13147041642E+03  0.13147041642E+03  0.00000000000E+00 0. -1.
         21    1    1    2  503  504  0.24654043196E+01 -0.77744862577E+02 -0.19006849023E+02  0.80072480824E+02  0.00000000000E+00 0. -1.
         21    1    1    2  504  506  0.65177795475E+02  0.64154202723E+02  0.43883354603E+02  0.10143793946E+03  0.00000000000E+00 0.  1.
         21    1    1    2  505  502 -0.18312726860E+03  0.42042760251E+02  0.15292588479E+03  0.24225919267E+03  0.00000000000E+00 0. -1.
         21    1    1    2  506  501  0.11548406880E+03 -0.28452100397E+02  0.40822160151E+03  0.42519521176E+03  0.00000000000E+00 0.  1.
<scales pt_clust_3="77.78394" pt_clust_4="75.62730" pt_clust_5="14000.00000" pt_clust_6="129.94406"></scales>
<clustering>
<clus scale="   77.784">  2  3  1 -1</clus>
<clus scale="   75.627">  2  4  1 -1</clus>
<clus scale="  129.944">  1  6  2 -1</clus>
<clus scale="  129.944">  1  3  2 -1</clus>
</clustering>
</event>
<event>
 6    0  0.8520634E+002  0.1452785E+03  0.7546771E-02  0.1206398E+00
         21   -1    0    0  506  501  0.00000000000E+00  0.00000000000E+00  0.42502857545E+03  0.42502857545E+03  0.00000000000E+00 0. -1.
         21   -1    0    0  503  502 -0.00000000000E+00 -0.00000000000E+00 -0.67326172378E+03  0.67326172378E+03  0.00000000000E+00 0. -1.
         21    1    1    2  503  504  0.55479661404E+02 -0.10377378692E+03 -0.91242651105E+02  0.14890336820E+03  0.00000000000E+00 0. -1.
         21    1    1    2  504  501  0.23766306433E+02  0.17841220064E+03  0.31596841404E+03  0.36363689214E+03  0.00000000000E+00 0. -1.
         21    1    1    2  505  502 -0.35278026501E+02 -0.46309858308E+02 -0.51522490657E+03  0.51850346815E+03  0.00000000000E+00 0. -1.
         21    1    1    2  506  505 -0.43967941336E+02 -0.28328555411E+02  0.42265995310E+02  0.67246570742E+02  0.00000000000E+00 0.  1.
<scales pt_clust_3="145.27846" pt_clust_4="14000.00000" pt_clust_5="58.43412" pt_clust_6="52.30379"></scales>
<clustering>
<clus scale="   52.304">  1  6  2 -1</clus>
<clus scale="   58.434">  2  5  1 -1</clus>
<clus scale="  145.278">  2  3  1 -1</clus>
<clus scale="   52.304">  1  3  2 -1</clus>
</clustering>
</event>
<event>
 6    0  0.8520634E+002  0.1140115E+03  0.7546771E-02  0.1253316E+00
         21   -1    0    0  504  501  0.00000000000E+00  0.00000000000E+00  0.21126007991E+04  0.21126007991E+04  0.00000000000E+00 0.  1.
         21   -1    0    0  503  502 -0.00000000000E+00 -0.00000000000E+00 -0.30163403019E+02  0.30163403019E+02  0.00000000000E+00 0.  1.
         21    1    1    2  503  505  0.31153356109E+02 -0.21252886906E+02  0.55990035239E+02  0.67506302260E+02  0.00000000000E+00 0.  1.
         21    1    1    2  504  506  0.29558232273E+02  0.45143709738E+02  0.13446154275E+04  0.13456976970E+04  0.00000000000E+00 0.  1.
         21    1    1    2  505  501 -0.92135458260E+02 -0.11961471968E+03  0.49204409373E+03  0.51468826876E+03  0.00000000000E+00 0.  1.
         21    1    1    2  506  502  0.31423869877E+02  0.95723896848E+02  0.18978783953E+03  0.21487193409E+03  0.00000000000E+00 0.  1.
<scales pt_clust_3="37.71229" pt_clust_4="53.95027" pt_clust_5="114.01150" pt_clust_6="14000.00000"></scales>
<clustering>
<clus scale="   37.712">  2  3  1 -1</clus>
<clus scale="   53.950">  1  4  2 -1</clus>
<clus scale="  114.012">  1  5  2 -1</clus>
<clus scale="   53.950">  1  3  2 -1</clus>
</clustering>
</event>
<event>
 6    0  0.8520634E+002  0.2108391E+03  0.7546771E-02  0.1140903E+00
         21   -1    0    0  505  501  0.00000000000E+00  0.00000000000E+00  0.64857417175E+02  0.64857417175E+02  0.00000000000E+00 0. -1.
         21   -1    0    0  503  502 -0.00000000000E+00 -0.00000000000E+00 -0.30445953780E+04  0.30445953780E+04  0.00000000000E+00 0.  1.
         21    1    1    2  503  501 -0.64281645972E+02  0.23017836348E+03 -0.25311544761E+04  0.25424116879E+04  0.00000000000E+00 0.  1.
         21    1    1    2  504  502  0.80526359421E+01 -0.50643310866E+02 -0.31719265506E+03  0.32131101803E+03  0.00000000000E+00 0. -1.
         21    1    1    2  505  506  0.45471211352E+02 -0.23409594636E+02 -0.31141347767E+02  0.59878407825E+02  0.00000000000E+00 0.  1.
         21    1    1    2  506  504  0.10757798678E+02 -0.15612545797E+03 -0.10024948191E+03  0.18585168141E+03  0.00000000000E+00 0. -1.
<scales pt_clust_3="191.64531" pt_clust_4="51.27953" pt_clust_5="50.24559" pt_clust_6="50.24559"></scales>
<clustering>
<clus scale="   50.246">  5  6 -1 -1</clus>
<clus scale="   51.280">  2  4  1 -1</clus>
<clus scale="  191.645">  2  3  1 -1</clus>
<clus scale="  210.839">  1  3  2 -1</clus>
</clustering>
</event>
<event>
 6    0  0.8520634E+002  0.9557754E+02  0.7546771E-02  0.1289881E+00
         21   -1    0    0  502  501  0.00000000000E+00  0.00000000000E+00  0.11708935905E+03  0.11708935905E+03  0.00000000000E+00 0.  1.
         21   -1    0    0  506  502 -0.00000000000E+00 -0.00000000000E+00 -0.24146104001E+03  0.24146104001E+03  0.00000000000E+00 0.  1.
         21    1    1    2  503  504  0.14219834268E+02  0.32540526251E+02  0.33318289819E+02  0.48694948113E+02  0.00000000000E+00 0.  1.
         21    1    1    2  504  501 -0.22148769679E+02  0.25039285391E+02  0.17782529634E+02  0.37864920063E+02  0.00000000000E+00 0.  1.
         21    1    1    2  505  503 -0.10091350158E+02 -0.13140316694E+03 -0.10882307006E+03  0.17091251624E+03  0.00000000000E+00 0.  1.
         21    1    1    2  506  505  0.18020285569E+02  0.73823355297E+02 -0.66649430350E+02  0.10107801465E+03  0.00000000000E+00 0.  1.
<scales pt_clust_3="44.22839" pt_clust_4="33.42954" pt_clust_5="95.57754" pt_clust_6="14000.00000"></scales>
<clustering>
<clus scale="   33.430">  1  4  2 -1</clus>
<clus scale="   44.228">  1  3  2 -1</clus>
<clus scale="   95.578">  1  5  2 -1</clus>
<clus scale="   33.430">  1  3  2 -1</clus>
</clustering>
</event>
<event>
 6    0  0.8520634E+002  0.2856313E+03  0.7546771E-02  0.1092652E+00
         21   -1    0    0  503  501  0.00000000000E+00  0.00000000000E+00  0.12970933084E+04  0.12970933084E+04  0.00000000000E+00 0.  1.
         21   -1    0    0  505  502 -0.00000000000E+00 -0.00000000000E+00 -0.78920433323E+03  0.78920433323E+03  0.00000000000E+00 0.  1.
         21    1    1    2  503  502  0.17113456047E+03 -0.17863659188E+03  0.12338396517E+04  0.12583951509E+04  0.00000000000E+00 0.  1.
         21    1    1    2  504  501  0.35673924982E+02 -0.83315854240E+01  0.10212228834E+02  0.38030696248E+02  0.00000000000E+00 0.  1.
         21    1    1    2  505  506 -0.37231959550E+02  0.49116889406E+02 -0.23858204392E+03  0.24641444625E+03  0.00000000000E+00 0.  1.
         21    1    1    2  506  504 -0.16957652590E+03  0.13785128790E+03 -0.49758086142E+03  0.54345734825E+03  0.00000000000E+00 0.  1.
<scales pt_clust_3="278.11948" pt_clust_4="36.63392" pt_clust_5="34.55887" pt_clust_6="34.55887"></scales>
<clustering>
<clus scale="   34.559">  5  6 -1 -1</clus>
<clus scale="   36.634">  1  4  2 -1</clus>
<clus scale="  278.119">  1  3  2 -1</clus>
<clus scale="   36.634">  1  3  2 -1</clus>
</clustering>
</event>
<event>
 6    0  0.8520634E+002  0.9864517E+02  0.7546771E-02  0.1283171E+00
         21   -1    0    0  504  501  0.00000000000E+00  0.00000000000E+00  0.88489256942E+02  0.88489256942E+02  0.00000000000E+00 0.  1.
         21   -1    0    0  505  502 -0.00000000000E+00 -0.00000000000E+00 -0.72417542539E+03  0.72417542539E+03  0.00000000000E+00 0.  1.
         21    1    1    2  503  502 -0.14148987258E+02 -0.26772775661E+02 -0.42141221593E+03  0.42249879419E+03  0.00000000000E+00 0.  1.
         21    1    1    2  504  506  0.92303810783E+01  0.12299261983E+03  0.14013745861E+02  0.12413206492E+03  0.00000000000E+00 0.  1.
         21    1    1    2  505  501  0.18378394468E+02 -0.24081360382E+02 -0.46299486388E+01  0.30644962481E+02  0.00000000000E+00 0.  1.
         21    1    1    2  506  503 -0.13459788289E+02 -0.72138483787E+02 -0.22365774973E+03  0.23538886074E+03  0.00000000000E+00 0.  1.
<scales pt_clust_3="30.28160" pt_clust_4="98.64517" pt_clust_5="31.07573" pt_clust_6="14000.00000"></scales>
<clustering>
<clus scale="   30.282">  2  3  1 -1</clus>
<clus scale="   31.076">  1  5  2 -1</clus>
<clus scale="   98.645">  1  4  2 -1</clus>
<clus scale="   31.076">  1  3  2 -1</clus>
</clustering>
</event>
<event>
 6    0  0.8520634E+002  0.7337620E+02  0.7546771E-02  0.1348974E+00
         21   -1    0    0  503  501  0.00000000000E+00  0.00000000000E+00  0.82010123335E+03  0.82010123335E+03  0.00000000000E+00 0.  1.
         21   -1    0    0  506  502 -0.00000000000E+00 -0.00000000000E+00 -0.29702443009E+03  0.29702443009E+03  0.00000000000E+00 0.  1.
         21    1    1    2  503  502  0.47120611276E+02 -0.36974414680E+02  0.93259174298E+02  0.11083651447E+03  0.00000000000E+00 0.  1.
         21    1    1    2  504  501 -0.49876429575E+02 -0.53087095960E+02  0.66785641556E+03  0.67181700617E+03  0.00000000000E+00 0.  1.
         21    1    1    2  505  504  0.33990932237E+02  0.84628620820E+02  0.31055926992E+01  0.91252570607E+02  0.00000000000E+00 0.  1.
         21    1    1    2  506  505 -0.31235113938E+02  0.54328898200E+01 -0.24114437929E+03  0.24321957220E+03  0.00000000000E+00 0.  1.
<scales pt_clust_3="55.47219" pt_clust_4="14000.00000" pt_clust_5="73.37620" pt_clust_6="31.70408"></scales>
<clustering>
<clus scale="   31.704">  2  6  1 -1</clus>
<clus scale="   55.472">  2  3  1 -1</clus>
<clus scale="   73.376">  2  5  1 -1</clus>
<clus scale="   73.376">  1  3  2 -1</clus>
</clustering>
</event>
<event>
 6    0  0.8520634E+002  0.1374542E+03  0.7546771E-02  0.1216796E+00
         21   -1    0    0  506  501  0.00000000000E+00  0.00000000000E+00  0.22070406720E+04  0.22070406720E+04  0.00000000000E+00 0. -1.
         21   -1    0    0  504  502 -0.00000000000E+00 -0.00000000000E+00 -0.62829840550E+02  0.62829840550E+02  0.00000000000E+00 0. -1.
         21    1    1    2  503  502  0.94944534249E+01 -0.41684702775E+02 -0.33709359430E+02  0.54443365110E+02  0.00000000000E+00 0. -1.
         21    1    1    2  504  505 -0.66724183482E+02  0.13777440173E+03  0.53384114876E+03  0.55535598902E+03  0.00000000000E+00 0. -1.
         21    1    1    2  505  501  0.11626881935E+02  0.32968085148E+02  0.10437567294E+04  0.10443419886E+04  0.00000000000E+00 0.  1.
         21    1    1    2  506  503  0.45602848122E+02 -0.12905778410E+03  0.60032231276E+03  0.61572916984E+03  0.00000000000E+00 0. -1.
<scales pt_clust_3="42.48910" pt_clust_4="14000.00000" pt_clust_5="34.95825" pt_clust_6="137.45422"></scales>
<clustering>
<clus scale="   34.958">  1  5  2 -1</clus>
<clus scale="   42.489">  2  3  1 -1</clus>
<clus scale="  137.454">  1  6  2 -1</clus>
<clus scale="   34.958">  1  3  2 -1</clus>
</clustering>
</event>
<event>
 6    0  0.8520634E+002  0.9318603E+02  0.7546771E-02  0.1295315E+00
         21   -1    0    0  506  501  0.00000000000E+00  0.00000000000E+00  0.10701602144E+03  0.10701602144E+03  0.00000000000E+00 0. -1.
         21   -1    0    0  505  502 -0.00000000000E+00 -0.00000000000E+00 -0.25425058076E+03  0.25425058076E+03  0.00000000000E+00 0.  1.
         21    1    1    2  503  504  0.88764260211E+02  0.18510298890E+02 -0.64112750509E+02  0.11105030317E+03  0.00000000000E+00 0.  1.
         21    1    1    2  504  501  0.16049001497E+02  0.40779818672E+02  0.28691413604E+02  0.52380924720E+02  0.00000000000E+00 0.  1.
         21    1    1    2  505  503 -0.51443423962E+01 -0.60010629421E+02 -0.61888961722E+02  0.86359617213E+02  0.00000000000E+00 0.  1.
         21    1    1    2  506  502 -0.99668919312E+02  0.72051185907E+00 -0.49924260699E+02  0.11147575710E+03  0.00000000000E+00 0. -1.
<scales pt_clust_3="93.18603" pt_clust_4="43.82424" pt_clust_5="52.55096" pt_clust_6="14000.00000"></scales>
<clustering>
<clus scale="   43.824">  1  4  2 -1</clus>
<clus scale="   52.551">  2  5  1 -1</clus>
<clus scale="   93.186">  2  3  1 -1</clus>
<clus scale="   43.824">  1  3  2 -1</clus>
</clustering>
</event>
<event>
 6    0  0.8520634E+002  0.9815171E+02  0.7546771E-02  0.1284231E+00
         21   -1    0    0  504  501  0.00000000000E+00  0.00000000000E+00  0.24242753372E+04  0.24242753372E+04  0.00000000000E+00 0. -1.
         21   -1    0    0  505  502 -0.00000000000E+00 -0.00000000000E+00 -0.29540568792E+02  0.29540568792E+02  0.00000000000E+00 0. -1.
         21    1    1    2  503  502  0.30332581534E+02  0.24920202587E+02  0.79716787824E+02  0.88858585744E+02  0.00000000000E+00 0.  1.
         21    1    1    2  504  503  0.96345215384E+02  0.54123682861E+01  0.20446899042E+04  0.20469656809E+04  0.00000000000E+00 0. -1.
         21    1    1    2  505  506  0.24327547415E+01 -0.32465693143E+02  0.93707455686E+02  0.99201949466E+02  0.00000000000E+00 0. -1.
         21    1    1    2  506  501 -0.12911055166E+03  0.21331222697E+01  0.17662062067E+03  0.21878968990E+03  0.00000000000E+00 0. -1.
<scales pt_clust_3="36.34642" pt_clust_4="98.15171" pt_clust_5="32.55671" pt_clust_6="14000.00000"></scales>
<clustering>
<clus scale="   32.557">  2  5  1 -1</clus>
<clus scale="   36.346">  2  3  1 -1</clus>
<clus scale="   98.152">  1  4  2 -1</clus>
<clus scale="   98.152">  1  3  2 -1</clus>
</clustering>
</event>
<event>
 6    0  0.8520634E+002  0.9074336E+02  0.7546771E-02  0.1301061E+00
         21   -1    0    0  505  501  0.00000000000E+00  0.00000000000E+00  0.53245726046E+03  0.53245726046E+03  0.00000000000E+00 0.  1.
         21   -1    0    0  506  502 -0.00000000000E+00 -0.00000000000E+00 -0.15993850506E+03  0.15993850506E+03  0.00000000000E+00 0.  1.
         21    1    1    2  503  501 -0.50046503300E+01 -0.31040321758E+02  0.88543756076E+02  0.93960336524E+02  0.00000000000E+00 0.  1.
         21    1    1    2  504  502  0.33329985330E+02 -0.55008654438E+02 -0.30635813006E+02  0.71241792677E+02  0.00000000000E+00 0.  1.
         21    1    1    2  505  504  0.61494146509E+02  0.10096805289E+03  0.39091359186E+03  0.40839871947E+03  0.00000000000E+00 0.  1.
         21    1    1    2  506  503 -0.89819481508E+02 -0.14919076697E+02 -0.76302779526E+02  0.11879491686E+03  0.00000000000E+00 0.  1.
<scales pt_clust_3="31.44118" pt_clust_4="65.42728" pt_clust_5="14000.00000" pt_clust_6="90.74336"></scales>
<clustering>
<clus scale="   31.441">  1  3  2 -1</clus>
<clus scale="   65.427">  2  4  1 -1</clus>
<clus scale="   90.743">  2  6  1 -1</clus>
<clus scale="   31.441">  1  3  2 -1</clus>
</clustering>
</event>
<event>
 6    0  0.8520634E+002  0.1286859E+03  0.7546771E-02  0.1229419E+00
         21   -1    0    0  506  501  0.00000000000E+00  0.00000000000E+00  0.20134618930E+03  0.20134618930E+03  0.00000000000E+00 0. -1.
         21   -1    0    0  505  502 -0.00000000000E+00 -0.00000000000E+00 -0.91359382091E+03  0.91359382091E+03  0.00000000000E+00 0. -1.
         21    1    1    2  503  501 -0.27852375213E+02  0.18437102922E+02  0.71226103708E+02  0.78669177056E+02  0.00000000000E+00 0. -1.
         21    1    1    2  504  503  0.14990025869E+03 -0.12033579666E+03 -0.74335557261E+02  0.20609843907E+03  0.00000000000E+00 0. -1.
         21    1    1    2  505  504 -0.47299466940E+02  0.47699165864E+02 -0.73198206176E+03  0.73505794924E+03  0.00000000000E+00 0. -1.
         21    1    1    2  506  502 -0.74748416534E+02  0.54199527876E+02  0.22843883702E+02  0.95114444849E+02  0.00000000000E+00 0. -1.
<scales pt_clust_3="33.40182" pt_clust_4="14000.00000" pt_clust_5="67.57274" pt_clust_6="128.68587"></scales>
<clustering>
<clus scale="   33.402">  1  3  2 -1</clus>
<clus scale="   67.573">  2  5  1 -1</clus>
<clus scale="  128.686">  1  6  2 -1</clus>
<clus scale="   33.402">  1  3  2 -1</clus>
</clustering>
</event>
<event>
 6    0  0.8520634E+002  0.1326050E+03  0.7546771E-02  0.1223641E+00
         21   -1    0    0  503  501  0.00000000000E+00  0.00000000000E+00  0.10741695277E+03  0.10741695277E+03  0.00000000000E+00 0.  1.
         21   -1    0    0  505  502 -0.00000000000E+00 -0.00000000000E+00 -0.22584555288E+04  0.22584555288E+04  0.00000000000E+00 0. -1.
         21    1    1    2  503  504  0.99944855222E+02  0.48029018364E+02 -0.25302774992E+03  0.27625857981E+03  0.00000000000E+00 0.  1.
         21    1    1    2  504  502  0.42151291703E+02 -0.28456461931E+02 -0.18648454903E+04  0.18655388510E+04  0.00000000000E+00 0. -1.
         21    1    1    2  505  506 -0.13157263466E+03 -0.67107281012E+02 -0.69590377421E+02  0.16327144878E+03  0.00000000000E+00 0.  1.
         21    1    1    2  506  501 -0.10523512266E+02  0.47534724580E+02  0.36425041695E+02  0.60803601980E+02  0.00000000000E+00 0.  1.
<scales pt_clust_3="132.60501" pt_clust_4="50.64982" pt_clust_5="14000.00000" pt_clust_6="48.68567"></scales>
<clustering>
<clus scale="   48.686">  1  6  2 -1</clus>
<clus scale="   50.650">  2  4  1 -1</clus>
<clus scale="  132.605">  2  3  1 -1</clus>
<clus scale="   48.686">  1  3  2 -1</clus>
</clustering>
</event>
<event>
 6    0  0.8520634E+002  0.8656126E+02  0.7546771E-02  0.1311399E+00
         21   -1    0    0  503  501  0.00000000000E+00  0.00000000000E+00  0.48781354580E+03  0.48781354580E+03  0.00000000000E+00 0.  1.
         21   -1    0    0  504  502 -0.00000000000E+00 -0.00000000000E+00 -0.15021573805E+04  0.15021573805E+04  0.00000000000E+00 0.  1.
         21    1    1    2  503  502 -0.45990863640E+02 -0.11374700626E+02  0.45897126989E+03  0.46140998031E+03  0.00000000000E+00 0.  1.
         21    1    1    2  504  505 -0.60476659186E+02  0.89541187638E+01 -0.10177377011E+04  0.10195722783E+04  0.00000000000E+00 0.  1.
         21    1    1    2  505  506  0.14421072179E+03 -0.10333009577E+02 -0.44481331047E+03  0.46772041278E+03  0.00000000000E+00 0.  1.
         21    1    1    2  506  501 -0.37743198965E+02  0.12753591439E+02 -0.10764093073E+02  0.41268254898E+02  0.00000000000E+00 0.  1.
<scales pt_clust_3="86.56126" pt_clust_4="61.21204" pt_clust_5="14000.00000" pt_clust_6="39.83972"></scales>
<clustering>
<clus scale="   39.840">  1  6  2 -1</clus>
<clus scale="   61.212">  2  4  1 -1</clus>
<clus scale="   86.561">  1  3  2 -1</clus>
<clus scale="   39.840">  1  3  2 -1</clus>
</clustering>
</event>
<event>
 6    0  0.8520634E+002  0.7558473E+02  0.7546771E-02  0.1342070E+00
         21   -1    0    0  504  501  0.00000000000E+00  0.00000000000E+00  0.15941704172E+03  0.15941704172E+03  0.00000000000E+00 0.  1.
         21   -1    0    0  503  502 -0.00000000000E+00 -0.00000000000E+00 -0.27554893522E+03  0.27554893522E+03  0.00000000000E+00 0. -1.
         21    1    1    2  503  506 -0.12209757076E+02  0.31622334390E+02 -0.18173689160E+03  0.18487116586E+03  0.00000000000E+00 0. -1.
         21    1    1    2  504  505 -0.56311133002E+01 -0.65265657373E+02  0.62485064052E+02  0.90530098304E+02  0.00000000000E+00 0.  1.
         21    1    1    2  505  502  0.81537789814E+02  0.30995699963E+02 -0.23712846658E+02  0.90396037969E+02  0.00000000000E+00 0. -1.
         21    1    1    2  506  501 -0.63696919438E+02  0.26476230208E+01  0.26832780710E+02  0.69168674804E+02  0.00000000000E+00 0.  1.
<scales pt_clust_3="33.89764" pt_clust_4="60.92046" pt_clust_5="75.58473" pt_clust_6="14000.00000"></scales>
<clustering>
<clus scale="   33.898">  2  3  1 -1</clus>
<clus scale="   60.920">  1  4  2 -1</clus>
<clus scale="   75.585">  2  5  1 -1</clus>
<clus scale="   60.920">  1  3  2 -1</clus>
</clustering>
</event>
<event>
 6    0  0.8520634E+002  0.1111133E+03  0.7546771E-02  0.1258522E+00
         21   -1    0    0  505  501  0.00000000000E+00  0.00000000000E+00  0.24061890868E+04  0.24061890868E+04  0.00000000000E+00 0. -1.
         21   -1    0    0  506  502 -0.00000000000E+00 -0.00000000000E+00 -0.71748181614E+02  0.71748181614E+02  0.00000000000E+00 0.  1.
         21    1    1    2  503  501 -0.39072573059E+02 -0.26952024072E+02  0.41192014593E+03  0.41464597452E+03  0.00000000000E+00 0. -1.
         21    1    1    2  504  502  0.17438709109E+03 -0.62594862006E+02  0.84840071713E+02  0.20378128485E+03  0.00000000000E+00 0.  1.
         21    1    1    2  505  504 -0.75252911517E+02  0.24933592142E+02  0.16523923279E+04  0.16542929275E+04  0.00000000000E+00 0. -1.
         21    1    1    2  506  503 -0.60061606513E+02  0.64613293937E+02  0.18528835963E+03  0.20521708151E+03  0.00000000000E+00 0. -1.
<scales pt_clust_3="47.46659" pt_clust_4="14000.00000" pt_clust_5="111.11329" pt_clust_6="89.00848"></scales>
<clustering>
<clus scale="   47.467">  1  3  2 -1</clus>
<clus scale="   89.008">  2  6  1 -1</clus>
<clus scale="  111.113">  1  5  2 -1</clus>
<clus scale="   47.467">  1  3  2 -1</clus>
</clustering>
</event>
<event>
 6    0  0.8520634E+002  0.8314490E+02  0.7546771E-02  0.1320356E+00
         21   -1    0    0  506  501  0.00000000000E+00  0.00000000000E+00  0.12037935608E+04  0.12037935608E+04  0.00000000000E+00 0. -1.
         21   -1    0    0  503  502 -0.00000000000E+00 -0.00000000000E+00 -0.88564230947E+02  0.88564230947E+02  0.00000000000E+00 0.  1.
         21    1    1    2  503  504  0.35816141947E+01  0.64514216169E+02 -0.39850249853E+02  0.75914125573E+02  0.00000000000E+00 0.  1.
         21    1    1    2  504  501  0.88806213862E+02 -0.79107564674E+02  0.52773202456E+03  0.54096731893E+03  0.00000000000E+00 0. -1.
         21    1    1    2  505  502 -0.31699043243E+02  0.15179983796E+02 -0.89684661114E+01  0.36272505220E+02  0.00000000000E+00 0.  1.
         21    1    1    2  506  505 -0.60688784814E+02 -0.58663529048E+00  0.63631602126E+03  0.63920384202E+03  0.00000000000E+00 0. -1.
<scales pt_clust_3="14000.00000" pt_clust_4="83.14490" pt_clust_5="35.14628" pt_clust_6="61.38340"></scales>
<clustering>
<clus scale="   35.146">  2  5  1 -1</clus>
<clus scale="   61.383">  1  6  2 -1</clus>
<clus scale="   83.145">  1  4  2 -1</clus>
<clus scale="   61.383">  1  3  2 -1</clus>
</clustering>
</event>
<event>
 6    0  0.8520634E+002  0.1075731E+03  0.7546771E-02  0.1265131E+00
         21   -1    0    0  505  501  0.00000000000E+00  0.00000000000E+00  0.12403260401E+03  0.12403260401E+03  0.00000000000E+00 0. -1.
         21   -1    0    0  504  502 -0.00000000000E+00 -0.00000000000E+00 -0.78043096897E+03  0.78043096897E+03  0.00000000000E+00 0. -1.
         21    1    1    2  503  502 -0.50831622315E+02 -0.15005698577E+02 -0.22375221064E+03  0.22994363784E+03  0.00000000000E+00 0. -1.
         21    1    1    2  504  506 -0.76364940338E+00  0.11255216621E+03 -0.36078223792E+03  0.37793173521E+03  0.00000000000E+00 0. -1.
         21    1    1    2  505  503  0.89234662268E+02 -0.79697367930E+02 -0.15959940089E+03  0.19946544605E+03  0.00000000000E+00 0. -1.
         21    1    1    2  506  501 -0.37639390550E+02 -0.17849099705E+02  0.87735484493E+02  0.97122753876E+02  0.00000000000E+00 0. -1.
<scales pt_clust_3="57.03486" pt_clust_4="14000.00000" pt_clust_5="107.57306" pt_clust_6="41.65710"></scales>
<clustering>
<clus scale="   41.657">  1  6  2 -1</clus>
<clus scale="   57.035">  2  3  1 -1</clus>
<clus scale="  107.573">  1  5  2 -1</clus>
<clus scale="   41.657">  1  3  2 -1</clus>
</clustering>
</event>
<event>
 6    0  0.8520634E+002  0.8110356E+02  0.7546771E-02  0.1325949E+00
         21   -1    0    0  504  501  0.00000000000E+00  0.00000000000E+00  0.58671871263E+03  0.58671871263E+03  0.00000000000E+00 0. -1.
         21   -1    0    0  505  502 -0.00000000000E+00 -0.00000000000E+00 -0.41628668922E+03  0.41628668922E+03  0.00000000000E+00 0. -1.
         21    1    1    2  503  501 -0.79856713232E+02  0.10718515905E+02  0.49664934319E+03  0.50314267492E+03  0.00000000000E+00 0. -1.
         21    1    1    2  504  502  0.12571096422E+02 -0.54026789168E+02  0.47210194423E+02  0.72840434310E+02  0.00000000000E+00 0. -1.
         21    1    1    2  505  506 -0.24684522303E+01 -0.67764505702E+02 -0.75378169306E+02  0.10139028502E+03  0.00000000000E+00 0. -1.
         21    1    1    2  506  503  0.69754069040E+02  0.11107277897E+03 -0.29804934490E+03  0.32563200759E+03  0.00000000000E+00 0. -1.
<scales pt_clust_3="81.10356" pt_clust_4="55.47005" pt_clust_5="69.13232" pt_clust_6="14000.00000"></scales>
<clustering>
<clus scale="   55.470">  1  4  2 -1</clus>
<clus scale="   69.132">  2  5  1 -1</clus>
<clus scale="   81.104">  1  3  2 -1</clus>
<clus scale="   55.470">  1  3  2 -1</clus>
</clustering>
</event>
<event>
 6    0  0.8520634E+002  0.1808714E+03  0.7546771E-02  0.1166962E+00
         21   -1    0    0  506  501  0.00000000000E+00  0.00000000000E+00  0.40079245212E+03  0.40079245212E+03  0.00000000000E+00 0. -1.
         21   -1    0    0  505  502 -0.00000000000E+00 -0.00000000000E+00 -0.18982893420E+03  0.18982893420E+03  0.00000000000E+00 0. -1.
         21    1    1    2  503  502  0.21711359612E+02  0.27971605223E+02 -0.47001224718E+02  0.58846486385E+02  0.00000000000E+00 0. -1.
         21    1    1    2  504  503  0.10893453025E+02  0.13742434795E+03 -0.59933892331E+02  0.15032029197E+03  0.00000000000E+00 0. -1.
         21    1    1    2  505  501 -0.63767118645E+02 -0.16726577298E+03  0.28031183853E+03  0.33259406346E+03  0.00000000000E+00 0. -1.
         21    1    1    2  506  504  0.31162306009E+02  0.18698198078E+01  0.37586796449E+02  0.48860544504E+02  0.00000000000E+00 0.  1.
<scales pt_clust_3="31.72066" pt_clust_4="31.72066" pt_clust_5="169.75784" pt_clust_6="31.21835"></scales>
<clustering>
<clus scale="   31.218">  1  6  2 -1</clus>
<clus scale="   31.721">  3  4 -1 -1</clus>
<clus scale="  169.758">  1  5  2 -1</clus>
<clus scale="   31.218">  1  3  2 -1</clus>
</clustering>
</event>
<event>
 6    0  0.8520634E+002  0.8643702E+02  0.7546771E-02  0.1311717E+00
         21   -1    0    0  503  501  0.00000000000E+00  0.00000000000E+00  0.44322764655E+03  0.44322764655E+03  0.00000000000E+00 0. -1.
         21   -1    0    0  505  502 -0.00000000000E+00 -0.00000000000E+00 -0.18131755360E+03  0.18131755360E+03  0.00000000000E+00 0. -1.
         21    1    1    2  503  506  0.78299152850E+02 -0.41689669262E+02  0.30590587898E+03  0.31850775918E+03  0.00000000000E+00 0. -1.
         21    1    1    2  504  501 -0.52512868112E+02  0.68066470326E+02  0.91502906361E+02  0.12555248931E+03  0.00000000000E+00 0. -1.
         21    1    1    2  505  504 -0.43975181363E+02 -0.55503881108E+02 -0.12652280696E+03  0.14499144138E+03  0.00000000000E+00 0. -1.
         21    1    1    2  506  502  0.18188896626E+02  0.29127080044E+02 -0.89758854332E+01  0.35493510275E+02  0.00000000000E+00 0. -1.
<scales pt_clust_3="14000.00000" pt_clust_4="86.43702" pt_clust_5="41.81941" pt_clust_6="34.33981"></scales>
<clustering>
<clus scale="   34.340">  2  6  1 -1</clus>
<clus scale="   41.819">  2  5  1 -1</clus>
<clus scale="   86.437">  2  4  1 -1</clus>
<clus scale="   86.437">  1  3  2 -1</clus>
</clustering>
</event>
<event>
 6    0  0.8520634E+002  0.1431560E+03  0.7546771E-02  0.1209144E+00
         21   -1    0    0  502  501  0.00000000000E+00  0.00000000000E+00  0.59596622208E+03  0.59596622208E+03  0.00000000000E+00 0. -1.
         21   -1    0    0  505  502 -0.00000000000E+00 -0.00000000000E+00 -0.89152911906E+03  0.89152911906E+03  0.00000000000E+00 0. -1.
         21    1    1    2  503  504  0.56565287610E+01 -0.19943069150E+03 -0.98425551943E+02  0.22246839394E+03  0.00000000000E+00 0. -1.
         21    1    1    2  504  501 -0.34074712030E+02  0.49028150443E+02  0.49933879024E+03  0.50289568796E+03  0.00000000000E+00 0. -1.
         21    1    1    2  505  506  0.10068114156E+02  0.48223329221E+02 -0.64386565209E+03  0.64574750045E+03  0.00000000000E+00 0. -1.
         21    1    1    2  506  503  0.18350069114E+02  0.10217921183E+03 -0.52610483185E+02  0.11638375878E+03  0.00000000000E+00 0. -1.
<scales pt_clust_3="143.15604" pt_clust_4="59.95090" pt_clust_5="49.26313" pt_clust_6="14000.00000"></scales>
<clustering>
<clus scale="   49.263">  2  5  1 -1</clus>
<clus scale="   59.951">  1  4  2 -1</clus>
<clus scale="  143.156">  1  3  2 -1</clus>
<clus scale="   59.951">  1  3  2 -1</clus>
</clustering>
</event>
<event>
 6    0  0.8520634E+002  0.6650014E+02  0.7546771E-02  0.1372416E+00
         21   -1    0    0  506  501  0.00000000000E+00  0.00000000000E+00  0.64652340856E+03  0.64652340856E+03  0.00000000000E+00 0. -1.
         21   -1    0    0  504  502 -0.00000000000E+00 -0.00000000000E+00 -0.67403476862E+02  0.67403476862E+02  0.00000000000E+00 0. -1.
         21    1    1    2  503  505 -0.24548732183E+02 -0.36167294078E+02  0.41623718956E+02  0.60359319019E+02  0.00000000000E+00 0.  1.
         21    1    1    2  504  503 -0.25842422010E+02 -0.17150481065E+02 -0.30657157178E+01  0.31166783424E+02  0.00000000000E+00 0. -1.
         21    1    1    2  505  501  0.14576024848E+01 -0.63720274867E+02  0.47565083797E+03  0.47990219596E+03  0.00000000000E+00 0. -1.
         21    1    1    2  506  502  0.48933551709E+02  0.11703805001E+03  0.64911090499E+02  0.14249858702E+03  0.00000000000E+00 0. -1.
<scales pt_clust_3="49.10760" pt_clust_4="31.01564" pt_clust_5="66.50014" pt_clust_6="14000.00000"></scales>
<clustering>
<clus scale="   31.016">  2  4  1 -1</clus>
<clus scale="   49.108">  2  3  1 -1</clus>
<clus scale="   66.500">  1  5  2 -1</clus>
<clus scale="   66.500">  1  3  2 -1</clus>
</clustering>
</event>
<event>
 6    0  0.8520634E+002  0.1666526E+03  0.7546771E-02  0.1181384E+00
         21   -1    0    0  502  501  0.00000000000E+00  0.00000000000E+00  0.98921555696E+03  0.98921555696E+03  0.00000000000E+00 0. -1.
         21   -1    0    0  506  502 -0.00000000000E+00 -0.00000000000E+00 -0.12143979743E+03  0.12143979743E+03  0.00000000000E+00 0. -1.
         21    1    1    2  503  504  0.68693615614E+02 -0.16396645143E+03  0.44284424335E+03  0.47719475467E+03  0.00000000000E+00 0. -1.
         21    1    1    2  504  501  0.29729013542E+02  0.55726105316E+02  0.46110652288E+03  0.46541211684E+03  0.00000000000E+00 0. -1.
         21    1    1    2  505  503 -0.41580898706E+02  0.97325303020E+02 -0.28916843233E+02  0.10971494687E+03  0.00000000000E+00 0. -1.
         21    1    1    2  506  505 -0.56841730450E+02  0.10915043094E+02 -0.72581634667E+01  0.58333536008E+02  0.00000000000E+00 0. -1.
<scales pt_clust_3="149.14558" pt_clust_4="63.16022" pt_clust_5="54.98695" pt_clust_6="54.98695"></scales>
<clustering>
<clus scale="   54.987">  5  6 -1 -1</clus>
<clus scale="   63.160">  1  4  2 -1</clus>
<clus scale="  149.146">  1  3  2 -1</clus>
<clus scale="   63.160">  1  3  2 -1</clus>
</clustering>
</event>
<event>
 6    0  0.8520634E+002  0.1011102E+03  0.7546771E-02  0.1277979E+00
         21   -1    0    0  505  501  0.00000000000E+00  0.00000000000E+00  0.82479982218E+02  0.82479982218E+02  0.00000000000E+00 0.  1.
         21   -1    0    0  504  502 -0.00000000000E+00 -0.00000000000E+00 -0.81485281656E+03  0.81485281656E+03  0.00000000000E+00 0.  1.
         21    1    1    2  503  506  0.11744283345E+02 -0.75225653185E+02 -0.62892929397E+02  0.98753975396E+02  0.00000000000E+00 0.  1.
         21    1    1    2  504  503  0.15993956557E+02  0.53020980525E+02 -0.54310538944E+03  0.54592169315E+03  0.00000000000E+00 0.  1.
         21    1    1    2  505  502  0.70481651835E+02  0.62587690308E+02 -0.11056188979E+03  0.14528872529E+03  0.00000000000E+00 0.  1.
         21    1    1    2  506  501 -0.98219891737E+02 -0.40383017648E+02 -0.15812625727E+02  0.10736840494E+03  0.00000000000E+00 0.  1.
<scales pt_clust_3="61.63095" pt_clust_4="55.38078" pt_clust_5="14000.00000" pt_clust_6="101.11020"></scales>
<clustering>
<clus scale="   55.381">  2  4  1 -1</clus>
<clus scale="   61.631">  2  3  1 -1</clus>
<clus scale="  101.110">  1  6  2 -1</clus>
<clus scale="  101.110">  1  3  2 -1</clus>
</clustering>
</event>
<event>
 6    0  0.8520634E+002  0.9163216E+02  0.7546771E-02  0.1298947E+00
         21   -1    0    0  503  501  0.00000000000E+00  0.00000000000E+00  0.21774570764E+03  0.21774570764E+03  0.00000000000E+00 0.  1.
         21   -1    0    0  506  502 -0.00000000000E+00 -0.00000000000E+00 -0.57883954632E+03  0.57883954632E+03  0.00000000000E+00 0. -1.
         21    1    1    2  503  504  0.22343645743E+01 -0.11766599683E+03  0.13285194809E+03  0.17748216616E+03  0.00000000000E+00 0.  1.
         21    1    1    2  504  502 -0.93312624699E+02  0.28053868114E+02 -0.45889753681E+03  0.46912814320E+03  0.00000000000E+00 0. -1.
         21    1    1    2  505  501  0.16066171125E+02  0.43964233340E+02  0.14687615632E+02  0.49058146324E+02  0.00000000000E+00 0. -1.
         21    1    1    2  506  505  0.75012088999E+02  0.45647895372E+02 -0.49735865595E+02  0.10091679828E+03  0.00000000000E+00 0. -1.
<scales pt_clust_3="82.46254" pt_clust_4="14000.00000" pt_clust_5="46.80786" pt_clust_6="91.63216"></scales>
<clustering>
<clus scale="   46.808">  1  5  2 -1</clus>
<clus scale="   82.463">  1  3  2 -1</clus>
<clus scale="   91.632">  1  6  2 -1</clus>
<clus scale="   46.808">  1  3  2 -1</clus>
</clustering>
</event>
<event>
 6    0  0.8520634E+002  0.9104349E+02  0.7546771E-02  0.1300344E+00
         21   -1    0    0  506  501  0.00000000000E+00  0.00000000000E+00  0.22897210255E+03  0.22897210255E+03  0.00000000000E+00 0.  1.
         21   -1    0    0  504  502 -0.00000000000E+00 -0.00000000000E+00 -0.86359957433E+03  0.86359957433E+03  0.00000000000E+00 0.  1.
         21    1    1    2  503  501  0.52130238936E+02  0.85321262885E+02  0.13874355492E+03  0.17101770009E+03  0.00000000000E+00 0.  1.
         21    1    1    2  504  503 -0.77263047856E+02 -0.36606284330E+02  0.40607441301E+02  0.94649685185E+02  0.00000000000E+00 0.  1.
         21    1    1    2  505  502 -0.43689768067E+02 -0.13234615398E+02 -0.54762590888E+03  0.54952532876E+03  0.00000000000E+00 0.  1.
         21    1    1    2  506  505  0.68822576987E+02 -0.35480363157E+02 -0.26635255913E+03  0.27737896284E+03  0.00000000000E+00 0.  1.
<scales pt_clust_3="14000.00000" pt_clust_4="91.04349" pt_clust_5="45.65031" pt_clust_6="56.28615"></scales>
<clustering>
<clus scale="   45.650">  2  5  1 -1</clus>
<clus scale="   56.286">  2  6  1 -1</clus>
<clus scale="   91.043">  2  4  1 -1</clus>
<clus scale="   91.043">  1  3  2 -1</clus>
</clustering>
</event>
<event>
 6    0  0.8520634E+002  0.1986288E+03  0.7546771E-02  0.1150901E+00
         21   -1    0    0  503  501  0.00000000000E+00  0.00000000000E+00  0.15457213407E+03  0.15457213407E+03  0.00000000000E+00 0.  1.
         21   -1    0    0  505  502 -0.00000000000E+00 -0.00000000000E+00 -0.45378246192E+03  0.45378246192E+03  0.00000000000E+00 0.  1.
         21    1    1    2  503  504 -0.21357145360E+02 -0.14949932866E+03 -0.12708842869E+03  0.19737691261E+03  0.00000000000E+00 0.  1.
         21    1    1    2  504  502 -0.26237245531E+02 -0.43910349013E+02 -0.18789657070E+03  0.19473477626E+03  0.00000000000E+00 0.  1.
         21    1    1    2  505  506 -0.45482623798E+01  0.14320942944E+03  0.11157158361E+02  0.14371537689E+03  0.00000000000E+00 0.  1.
         21    1    1    2  506  501  0.52142653272E+02  0.50200248224E+02  0.46175131832E+01  0.72527530221E+02  0.00000000000E+00 0.  1.
<scales pt_clust_3="180.59282" pt_clust_4="51.15185" pt_clust_5="58.35636" pt_clust_6="58.35636"></scales>
<clustering>
<clus scale="   51.152">  2  4  1 -1</clus>
<clus scale="   58.356">  5  6 -1 -1</clus>
<clus scale="  180.593">  2  3  1 -1</clus>
<clus scale="  198.629">  1  3  2 -1</clus>
</clustering>
</event>
<event>
 6    0  0.8520634E+002  0.8103153E+02  0.7546771E-02  0.1326149E+00
         21   -1    0    0  504  501  0.00000000000E+00  0.00000000000E+00  0.23550509898E+03  0.23550509898E+03  0.00000000000E+00 0. -1.
         21   -1    0    0  501  502 -0.00000000000E+00 -0.00000000000E+00 -0.61394283328E+03  0.61394283328E+03  0.00000000000E+00 0. -1.
         21    1    1    2  503  502 -0.16820832523E+02  0.66362170517E+02 -0.48975878034E+03  0.49452051626E+03  0.00000000000E+00 0. -1.
         21    1    1    2  504  505 -0.82745037696E+02  0.33308729602E+02  0.13967389022E+03  0.16572570211E+03  0.00000000000E+00 0. -1.
         21    1    1    2  505  506  0.68436412552E+02 -0.72576920509E+01  0.30529422324E+02  0.75287862796E+02  0.00000000000E+00 0. -1.
         21    1    1    2  506  503  0.31129457667E+02 -0.92413208068E+02 -0.58882266515E+02  0.11391385109E+03  0.00000000000E+00 0. -1.
<scales pt_clust_3="68.46078" pt_clust_4="81.03153" pt_clust_5="14000.00000" pt_clust_6="49.23776"></scales>
<clustering>
<clus scale="   68.461">  2  3  1 -1</clus>
<clus scale="   49.238">  2  6  1 -1</clus>
<clus scale="   81.032">  1  4  2 -1</clus>
<clus scale="   81.032">  1  3  2 -1</clus>
</clustering>
</event>
<event>
 6    0  0.8520634E+002  0.1778392E+03  0.7546771E-02  0.1169911E+00
         21   -1    0    0  503  501  0.00000000000E+00  0.00000000000E+00  0.58296238866E+03  0.58296238866E+03  0.00000000000E+00 0. -1.
         21   -1    0    0  505  502 -0.00000000000E+00 -0.00000000000E+00 -0.12654587531E+04  0.12654587531E+04  0.00000000000E+00 0. -1.
         21    1    1    2  503  506  0.11306107032E+03 -0.15090806530E+03  0.52096682580E+03  0.55404195092E+03  0.00000000000E+00 0. -1.
         21    1    1    2  504  502 -0.56963707842E+02  0.86215210212E+02 -0.11043957906E+04  0.11092195404E+04  0.00000000000E+00 0. -1.
         21    1    1    2  505  501  0.72776254493E+01 -0.34104124515E+02 -0.42167156304E+02  0.54718591099E+02  0.00000000000E+00 0.  1.
         21    1    1    2  506  504 -0.63374987929E+02  0.98796979604E+02 -0.56900243359E+02  0.13044105936E+03  0.00000000000E+00 0. -1.
<scales pt_clust_3="14000.00000" pt_clust_4="74.71015" pt_clust_5="34.87198" pt_clust_6="177.83918"></scales>
<clustering>
<clus scale="   34.872">  2  5  1 -1</clus>
<clus scale="   74.710">  2  4  1 -1</clus>
<clus scale="  177.839">  2  6  1 -1</clus>
<clus scale="  177.839">  1  3  2 -1</clus>
</clustering>
</event>
<event>
 6    0  0.8520634E+002  0.1118532E+03  0.7546771E-02  0.1257176E+00
         21   -1    0    0  506  501  0.00000000000E+00  0.00000000000E+00  0.41067416377E+03  0.41067416377E+03  0.00000000000E+00 0.  1.
         21   -1    0    0  504  502 -0.00000000000E+00 -0.00000000000E+00 -0.30946024702E+03  0.30946024702E+03  0.00000000000E+00 0.  1.
         21    1    1    2  503  501 -0.99340530916E+01 -0.45395177156E+02  0.89124749309E+02  0.10051183243E+03  0.00000000000E+00 0.  1.
         21    1    1    2  504  503 -0.10763302590E+03  0.80937183739E+02 -0.13834742072E+03  0.19306917102E+03  0.00000000000E+00 0.  1.
         21    1    1    2  505  502  0.39697773921E+02 -0.93947733585E+02 -0.10910930737E+03  0.14935504965E+03  0.00000000000E+00 0.  1.
         21    1    1    2  506  505  0.77869305074E+02  0.58405727002E+02  0.25954589554E+03  0.27719835770E+03  0.00000000000E+00 0.  1.
<scales pt_clust_3="46.46943" pt_clust_4="111.85323" pt_clust_5="14000.00000" pt_clust_6="72.20642"></scales>
<clustering>
<clus scale="   46.469">  1  3  2 -1</clus>
<clus scale="   72.206">  1  6  2 -1</clus>
<clus scale="  111.853">  1  4  2 -1</clus>
<clus scale="   46.469">  1  3  2 -1</clus>
</clustering>
</event>
<event>
 6    0  0.8520634E+002  0.8831195E+02  0.7546771E-02  0.1306992E+00
         21   -1    0    0  506  501  0.00000000000E+00  0.00000000000E+00  0.54780654544E+03  0.54780654544E+03  0.00000000000E+00 0.  1.
         21   -1    0    0  504  502 -0.00000000000E+00 -0.00000000000E+00 -0.19923653705E+04  0.19923653705E+04  0.00000000000E+00 0.  1.
         21    1    1    2  503  501  0.45302665796E+02  0.95424585211E+02  0.20875978611E+03  0.23396331185E+03  0.00000000000E+00 0.  1.
         21    1    1    2  504  503 -0.30170014526E+02 -0.28516728475E+02 -0.58616047558E+03  0.58762874054E+03  0.00000000000E+00 0.  1.
         21    1    1    2  505  502  0.65823602400E+02 -0.52704156983E+02 -0.13863821894E+04  0.13889442213E+04  0.00000000000E+00 0.  1.
         21    1    1    2  506  505 -0.80956253671E+02 -0.14203699753E+02  0.31922405382E+03  0.32963564224E+03  0.00000000000E+00 0.  1.
<scales pt_clust_3="14000.00000" pt_clust_4="41.51426" pt_clust_5="88.31195" pt_clust_6="82.32119"></scales>
<clustering>
<clus scale="   41.514">  2  4  1 -1</clus>
<clus scale="   82.321">  1  6  2 -1</clus>
<clus scale="   88.312">  2  5  1 -1</clus>
<clus scale="   82.321">  1  3  2 -1</clus>
</clustering>
</event>
<event>
 6    0  0.8520634E+002  0.1082699E+03  0.7546771E-02  0.1263808E+00
         21   -1    0    0  503  501  0.00000000000E+00  0.00000000000E+00  0.13207038953E+03  0.13207038953E+03  0.00000000000E+00 0. -1.
         21   -1    0    0  505  502 -0.00000000000E+00 -0.00000000000E+00 -0.14491243167E+04  0.14491243167E+04  0.00000000000E+00 0. -1.
         21    1    1    2  503  506 -0.10279974438E+03 -0.87790154886E+01  0.74962301278E+02  0.12753119293E+03  0.00000000000E+00 0. -1.
         21    1    1    2  504  502 -0.69116207257E+01 -0.38965141082E+02 -0.16600385248E+03  0.17065559399E+03  0.00000000000E+00 0. -1.
         21    1    1    2  505  501  0.14850272841E+03  0.73475968600E+02 -0.21748688811E+03  0.27340871384E+03  0.00000000000E+00 0. -1.
         21    1    1    2  506  504 -0.38791363307E+02 -0.25731812030E+02 -0.10085254879E+04  0.10095992055E+04  0.00000000000E+00 0. -1.
<scales pt_clust_3="108.26986" pt_clust_4="39.57338" pt_clust_5="14000.00000" pt_clust_6="71.70244"></scales>
<clustering>
<clus scale="   39.573">  2  4  1 -1</clus>
<clus scale="   71.702">  2  6  1 -1</clus>
<clus scale="  108.270">  1  3  2 -1</clus>
<clus scale="  108.270">  1  3  2 -1</clus>
</clustering>
</event>
<event>
 6    0  0.8520634E+002  0.9154513E+02  0.7546771E-02  0.1299153E+00
         21   -1    0    0  506  501  0.00000000000E+00  0.00000000000E+00  0.30892060074E+03  0.30892060074E+03  0.00000000000E+00 0.  1.
         21   -1    0    0  503  502 -0.00000000000E+00 -0.00000000000E+00 -0.97600107441E+02  0.97600107441E+02  0.00000000000E+00 0. -1.
         21    1    1    2  503  504 -0.76886528727E+02  0.62834498881E+02 -0.18514779338E+02  0.10100747301E+03  0.00000000000E+00 0.  1.
         21    1    1    2  504  505  0.63218901836E+02 -0.48898836410E+02  0.36164766048E+02  0.87724660472E+02  0.00000000000E+00 0. -1.
         21    1    1    2  505  501  0.37687017788E+02 -0.42559102701E+02  0.14944021712E+03  0.15988735730E+03  0.00000000000E+00 0. -1.
         21    1    1    2  506  502 -0.24019390896E+02  0.28623440230E+02  0.44230289465E+02  0.57901217395E+02  0.00000000000E+00 0. -1.
<scales pt_clust_3="14000.00000" pt_clust_4="91.54513" pt_clust_5="34.44755" pt_clust_6="37.36619"></scales>
<clustering>
<clus scale="   37.366">  1  6  2 -1</clus>
<clus scale="   34.448">  1  5  2 -1</clus>
<clus scale="   91.545">  1  4  2 -1</clus>
<clus scale="   37.366">  1  3  2 -1</clus>
</clustering>
</event>
<event>
 6    0  0.8520634E+002  0.1060043E+03  0.7546771E-02  0.1268153E+00
         21   -1    0    0  504  501  0.00000000000E+00  0.00000000000E+00  0.47356278979E+03  0.47356278979E+03  0.00000000000E+00 0.  1.
         21   -1    0    0  505  502 -0.00000000000E+00 -0.00000000000E+00 -0.81586609166E+03  0.81586609166E+03  0.00000000000E+00 0. -1.
         21    1    1    2  503  506  0.15157515256E+02 -0.39466014949E+02 -0.18955772226E+03  0.19421494967E+03  0.00000000000E+00 0. -1.
         21    1    1    2  504  502 -0.59352901897E+01 -0.77736262544E+02  0.11625732728E+03  0.13997828521E+03  0.00000000000E+00 0.  1.
         21    1    1    2  505  503  0.30753842002E+02 -0.24358170554E+02 -0.59567893550E+03  0.59696944099E+03  0.00000000000E+00 0. -1.
         21    1    1    2  506  501 -0.39976067068E+02  0.14156044805E+03  0.32667602862E+03  0.35826620558E+03  0.00000000000E+00 0.  1.
<scales pt_clust_3="73.88101" pt_clust_4="106.00429" pt_clust_5="39.23161" pt_clust_6="14000.00000"></scales>
<clustering>
<clus scale="   39.232">  2  5  1 -1</clus>
<clus scale="   73.881">  2  3  1 -1</clus>
<clus scale="  106.004">  1  4  2 -1</clus>
<clus scale="  106.004">  1  3  2 -1</clus>
</clustering>
</event>
<event>
 6    0  0.8520634E+002  0.1450664E+03  0.7546771E-02  0.1206670E+00
         21   -1    0    0  505  501  0.00000000000E+00  0.00000000000E+00  0.61121594710E+03  0.61121594710E+03  0.00000000000E+00 0. -1.
         21   -1    0    0  504  502 -0.00000000000E+00 -0.00000000000E+00 -0.81647073194E+03  0.81647073194E+03  0.00000000000E+00 0. -1.
         21    1    1    2  503  502  0.35692158223E+02  0.12714933957E+02 -0.68843525415E+02  0.78581363540E+02  0.00000000000E+00 0. -1.
         21    1    1    2  504  506  0.51990062832E+02  0.59056550744E+01 -0.47588354016E+03  0.47875148793E+03  0.00000000000E+00 0. -1.
         21    1    1    2  505  503 -0.14009873739E+03 -0.78032103682E+01  0.59395490362E+03  0.61030400117E+03  0.00000000000E+00 0. -1.
         21    1    1    2  506  501  0.52416516332E+02 -0.10817378664E+02 -0.25448262288E+03  0.26004982640E+03  0.00000000000E+00 0. -1.
<scales pt_clust_3="37.88931" pt_clust_4="37.88103" pt_clust_5="139.91594" pt_clust_6="37.88103"></scales>
<clustering>
<clus scale="   37.881">  4  6 -1 -1</clus>
<clus scale="   37.889">  2  3  1 -1</clus>
<clus scale="  139.916">  1  5  2 -1</clus>
<clus scale="  139.916">  1  3  2 -1</clus>
</clustering>
</event>
<event>
 6    0  0.8520634E+002  0.1048201E+03  0.7546771E-02  0.1270474E+00
         21   -1    0    0  506  501  0.00000000000E+00  0.00000000000E+00  0.96581406581E+02  0.96581406581E+02  0.00000000000E+00 0.  1.
         21   -1    0    0  503  502 -0.00000000000E+00 -0.00000000000E+00 -0.27011509813E+03  0.27011509813E+03  0.00000000000E+00 0.  1.
         21    1    1    2  503  504 -0.29314197507E+02  0.27293471310E+02 -0.69371019017E+02  0.80103645554E+02  0.00000000000E+00 0.  1.
         21    1    1    2  504  501  0.12431088894E+03  0.61897370129E+00 -0.63188634578E+02  0.13945029142E+03  0.00000000000E+00 0.  1.
         21    1    1    2  505  502 -0.52750693274E+00 -0.39600220160E+02 -0.33123999687E+02  0.51629982138E+02  0.00000000000E+00 0.  1.
         21    1    1    2  506  505 -0.94469184499E+02  0.11687775149E+02 -0.78500382722E+01  0.95512585604E+02  0.00000000000E+00 0.  1.
<scales pt_clust_3="32.77084" pt_clust_4="104.82013" pt_clust_5="39.60373" pt_clust_6="14000.00000"></scales>
<clustering>
<clus scale="   39.604">  2  5  1 -1</clus>
<clus scale="   32.771">  2  3  1 -1</clus>
<clus scale="  104.820">  2  4  1 -1</clus>
<clus scale="  104.820">  1  3  2 -1</clus>
</clustering>
</event>
<event>
 6    0  0.8520634E+002  0.1092393E+03  0.7546771E-02  0.1261985E+00
         21   -1    0    0  503  501  0.00000000000E+00  0.00000000000E+00  0.25988458688E+03  0.25988458688E+03  0.00000000000E+00 0.  1.
         21   -1    0    0  506  502 -0.00000000000E+00 -0.00000000000E+00 -0.31382639216E+03  0.31382639216E+03  0.00000000000E+00 0. -1.
         21    1    1    2  503  504  0.79924483453E+02  0.10890630855E+03 -0.51639557905E+02  0.14462071442E+03  0.00000000000E+00 0. -1.
         21    1    1    2  504  502 -0.60686997602E+02  0.26792958677E+02 -0.36177136441E+02  0.75561627257E+02  0.00000000000E+00 0. -1.
         21    1    1    2  505  501  0.10043153511E+02 -0.10926199293E+03  0.17524335464E+03  0.20675899346E+03  0.00000000000E+00 0.  1.
         21    1    1    2  506  505 -0.29280639361E+02 -0.26437274300E+02 -0.14136846557E+03  0.14676964390E+03  0.00000000000E+00 0. -1.
<scales pt_clust_3="109.23926" pt_clust_4="72.61363" pt_clust_5="14000.00000" pt_clust_6="39.44978"></scales>
<clustering>
<clus scale="   39.450">  2  6  1 -1</clus>
<clus scale="   72.614">  2  4  1 -1</clus>
<clus scale="  109.239">  2  3  1 -1</clus>
<clus scale="  109.239">  1  3  2 -1</clus>
</clustering>
</event>
<event>
 6    0  0.8520634E+002  0.6503122E+02  0.7546771E-02  0.1377854E+00
         21   -1    0    0  504  501  0.00000000000E+00  0.00000000000E+00  0.11980058329E+03  0.11980058329E+03  0.00000000000E+00 0. -1.
         21   -1    0    0  506  502 -0.00000000000E+00 -0.00000000000E+00 -0.42398526716E+03  0.42398526716E+03  0.00000000000E+00 0. -1.
         21    1    1    2  503  502  0.40071281587E+01 -0.51259435873E+02 -0.85253502435E+02  0.99557754693E+02  0.00000000000E+00 0. -1.
         21    1    1    2  504  503 -0.55334267086E+02  0.53425474603E+02 -0.13237357417E+02  0.78047357943E+02  0.00000000000E+00 0. -1.
         21    1    1    2  505  501 -0.13309437905E+02 -0.49270552972E+02  0.65730553988E+02  0.83217992376E+02  0.00000000000E+00 0. -1.
         21    1    1    2  506  505  0.64636576833E+02  0.47104514242E+02 -0.27142437801E+03  0.28296274544E+03  0.00000000000E+00 0. -1.
<scales pt_clust_3="59.06473" pt_clust_4="14000.00000" pt_clust_5="51.03654" pt_clust_6="65.03122"></scales>
<clustering>
<clus scale="   51.037">  1  5  2 -1</clus>
<clus scale="   59.065">  2  3  1 -1</clus>
<clus scale="   65.031">  2  6  1 -1</clus>
<clus scale="   51.037">  1  3  2 -1</clus>
</clustering>
</event>
<event>
 6    0  0.8520634E+002  0.1008832E+03  0.7546771E-02  0.1278450E+00
         21   -1    0    0  504  501  0.00000000000E+00  0.00000000000E+00  0.88899529970E+03  0.88899529970E+03  0.00000000000E+00 0. -1.
         21   -1    0    0  505  502 -0.00000000000E+00 -0.00000000000E+00 -0.44604197179E+03  0.44604197179E+03  0.00000000000E+00 0. -1.
         21    1    1    2  503  502  0.10296276185E+02  0.54809564231E+02 -0.32867517555E+03  0.33337287331E+03  0.00000000000E+00 0. -1.
         21    1    1    2  504  503 -0.64326831751E+02 -0.61841752999E+02  0.70485974713E+02  0.11371286791E+03  0.00000000000E+00 0.  1.
         21    1    1    2  505  506  0.86992050477E+02  0.13076550672E+02 -0.72248252540E+02  0.11383506937E+03  0.00000000000E+00 0. -1.
         21    1    1    2  506  501 -0.32961494911E+02 -0.60443619046E+01  0.77339078129E+03  0.77411646090E+03  0.00000000000E+00 0. -1.
<scales pt_clust_3="55.52683" pt_clust_4="100.88316" pt_clust_5="14000.00000" pt_clust_6="33.51111"></scales>
<clustering>
<clus scale="   33.511">  1  6  2 -1</clus>
<clus scale="   55.527">  2  3  1 -1</clus>
<clus scale="  100.883">  1  4  2 -1</clus>
<clus scale="   33.511">  1  3  2 -1</clus>
</clustering>
</event>
<event>
 6    0  0.8520634E+002  0.8829191E+02  0.7546771E-02  0.1307042E+00
         21   -1    0    0  503  501  0.00000000000E+00  0.00000000000E+00  0.41880457717E+02  0.41880457717E+02  0.00000000000E+00 0. -1.
         21   -1    0    0  506  502 -0.00000000000E+00 -0.00000000000E+00 -0.16082844815E+04  0.16082844815E+04  0.00000000000E+00 0. -1.
         21    1    1    2  503  505 -0.10952096817E+01  0.71698688269E+02 -0.23930764405E+02  0.75594860068E+02  0.00000000000E+00 0. -1.
         21    1    1    2  504  501 -0.51734923885E+02  0.79911992925E+01 -0.47456333824E+02  0.70657379201E+02  0.00000000000E+00 0. -1.
         21    1    1    2  505  502  0.67476947225E+02  0.13286102895E+02 -0.57741996073E+03  0.58150104900E+03  0.00000000000E+00 0. -1.
         21    1    1    2  506  504 -0.14646813658E+02 -0.92975990456E+02 -0.91759696485E+03  0.92241165097E+03  0.00000000000E+00 0. -1.
<scales pt_clust_3="88.29191" pt_clust_4="52.34846" pt_clust_5="65.46688" pt_clust_6="14000.00000"></scales>
<clustering>
<clus scale="   52.348">  1  4  2 -1</clus>
<clus scale="   65.467">  2  5  1 -1</clus>
<clus scale="   88.292">  1  3  2 -1</clus>
<clus scale="   52.348">  1  3  2 -1</clus>
</clustering>
</event>
<event>
 6    0  0.8520634E+002  0.1104612E+03  0.7546771E-02  0.1259718E+00
         21   -1    0    0  506  501  0.00000000000E+00  0.00000000000E+00  0.93228480983E+02  0.93228480983E+02  0.00000000000E+00 0. -1.
         21   -1    0    0  505  502 -0.00000000000E+00 -0.00000000000E+00 -0.68979576556E+03  0.68979576556E+03  0.00000000000E+00 0. -1.
         21    1    1    2  503  502  0.93145060538E+02  0.78864603897E+02 -0.14024095770E+03  0.18591168405E+03  0.00000000000E+00 0. -1.
         21    1    1    2  504  501 -0.37927827128E+02  0.43474399248E+02 -0.15103655425E+03  0.16168050031E+03  0.00000000000E+00 0. -1.
         21    1    1    2  505  504 -0.36348608155E+02 -0.10185776412E+02 -0.31868826902E+03  0.32091616377E+03  0.00000000000E+00 0. -1.
         21    1    1    2  506  503 -0.18868625255E+02 -0.11215322673E+03  0.13398496386E+02  0.11451589842E+03  0.00000000000E+00 0. -1.
<scales pt_clust_3="110.46122" pt_clust_4="66.13596" pt_clust_5="37.74879" pt_clust_6="14000.00000"></scales>
<clustering>
<clus scale="   37.749">  2  5  1 -1</clus>
<clus scale="   66.136">  2  4  1 -1</clus>
<clus scale="  110.461">  2  3  1 -1</clus>
<clus scale="  110.461">  1  3  2 -1</clus>
</clustering>
</event>
<event>
 6    0  0.8520634E+002  0.1000767E+03  0.7546771E-02  0.1280135E+00
         21   -1    0    0  504  501  0.00000000000E+00  0.00000000000E+00  0.91573007203E+02  0.91573007203E+02  0.00000000000E+00 0. -1.
         21   -1    0    0  503  502 -0.00000000000E+00 -0.00000000000E+00 -0.49211413503E+03  0.49211413503E+03  0.00000000000E+00 0. -1.
         21    1    1    2  503  506  0.19615069075E+02  0.39166859563E+02 -0.21390886652E+03  0.21834788068E+03  0.00000000000E+00 0. -1.
         21    1    1    2  504  505  0.10052891540E+03 -0.57444230218E+02 -0.36063252668E+02  0.12127019671E+03  0.00000000000E+00 0. -1.
         21    1    1    2  505  502 -0.23719459208E+02  0.22979647584E+02 -0.14352245748E+03  0.14727312297E+03  0.00000000000E+00 0. -1.
         21    1    1    2  506  501 -0.96424525264E+02 -0.47022769297E+01 -0.70465511631E+01  0.96795941878E+02  0.00000000000E+00 0. -1.
<scales pt_clust_3="53.70897" pt_clust_4="14000.00000" pt_clust_5="33.02540" pt_clust_6="100.07666"></scales>
<clustering>
<clus scale="   33.025">  2  5  1 -1</clus>
<clus scale="   53.709">  2  3  1 -1</clus>
<clus scale="  100.077">  1  6  2 -1</clus>
<clus scale="  100.077">  1  3  2 -1</clus>
</clustering>
</event>
<event>
 6    0  0.8520634E+002  0.1707435E+03  0.7546771E-02  0.1177075E+00
         21   -1    0    0  505  501  0.00000000000E+00  0.00000000000E+00  0.14231301355E+04  0.14231301355E+04  0.00000000000E+00 0.  1.
         21   -1    0    0  506  502 -0.00000000000E+00 -0.00000000000E+00 -0.29709437577E+02  0.29709437577E+02  0.00000000000E+00 0.  1.
         21    1    1    2  503  501 -0.91840056727E+02  0.64473112616E+02  0.30346506170E+03  0.32354663024E+03  0.00000000000E+00 0.  1.
         21    1    1    2  504  502  0.15772351972E+03 -0.81812715147E+02  0.69601953089E+03  0.71834059917E+03  0.00000000000E+00 0.  1.
         21    1    1    2  505  504 -0.29478245051E+02 -0.84870702387E+01  0.33800278570E+03  0.33939192747E+03  0.00000000000E+00 0.  1.
         21    1    1    2  506  503 -0.36405217939E+02  0.25826672770E+02  0.55933319604E+02  0.71560416164E+02  0.00000000000E+00 0.  1.
<scales pt_clust_3="30.51889" pt_clust_4="163.74324" pt_clust_5="30.67568" pt_clust_6="30.51889"></scales>
<clustering>
<clus scale="   30.519">  3  6 -1 -1</clus>
<clus scale="   30.676">  1  5  2 -1</clus>
<clus scale="  163.743">  1  4  2 -1</clus>
<clus scale="   30.676">  1  3  2 -1</clus>
</clustering>
</event>
<event>
 6    0  0.8520634E+002  0.1034843E+03  0.7546771E-02  0.1273135E+00
         21   -1    0    0  506  501  0.00000000000E+00  0.00000000000E+00  0.38859882037E+02  0.38859882037E+02  0.00000000000E+00 0.  1.
         21   -1    0    0  504  502 -0.00000000000E+00 -0.00000000000E+00 -0.25499539284E+04  0.25499539284E+04  0.00000000000E+00 0.  1.
         21    1    1    2  503  501 -0.13792057800E+03 -0.46983989852E+02 -0.19381022587E+03  0.24247058541E+03  0.00000000000E+00 0.  1.
         21    1    1    2  504  503 -0.23505208003E+02 -0.21802120439E+02 -0.93153752268E+03  0.93208904264E+03  0.00000000000E+00 0.  1.
         21    1    1    2  505  502  0.11753779036E+03  0.34838018864E+02 -0.13298719494E+04  0.13355104722E+04  0.00000000000E+00 0.  1.
         21    1    1    2  506  505  0.43887995639E+02  0.33948091427E+02 -0.55874348425E+02  0.78743710128E+02  0.00000000000E+00 0.  1.
<scales pt_clust_3="14000.00000" pt_clust_4="32.05975" pt_clust_5="103.48427" pt_clust_6="54.15728"></scales>
<clustering>
<clus scale="   32.060">  2  4  1 -1</clus>
<clus scale="   54.157">  1  6  2 -1</clus>
<clus scale="  103.484">  2  5  1 -1</clus>
<clus scale="   54.157">  1  3  2 -1</clus>
</clustering>
</event>
<event>
 6    0  0.8520634E+002  0.7144820E+02  0.7546771E-02  0.1355236E+00
         21   -1    0    0  503  501  0.00000000000E+00  0.00000000000E+00  0.23018641783E+03  0.23018641783E+03  0.00000000000E+00 0. -1.
         21   -1    0    0  504  502 -0.00000000000E+00 -0.00000000000E+00 -0.75132947391E+03  0.75132947391E+03  0.00000000000E+00 0. -1.
         21    1    1    2  503  505  0.48985181831E+02 -0.85186819774E+01  0.19012614610E+03  0.19651989063E+03  0.00000000000E+00 0. -1.
         21    1    1    2  504  506 -0.11721652159E+03 -0.59934625240E+01 -0.67149746946E+03  0.68167769951E+03  0.00000000000E+00 0. -1.
         21    1    1    2  505  502  0.47686274739E+02 -0.13212539712E+02 -0.46793005125E+02  0.68103871644E+02  0.00000000000E+00 0.  1.
         21    1    1    2  506  501  0.20545065015E+02  0.27724684213E+02  0.70212724030E+01  0.35214429959E+02  0.00000000000E+00 0. -1.
<scales pt_clust_3="71.44820" pt_clust_4="14000.00000" pt_clust_5="50.14151" pt_clust_6="34.50736"></scales>
<clustering>
<clus scale="   34.507">  1  6  2 -1</clus>
<clus scale="   50.142">  2  5  1 -1</clus>
<clus scale="   71.448">  1  3  2 -1</clus>
<clus scale="   34.507">  1  3  2 -1</clus>
</clustering>
</event>
<event>
 6    0  0.8520634E+002  0.2046226E+03  0.7546771E-02  0.1145896E+00
         21   -1    0    0  506  501  0.00000000000E+00  0.00000000000E+00  0.35360305337E+02  0.35360305337E+02  0.00000000000E+00 0.  1.
         21   -1    0    0  504  502 -0.00000000000E+00 -0.00000000000E+00 -0.33394069515E+04  0.33394069515E+04  0.00000000000E+00 0.  1.
         21    1    1    2  503  501  0.78486016205E+02  0.20036032578E+03 -0.64296893285E+03  0.67802165415E+03  0.00000000000E+00 0.  1.
         21    1    1    2  504  503  0.40958450214E+02  0.31879928542E+02 -0.38933951242E+03  0.39278388513E+03  0.00000000000E+00 0.  1.
         21    1    1    2  505  502 -0.96574770084E+02 -0.21199737945E+03 -0.22588188431E+04  0.22707998901E+04  0.00000000000E+00 0.  1.
         21    1    1    2  506  505 -0.22869696335E+02 -0.20242874875E+02 -0.12919357839E+02  0.33161827463E+02  0.00000000000E+00 0.  1.
<scales pt_clust_3="14000.00000" pt_clust_4="49.82334" pt_clust_5="204.62263" pt_clust_6="30.54173"></scales>
<clustering>
<clus scale="   30.542">  1  6  2 -1</clus>
<clus scale="   49.823">  2  4  1 -1</clus>
<clus scale="  204.623">  2  5  1 -1</clus>
<clus scale="   30.542">  1  3  2 -1</clus>
</clustering>
</event>
<event>
 6    0  0.8520634E+002  0.1136015E+03  0.7546771E-02  0.1254042E+00
         21   -1    0    0  504  501  0.00000000000E+00  0.00000000000E+00  0.62531778129E+03  0.62531778129E+03  0.00000000000E+00 0. -1.
         21   -1    0    0  505  502 -0.00000000000E+00 -0.00000000000E+00 -0.19397194966E+03  0.19397194966E+03  0.00000000000E+00 0. -1.
         21    1    1    2  503  506  0.25062213766E+02 -0.87615858700E+02 -0.15486591489E+03  0.17968891132E+03  0.00000000000E+00 0. -1.
         21    1    1    2  504  503 -0.27964299342E+02  0.47311752309E+02  0.80922931738E+02  0.97820881336E+02  0.00000000000E+00 0. -1.
         21    1    1    2  505  501 -0.43150038461E+02  0.50865902070E+02  0.48630950881E+03  0.49086271418E+03  0.00000000000E+00 0. -1.
         21    1    1    2  506  502  0.46052124037E+02 -0.10561795680E+02  0.18979305975E+02  0.50917224115E+02  0.00000000000E+00 0.  1.
<scales pt_clust_3="113.60146" pt_clust_4="53.43916" pt_clust_5="14000.00000" pt_clust_6="47.24775"></scales>
<clustering>
<clus scale="   47.248">  2  6  1 -1</clus>
<clus scale="   53.439">  1  4  2 -1</clus>
<clus scale="  113.601">  2  3  1 -1</clus>
<clus scale="   53.439">  1  3  2 -1</clus>
</clustering>
</event>
<event>
 6    0  0.8520634E+002  0.7150759E+02  0.7546771E-02  0.1355040E+00
         21   -1    0    0  506  501  0.00000000000E+00  0.00000000000E+00  0.16085563299E+03  0.16085563299E+03  0.00000000000E+00 0.  1.
         21   -1    0    0  504  502 -0.00000000000E+00 -0.00000000000E+00 -0.45100930626E+03  0.45100930626E+03  0.00000000000E+00 0.  1.
         21    1    1    2  503  501  0.49231683562E+02 -0.15082270708E+02  0.31419713698E+02  0.60319416152E+02  0.00000000000E+00 0.  1.
         21    1    1    2  504  505 -0.63894263834E+02  0.36500578723E+02 -0.34912892816E+03  0.35679935212E+03  0.00000000000E+00 0.  1.
         21    1    1    2  505  503  0.20365715164E+02 -0.77813773938E+02 -0.52941752339E+02  0.96294210155E+02  0.00000000000E+00 0.  1.
         21    1    1    2  506  502 -0.57031348918E+01  0.56395465923E+02  0.80497293526E+02  0.98451960820E+02  0.00000000000E+00 0.  1.
<scales pt_clust_3="51.49013" pt_clust_4="71.50759" pt_clust_5="14000.00000" pt_clust_6="55.29556"></scales>
<clustering>
<clus scale="   51.490">  1  3  2 -1</clus>
<clus scale="   55.296">  1  6  2 -1</clus>
<clus scale="   71.508">  2  4  1 -1</clus>
<clus scale="   51.490">  1  3  2 -1</clus>
</clustering>
</event>
<event>
 6    0  0.8520634E+002  0.1447611E+03  0.7546771E-02  0.1207062E+00
         21   -1    0    0  505  501  0.00000000000E+00  0.00000000000E+00  0.96551602247E+03  0.96551602247E+03  0.00000000000E+00 0.  1.
         21   -1    0    0  506  502 -0.00000000000E+00 -0.00000000000E+00 -0.26154126306E+03  0.26154126306E+03  0.00000000000E+00 0.  1.
         21    1    1    2  503  502  0.30132439077E+01  0.12297579201E+03  0.61238458507E+03  0.62461748702E+03  0.00000000000E+00 0.  1.
         21    1    1    2  504  501 -0.18804122477E+02  0.42030590768E+02  0.69061115678E+02  0.83003634144E+02  0.00000000000E+00 0. -1.
         21    1    1    2  505  503 -0.56616465962E+02 -0.38064417069E+02  0.24440928728E+03  0.25375228821E+03  0.00000000000E+00 0. -1.
         21    1    1    2  506  504  0.72407344531E+02 -0.12694196571E+03 -0.22188022861E+03  0.26568387615E+03  0.00000000000E+00 0.  1.
<scales pt_clust_3="144.76114" pt_clust_4="46.04526" pt_clust_5="67.23697" pt_clust_6="14000.00000"></scales>
<clustering>
<clus scale="   46.045">  1  4  2 -1</clus>
<clus scale="   67.237">  1  5  2 -1</clus>
<clus scale="  144.761">  1  3  2 -1</clus>
<clus scale="   46.045">  1  3  2 -1</clus>
</clustering>
</event>
<event>
 6    0  0.8520634E+002  0.2114807E+03  0.7546771E-02  0.1140399E+00
         21   -1    0    0  505  501  0.00000000000E+00  0.00000000000E+00  0.64984241190E+03  0.64984241190E+03  0.00000000000E+00 0. -1.
         21   -1    0    0  501  502 -0.00000000000E+00 -0.00000000000E+00 -0.89030914417E+02  0.89030914417E+02  0.00000000000E+00 0. -1.
         21    1    1    2  503  506 -0.11472810166E+03 -0.12055604312E+03  0.11097659913E+03  0.20003025370E+03  0.00000000000E+00 0. -1.
         21    1    1    2  504  503  0.68953262315E+01  0.50262489116E+02  0.96384058481E+02  0.10892084312E+03  0.00000000000E+00 0.  1.
         21    1    1    2  505  504  0.12221467810E+03  0.10156550606E+03  0.36122616538E+03  0.39463441578E+03  0.00000000000E+00 0. -1.
         21    1    1    2  506  502 -0.14381902674E+02 -0.31271952059E+02 -0.77753255076E+01  0.35287813716E+02  0.00000000000E+00 0. -1.
<scales pt_clust_3="32.16746" pt_clust_4="37.64842" pt_clust_5="210.14467" pt_clust_6="32.16746"></scales>
<clustering>
<clus scale="   32.167">  3  6 -1 -1</clus>
<clus scale="   37.648">  4  5 -1 -1</clus>
<clus scale="  210.145">  1  4  2 -1</clus>
<clus scale="  210.145">  1  3  2 -1</clus>
</clustering>
</event>
<event>
 6    0  0.8520634E+002  0.9281826E+02  0.7546771E-02  0.1296167E+00
         21   -1    0    0  505  501  0.00000000000E+00  0.00000000000E+00  0.30168915713E+02  0.30168915713E+02  0.00000000000E+00 0. -1.
         21   -1    0    0  506  502 -0.00000000000E+00 -0.00000000000E+00 -0.17849414689E+04  0.17849414689E+04  0.00000000000E+00 0. -1.
         21    1    1    2  503  501 -0.54122244372E+02  0.52445273879E+02 -0.95680107238E+02  0.12179658045E+03  0.00000000000E+00 0. -1.
         21    1    1    2  504  503 -0.34065349326E+02 -0.92320838859E+02 -0.15520199918E+03  0.18376954552E+03  0.00000000000E+00 0. -1.
         21    1    1    2  505  502  0.68336617998E+02  0.67503611795E+02 -0.11632915033E+04  0.11672505098E+04  0.00000000000E+00 0. -1.
         21    1    1    2  506  504  0.19850975701E+02 -0.27628046815E+02 -0.34059894344E+03  0.34229374881E+03  0.00000000000E+00 0. -1.
<scales pt_clust_3="72.84316" pt_clust_4="92.81826" pt_clust_5="14000.00000" pt_clust_6="34.02014"></scales>
<clustering>
<clus scale="   34.020">  2  6  1 -1</clus>
<clus scale="   72.843">  1  3  2 -1</clus>
<clus scale="   92.818">  1  4  2 -1</clus>
<clus scale="   72.843">  1  3  2 -1</clus>
</clustering>
</event>
<event>
 6    0  0.8520634E+002  0.7869820E+02  0.7546771E-02  0.1332787E+00
         21   -1    0    0  505  501  0.00000000000E+00  0.00000000000E+00  0.41927924338E+03  0.41927924338E+03  0.00000000000E+00 0. -1.
         21   -1    0    0  503  502 -0.00000000000E+00 -0.00000000000E+00 -0.24938472312E+03  0.24938472312E+03  0.00000000000E+00 0. -1.
         21    1    1    2  503  501 -0.98671210082E+01  0.65752794865E+02  0.37238667749E+02  0.76207010735E+02  0.00000000000E+00 0. -1.
         21    1    1    2  504  506  0.52713446040E+02 -0.14188482353E+03  0.16098542881E+03  0.22096678218E+03  0.00000000000E+00 0. -1.
         21    1    1    2  505  504  0.18288130262E+02  0.29765259158E+02  0.16229004035E+03  0.16600748043E+03  0.00000000000E+00 0. -1.
         21    1    1    2  506  502 -0.61134455294E+02  0.46366769503E+02 -0.19061961665E+03  0.20548269316E+03  0.00000000000E+00 0. -1.
<scales pt_clust_3="72.60260" pt_clust_4="78.69820" pt_clust_5="34.93460" pt_clust_6="14000.00000"></scales>
<clustering>
<clus scale="   34.935">  1  5  2 -1</clus>
<clus scale="   72.603">  1  3  2 -1</clus>
<clus scale="   78.698">  1  4  2 -1</clus>
<clus scale="   34.935">  1  3  2 -1</clus>
</clustering>
</event>
<event>
 6    0  0.8520634E+002  0.9583665E+02  0.7546771E-02  0.1289303E+00
         21   -1    0    0  505  501  0.00000000000E+00  0.00000000000E+00  0.30401692648E+03  0.30401692648E+03  0.00000000000E+00 0. -1.
         21   -1    0    0  503  502 -0.00000000000E+00 -0.00000000000E+00 -0.11256397422E+03  0.11256397422E+03  0.00000000000E+00 0. -1.
         21    1    1    2  503  506  0.40347891354E+02 -0.33624277745E+02  0.13458333055E+02  0.54218734024E+02  0.00000000000E+00 0. -1.
         21    1    1    2  504  502 -0.18428840845E+02  0.40167028529E+02 -0.20199844955E+02  0.48590596744E+02  0.00000000000E+00 0. -1.
         21    1    1    2  505  504 -0.86735251092E+02  0.32600690169E+02 -0.90764164492E+01  0.93103115507E+02  0.00000000000E+00 0. -1.
         21    1    1    2  506  501  0.64816200583E+02 -0.39143440953E+02  0.20727088061E+03  0.22066845443E+03  0.00000000000E+00 0. -1.
<scales pt_clust_3="52.52185" pt_clust_4="36.96768" pt_clust_5="36.96768" pt_clust_6="79.49392"></scales>
<clustering>
<clus scale="   36.968">  4  5 -1 -1</clus>
<clus scale="   52.522">  2  3  1 -1</clus>
<clus scale="   79.494">  1  6  2 -1</clus>
<clus scale="   79.494">  1  3  2 -1</clus>
</clustering>
</event>
<event>
 6    0  0.8520634E+002  0.7755869E+02  0.7546771E-02  0.1336126E+00
         21   -1    0    0  504  501  0.00000000000E+00  0.00000000000E+00  0.70617620646E+02  0.70617620646E+02  0.00000000000E+00 0. -1.
         21   -1    0    0  505  502 -0.00000000000E+00 -0.00000000000E+00 -0.34134915431E+03  0.34134915431E+03  0.00000000000E+00 0. -1.
         21    1    1    2  503  506 -0.51168476459E+02 -0.50594649733E+02 -0.12174728132E+03  0.14142288384E+03  0.00000000000E+00 0. -1.
         21    1    1    2  504  503 -0.37153726716E+02  0.35695559314E+02 -0.43002716855E+02  0.67110401731E+02  0.00000000000E+00 0. -1.
         21    1    1    2  505  501  0.47446898629E+02  0.58930548774E+02  0.64755521942E+01  0.75933856379E+02  0.00000000000E+00 0. -1.
         21    1    1    2  506  502  0.40875304546E+02 -0.44031458355E+02 -0.11245708767E+03  0.12749963300E+03  0.00000000000E+00 0. -1.
<scales pt_clust_3="14000.00000" pt_clust_4="51.52254" pt_clust_5="77.55869" pt_clust_6="53.47478"></scales>
<clustering>
<clus scale="   51.523">  1  4  2 -1</clus>
<clus scale="   53.475">  2  6  1 -1</clus>
<clus scale="   77.559">  1  5  2 -1</clus>
<clus scale="   51.523">  1  3  2 -1</clus>
</clustering>
</event>
<event>
 6    0  0.8520634E+002  0.1363324E+03  0.7546771E-02  0.1218351E+00
         21   -1    0    0  505  501  0.00000000000E+00  0.00000000000E+00  0.22734555996E+03  0.22734555996E+03  0.00000000000E+00 0. -1.
         21   -1    0    0  506  502 -0.00000000000E+00 -0.00000000000E+00 -0.11866097833E+04  0.11866097833E+04  0.00000000000E+00 0.  1.
         21    1    1    2  503  501 -0.38450753174E+02 -0.30418277059E+02  0.20371961088E+01  0.49070175941E+02  0.00000000000E+00 0.  1.
         21    1    1    2  504  503  0.71567598193E+02  0.16885474864E+02  0.13015698605E+03  0.14949207802E+03  0.00000000000E+00 0. -1.
         21    1    1    2  505  502  0.47550341835E+02  0.12415821876E+03 -0.19085105916E+02  0.13431507571E+03  0.00000000000E+00 0. -1.
         21    1    1    2  506  504 -0.80667186854E+02 -0.11062541656E+03 -0.10723732996E+04  0.10810780136E+04  0.00000000000E+00 0.  1.
<scales pt_clust_3="49.02787" pt_clust_4="45.11965" pt_clust_5="136.33240" pt_clust_6="14000.00000"></scales>
<clustering>
<clus scale="   49.028">  1  3  2 -1</clus>
<clus scale="   45.120">  1  4  2 -1</clus>
<clus scale="  136.332">  1  5  2 -1</clus>
<clus scale="   49.028">  1  3  2 -1</clus>
</clustering>
</event>
<event>
 6    0  0.8520634E+002  0.1375712E+03  0.7546771E-02  0.1216635E+00
         21   -1    0    0  506  501  0.00000000000E+00  0.00000000000E+00  0.19901444724E+03  0.19901444724E+03  0.00000000000E+00 0.  1.
         21   -1    0    0  503  502 -0.00000000000E+00 -0.00000000000E+00 -0.68140071237E+03  0.68140071237E+03  0.00000000000E+00 0.  1.
         21    1    1    2  503  501  0.69990308643E+02 -0.10498576204E+03 -0.62126440010E+03  0.63394803286E+03  0.00000000000E+00 0.  1.
         21    1    1    2  504  505  0.72392735898E+01  0.39156945699E+02  0.13996162110E+02  0.42208601403E+02  0.00000000000E+00 0. -1.
         21    1    1    2  505  502 -0.51090068152E+02  0.10253342029E+03  0.10347562786E+03  0.15437131502E+03  0.00000000000E+00 0.  1.
         21    1    1    2  506  504 -0.26139514080E+02 -0.36704603954E+02  0.21406345007E+02  0.49887210328E+02  0.00000000000E+00 0.  1.
<scales pt_clust_3="126.81029" pt_clust_4="31.44728" pt_clust_5="31.44728" pt_clust_6="45.06109"></scales>
<clustering>
<clus scale="   31.447">  4  5 -1 -1</clus>
<clus scale="   45.061">  1  6  2 -1</clus>
<clus scale="  126.810">  2  3  1 -1</clus>
<clus scale="   45.061">  1  3  2 -1</clus>
</clustering>
</event>
<event>
 6    0  0.8520634E+002  0.8084031E+02  0.7546771E-02  0.1326684E+00
         21   -1    0    0  504  501  0.00000000000E+00  0.00000000000E+00  0.22047265348E+04  0.22047265348E+04  0.00000000000E+00 0.  1.
         21   -1    0    0  505  502 -0.00000000000E+00 -0.00000000000E+00 -0.28719267401E+03  0.28719267401E+03  0.00000000000E+00 0. -1.
         21    1    1    2  503  502  0.30915714085E+02  0.24611287314E+02 -0.18752050959E+02  0.43739413071E+02  0.00000000000E+00 0. -1.
         21    1    1    2  504  506  0.56830612207E+02 -0.19635027290E+01  0.16112828787E+04  0.16122859824E+04  0.00000000000E+00 0.  1.
         21    1    1    2  505  501  0.44685877783E+02  0.23032025145E+01 -0.24557458141E+03  0.24961772262E+03  0.00000000000E+00 0. -1.
         21    1    1    2  506  503 -0.13243220407E+03 -0.24950987100E+02  0.57057761438E+03  0.58627609065E+03  0.00000000000E+00 0.  1.
<scales pt_clust_3="39.51578" pt_clust_4="56.92342" pt_clust_5="14000.00000" pt_clust_6="80.84031"></scales>
<clustering>
<clus scale="   39.516">  2  3  1 -1</clus>
<clus scale="   56.923">  1  4  2 -1</clus>
<clus scale="   80.840">  1  6  2 -1</clus>
<clus scale="   56.923">  1  3  2 -1</clus>
</clustering>
</event>
<event>
 6    0  0.8520634E+002  0.1475253E+03  0.7546771E-02  0.1203547E+00
         21   -1    0    0  503  501  0.00000000000E+00  0.00000000000E+00  0.55912199608E+03  0.55912199608E+03  0.00000000000E+00 0.  1.
         21   -1    0    0  506  502 -0.00000000000E+00 -0.00000000000E+00 -0.32314560961E+03  0.32314560961E+03  0.00000000000E+00 0. -1.
         21    1    1    2  503  505 -0.47008303909E+01 -0.62074070211E+02  0.25653901718E+03  0.26398400583E+03  0.00000000000E+00 0.  1.
         21    1    1    2  504  502  0.14199445908E+02 -0.77879312908E+02  0.66680168013E+02  0.10350389582E+03  0.00000000000E+00 0. -1.
         21    1    1    2  505  504  0.81537433684E+02 -0.19046933190E+01  0.18068578942E+03  0.19824059989E+03  0.00000000000E+00 0.  1.
         21    1    1    2  506  501 -0.91036049202E+02  0.14185807644E+03 -0.26792858814E+03  0.31653910414E+03  0.00000000000E+00 0. -1.
<scales pt_clust_3="62.25181" pt_clust_4="147.52529" pt_clust_5="88.73200" pt_clust_6="14000.00000"></scales>
<clustering>
<clus scale="   62.252">  1  3  2 -1</clus>
<clus scale="   88.732">  1  5  2 -1</clus>
<clus scale="  147.525">  1  4  2 -1</clus>
<clus scale="   62.252">  1  3  2 -1</clus>
</clustering>
</event>
<event>
 6    0  0.8520634E+002  0.1639921E+03  0.7546771E-02  0.1184262E+00
         21   -1    0    0  505  501  0.00000000000E+00  0.00000000000E+00  0.32732652492E+03  0.32732652492E+03  0.00000000000E+00 0.  1.
         21   -1    0    0  503  502 -0.00000000000E+00 -0.00000000000E+00 -0.45527630947E+03  0.45527630947E+03  0.00000000000E+00 0.  1.
         21    1    1    2  503  506 -0.14530732481E+02 -0.12978979758E+03 -0.21281762681E+03  0.24969556669E+03  0.00000000000E+00 0.  1.
         21    1    1    2  504  502 -0.50359581581E+02  0.93011021557E+02 -0.99151823256E+02  0.14497662447E+03  0.00000000000E+00 0.  1.
         21    1    1    2  505  504  0.16290328537E+03  0.10645524551E+03  0.18379265460E+03  0.26767506340E+03  0.00000000000E+00 0.  1.
         21    1    1    2  506  501 -0.98012971313E+02 -0.69676469485E+02  0.22701092209E+00  0.12025557983E+03  0.00000000000E+00 0.  1.
<scales pt_clust_3="81.88050" pt_clust_4="105.76927" pt_clust_5="163.99208" pt_clust_6="14000.00000"></scales>
<clustering>
<clus scale="  105.769">  2  4  1 -1</clus>
<clus scale="   81.880">  2  3  1 -1</clus>
<clus scale="  163.992">  1  5  2 -1</clus>
<clus scale="  163.992">  1  3  2 -1</clus>
</clustering>
</event>
<event>
 6    0  0.8520634E+002  0.1153100E+03  0.7546771E-02  0.1251041E+00
         21   -1    0    0  503  501  0.00000000000E+00  0.00000000000E+00  0.75320905433E+02  0.75320905433E+02  0.00000000000E+00 0.  1.
         21   -1    0    0  505  502 -0.00000000000E+00 -0.00000000000E+00 -0.11954147634E+04  0.11954147634E+04  0.00000000000E+00 0.  1.
         21    1    1    2  503  506  0.28475223579E+02 -0.73213591743E+02 -0.34275592439E+02  0.85708136200E+02  0.00000000000E+00 0.  1.
         21    1    1    2  504  501  0.24747972928E+02 -0.38745900910E+02  0.32740377434E+02  0.56441468052E+02  0.00000000000E+00 0.  1.
         21    1    1    2  505  504 -0.31903505903E+02 -0.34335638653E+01 -0.19901465501E+03  0.20158486044E+03  0.00000000000E+00 0.  1.
         21    1    1    2  506  502 -0.21319690603E+02  0.11539305652E+03 -0.91954398792E+03  0.92700120411E+03  0.00000000000E+00 0.  1.
<scales pt_clust_3="14000.00000" pt_clust_4="45.80629" pt_clust_5="32.08774" pt_clust_6="115.31001"></scales>
<clustering>
<clus scale="   32.088">  2  5  1 -1</clus>
<clus scale="   45.806">  1  4  2 -1</clus>
<clus scale="  115.310">  2  6  1 -1</clus>
<clus scale="   45.806">  1  3  2 -1</clus>
</clustering>
</event>
<event>
 6    0  0.8520634E+002  0.9521092E+02  0.7546771E-02  0.1290702E+00
         21   -1    0    0  506  501  0.00000000000E+00  0.00000000000E+00  0.24377191036E+04  0.24377191036E+04  0.00000000000E+00 0.  1.
         21   -1    0    0  503  502 -0.00000000000E+00 -0.00000000000E+00 -0.20329439516E+02  0.20329439516E+02  0.00000000000E+00 0.  1.
         21    1    1    2  503  505  0.43127043627E+02  0.32361277836E+02  0.54466586121E+02  0.76640741116E+02  0.00000000000E+00 0.  1.
         21    1    1    2  504  501 -0.10831826489E+03  0.72446440468E+01  0.16054833161E+04  0.16091494678E+04  0.00000000000E+00 0.  1.
         21    1    1    2  505  504 -0.75525489138E+01 -0.67889702283E+02  0.26451074661E+03  0.27318855712E+03  0.00000000000E+00 0.  1.
         21    1    1    2  506  502  0.72743770176E+02  0.28283780400E+02  0.49292901523E+03  0.49906977707E+03  0.00000000000E+00 0.  1.
<scales pt_clust_3="53.91840" pt_clust_4="14000.00000" pt_clust_5="54.20472" pt_clust_6="95.21092"></scales>
<clustering>
<clus scale="   53.918">  2  3  1 -1</clus>
<clus scale="   54.205">  2  5  1 -1</clus>
<clus scale="   95.211">  2  6  1 -1</clus>
<clus scale="   95.211">  1  3  2 -1</clus>
</clustering>
</event>
<event>
 6    0  0.8520634E+002  0.9011735E+02  0.7546771E-02  0.1302568E+00
         21   -1    0    0  504  501  0.00000000000E+00  0.00000000000E+00  0.42949869144E+03  0.42949869144E+03  0.00000000000E+00 0. -1.
         21   -1    0    0  506  502 -0.00000000000E+00 -0.00000000000E+00 -0.22632463730E+03  0.22632463730E+03  0.00000000000E+00 0. -1.
         21    1    1    2  503  502 -0.10551280278E+03 -0.60040770434E+02 -0.12486951516E+03  0.17415579658E+03  0.00000000000E+00 0. -1.
         21    1    1    2  504  503  0.26122739800E+02  0.27974108038E+02  0.30607373363E+03  0.30845758002E+03  0.00000000000E+00 0. -1.
         21    1    1    2  505  501  0.72134751562E+01  0.74070638407E+02  0.44505381178E+02  0.86713451388E+02  0.00000000000E+00 0. -1.
         21    1    1    2  506  505  0.72176587826E+02 -0.42003976011E+02 -0.22535545512E+02  0.86496500752E+02  0.00000000000E+00 0. -1.
<scales pt_clust_3="14000.00000" pt_clust_4="38.27464" pt_clust_5="90.11735" pt_clust_6="86.28916"></scales>
<clustering>
<clus scale="   38.275">  1  4  2 -1</clus>
<clus scale="   86.289">  2  6  1 -1</clus>
<clus scale="   90.117">  1  5  2 -1</clus>
<clus scale="   38.275">  1  3  2 -1</clus>
</clustering>
</event>
<event>
 6    0  0.8520634E+002  0.9540678E+02  0.7546771E-02  0.1290263E+00
         21   -1    0    0  506  501  0.00000000000E+00  0.00000000000E+00  0.32133813371E+03  0.32133813371E+03  0.00000000000E+00 0. -1.
         21   -1    0    0  504  502 -0.00000000000E+00 -0.00000000000E+00 -0.38579085544E+03  0.38579085544E+03  0.00000000000E+00 0.  1.
         21    1    1    2  503  505 -0.27143057695E+02  0.19505035139E+02 -0.10561862580E+03  0.11078125335E+03  0.00000000000E+00 0.  1.
         21    1    1    2  504  501  0.59781979858E+02  0.51855162800E+02 -0.11587334939E+03  0.14031919371E+03  0.00000000000E+00 0.  1.
         21    1    1    2  505  502 -0.74665189325E+02 -0.10941338326E+02 -0.13510776212E+03  0.15475371002E+03  0.00000000000E+00 0.  1.
         21    1    1    2  506  503  0.42026267163E+02 -0.60418859613E+02  0.29214701558E+03  0.30127483207E+03  0.00000000000E+00 0. -1.
<scales pt_clust_3="30.65307" pt_clust_4="83.55290" pt_clust_5="30.65307" pt_clust_6="73.59786"></scales>
<clustering>
<clus scale="   30.653">  3  5 -1 -1</clus>
<clus scale="   73.598">  1  6  2 -1</clus>
<clus scale="   83.553">  1  4  2 -1</clus>
<clus scale="   73.598">  1  3  2 -1</clus>
</clustering>
</event>
<event>
 6    0  0.8520634E+002  0.9291799E+02  0.7546771E-02  0.1295935E+00
         21   -1    0    0  503  501  0.00000000000E+00  0.00000000000E+00  0.21868519458E+03  0.21868519458E+03  0.00000000000E+00 0.  1.
         21   -1    0    0  504  502 -0.00000000000E+00 -0.00000000000E+00 -0.12205267081E+04  0.12205267081E+04  0.00000000000E+00 0.  1.
         21    1    1    2  503  505  0.12351632833E+03 -0.17106588839E+02  0.13633131905E+03  0.18475699526E+03  0.00000000000E+00 0.  1.
         21    1    1    2  504  506 -0.10879333607E+03  0.19348966075E+01 -0.11158566039E+04  0.11211492739E+04  0.00000000000E+00 0.  1.
         21    1    1    2  505  502  0.21143066438E+02  0.24241558540E+02 -0.67581160362E+02  0.74845812540E+02  0.00000000000E+00 0.  1.
         21    1    1    2  506  501 -0.35866058695E+02 -0.90698663083E+01  0.45264931652E+02  0.58459821062E+02  0.00000000000E+00 0.  1.
<scales pt_clust_3="14000.00000" pt_clust_4="92.91799" pt_clust_5="32.16648" pt_clust_6="36.84346"></scales>
<clustering>
<clus scale="   32.166">  2  5  1 -1</clus>
<clus scale="   36.843">  1  6  2 -1</clus>
<clus scale="   92.918">  2  4  1 -1</clus>
<clus scale="   36.843">  1  3  2 -1</clus>
</clustering>
</event>
<event>
 6    0  0.8520634E+002  0.1937858E+03  0.7546771E-02  0.1155090E+00
         21   -1    0    0  505  501  0.00000000000E+00  0.00000000000E+00  0.10769794975E+04  0.10769794975E+04  0.00000000000E+00 0. -1.
         21   -1    0    0  506  502 -0.00000000000E+00 -0.00000000000E+00 -0.98867168779E+02  0.98867168779E+02  0.00000000000E+00 0. -1.
         21    1    1    2  503  502  0.36752194728E+02 -0.25964262730E+02 -0.21391534951E+01  0.45049336667E+02  0.00000000000E+00 0. -1.
         21    1    1    2  504  501  0.17079619391E+02  0.26868997769E+02  0.65721877349E+02  0.73027540024E+02  0.00000000000E+00 0. -1.
         21    1    1    2  505  503 -0.17155190796E+03 -0.14007076136E+03  0.82591402921E+03  0.85509289493E+03  0.00000000000E+00 0. -1.
         21    1    1    2  506  504  0.11772009384E+03  0.13916602632E+03  0.88615575639E+02  0.20267689464E+03  0.00000000000E+00 0. -1.
<scales pt_clust_3="44.97053" pt_clust_4="31.83797" pt_clust_5="14000.00000" pt_clust_6="193.78582"></scales>
<clustering>
<clus scale="   31.838">  1  4  2 -1</clus>
<clus scale="   44.971">  2  3  1 -1</clus>
<clus scale="  193.786">  2  6  1 -1</clus>
<clus scale="   31.838">  1  3  2 -1</clus>
</clustering>
</event>
<event>
 6    0  0.8520634E+002  0.7213710E+02  0.7546771E-02  0.1352973E+00
         21   -1    0    0  504  501  0.00000000000E+00  0.00000000000E+00  0.90586605669E+02  0.90586605669E+02  0.00000000000E+00 0. -1.
         21   -1    0    0  505  502 -0.00000000000E+00 -0.00000000000E+00 -0.56247767474E+03  0.56247767474E+03  0.00000000000E+00 0.  1.
         21    1    1    2  503  502 -0.20665519421E+02  0.57411678792E+02 -0.21467353169E+03  0.22317681278E+03  0.00000000000E+00 0.  1.
         21    1    1    2  504  503 -0.78275607344E+02 -0.12623067437E+02 -0.99478610342E+02  0.12721008786E+03  0.00000000000E+00 0.  1.
         21    1    1    2  505  506  0.72570338451E+02  0.13039199562E+01 -0.21360500753E+03  0.22559976390E+03  0.00000000000E+00 0.  1.
         21    1    1    2  506  501  0.26370788315E+02 -0.46092531311E+02  0.55866080491E+02  0.77077615872E+02  0.00000000000E+00 0. -1.
<scales pt_clust_3="51.82223" pt_clust_4="72.13710" pt_clust_5="14000.00000" pt_clust_6="53.10311"></scales>
<clustering>
<clus scale="   53.103">  1  6  2 -1</clus>
<clus scale="   51.822">  2  3  1 -1</clus>
<clus scale="   72.137">  1  4  2 -1</clus>
<clus scale="   53.103">  1  3  2 -1</clus>
</clustering>
</event>
<event>
 6    0  0.8520634E+002  0.1074055E+03  0.7546771E-02  0.1265451E+00
         21   -1    0    0  504  501  0.00000000000E+00  0.00000000000E+00  0.12072028253E+04  0.12072028253E+04  0.00000000000E+00 0. -1.
         21   -1    0    0  505  502 -0.00000000000E+00 -0.00000000000E+00 -0.68238726945E+02  0.68238726945E+02  0.00000000000E+00 0. -1.
         21    1    1    2  503  501 -0.14814372078E+02 -0.37575344594E+02  0.36318485836E+03  0.36542388193E+03  0.00000000000E+00 0. -1.
         21    1    1    2  504  506  0.10665865627E+03  0.57609907283E+02  0.42769103430E+03  0.44453862733E+03  0.00000000000E+00 0.  1.
         21    1    1    2  505  503 -0.55556572806E+01 -0.96775030405E+02  0.33561219678E+03  0.34933052896E+03  0.00000000000E+00 0. -1.
         21    1    1    2  506  502 -0.86288626907E+02  0.76740467716E+02  0.12476008957E+02  0.11614851406E+03  0.00000000000E+00 0. -1.
<scales pt_clust_3="40.39025" pt_clust_4="106.09706" pt_clust_5="14000.00000" pt_clust_6="107.40547"></scales>
<clustering>
<clus scale="   40.390">  1  3  2 -1</clus>
<clus scale="  106.097">  1  4  2 -1</clus>
<clus scale="  107.405">  2  6  1 -1</clus>
<clus scale="   40.390">  1  3  2 -1</clus>
</clustering>
</event>
<event>
 6    0  0.8520634E+002  0.9433548E+02  0.7546771E-02  0.1292680E+00
         21   -1    0    0  506  501  0.00000000000E+00  0.00000000000E+00  0.42116163969E+03  0.42116163969E+03  0.00000000000E+00 0.  1.
         21   -1    0    0  505  502 -0.00000000000E+00 -0.00000000000E+00 -0.34308032244E+03  0.34308032244E+03  0.00000000000E+00 0. -1.
         21    1    1    2  503  502  0.59517369436E+02  0.14943521920E+02 -0.30241912756E+03  0.30858216868E+03  0.00000000000E+00 0. -1.
         21    1    1    2  504  501 -0.17276561222E+02 -0.25130517455E+02  0.14425820021E+03  0.14744643367E+03  0.00000000000E+00 0.  1.
         21    1    1    2  505  504 -0.10188524827E+03  0.38897526106E+02  0.21071966603E+03  0.23726862204E+03  0.00000000000E+00 0.  1.
         21    1    1    2  506  503  0.59644440060E+02 -0.28710530571E+02  0.25522578566E+02  0.70944737736E+02  0.00000000000E+00 0.  1.
<scales pt_clust_3="61.10906" pt_clust_4="30.49627" pt_clust_5="94.33548" pt_clust_6="14000.00000"></scales>
<clustering>
<clus scale="   30.496">  1  4  2 -1</clus>
<clus scale="   61.109">  2  3  1 -1</clus>
<clus scale="   94.335">  1  5  2 -1</clus>
<clus scale="   30.496">  1  3  2 -1</clus>
</clustering>
</event>
<event>
 6    0  0.8520634E+002  0.7491310E+02  0.7546771E-02  0.1344140E+00
         21   -1    0    0  504  501  0.00000000000E+00  0.00000000000E+00  0.17136830180E+04  0.17136830180E+04  0.00000000000E+00 0.  1.
         21   -1    0    0  505  502 -0.00000000000E+00 -0.00000000000E+00 -0.67490012933E+02  0.67490012933E+02  0.00000000000E+00 0. -1.
         21    1    1    2  503  502  0.48655889372E+02  0.18234545283E+02  0.31321110932E+02  0.60670472243E+02  0.00000000000E+00 0. -1.
         21    1    1    2  504  506 -0.39344273684E+01 -0.75308068562E+02  0.14010239515E+04  0.14030519939E+04  0.00000000000E+00 0.  1.
         21    1    1    2  505  501 -0.92954696499E+02 -0.10018248235E+02  0.58906495756E+01  0.93678389457E+02  0.00000000000E+00 0. -1.
         21    1    1    2  506  503  0.48233234495E+02  0.67091771514E+02  0.20795729302E+03  0.22377217529E+03  0.00000000000E+00 0. -1.
<scales pt_clust_3="51.96051" pt_clust_4="74.91310" pt_clust_5="52.76822" pt_clust_6="14000.00000"></scales>
<clustering>
<clus scale="   51.961">  2  3  1 -1</clus>
<clus scale="   52.768">  2  5  1 -1</clus>
<clus scale="   74.913">  1  4  2 -1</clus>
<clus scale="   74.913">  1  3  2 -1</clus>
</clustering>
</event>
<event>
 6    0  0.8520634E+002  0.9206330E+02  0.7546771E-02  0.1297931E+00
         21   -1    0    0  506  501  0.00000000000E+00  0.00000000000E+00  0.14988059563E+03  0.14988059563E+03  0.00000000000E+00 0.  1.
         21   -1    0    0  505  502 -0.00000000000E+00 -0.00000000000E+00 -0.16140303473E+04  0.16140303473E+04  0.00000000000E+00 0. -1.
         21    1    1    2  503  502  0.31389020924E+02  0.16465935166E+02 -0.87933179882E+03  0.88004591361E+03  0.00000000000E+00 0. -1.
         21    1    1    2  504  503 -0.27936777944E+01  0.72360863455E+02 -0.64038713743E+03  0.64446845150E+03  0.00000000000E+00 0. -1.
         21    1    1    2  505  501  0.71084473209E+01 -0.12014604705E+03 -0.44747330913E+02  0.12840532026E+03  0.00000000000E+00 0. -1.
         21    1    1    2  506  504 -0.35703790450E+02  0.31319248433E+02  0.10031651549E+03  0.11099125756E+03  0.00000000000E+00 0.  1.
<scales pt_clust_3="35.44570" pt_clust_4="92.06330" pt_clust_5="14000.00000" pt_clust_6="47.40177"></scales>
<clustering>
<clus scale="   35.446">  2  3  1 -1</clus>
<clus scale="   47.402">  1  6  2 -1</clus>
<clus scale="   92.063">  2  4  1 -1</clus>
<clus scale="   47.402">  1  3  2 -1</clus>
</clustering>
</event>
<event>
 6    0  0.8520634E+002  0.1337130E+03  0.7546771E-02  0.1222048E+00
         21   -1    0    0  504  501  0.00000000000E+00  0.00000000000E+00  0.14483914988E+03  0.14483914988E+03  0.00000000000E+00 0.  1.
         21   -1    0    0  503  502 -0.00000000000E+00 -0.00000000000E+00 -0.31986607587E+03  0.31986607587E+03  0.00000000000E+00 0.  1.
         21    1    1    2  503  501 -0.16057327473E+02 -0.29766188920E+02 -0.40861608982E+02  0.53042764417E+02  0.00000000000E+00 0. -1.
         21    1    1    2  504  505 -0.27863050975E+02  0.74755699488E+02  0.47133284065E+02  0.92662347705E+02  0.00000000000E+00 0.  1.
         21    1    1    2  505  506 -0.52082850437E+02  0.17825176943E+02  0.41136459778E+02  0.68720947066E+02  0.00000000000E+00 0.  1.
         21    1    1    2  506  502  0.96003228885E+02 -0.62814687510E+02 -0.22243506085E+03  0.25027916657E+03  0.00000000000E+00 0.  1.
<scales pt_clust_3="33.82106" pt_clust_4="48.33922" pt_clust_5="48.33922" pt_clust_6="120.78379"></scales>
<clustering>
<clus scale="   33.821">  2  3  1 -1</clus>
<clus scale="   48.339">  4  5 -1 -1</clus>
<clus scale="  120.784">  2  6  1 -1</clus>
<clus scale="  133.713">  1  3  2 -1</clus>
</clustering>
</event>
<event>
 6    0  0.8520634E+002  0.1675438E+03  0.7546771E-02  0.1180434E+00
         21   -1    0    0  503  501  0.00000000000E+00  0.00000000000E+00  0.17389472549E+04  0.17389472549E+04  0.00000000000E+00 0.  1.
         21   -1    0    0  506  502 -0.00000000000E+00 -0.00000000000E+00 -0.19336147192E+02  0.19336147192E+02  0.00000000000E+00 0.  1.
         21    1    1    2  503  504 -0.31107184175E+02  0.33469587627E+02  0.35950735707E+03  0.36239951709E+03  0.00000000000E+00 0.  1.
         21    1    1    2  504  505 -0.11867895184E+03  0.42726357159E+02  0.51427036666E+03  0.52951321535E+03  0.00000000000E+00 0.  1.
         21    1    1    2  505  502  0.31661729894E+02  0.11867748679E+02  0.86480765598E+02  0.92855971359E+02  0.00000000000E+00 0. -1.
         21    1    1    2  506  501  0.11812440612E+03 -0.88063693464E+02  0.75935261840E+03  0.77351469831E+03  0.00000000000E+00 0.  1.
<scales pt_clust_3="38.38968" pt_clust_4="38.38968" pt_clust_5="33.81285" pt_clust_6="155.85834"></scales>
<clustering>
<clus scale="   33.813">  2  5  1 -1</clus>
<clus scale="   38.390">  3  4 -1 -1</clus>
<clus scale="  155.858">  1  6  2 -1</clus>
<clus scale="  155.858">  1  3  2 -1</clus>
</clustering>
</event>
<event>
 6    0  0.8520634E+002  0.1118783E+03  0.7546771E-02  0.1257131E+00
         21   -1    0    0  503  501  0.00000000000E+00  0.00000000000E+00  0.80790600348E+02  0.80790600348E+02  0.00000000000E+00 0. -1.
         21   -1    0    0  505  502 -0.00000000000E+00 -0.00000000000E+00 -0.12479364216E+04  0.12479364216E+04  0.00000000000E+00 0. -1.
         21    1    1    2  503  502  0.23132844229E+02  0.47140865479E+02  0.69528101543E+01  0.52969153752E+02  0.00000000000E+00 0. -1.
         21    1    1    2  504  506  0.10084450125E+02 -0.10375249028E+03 -0.67253651034E+03  0.68056714078E+03  0.00000000000E+00 0. -1.
         21    1    1    2  505  504  0.51829552966E+02  0.30785405314E+01 -0.49145625829E+03  0.49419129271E+03  0.00000000000E+00 0. -1.
         21    1    1    2  506  501 -0.85046847320E+02  0.53533084265E+02 -0.10105862782E+02  0.10099943471E+03  0.00000000000E+00 0. -1.
<scales pt_clust_3="53.30854" pt_clust_4="14000.00000" pt_clust_5="51.92090" pt_clust_6="111.87832"></scales>
<clustering>
<clus scale="   51.921">  2  5  1 -1</clus>
<clus scale="   53.309">  1  3  2 -1</clus>
<clus scale="  111.878">  1  6  2 -1</clus>
<clus scale="   53.309">  1  3  2 -1</clus>
</clustering>
</event>
<event>
 6    0  0.8520634E+002  0.8441361E+02  0.7546771E-02  0.1316973E+00
         21   -1    0    0  504  501  0.00000000000E+00  0.00000000000E+00  0.56935592681E+03  0.56935592681E+03  0.00000000000E+00 0. -1.
         21   -1    0    0  506  502 -0.00000000000E+00 -0.00000000000E+00 -0.74280257799E+02  0.74280257799E+02  0.00000000000E+00 0. -1.
         21    1    1    2  503  502  0.63454532785E+02  0.51107454776E+02  0.47712290546E+02  0.94418813453E+02  0.00000000000E+00 0. -1.
         21    1    1    2  504  503  0.30233273698E+02  0.77369554631E+02  0.16349299303E+03  0.18338499828E+03  0.00000000000E+00 0. -1.
         21    1    1    2  505  501 -0.83462821567E+02 -0.45781694881E+02  0.26333651702E+03  0.28001451277E+03  0.00000000000E+00 0. -1.
         21    1    1    2  506  505 -0.10224984917E+02 -0.82695314526E+02  0.20533868416E+02  0.85817860106E+02  0.00000000000E+00 0. -1.
<scales pt_clust_3="81.47668" pt_clust_4="14000.00000" pt_clust_5="84.41361" pt_clust_6="58.48731"></scales>
<clustering>
<clus scale="   81.477">  2  3  1 -1</clus>
<clus scale="   58.487">  2  6  1 -1</clus>
<clus scale="   84.414">  1  5  2 -1</clus>
<clus scale="   84.414">  1  3  2 -1</clus>
</clustering>
</event>
<event>
 6    0  0.8520634E+002  0.2253253E+03  0.7546771E-02  0.1129974E+00
         21   -1    0    0  505  501  0.00000000000E+00  0.00000000000E+00  0.54730538563E+03  0.54730538563E+03  0.00000000000E+00 0.  1.
         21   -1    0    0  504  502 -0.00000000000E+00 -0.00000000000E+00 -0.19867152109E+03  0.19867152109E+03  0.00000000000E+00 0.  1.
         21    1    1    2  503  502  0.45895645010E+02  0.21514262872E+03  0.18632751720E+02  0.22077123988E+03  0.00000000000E+00 0.  1.
         21    1    1    2  504  506 -0.43187796434E+02 -0.13287173121E+02 -0.10654446438E+02  0.46424691267E+02  0.00000000000E+00 0. -1.
         21    1    1    2  505  503 -0.16860355738E+02  0.64728201743E+02  0.93615065445E+02  0.11505560471E+03  0.00000000000E+00 0. -1.
         21    1    1    2  506  501  0.14152507162E+02 -0.26658365734E+03  0.24704049381E+03  0.36372537085E+03  0.00000000000E+00 0.  1.
<scales pt_clust_3="14000.00000" pt_clust_4="45.18556" pt_clust_5="66.82437" pt_clust_6="225.32525"></scales>
<clustering>
<clus scale="   45.186">  2  4  1 -1</clus>
<clus scale="   66.824">  1  5  2 -1</clus>
<clus scale="  225.325">  1  6  2 -1</clus>
<clus scale="   66.824">  1  3  2 -1</clus>
</clustering>
</event>
<event>
 6    0  0.8520634E+002  0.8750855E+02  0.7546771E-02  0.1309000E+00
         21   -1    0    0  503  501  0.00000000000E+00  0.00000000000E+00  0.15947914673E+04  0.15947914673E+04  0.00000000000E+00 0.  1.
         21   -1    0    0  504  502 -0.00000000000E+00 -0.00000000000E+00 -0.41274942358E+03  0.41274942358E+03  0.00000000000E+00 0.  1.
         21    1    1    2  503  502 -0.18271871756E+02 -0.82889205327E+02  0.57924024075E+03  0.58542611674E+03  0.00000000000E+00 0.  1.
         21    1    1    2  504  505 -0.25037138825E+02 -0.80024544285E+02 -0.31715939274E+03  0.32805619399E+03  0.00000000000E+00 0.  1.
         21    1    1    2  505  506  0.73408645364E+02  0.98666763644E+02 -0.41644417915E+02  0.12983919672E+03  0.00000000000E+00 0.  1.
         21    1    1    2  506  501 -0.30099634783E+02  0.64246985968E+02  0.96160561364E+03  0.96421938345E+03  0.00000000000E+00 0.  1.
<scales pt_clust_3="51.74730" pt_clust_4="14000.00000" pt_clust_5="87.50855" pt_clust_6="70.94831"></scales>
<clustering>
<clus scale="   70.948">  1  6  2 -1</clus>
<clus scale="   51.747">  1  3  2 -1</clus>
<clus scale="   87.509">  1  5  2 -1</clus>
<clus scale="   70.948">  1  3  2 -1</clus>
</clustering>
</event>
<event>
 6    0  0.8520634E+002  0.1278874E+03  0.7546771E-02  0.1230625E+00
         21   -1    0    0  504  501  0.00000000000E+00  0.00000000000E+00  0.16755110911E+03  0.16755110911E+03  0.00000000000E+00 0.  1.
         21   -1    0    0  503  502 -0.00000000000E+00 -0.00000000000E+00 -0.18679421640E+03  0.18679421640E+03  0.00000000000E+00 0.  1.
         21    1    1    2  503  505 -0.37312653197E+02  0.29060224685E+02 -0.50899013353E+02  0.69479783445E+02  0.00000000000E+00 0. -1.
         21    1    1    2  504  502  0.67149166583E+02  0.91577042951E+02 -0.55470880106E+02  0.12638189708E+03  0.00000000000E+00 0.  1.
         21    1    1    2  505  506 -0.11047532200E+02 -0.53409160810E+02  0.11829688257E+02  0.55807955977E+02  0.00000000000E+00 0.  1.
         21    1    1    2  506  501 -0.18788981186E+02 -0.67228106827E+02  0.75297097913E+02  0.10267568902E+03  0.00000000000E+00 0.  1.
<scales pt_clust_3="47.29409" pt_clust_4="119.46867" pt_clust_5="40.33664" pt_clust_6="40.33664"></scales>
<clustering>
<clus scale="   40.337">  5  6 -1 -1</clus>
<clus scale="   47.294">  2  3  1 -1</clus>
<clus scale="  119.469">  2  4  1 -1</clus>
<clus scale="  127.887">  1  3  2 -1</clus>
</clustering>
</event>
<event>
 6    0  0.8520634E+002  0.1299590E+03  0.7546771E-02  0.1227517E+00
         21   -1    0    0  505  501  0.00000000000E+00  0.00000000000E+00  0.10269968976E+03  0.10269968976E+03  0.00000000000E+00 0.  1.
         21   -1    0    0  506  502 -0.00000000000E+00 -0.00000000000E+00 -0.29799541914E+03  0.29799541914E+03  0.00000000000E+00 0.  1.
         21    1    1    2  503  502 -0.53116132461E+02  0.13503884414E+02 -0.87073773786E+02  0.10288595873E+03  0.00000000000E+00 0.  1.
         21    1    1    2  504  501  0.40405588685E+02  0.56802550274E+02  0.16325662145E+02  0.71593774584E+02  0.00000000000E+00 0.  1.
         21    1    1    2  505  503 -0.81096606354E+02 -0.35268761087E+02 -0.52373032197E+02  0.10277878951E+03  0.00000000000E+00 0.  1.
         21    1    1    2  506  504  0.93807150129E+02 -0.35037673602E+02 -0.72174585533E+02  0.12343658608E+03  0.00000000000E+00 0.  1.
<scales pt_clust_3="52.01594" pt_clust_4="69.70754" pt_clust_5="52.01594" pt_clust_6="111.90859"></scales>
<clustering>
<clus scale="   52.016">  3  5 -1 -1</clus>
<clus scale="   69.708">  1  4  2 -1</clus>
<clus scale="  111.909">  2  6  1 -1</clus>
<clus scale="   69.708">  1  3  2 -1</clus>
</clustering>
</event>
<event>
 6    0  0.8520634E+002  0.1027190E+03  0.7546771E-02  0.1274680E+00
         21   -1    0    0  505  501  0.00000000000E+00  0.00000000000E+00  0.32172761193E+02  0.32172761193E+02  0.00000000000E+00 0. -1.
         21   -1    0    0  503  502 -0.00000000000E+00 -0.00000000000E+00 -0.13370799616E+04  0.13370799616E+04  0.00000000000E+00 0. -1.
         21    1    1    2  503  504  0.29219880680E+02 -0.29011257569E+02 -0.26548938364E+03  0.26866348341E+03  0.00000000000E+00 0.  1.
         21    1    1    2  504  506  0.81575297995E+02  0.15763922210E+02 -0.75352473404E+02  0.11216517166E+03  0.00000000000E+00 0. -1.
         21    1    1    2  505  502 -0.12478368947E+03  0.65914378703E+02 -0.85428606896E+03  0.86586393972E+03  0.00000000000E+00 0. -1.
         21    1    1    2  506  501  0.13988510792E+02 -0.52667043344E+02 -0.10977927443E+03  0.12256012803E+03  0.00000000000E+00 0. -1.
<scales pt_clust_3="41.17590" pt_clust_4="14000.00000" pt_clust_5="102.71902" pt_clust_6="58.39528"></scales>
<clustering>
<clus scale="   41.176">  2  3  1 -1</clus>
<clus scale="   58.395">  1  6  2 -1</clus>
<clus scale="  102.719">  2  5  1 -1</clus>
<clus scale="   58.395">  1  3  2 -1</clus>
</clustering>
</event>
<event>
 6    0  0.8520634E+002  0.1044888E+03  0.7546771E-02  0.1271130E+00
         21   -1    0    0  506  501  0.00000000000E+00  0.00000000000E+00  0.91157982111E+03  0.91157982111E+03  0.00000000000E+00 0.  1.
         21   -1    0    0  504  502 -0.00000000000E+00 -0.00000000000E+00 -0.24292350643E+03  0.24292350643E+03  0.00000000000E+00 0.  1.
         21    1    1    2  503  502 -0.21894666660E+02  0.52106813101E+02 -0.21387976640E+03  0.22122172334E+03  0.00000000000E+00 0.  1.
         21    1    1    2  504  505 -0.90734611432E+02 -0.66117949929E+02  0.14533295307E+03  0.18364645453E+03  0.00000000000E+00 0. -1.
         21    1    1    2  505  501  0.32537041940E+02 -0.95414358927E+01  0.76487605012E+02  0.83666312322E+02  0.00000000000E+00 0.  1.
         21    1    1    2  506  503  0.80092236151E+02  0.23552572720E+02  0.66071552301E+03  0.66596883735E+03  0.00000000000E+00 0.  1.
<scales pt_clust_3="56.42551" pt_clust_4="104.48876" pt_clust_5="33.90720" pt_clust_6="14000.00000"></scales>
<clustering>
<clus scale="   33.907">  1  5  2 -1</clus>
<clus scale="   56.426">  2  3  1 -1</clus>
<clus scale="  104.489">  2  4  1 -1</clus>
<clus scale="   33.907">  1  3  2 -1</clus>
</clustering>
</event>
<event>
 6    0  0.8520634E+002  0.1151424E+03  0.7546771E-02  0.1251333E+00
         21   -1    0    0  504  501  0.00000000000E+00  0.00000000000E+00  0.45535716139E+02  0.45535716139E+02  0.00000000000E+00 0. -1.
         21   -1    0    0  506  502 -0.00000000000E+00 -0.00000000000E+00 -0.15975057502E+04  0.15975057502E+04  0.00000000000E+00 0.  1.
         21    1    1    2  503  505 -0.12601441605E+03 -0.29906555833E+02 -0.21548848691E+03  0.25141464381E+03  0.00000000000E+00 0. -1.
         21    1    1    2  504  502  0.37060641964E+01  0.64588174213E+02 -0.46488868238E+02  0.79665438115E+02  0.00000000000E+00 0. -1.
         21    1    1    2  505  501  0.99451041500E+01 -0.48110257155E+02 -0.63627985846E+02  0.80386706133E+02  0.00000000000E+00 0. -1.
         21    1    1    2  506  503  0.11236324770E+03  0.13428638775E+02 -0.12263646931E+04  0.12315746783E+04  0.00000000000E+00 0.  1.
<scales pt_clust_3="115.14236" pt_clust_4="43.87246" pt_clust_5="49.12741" pt_clust_6="14000.00000"></scales>
<clustering>
<clus scale="   49.127">  1  5  2 -1</clus>
<clus scale="   43.872">  1  4  2 -1</clus>
<clus scale="  115.142">  1  3  2 -1</clus>
<clus scale="   49.127">  1  3  2 -1</clus>
</clustering>
</event>
<event>
 6    0  0.8520634E+002  0.1006271E+03  0.7546771E-02  0.1278983E+00
         21   -1    0    0  503  501  0.00000000000E+00  0.00000000000E+00  0.25747616952E+03  0.25747616952E+03  0.00000000000E+00 0.  1.
         21   -1    0    0  504  502 -0.00000000000E+00 -0.00000000000E+00 -0.10197213837E+04  0.10197213837E+04  0.00000000000E+00 0. -1.
         21    1    1    2  503  506  0.13503720422E+03  0.16109991512E+02  0.10620745476E+03  0.17255318541E+03  0.00000000000E+00 0.  1.
         21    1    1    2  504  501 -0.78122122310E+02  0.25469194528E+02  0.59325514980E+02  0.10134723771E+03  0.00000000000E+00 0.  1.
         21    1    1    2  505  502 -0.11430928590E+02  0.32026617198E+02 -0.91523605779E+03  0.91586757329E+03  0.00000000000E+00 0. -1.
         21    1    1    2  506  505 -0.45484153318E+02 -0.73605803238E+02 -0.12542126129E+02  0.87429556795E+02  0.00000000000E+00 0.  1.
<scales pt_clust_3="14000.00000" pt_clust_4="100.62708" pt_clust_5="34.00545" pt_clust_6="77.39193"></scales>
<clustering>
<clus scale="   34.005">  2  5  1 -1</clus>
<clus scale="   77.392">  2  6  1 -1</clus>
<clus scale="  100.627">  1  4  2 -1</clus>
<clus scale="  100.627">  1  3  2 -1</clus>
</clustering>
</event>
<event>
 6    0  0.8520634E+002  0.9189693E+02  0.7546771E-02  0.1298322E+00
         21   -1    0    0  506  501  0.00000000000E+00  0.00000000000E+00  0.33243374511E+02  0.33243374511E+02  0.00000000000E+00 0. -1.
         21   -1    0    0  505  502 -0.00000000000E+00 -0.00000000000E+00 -0.11613729498E+04  0.11613729498E+04  0.00000000000E+00 0.  1.
         21    1    1    2  503  504 -0.16116604566E+02  0.64154464942E+02 -0.17150302328E+03  0.18381737488E+03  0.00000000000E+00 0. -1.
         21    1    1    2  504  502  0.99558525797E+02  0.19809235658E+02 -0.66095685749E+03  0.66870641790E+03  0.00000000000E+00 0.  1.
         21    1    1    2  505  501 -0.53847640570E+02 -0.73832167153E+02 -0.29704314617E+03  0.31078189778E+03  0.00000000000E+00 0. -1.
         21    1    1    2  506  503 -0.29594280661E+02 -0.10131533447E+02  0.13734516275E+01  0.31310633772E+02  0.00000000000E+00 0. -1.
<scales pt_clust_3="66.17653" pt_clust_4="91.89693" pt_clust_5="14000.00000" pt_clust_6="31.28050"></scales>
<clustering>
<clus scale="   31.280">  1  6  2 -1</clus>
<clus scale="   66.177">  1  3  2 -1</clus>
<clus scale="   91.897">  2  4  1 -1</clus>
<clus scale="   31.280">  1  3  2 -1</clus>
</clustering>
</event>
<event>
 6    0  0.8520634E+002  0.1312281E+03  0.7546771E-02  0.1225645E+00
         21   -1    0    0  505  501  0.00000000000E+00  0.00000000000E+00  0.39264788321E+03  0.39264788321E+03  0.00000000000E+00 0. -1.
         21   -1    0    0  504  502 -0.00000000000E+00 -0.00000000000E+00 -0.39998310655E+03  0.39998310655E+03  0.00000000000E+00 0.  1.
         21    1    1    2  503  501  0.27912196352E+02  0.19563744367E+02  0.82028840837E+02  0.88828832751E+02  0.00000000000E+00 0. -1.
         21    1    1    2  504  503  0.77802116480E+02 -0.71904552996E+02  0.28652866398E+03  0.30548667623E+03  0.00000000000E+00 0. -1.
         21    1    1    2  505  506 -0.83637647894E+02  0.17851266369E+02 -0.19642543106E+03  0.21423555686E+03  0.00000000000E+00 0.  1.
         21    1    1    2  506  502 -0.22076664938E+02  0.34489542260E+02 -0.17946729711E+03  0.18407992392E+03  0.00000000000E+00 0.  1.
<scales pt_clust_3="34.08564" pt_clust_4="117.37120" pt_clust_5="40.77936" pt_clust_6="40.77936"></scales>
<clustering>
<clus scale="   34.086">  1  3  2 -1</clus>
<clus scale="   40.779">  5  6 -1 -1</clus>
<clus scale="  117.371">  1  4  2 -1</clus>
<clus scale="   34.086">  1  3  2 -1</clus>
</clustering>
</event>
<event>
 6    0  0.8520634E+002  0.1392406E+03  0.7546771E-02  0.1214354E+00
         21   -1    0    0  505  501  0.00000000000E+00  0.00000000000E+00  0.17880541174E+04  0.17880541174E+04  0.00000000000E+00 0.  1.
         21   -1    0    0  503  502 -0.00000000000E+00 -0.00000000000E+00 -0.24274963444E+02  0.24274963444E+02  0.00000000000E+00 0.  1.
         21    1    1    2  503  506 -0.13569021004E+03  0.54076141525E+02  0.69617180195E+03  0.71133061231E+03  0.00000000000E+00 0.  1.
         21    1    1    2  504  502  0.21507265115E+02  0.22784101704E+02  0.19185164144E+02  0.36738920322E+02  0.00000000000E+00 0.  1.
         21    1    1    2  505  504  0.22824900792E+02  0.30596294340E+02  0.32346297295E+03  0.32570754396E+03  0.00000000000E+00 0.  1.
         21    1    1    2  506  501  0.91358044130E+02 -0.10745653757E+03  0.72495921486E+03  0.73855200420E+03  0.00000000000E+00 0.  1.
<scales pt_clust_3="139.24062" pt_clust_4="31.33174" pt_clust_5="40.42667" pt_clust_6="14000.00000"></scales>
<clustering>
<clus scale="   31.332">  2  4  1 -1</clus>
<clus scale="   40.427">  1  5  2 -1</clus>
<clus scale="  139.241">  2  3  1 -1</clus>
<clus scale="   40.427">  1  3  2 -1</clus>
</clustering>
</event>
<event>
 6    0  0.8520634E+002  0.2004030E+03  0.7546771E-02  0.1149399E+00
         21   -1    0    0  503  501  0.00000000000E+00  0.00000000000E+00  0.43498910017E+02  0.43498910017E+02  0.00000000000E+00 0.  1.
         21   -1    0    0  505  502 -0.00000000000E+00 -0.00000000000E+00 -0.22604987763E+04  0.22604987763E+04  0.00000000000E+00 0.  1.
         21    1    1    2  503  504  0.12447411705E+03 -0.16382836555E+03 -0.40530729800E+03  0.45454102674E+03  0.00000000000E+00 0.  1.
         21    1    1    2  504  502  0.39495582309E+01 -0.33101958241E+02 -0.87982219193E+03  0.88045353544E+03  0.00000000000E+00 0.  1.
         21    1    1    2  505  506  0.10717357517E+02  0.61362318216E+02 -0.35166879623E+03  0.35714302190E+03  0.00000000000E+00 0.  1.
         21    1    1    2  506  501 -0.13914103280E+03  0.13556800557E+03 -0.58020158015E+03  0.61186010227E+03  0.00000000000E+00 0.  1.
<scales pt_clust_3="14000.00000" pt_clust_4="33.33675" pt_clust_5="54.14950" pt_clust_6="200.40302"></scales>
<clustering>
<clus scale="   33.337">  2  4  1 -1</clus>
<clus scale="   54.149">  2  5  1 -1</clus>
<clus scale="  200.403">  2  6  1 -1</clus>
<clus scale="  200.403">  1  3  2 -1</clus>
</clustering>
</event>
<event>
 6    0  0.8520634E+002  0.1017948E+03  0.7546771E-02  0.1276566E+00
         21   -1    0    0  504  501  0.00000000000E+00  0.00000000000E+00  0.52425069062E+02  0.52425069062E+02  0.00000000000E+00 0.  1.
         21   -1    0    0  503  502 -0.00000000000E+00 -0.00000000000E+00 -0.88336517669E+03  0.88336517669E+03  0.00000000000E+00 0.  1.
         21    1    1    2  503  505 -0.97144905341E+02 -0.43996393972E+02 -0.70856038850E+03  0.71654074516E+03  0.00000000000E+00 0.  1.
         21    1    1    2  504  506 -0.12947833779E+02  0.28763336263E+02  0.10068877445E+02  0.33111300270E+02  0.00000000000E+00 0.  1.
         21    1    1    2  505  501  0.29360366870E+02  0.18273220868E+02 -0.86590423683E+02  0.93240780870E+02  0.00000000000E+00 0.  1.
         21    1    1    2  506  502  0.80732372249E+02 -0.30401631587E+01 -0.45858172891E+02  0.92897419458E+02  0.00000000000E+00 0.  1.
<scales pt_clust_3="14000.00000" pt_clust_4="31.54324" pt_clust_5="35.19775" pt_clust_6="101.79480"></scales>
<clustering>
<clus scale="   31.543">  1  4  2 -1</clus>
<clus scale="   35.198">  1  5  2 -1</clus>
<clus scale="  101.795">  1  6  2 -1</clus>
<clus scale="   31.543">  1  3  2 -1</clus>
</clustering>
</event>
<event>
 6    0  0.8520634E+002  0.1467648E+03  0.7546771E-02  0.1204506E+00
         21   -1    0    0  504  501  0.00000000000E+00  0.00000000000E+00  0.23936435079E+03  0.23936435079E+03  0.00000000000E+00 0. -1.
         21   -1    0    0  506  502 -0.00000000000E+00 -0.00000000000E+00 -0.11245375832E+04  0.11245375832E+04  0.00000000000E+00 0. -1.
         21    1    1    2  503  502  0.27858515651E+02  0.55605234584E+02  0.31550810409E+02  0.69738745650E+02  0.00000000000E+00 0. -1.
         21    1    1    2  504  503 -0.97827760727E+01  0.29680642924E+02  0.16338586807E+03  0.16634778375E+03  0.00000000000E+00 0. -1.
         21    1    1    2  505  501  0.74706947577E+02  0.60990140208E+02 -0.12902535259E+03  0.16108527813E+03  0.00000000000E+00 0.  1.
         21    1    1    2  506  505 -0.92782687154E+02 -0.14627601772E+03 -0.95108455833E+03  0.96673012651E+03  0.00000000000E+00 0. -1.
<scales pt_clust_3="78.69431" pt_clust_4="31.25129" pt_clust_5="146.76481" pt_clust_6="14000.00000"></scales>
<clustering>
<clus scale="   31.251">  1  4  2 -1</clus>
<clus scale="   78.694">  1  3  2 -1</clus>
<clus scale="  146.765">  1  5  2 -1</clus>
<clus scale="   31.251">  1  3  2 -1</clus>
</clustering>
</event>
<event>
 6    0  0.8520634E+002  0.1067212E+03  0.7546771E-02  0.1266765E+00
         21   -1    0    0  506  501  0.00000000000E+00  0.00000000000E+00  0.20170759245E+03  0.20170759245E+03  0.00000000000E+00 0.  1.
         21   -1    0    0  505  502 -0.00000000000E+00 -0.00000000000E+00 -0.16463278746E+03  0.16463278746E+03  0.00000000000E+00 0.  1.
         21    1    1    2  503  501  0.70298574852E+02 -0.54321174771E+02  0.11662698839E+03  0.14661014315E+03  0.00000000000E+00 0.  1.
         21    1    1    2  504  503 -0.28467465472E+02  0.37256642313E+02  0.14825594666E+02  0.49175728200E+02  0.00000000000E+00 0.  1.
         21    1    1    2  505  504 -0.78055320724E+02  0.28727099830E+02 -0.17821881418E+02  0.85061735318E+02  0.00000000000E+00 0.  1.
         21    1    1    2  506  502  0.36224211345E+02 -0.11662567373E+02 -0.76555896643E+02  0.85492773239E+02  0.00000000000E+00 0. -1.
<scales pt_clust_3="95.28718" pt_clust_4="36.08441" pt_clust_5="36.08441" pt_clust_6="38.05534"></scales>
<clustering>
<clus scale="   36.084">  4  5 -1 -1</clus>
<clus scale="   38.055">  2  6  1 -1</clus>
<clus scale="   95.287">  1  3  2 -1</clus>
<clus scale="   95.287">  1  3  2 -1</clus>
</clustering>
</event>
<event>
 6    0  0.8520634E+002  0.1586692E+03  0.7546771E-02  0.1190207E+00
         21   -1    0    0  505  501  0.00000000000E+00  0.00000000000E+00  0.91368818333E+03  0.91368818333E+03  0.00000000000E+00 0.  1.
         21   -1    0    0  504  502 -0.00000000000E+00 -0.00000000000E+00 -0.47709748783E+03  0.47709748783E+03  0.00000000000E+00 0. -1.
         21    1    1    2  503  501 -0.20827742351E+03 -0.11500303874E+03  0.11281040695E+03  0.26330851103E+03  0.00000000000E+00 0. -1.
         21    1    1    2  504  506  0.56433513252E+02 -0.20623161754E+01 -0.23585791471E+03  0.24252412354E+03  0.00000000000E+00 0. -1.
         21    1    1    2  505  502  0.80612591324E+02  0.20986477852E+02  0.69749071620E+03  0.70244723739E+03  0.00000000000E+00 0.  1.
         21    1    1    2  506  503  0.71231318933E+02  0.96078877066E+02 -0.13785251295E+03  0.18250579920E+03  0.00000000000E+00 0. -1.
<scales pt_clust_3="14000.00000" pt_clust_4="56.47118" pt_clust_5="83.86325" pt_clust_6="158.66919"></scales>
<clustering>
<clus scale="   56.471">  2  4  1 -1</clus>
<clus scale="   83.863">  1  5  2 -1</clus>
<clus scale="  158.669">  2  6  1 -1</clus>
<clus scale="   83.863">  1  3  2 -1</clus>
</clustering>
</event>
<event>
 6    0  0.8520634E+002  0.1140337E+03  0.7546771E-02  0.1253277E+00
         21   -1    0    0  503  501  0.00000000000E+00  0.00000000000E+00  0.27249149893E+03  0.27249149893E+03  0.00000000000E+00 0.  1.
         21   -1    0    0  505  502 -0.00000000000E+00 -0.00000000000E+00 -0.30421547010E+03  0.30421547010E+03  0.00000000000E+00 0. -1.
         21    1    1    2  503  506 -0.44298131805E+02  0.10108895784E+01  0.12338549049E+03  0.13110044105E+03  0.00000000000E+00 0.  1.
         21    1    1    2  504  501  0.17337306281E+02  0.71546954226E+02 -0.21951503310E+02  0.76820683059E+02  0.00000000000E+00 0. -1.
         21    1    1    2  505  504  0.82263226220E+02  0.72861859589E+02 -0.17593228760E+03  0.20743254034E+03  0.00000000000E+00 0. -1.
         21    1    1    2  506  502 -0.55302400696E+02 -0.14541970339E+03  0.42774329248E+02  0.16135330458E+03  0.00000000000E+00 0.  1.
<scales pt_clust_3="44.30966" pt_clust_4="72.29655" pt_clust_5="114.03371" pt_clust_6="14000.00000"></scales>
<clustering>
<clus scale="   44.310">  1  3  2 -1</clus>
<clus scale="   72.297">  1  4  2 -1</clus>
<clus scale="  114.034">  2  5  1 -1</clus>
<clus scale="   44.310">  1  3  2 -1</clus>
</clustering>
</event>
<event>
 6    0  0.8520634E+002  0.2509511E+03  0.7546771E-02  0.1112705E+00
         21   -1    0    0  506  501  0.00000000000E+00  0.00000000000E+00  0.13444815247E+04  0.13444815247E+04  0.00000000000E+00 0. -1.
         21   -1    0    0  504  502 -0.00000000000E+00 -0.00000000000E+00 -0.27538509036E+03  0.27538509036E+03  0.00000000000E+00 0.  1.
         21    1    1    2  503  505  0.20880938095E+03  0.23719460672E+02  0.42726463833E+03  0.47615023003E+03  0.00000000000E+00 0. -1.
         21    1    1    2  504  503  0.81960489386E+02  0.29605812945E+02 -0.43567938083E+02  0.97427876962E+02  0.00000000000E+00 0.  1.
         21    1    1    2  505  501  0.39551264290E+02 -0.16159374254E+02  0.71157276409E+03  0.71285428138E+03  0.00000000000E+00 0. -1.
         21    1    1    2  506  502 -0.33032113463E+03 -0.37165899362E+02 -0.26173029957E+02  0.33343422673E+03  0.00000000000E+00 0.  1.
<scales pt_clust_3="14000.00000" pt_clust_4="88.50268" pt_clust_5="42.72503" pt_clust_6="250.95106"></scales>
<clustering>
<clus scale="   42.725">  1  5  2 -1</clus>
<clus scale="   88.503">  2  4  1 -1</clus>
<clus scale="  250.951">  2  6  1 -1</clus>
<clus scale="   42.725">  1  3  2 -1</clus>
</clustering>
</event>
<event>
 6    0  0.8520634E+002  0.1155991E+03  0.7546771E-02  0.1250539E+00
         21   -1    0    0  506  501  0.00000000000E+00  0.00000000000E+00  0.36301045131E+04  0.36301045131E+04  0.00000000000E+00 0. -1.
         21   -1    0    0  505  502 -0.00000000000E+00 -0.00000000000E+00 -0.11443290672E+02  0.11443290672E+02  0.00000000000E+00 0. -1.
         21    1    1    2  503  504 -0.70409325010E+02 -0.61458244246E+02  0.88330273025E+03  0.88823324758E+03  0.00000000000E+00 0. -1.
         21    1    1    2  504  501 -0.19710852781E+02  0.24873783208E+02  0.13753822664E+04  0.13757483787E+04  0.00000000000E+00 0. -1.
         21    1    1    2  505  503  0.14781273947E+03  0.43802997515E+01  0.78509145418E+03  0.79889697985E+03  0.00000000000E+00 0. -1.
         21    1    1    2  506  502 -0.57692561683E+02  0.32204161287E+02  0.57488477159E+03  0.57866919763E+03  0.00000000000E+00 0. -1.
<scales pt_clust_3="14000.00000" pt_clust_4="31.73677" pt_clust_5="115.59905" pt_clust_6="73.64212"></scales>
<clustering>
<clus scale="   31.737">  1  4  2 -1</clus>
<clus scale="   73.642">  1  6  2 -1</clus>
<clus scale="  115.599">  2  5  1 -1</clus>
<clus scale="   31.737">  1  3  2 -1</clus>
</clustering>
</event>
<event>
 6    0  0.8520634E+002  0.9742926E+02  0.7546771E-02  0.1285797E+00
         21   -1    0    0  506  501  0.00000000000E+00  0.00000000000E+00  0.12601309045E+04  0.12601309045E+04  0.00000000000E+00 0. -1.
         21   -1    0    0  503  502 -0.00000000000E+00 -0.00000000000E+00 -0.11593320526E+03  0.11593320526E+03  0.00000000000E+00 0.  1.
         21    1    1    2  503  505  0.43054046254E+02  0.40992307002E+02 -0.62089025016E+02  0.85959683339E+02  0.00000000000E+00 0.  1.
         21    1    1    2  504  501 -0.72338580378E+02 -0.67504086039E+02  0.11567850264E+04  0.11610087292E+04  0.00000000000E+00 0. -1.
         21    1    1    2  505  504  0.59563335780E+02  0.52293678214E+02  0.36443482459E+02  0.87238450032E+02  0.00000000000E+00 0.  1.
         21    1    1    2  506  502 -0.30278801656E+02 -0.25781899178E+02  0.13058215361E+02  0.41857247202E+02  0.00000000000E+00 0. -1.
<scales pt_clust_3="30.54119" pt_clust_4="97.42926" pt_clust_5="14000.00000" pt_clust_6="39.76823"></scales>
<clustering>
<clus scale="   39.768">  2  6  1 -1</clus>
<clus scale="   30.541">  2  3  1 -1</clus>
<clus scale="   97.429">  1  4  2 -1</clus>
<clus scale="   97.429">  1  3  2 -1</clus>
</clustering>
</event>
<event>
 6    0  0.8520634E+002  0.8789265E+02  0.7546771E-02  0.1308037E+00
         21   -1    0    0  504  501  0.00000000000E+00  0.00000000000E+00  0.55128259520E+03  0.55128259520E+03  0.00000000000E+00 0.  1.
         21   -1    0    0  505  502 -0.00000000000E+00 -0.00000000000E+00 -0.15560614795E+03  0.15560614795E+03  0.00000000000E+00 0. -1.
         21    1    1    2  503  506  0.22780528260E+02  0.77050819686E+02  0.15510835296E+02  0.81831334424E+02  0.00000000000E+00 0. -1.
         21    1    1    2  504  503  0.43903922657E+00 -0.89266730992E+02  0.45898529835E+03  0.46758554952E+03  0.00000000000E+00 0.  1.
         21    1    1    2  505  501  0.20039059373E+02 -0.42163073901E+02  0.68303798181E+01  0.47179898154E+02  0.00000000000E+00 0. -1.
         21    1    1    2  506  502 -0.43258626860E+02  0.54378985207E+02 -0.85650066216E+02  0.11029196105E+03  0.00000000000E+00 0. -1.
<scales pt_clust_3="87.89265" pt_clust_4="14000.00000" pt_clust_5="46.68285" pt_clust_6="37.38241"></scales>
<clustering>
<clus scale="   46.683">  2  5  1 -1</clus>
<clus scale="   37.382">  2  6  1 -1</clus>
<clus scale="   87.893">  2  3  1 -1</clus>
<clus scale="   87.893">  1  3  2 -1</clus>
</clustering>
</event>
<event>
 6    0  0.8520634E+002  0.8980837E+02  0.7546771E-02  0.1303316E+00
         21   -1    0    0  505  501  0.00000000000E+00  0.00000000000E+00  0.36638774986E+03  0.36638774986E+03  0.00000000000E+00 0. -1.
         21   -1    0    0  503  502 -0.00000000000E+00 -0.00000000000E+00 -0.53191048306E+03  0.53191048306E+03  0.00000000000E+00 0.  1.
         21    1    1    2  503  504 -0.10330720121E+02 -0.33977822458E+02 -0.60037769883E+02  0.69754928211E+02  0.00000000000E+00 0.  1.
         21    1    1    2  504  501  0.66698557006E+02 -0.60702615975E+02 -0.28415911859E+03  0.29812733818E+03  0.00000000000E+00 0.  1.
         21    1    1    2  505  506 -0.22851427731E+02  0.87136577520E+02  0.34706038482E+03  0.35856084784E+03  0.00000000000E+00 0. -1.
         21    1    1    2  506  502 -0.33516409154E+02  0.75438609128E+01 -0.16838622954E+03  0.17185511869E+03  0.00000000000E+00 0.  1.
<scales pt_clust_3="36.48907" pt_clust_4="89.80837" pt_clust_5="14000.00000" pt_clust_6="34.35491"></scales>
<clustering>
<clus scale="   34.355">  2  6  1 -1</clus>
<clus scale="   36.489">  2  3  1 -1</clus>
<clus scale="   89.808">  2  4  1 -1</clus>
<clus scale="   89.808">  1  3  2 -1</clus>
</clustering>
</event>
<event>
 6    0  0.8520634E+002  0.9664009E+02  0.7546771E-02  0.1287524E+00
         21   -1    0    0  506  501  0.00000000000E+00  0.00000000000E+00  0.52321448685E+03  0.52321448685E+03  0.00000000000E+00 0. -1.
         21   -1    0    0  504  502 -0.00000000000E+00 -0.00000000000E+00 -0.10089750826E+03  0.10089750826E+03  0.00000000000E+00 0. -1.
         21    1    1    2  503  505  0.34516208089E+02 -0.12238526891E+03  0.48526780087E+02  0.13610426538E+03  0.00000000000E+00 0. -1.
         21    1    1    2  504  501 -0.62235004355E+02 -0.10133970151E+02 -0.62261361031E+01  0.63361328023E+02  0.00000000000E+00 0. -1.
         21    1    1    2  505  502  0.28604785526E+02  0.39494117523E+02  0.19834222256E+02  0.52644234693E+02  0.00000000000E+00 0. -1.
         21    1    1    2  506  503 -0.88598925966E+00  0.93025121541E+02  0.36018211234E+03  0.37200216702E+03  0.00000000000E+00 0. -1.
<scales pt_clust_3="14000.00000" pt_clust_4="50.82661" pt_clust_5="48.76494" pt_clust_6="96.64009"></scales>
<clustering>
<clus scale="   48.765">  2  5  1 -1</clus>
<clus scale="   50.827">  2  4  1 -1</clus>
<clus scale="   96.640">  1  6  2 -1</clus>
<clus scale="   96.640">  1  3  2 -1</clus>
</clustering>
</event>
<event>
 6    0  0.8520634E+002  0.1231907E+03  0.7546771E-02  0.1237924E+00
         21   -1    0    0  504  501  0.00000000000E+00  0.00000000000E+00  0.13103391226E+03  0.13103391226E+03  0.00000000000E+00 0. -1.
         21   -1    0    0  505  502 -0.00000000000E+00 -0.00000000000E+00 -0.23888134820E+03  0.23888134820E+03  0.00000000000E+00 0. -1.
         21    1    1    2  503  506 -0.44759723059E+02 -0.71706973989E+02 -0.37690486021E+02  0.92552124035E+02  0.00000000000E+00 0. -1.
         21    1    1    2  504  502  0.10220302035E+03  0.30465056445E+02 -0.24869137278E+02  0.10950822353E+03  0.00000000000E+00 0. -1.
         21    1    1    2  505  503 -0.31222889664E+02  0.87943349157E+02 -0.61657361040E+02  0.11185048802E+03  0.00000000000E+00 0. -1.
         21    1    1    2  506  501 -0.26220407623E+02 -0.46701431614E+02  0.16369548395E+02  0.56004424873E+02  0.00000000000E+00 0. -1.
<scales pt_clust_3="40.24089" pt_clust_4="112.33976" pt_clust_5="93.32150" pt_clust_6="40.24089"></scales>
<clustering>
<clus scale="   40.241">  3  6 -1 -1</clus>
<clus scale="   93.321">  2  5  1 -1</clus>
<clus scale="  112.340">  1  4  2 -1</clus>
<clus scale="  112.340">  1  3  2 -1</clus>
</clustering>
</event>
<event>
 6    0  0.8520634E+002  0.7647590E+02  0.7546771E-02  0.1339361E+00
         21   -1    0    0  504  501  0.00000000000E+00  0.00000000000E+00  0.27618358303E+03  0.27618358303E+03  0.00000000000E+00 0.  1.
         21   -1    0    0  506  502 -0.00000000000E+00 -0.00000000000E+00 -0.57828095869E+03  0.57828095869E+03  0.00000000000E+00 0.  1.
         21    1    1    2  503  502 -0.10080255686E+03 -0.78579575347E+02 -0.46148062604E+03  0.47885308116E+03  0.00000000000E+00 0.  1.
         21    1    1    2  504  503 -0.54292155928E+02  0.25958401496E+02  0.77608800383E+02  0.98206938148E+02  0.00000000000E+00 0.  1.
         21    1    1    2  505  501  0.87583173122E+02  0.40038388434E+02  0.15151411122E+03  0.17952830045E+03  0.00000000000E+00 0.  1.
         21    1    1    2  506  505  0.67511539661E+02  0.12582785417E+02 -0.69739661238E+02  0.97876221964E+02  0.00000000000E+00 0.  1.
<scales pt_clust_3="14000.00000" pt_clust_4="60.17871" pt_clust_5="76.47590" pt_clust_6="65.09535"></scales>
<clustering>
<clus scale="   60.179">  1  4  2 -1</clus>
<clus scale="   65.095">  2  6  1 -1</clus>
<clus scale="   76.476">  1  5  2 -1</clus>
<clus scale="   60.179">  1  3  2 -1</clus>
</clustering>
</event>
<event>
 6    0  0.8520634E+002  0.8873571E+02  0.7546771E-02  0.1305943E+00
         21   -1    0    0  506  501  0.00000000000E+00  0.00000000000E+00  0.91573803447E+03  0.91573803447E+03  0.00000000000E+00 0.  1.
         21   -1    0    0  504  502 -0.00000000000E+00 -0.00000000000E+00 -0.46268921679E+02  0.46268921679E+02  0.00000000000E+00 0.  1.
         21    1    1    2  503  505  0.10116921070E+02 -0.77999725008E+02  0.56364519727E+02  0.96763982335E+02  0.00000000000E+00 0.  1.
         21    1    1    2  504  503 -0.23918609624E+02 -0.31650378552E+02  0.52814279837E+00  0.39675247745E+02  0.00000000000E+00 0.  1.
         21    1    1    2  505  501  0.53084796469E+02  0.48273594650E+02  0.45730556170E+03  0.46290032655E+03  0.00000000000E+00 0.  1.
         21    1    1    2  506  502 -0.39283107915E+02  0.61376508910E+02  0.35527088857E+03  0.36266739952E+03  0.00000000000E+00 0.  1.
<scales pt_clust_3="88.73571" pt_clust_4="39.67173" pt_clust_5="67.67055" pt_clust_6="14000.00000"></scales>
<clustering>
<clus scale="   39.672">  2  4  1 -1</clus>
<clus scale="   67.671">  1  5  2 -1</clus>
<clus scale="   88.736">  2  3  1 -1</clus>
<clus scale="   67.671">  1  3  2 -1</clus>
</clustering>
</event>
<event>
 6    0  0.8520634E+002  0.1130170E+03  0.7546771E-02  0.1255083E+00
         21   -1    0    0  506  501  0.00000000000E+00  0.00000000000E+00  0.97122577158E+03  0.97122577158E+03  0.00000000000E+00 0.  1.
         21   -1    0    0  503  502 -0.00000000000E+00 -0.00000000000E+00 -0.59546668934E+02  0.59546668934E+02  0.00000000000E+00 0.  1.
         21    1    1    2  503  505 -0.55077114663E+02  0.36550868922E+02  0.64753752838E+02  0.92533794287E+02  0.00000000000E+00 0.  1.
         21    1    1    2  504  502 -0.29553990883E+02  0.65316738248E+02 -0.28074373203E+00  0.71692353076E+02  0.00000000000E+00 0.  1.
         21    1    1    2  505  501  0.27221694557E+02 -0.96218380163E+02  0.71950375292E+03  0.72641905798E+03  0.00000000000E+00 0.  1.
         21    1    1    2  506  504  0.57409410989E+02 -0.56492270072E+01  0.12770234062E+03  0.14012723517E+03  0.00000000000E+00 0.  1.
<scales pt_clust_3="61.36821" pt_clust_4="14000.00000" pt_clust_5="113.01699" pt_clust_6="57.68669"></scales>
<clustering>
<clus scale="   57.687">  1  6  2 -1</clus>
<clus scale="   61.368">  2  3  1 -1</clus>
<clus scale="  113.017">  1  5  2 -1</clus>
<clus scale="   57.687">  1  3  2 -1</clus>
</clustering>
</event>
<event>
 6    0  0.8520634E+002  0.1568569E+03  0.7546771E-02  0.1192292E+00
         21   -1    0    0  506  501  0.00000000000E+00  0.00000000000E+00  0.60346329892E+03  0.60346329892E+03  0.00000000000E+00 0.  1.
         21   -1    0    0  505  502 -0.00000000000E+00 -0.00000000000E+00 -0.11046516221E+03  0.11046516221E+03  0.00000000000E+00 0.  1.
         21    1    1    2  503  501  0.19758504270E+02 -0.12119634700E+03  0.22245370620E+03  0.25409565998E+03  0.00000000000E+00 0.  1.
         21    1    1    2  504  502  0.13958702323E+02 -0.86015462671E+02  0.32903554368E+01  0.87202818922E+02  0.00000000000E+00 0.  1.
         21    1    1    2  505  503 -0.63963177305E+02  0.21663354263E+03  0.21701092959E+03  0.31323333699E+03  0.00000000000E+00 0.  1.
         21    1    1    2  506  504  0.30245970712E+02 -0.94217329532E+01  0.50243145490E+02  0.59396645233E+02  0.00000000000E+00 0.  1.
<scales pt_clust_3="14000.00000" pt_clust_4="88.33820" pt_clust_5="156.85690" pt_clust_6="31.67945"></scales>
<clustering>
<clus scale="   31.679">  1  6  2 -1</clus>
<clus scale="   88.338">  2  4  1 -1</clus>
<clus scale="  156.857">  2  5  1 -1</clus>
<clus scale="   31.679">  1  3  2 -1</clus>
</clustering>
</event>
<event>
 6    0  0.8520634E+002  0.1175486E+03  0.7546771E-02  0.1247197E+00
         21   -1    0    0  506  501  0.00000000000E+00  0.00000000000E+00  0.30879200141E+03  0.30879200141E+03  0.00000000000E+00 0.  1.
         21   -1    0    0  503  502 -0.00000000000E+00 -0.00000000000E+00 -0.44403508591E+03  0.44403508591E+03  0.00000000000E+00 0.  1.
         21    1    1    2  503  505  0.79085536963E+02 -0.19702766311E+02 -0.34517246183E+03  0.35466427726E+03  0.00000000000E+00 0.  1.
         21    1    1    2  504  501  0.27269016724E+02  0.42256078332E+02  0.10242091695E+03  0.11410179516E+03  0.00000000000E+00 0.  1.
         21    1    1    2  505  504 -0.11767238763E+03  0.39228019319E+02  0.15982949699E+03  0.20231435050E+03  0.00000000000E+00 0.  1.
         21    1    1    2  506  502  0.11317833946E+02 -0.61781331340E+02 -0.52321036617E+02  0.81746664397E+02  0.00000000000E+00 0.  1.
<scales pt_clust_3="117.54859" pt_clust_4="50.29091" pt_clust_5="14000.00000" pt_clust_6="60.17347"></scales>
<clustering>
<clus scale="   50.291">  1  4  2 -1</clus>
<clus scale="   60.173">  2  6  1 -1</clus>
<clus scale="  117.549">  2  3  1 -1</clus>
<clus scale="   50.291">  1  3  2 -1</clus>
</clustering>
</event>
<event>
 6    0  0.8520634E+002  0.1025309E+03  0.7546771E-02  0.1275062E+00
         21   -1    0    0  503  501  0.00000000000E+00  0.00000000000E+00  0.14316978486E+03  0.14316978486E+03  0.00000000000E+00 0.  1.
         21   -1    0    0  505  502 -0.00000000000E+00 -0.00000000000E+00 -0.17110750999E+03  0.17110750999E+03  0.00000000000E+00 0.  1.
         21    1    1    2  503  506 -0.55622089560E+02  0.23357341133E+01  0.20671415226E+02  0.59385014172E+02  0.00000000000E+00 0.  1.
         21    1    1    2  504  501  0.29318922233E+02 -0.66915517915E+02  0.35634719479E+02  0.81284186476E+02  0.00000000000E+00 0.  1.
         21    1    1    2  505  504  0.51719101774E+02 -0.10148312243E+02  0.67661126237E+01  0.53137877354E+02  0.00000000000E+00 0.  1.
         21    1    1    2  506  502 -0.25415934447E+02  0.74728096044E+02 -0.91009972458E+02  0.12047021685E+03  0.00000000000E+00 0.  1.
<scales pt_clust_3="55.67111" pt_clust_4="52.12026" pt_clust_5="52.12026" pt_clust_6="82.14083"></scales>
<clustering>
<clus scale="   52.120">  4  5 -1 -1</clus>
<clus scale="   55.671">  1  3  2 -1</clus>
<clus scale="   82.141">  2  6  1 -1</clus>
<clus scale="   55.671">  1  3  2 -1</clus>
</clustering>
</event>
<event>
 6    0  0.8520634E+002  0.2519939E+03  0.7546771E-02  0.1112051E+00
         21   -1    0    0  505  501  0.00000000000E+00  0.00000000000E+00  0.25414571806E+03  0.25414571806E+03  0.00000000000E+00 0. -1.
         21   -1    0    0  506  502 -0.00000000000E+00 -0.00000000000E+00 -0.13664316713E+04  0.13664316713E+04  0.00000000000E+00 0.  1.
         21    1    1    2  503  501  0.27272812653E+03  0.21752096056E+02  0.64450318436E+01  0.27367009906E+03  0.00000000000E+00 0. -1.
         21    1    1    2  504  502 -0.56266900415E+02  0.25415079357E+02 -0.45791744653E+03  0.46206090310E+03  0.00000000000E+00 0.  1.
         21    1    1    2  505  504 -0.42337043477E+02  0.98272928730E+02  0.64457258330E+02  0.12491890138E+03  0.00000000000E+00 0. -1.
         21    1    1    2  506  503 -0.17412418264E+03 -0.14544010414E+03 -0.72527079688E+03  0.75992748580E+03  0.00000000000E+00 0.  1.
<scales pt_clust_3="14000.00000" pt_clust_4="61.74051" pt_clust_5="108.53445" pt_clust_6="251.99390"></scales>
<clustering>
<clus scale="   61.741">  2  4  1 -1</clus>
<clus scale="  108.534">  1  5  2 -1</clus>
<clus scale="  251.994">  2  6  1 -1</clus>
<clus scale="  108.534">  1  3  2 -1</clus>
</clustering>
</event>
<event>
 6    0  0.8520634E+002  0.1169628E+03  0.7546771E-02  0.1248193E+00
         21   -1    0    0  503  501  0.00000000000E+00  0.00000000000E+00  0.53564861527E+02  0.53564861527E+02  0.00000000000E+00 0.  1.
         21   -1    0    0  506  502 -0.00000000000E+00 -0.00000000000E+00 -0.23160303741E+04  0.23160303741E+04  0.00000000000E+00 0.  1.
         21    1    1    2  503  505 -0.26284633656E+02 -0.52579965063E+02  0.33341328650E+00  0.58784741701E+02  0.00000000000E+00 0.  1.
         21    1    1    2  504  502 -0.28721210396E+02  0.15859317221E+02 -0.18794187100E+03  0.19078409982E+03  0.00000000000E+00 0. -1.
         21    1    1    2  505  504 -0.81551890300E+02  0.90718661504E+02 -0.16849624201E+03  0.20801819614E+03  0.00000000000E+00 0.  1.
         21    1    1    2  506  501  0.13655773435E+03 -0.53998013661E+02 -0.19063608129E+04  0.19120081980E+04  0.00000000000E+00 0.  1.
<scales pt_clust_3="58.76706" pt_clust_4="32.80893" pt_clust_5="14000.00000" pt_clust_6="116.96284"></scales>
<clustering>
<clus scale="   32.809">  2  4  1 -1</clus>
<clus scale="   58.767">  1  3  2 -1</clus>
<clus scale="  116.963">  2  6  1 -1</clus>
<clus scale="   58.767">  1  3  2 -1</clus>
</clustering>
</event>
<event>
 6    0  0.8520634E+002  0.1355771E+03  0.7546771E-02  0.1219407E+00
         21   -1    0    0  503  501  0.00000000000E+00  0.00000000000E+00  0.16283997707E+03  0.16283997707E+03  0.00000000000E+00 0.  1.
         21   -1    0    0  504  502 -0.00000000000E+00 -0.00000000000E+00 -0.70160841143E+03  0.70160841143E+03  0.00000000000E+00 0.  1.
         21    1    1    2  503  505 -0.12807704090E+03 -0.92787867001E+02  0.14968890003E+02  0.15886278462E+03  0.00000000000E+00 0.  1.
         21    1    1    2  504  501  0.44199159283E+02  0.28144858416E+00  0.47453120821E+02  0.64849391441E+02  0.00000000000E+00 0.  1.
         21    1    1    2  505  506  0.10474738587E+03  0.12415976020E+03 -0.34004759434E+03  0.37685544618E+03  0.00000000000E+00 0.  1.
         21    1    1    2  506  502 -0.20869504254E+02 -0.31653341780E+02 -0.26114285084E+03  0.26388076625E+03  0.00000000000E+00 0.  1.
<scales pt_clust_3="135.57706" pt_clust_4="43.78712" pt_clust_5="14000.00000" pt_clust_6="37.91398"></scales>
<clustering>
<clus scale="   37.914">  2  6  1 -1</clus>
<clus scale="   43.787">  1  4  2 -1</clus>
<clus scale="  135.577">  1  3  2 -1</clus>
<clus scale="   43.787">  1  3  2 -1</clus>
</clustering>
</event>
<event>
 6    0  0.8520634E+002  0.8393172E+02  0.7546771E-02  0.1318250E+00
         21   -1    0    0  506  501  0.00000000000E+00  0.00000000000E+00  0.16750201076E+04  0.16750201076E+04  0.00000000000E+00 0.  1.
         21   -1    0    0  504  502 -0.00000000000E+00 -0.00000000000E+00 -0.32509339471E+02  0.32509339471E+02  0.00000000000E+00 0. -1.
         21    1    1    2  503  501  0.39012894052E+02  0.76912780383E+02  0.42845887364E+03  0.43705215717E+03  0.00000000000E+00 0. -1.
         21    1    1    2  504  503  0.12524150858E+02 -0.11196644506E+03  0.13157681131E+03  0.17322181286E+03  0.00000000000E+00 0. -1.
         21    1    1    2  505  502 -0.47533881449E+01  0.34110385821E+02  0.36313086062E+02  0.50047510818E+02  0.00000000000E+00 0.  1.
         21    1    1    2  506  505 -0.46783656765E+02  0.94327885750E+00  0.10461619971E+04  0.10472079662E+04  0.00000000000E+00 0.  1.
<scales pt_clust_3="83.93172" pt_clust_4="14000.00000" pt_clust_5="34.43999" pt_clust_6="46.90925"></scales>
<clustering>
<clus scale="   34.440">  2  5  1 -1</clus>
<clus scale="   46.909">  1  6  2 -1</clus>
<clus scale="   83.932">  1  3  2 -1</clus>
<clus scale="   46.909">  1  3  2 -1</clus>
</clustering>
</event>
<event>
 6    0  0.8520634E+002  0.1392753E+03  0.7546771E-02  0.1214307E+00
         21   -1    0    0  503  501  0.00000000000E+00  0.00000000000E+00  0.17304161050E+03  0.17304161050E+03  0.00000000000E+00 0.  1.
         21   -1    0    0  504  502 -0.00000000000E+00 -0.00000000000E+00 -0.44192391080E+03  0.44192391080E+03  0.00000000000E+00 0.  1.
         21    1    1    2  503  505 -0.21508675832E+02  0.21107441923E+02  0.23104120996E+02  0.37972985761E+02  0.00000000000E+00 0.  1.
         21    1    1    2  504  506  0.11823675421E+03 -0.29651446337E+02 -0.17759627334E+03  0.21540560489E+03  0.00000000000E+00 0.  1.
         21    1    1    2  505  502 -0.18111060881E+03 -0.24156308387E+02 -0.17473306250E+03  0.25281657974E+03  0.00000000000E+00 0.  1.
         21    1    1    2  506  501  0.84382530432E+02  0.32700312801E+02  0.60342914553E+02  0.10877035091E+03  0.00000000000E+00 0.  1.
<scales pt_clust_3="30.13548" pt_clust_4="14000.00000" pt_clust_5="139.27531" pt_clust_6="84.70362"></scales>
<clustering>
<clus scale="   30.135">  1  3  2 -1</clus>
<clus scale="   84.704">  1  6  2 -1</clus>
<clus scale="  139.275">  1  5  2 -1</clus>
<clus scale="   30.135">  1  3  2 -1</clus>
</clustering>
</event>
<event>
 6    0  0.8520634E+002  0.1417846E+03  0.7546771E-02  0.1210948E+00
         21   -1    0    0  503  501  0.00000000000E+00  0.00000000000E+00  0.24232760986E+03  0.24232760986E+03  0.00000000000E+00 0.  1.
         21   -1    0    0  504  502 -0.00000000000E+00 -0.00000000000E+00 -0.24814433645E+04  0.24814433645E+04  0.00000000000E+00 0.  1.
         21    1    1    2  503  502 -0.18716110758E+02 -0.24465083349E+02  0.28444034145E+02  0.41927272552E+02  0.00000000000E+00 0.  1.
         21    1    1    2  504  505 -0.27678570931E+02  0.15989035542E+03 -0.19680056350E+04  0.19746840781E+04  0.00000000000E+00 0.  1.
         21    1    1    2  505  506  0.50793524298E+02 -0.96647247613E+02 -0.49548912587E+03  0.50737574483E+03  0.00000000000E+00 0.  1.
         21    1    1    2  506  501 -0.43988426091E+01 -0.38778024458E+02  0.19593497204E+03  0.19978387890E+03  0.00000000000E+00 0.  1.
<scales pt_clust_3="30.80313" pt_clust_4="141.78461" pt_clust_5="14000.00000" pt_clust_6="66.01857"></scales>
<clustering>
<clus scale="   30.803">  1  3  2 -1</clus>
<clus scale="   66.019">  1  6  2 -1</clus>
<clus scale="  141.785">  2  4  1 -1</clus>
<clus scale="   30.803">  1  3  2 -1</clus>
</clustering>
</event>
<event>
 6    0  0.8520634E+002  0.8364643E+02  0.7546771E-02  0.1319011E+00
         21   -1    0    0  504  501  0.00000000000E+00  0.00000000000E+00  0.22625279328E+03  0.22625279328E+03  0.00000000000E+00 0.  1.
         21   -1    0    0  503  502 -0.00000000000E+00 -0.00000000000E+00 -0.20992106722E+03  0.20992106722E+03  0.00000000000E+00 0.  1.
         21    1    1    2  503  505  0.24339750096E+02  0.28095671390E+02 -0.12834293043E+03  0.13361773078E+03  0.00000000000E+00 0.  1.
         21    1    1    2  504  506 -0.28347222160E+02 -0.61813275024E+02  0.94766843370E+02  0.11664133305E+03  0.00000000000E+00 0.  1.
         21    1    1    2  505  501 -0.89996560477E+01  0.10540280084E+03  0.23066109291E+02  0.10827183212E+03  0.00000000000E+00 0.  1.
         21    1    1    2  506  502  0.13007128112E+02 -0.71685197201E+02  0.26841703836E+02  0.77642964551E+02  0.00000000000E+00 0.  1.
<scales pt_clust_3="37.17244" pt_clust_4="63.07572" pt_clust_5="83.64643" pt_clust_6="14000.00000"></scales>
<clustering>
<clus scale="   37.172">  2  3  1 -1</clus>
<clus scale="   63.076">  1  4  2 -1</clus>
<clus scale="   83.646">  1  5  2 -1</clus>
<clus scale="   63.076">  1  3  2 -1</clus>
</clustering>
</event>
<event>
 6    0  0.8520634E+002  0.1142591E+03  0.7546771E-02  0.1252880E+00
         21   -1    0    0  503  501  0.00000000000E+00  0.00000000000E+00  0.10558024240E+04  0.10558024240E+04  0.00000000000E+00 0.  1.
         21   -1    0    0  504  502 -0.00000000000E+00 -0.00000000000E+00 -0.10539578169E+03  0.10539578169E+03  0.00000000000E+00 0. -1.
         21    1    1    2  503  506  0.42172910216E+02  0.34459425307E+02  0.21705216456E+03  0.22378035769E+03  0.00000000000E+00 0.  1.
         21    1    1    2  504  505 -0.92655467725E+02 -0.94399296307E+02 -0.43943121812E+02  0.13938170898E+03  0.00000000000E+00 0. -1.
         21    1    1    2  505  501  0.65387280749E+02  0.18787497291E+02  0.73161100591E+03  0.73476739892E+03  0.00000000000E+00 0.  1.
         21    1    1    2  506  502 -0.14904723240E+02  0.41152373708E+02  0.45686593699E+02  0.63268740153E+02  0.00000000000E+00 0.  1.
<scales pt_clust_3="54.98469" pt_clust_4="114.25906" pt_clust_5="14000.00000" pt_clust_6="43.76835"></scales>
<clustering>
<clus scale="   43.768">  2  6  1 -1</clus>
<clus scale="   54.985">  1  3  2 -1</clus>
<clus scale="  114.259">  2  4  1 -1</clus>
<clus scale="   54.985">  1  3  2 -1</clus>
</clustering>
</event>
<event>
 6    0  0.8520634E+002  0.7809150E+02  0.7546771E-02  0.1334556E+00
         21   -1    0    0  504  501  0.00000000000E+00  0.00000000000E+00  0.53581968260E+03  0.53581968260E+03  0.00000000000E+00 0.  1.
         21   -1    0    0  506  502 -0.00000000000E+00 -0.00000000000E+00 -0.21221932324E+03  0.21221932324E+03  0.00000000000E+00 0.  1.
         21    1    1    2  503  501 -0.22190990737E+02 -0.47875641041E+02  0.43220325791E+03  0.43541264706E+03  0.00000000000E+00 0.  1.
         21    1    1    2  504  502 -0.40644570862E+02  0.50217803694E+01  0.47286094677E+02  0.62555368822E+02  0.00000000000E+00 0.  1.
         21    1    1    2  505  503  0.10443671000E+03  0.49437319853E+02 -0.33003554375E+02  0.12016783925E+03  0.00000000000E+00 0. -1.
         21    1    1    2  506  505 -0.41601148398E+02 -0.65834591808E+01 -0.12288543885E+03  0.12990315071E+03  0.00000000000E+00 0.  1.
<scales pt_clust_3="14000.00000" pt_clust_4="40.95363" pt_clust_5="78.09150" pt_clust_6="42.40612"></scales>
<clustering>
<clus scale="   40.954">  1  4  2 -1</clus>
<clus scale="   42.406">  2  6  1 -1</clus>
<clus scale="   78.092">  2  5  1 -1</clus>
<clus scale="   40.954">  1  3  2 -1</clus>
</clustering>
</event>
<event>
 6    0  0.8520634E+002  0.2350477E+03  0.7546771E-02  0.1123137E+00
         21   -1    0    0  506  501  0.00000000000E+00  0.00000000000E+00  0.31792075858E+03  0.31792075858E+03  0.00000000000E+00 0.  1.
         21   -1    0    0  505  502 -0.00000000000E+00 -0.00000000000E+00 -0.75540595937E+03  0.75540595937E+03  0.00000000000E+00 0.  1.
         21    1    1    2  503  504  0.98431337027E+01  0.59422753115E+02 -0.12359450845E+03  0.13749019379E+03  0.00000000000E+00 0.  1.
         21    1    1    2  504  502  0.14030695494E+03  0.10660675042E+03 -0.52275566960E+03  0.55165617094E+03  0.00000000000E+00 0.  1.
         21    1    1    2  505  501  0.52518268246E+01 -0.42422069498E+02  0.17820619046E+03  0.18326117970E+03  0.00000000000E+00 0.  1.
         21    1    1    2  506  503 -0.15540191547E+03 -0.12360743404E+03  0.30658786801E+02  0.20091917352E+03  0.00000000000E+00 0.  1.
<scales pt_clust_3="48.52130" pt_clust_4="48.52130" pt_clust_5="42.74592" pt_clust_6="219.55432"></scales>
<clustering>
<clus scale="   42.746">  1  5  2 -1</clus>
<clus scale="   48.521">  3  4 -1 -1</clus>
<clus scale="  219.554">  1  6  2 -1</clus>
<clus scale="   42.746">  1  3  2 -1</clus>
</clustering>
</event>
<event>
 6    0  0.8520634E+002  0.1359568E+03  0.7546771E-02  0.1218875E+00
         21   -1    0    0  504  501  0.00000000000E+00  0.00000000000E+00  0.25805969997E+03  0.25805969997E+03  0.00000000000E+00 0. -1.
         21   -1    0    0  505  502 -0.00000000000E+00 -0.00000000000E+00 -0.92035616622E+03  0.92035616622E+03  0.00000000000E+00 0. -1.
         21    1    1    2  503  502 -0.72430489930E+02 -0.96369658822E+02 -0.65668086209E+03  0.66765488214E+03  0.00000000000E+00 0. -1.
         21    1    1    2  504  503  0.10518806884E+03  0.30499566820E+02  0.20284123757E+03  0.23051967608E+03  0.00000000000E+00 0. -1.
         21    1    1    2  505  506 -0.32310440720E+02  0.55581388613E+01 -0.21687854645E+03  0.21934256632E+03  0.00000000000E+00 0. -1.
         21    1    1    2  506  501 -0.44713819501E+00  0.60311953141E+02  0.84217047248E+01  0.60898741652E+02  0.00000000000E+00 0.  1.
<scales pt_clust_3="135.95676" pt_clust_4="14000.00000" pt_clust_5="32.78502" pt_clust_6="60.54223"></scales>
<clustering>
<clus scale="   32.785">  2  5  1 -1</clus>
<clus scale="   60.542">  1  6  2 -1</clus>
<clus scale="  135.957">  2  3  1 -1</clus>
<clus scale="   60.542">  1  3  2 -1</clus>
</clustering>
</event>
<event>
 6    0  0.8520634E+002  0.1726560E+03  0.7546771E-02  0.1175106E+00
         21   -1    0    0  503  501  0.00000000000E+00  0.00000000000E+00  0.12329762513E+03  0.12329762513E+03  0.00000000000E+00 0.  1.
         21   -1    0    0  505  502 -0.00000000000E+00 -0.00000000000E+00 -0.63618109784E+03  0.63618109784E+03  0.00000000000E+00 0. -1.
         21    1    1    2  503  506  0.96709950526E+02  0.12270359410E+03 -0.33834344914E+02  0.15985540164E+03  0.00000000000E+00 0. -1.
         21    1    1    2  504  501 -0.11692221668E+03 -0.20266633205E+03 -0.31252043882E+03  0.39040167979E+03  0.00000000000E+00 0.  1.
         21    1    1    2  505  504  0.44667007335E+02  0.22277592296E+01 -0.50810192656E+02  0.67688847923E+02  0.00000000000E+00 0. -1.
         21    1    1    2  506  502 -0.24454741181E+02  0.77734978716E+02 -0.11571849632E+03  0.14153279363E+03  0.00000000000E+00 0. -1.
<scales pt_clust_3="172.65604" pt_clust_4="14000.00000" pt_clust_5="44.72253" pt_clust_6="79.56340"></scales>
<clustering>
<clus scale="   44.723">  2  5  1 -1</clus>
<clus scale="   79.563">  2  6  1 -1</clus>
<clus scale="  172.656">  1  3  2 -1</clus>
<clus scale="  172.656">  1  3  2 -1</clus>
</clustering>
</event>
<event>
 6    0  0.8520634E+002  0.9294821E+02  0.7546771E-02  0.1295865E+00
         21   -1    0    0  503  501  0.00000000000E+00  0.00000000000E+00  0.15859615281E+04  0.15859615281E+04  0.00000000000E+00 0.  1.
         21   -1    0    0  504  502 -0.00000000000E+00 -0.00000000000E+00 -0.21073986257E+03  0.21073986257E+03  0.00000000000E+00 0. -1.
         21    1    1    2  503  506 -0.34491749735E+02  0.78256425709E+02  0.11218908931E+04  0.11251457350E+04  0.00000000000E+00 0.  1.
         21    1    1    2  504  505 -0.30110462773E+02 -0.12535855923E+02 -0.11240582486E+02  0.34498381799E+02  0.00000000000E+00 0. -1.
         21    1    1    2  505  501  0.55575992004E+02 -0.14593644129E+03  0.42755407615E+03  0.45517977087E+03  0.00000000000E+00 0.  1.
         21    1    1    2  506  502  0.90262205052E+01  0.80215871509E+02 -0.16298272120E+03  0.18187750303E+03  0.00000000000E+00 0. -1.
<scales pt_clust_3="92.94821" pt_clust_4="32.61576" pt_clust_5="14000.00000" pt_clust_6="71.18581"></scales>
<clustering>
<clus scale="   32.616">  2  4  1 -1</clus>
<clus scale="   71.186">  2  6  1 -1</clus>
<clus scale="   92.948">  1  3  2 -1</clus>
<clus scale="   92.948">  1  3  2 -1</clus>
</clustering>
</event>
<event>
 6    0  0.8520634E+002  0.1222198E+03  0.7546771E-02  0.1239479E+00
         21   -1    0    0  503  501  0.00000000000E+00  0.00000000000E+00  0.19143613859E+03  0.19143613859E+03  0.00000000000E+00 0.  1.
         21   -1    0    0  505  502 -0.00000000000E+00 -0.00000000000E+00 -0.32063730271E+03  0.32063730271E+03  0.00000000000E+00 0. -1.
         21    1    1    2  503  504  0.22792906418E+02  0.70060068609E+02  0.91902094179E+02  0.11778762546E+03  0.00000000000E+00 0.  1.
         21    1    1    2  504  506 -0.72715732693E+02 -0.10270747712E+03 -0.14397029135E+03  0.19121675771E+03  0.00000000000E+00 0. -1.
         21    1    1    2  505  501  0.80384321314E+02  0.43289134574E+02  0.26062610013E+02  0.94946552997E+02  0.00000000000E+00 0.  1.
         21    1    1    2  506  502 -0.30461495039E+02 -0.10641726063E+02 -0.10319557696E+03  0.10812250514E+03  0.00000000000E+00 0. -1.
<scales pt_clust_3="72.51434" pt_clust_4="122.21978" pt_clust_5="14000.00000" pt_clust_6="32.26684"></scales>
<clustering>
<clus scale="   32.267">  2  6  1 -1</clus>
<clus scale="   72.514">  1  3  2 -1</clus>
<clus scale="  122.220">  2  4  1 -1</clus>
<clus scale="   72.514">  1  3  2 -1</clus>
</clustering>
</event>
<event>
 6    0  0.8520634E+002  0.6373053E+02  0.7546771E-02  0.1382811E+00
         21   -1    0    0  504  501  0.00000000000E+00  0.00000000000E+00  0.59897018029E+02  0.59897018029E+02  0.00000000000E+00 0. -1.
         21   -1    0    0  505  502 -0.00000000000E+00 -0.00000000000E+00 -0.94406848994E+03  0.94406848994E+03  0.00000000000E+00 0. -1.
         21    1    1    2  503  501  0.28753414188E+02 -0.69461183916E+02  0.15705287101E+02  0.76800201441E+02  0.00000000000E+00 0. -1.
         21    1    1    2  504  506 -0.44093843526E+02  0.12018829394E+02 -0.51808883749E+02  0.69086031382E+02  0.00000000000E+00 0.  1.
         21    1    1    2  505  503  0.17397812676E+02  0.93091819279E+02 -0.64014815114E+03  0.64711546583E+03  0.00000000000E+00 0. -1.
         21    1    1    2  506  502 -0.20573833383E+01 -0.35649464757E+02 -0.20791972412E+03  0.21096380932E+03  0.00000000000E+00 0.  1.
<scales pt_clust_3="63.73053" pt_clust_4="45.18596" pt_clust_5="14000.00000" pt_clust_6="35.70878"></scales>
<clustering>
<clus scale="   35.709">  2  6  1 -1</clus>
<clus scale="   45.186">  1  4  2 -1</clus>
<clus scale="   63.731">  1  3  2 -1</clus>
<clus scale="   45.186">  1  3  2 -1</clus>
</clustering>
</event>
<event>
 6    0  0.8520634E+002  0.1487080E+03  0.7546771E-02  0.1202070E+00
         21   -1    0    0  504  501  0.00000000000E+00  0.00000000000E+00  0.30754923362E+03  0.30754923362E+03  0.00000000000E+00 0.  1.
         21   -1    0    0  505  502 -0.00000000000E+00 -0.00000000000E+00 -0.79688223030E+03  0.79688223030E+03  0.00000000000E+00 0. -1.
         21    1    1    2  503  502 -0.36925843691E+02  0.95463659787E+02 -0.98791769500E+02  0.14225555171E+03  0.00000000000E+00 0. -1.
         21    1    1    2  504  503 -0.44401807985E+02  0.51751695619E+02  0.11651418579E+03  0.13500116311E+03  0.00000000000E+00 0.  1.
         21    1    1    2  505  506  0.11062248993E+03 -0.13610257497E+03 -0.65390611397E+03  0.67701879743E+03  0.00000000000E+00 0. -1.
         21    1    1    2  506  501 -0.29294838257E+02 -0.11112780438E+02  0.14685070100E+03  0.15015595167E+03  0.00000000000E+00 0.  1.
<scales pt_clust_3="14000.00000" pt_clust_4="80.06896" pt_clust_5="148.70804" pt_clust_6="31.33180"></scales>
<clustering>
<clus scale="   31.332">  1  6  2 -1</clus>
<clus scale="   80.069">  1  4  2 -1</clus>
<clus scale="  148.708">  2  5  1 -1</clus>
<clus scale="   31.332">  1  3  2 -1</clus>
</clustering>
</event>
<event>
 6    0  0.8520634E+002  0.8282907E+02  0.7546771E-02  0.1321209E+00
         21   -1    0    0  504  501  0.00000000000E+00  0.00000000000E+00  0.76144765500E+02  0.76144765500E+02  0.00000000000E+00 0. -1.
         21   -1    0    0  506  502 -0.00000000000E+00 -0.00000000000E+00 -0.18212124307E+04  0.18212124307E+04  0.00000000000E+00 0.  1.
         21    1    1    2  503  502  0.24313758809E+02 -0.34545098754E+02 -0.14303051598E+04  0.14309288497E+04  0.00000000000E+00 0.  1.
         21    1    1    2  504  503  0.35957785930E+02  0.46554895615E+02 -0.61121392490E+02  0.84830096632E+02  0.00000000000E+00 0. -1.
         21    1    1    2  505  501 -0.58404574006E+02  0.62895964146E+02  0.27903949143E+02  0.90253127084E+02  0.00000000000E+00 0. -1.
         21    1    1    2  506  505 -0.18669707330E+01 -0.74905761008E+02 -0.28154506207E+03  0.29134512282E+03  0.00000000000E+00 0.  1.
<scales pt_clust_3="42.24361" pt_clust_4="56.99431" pt_clust_5="14000.00000" pt_clust_6="82.82907"></scales>
<clustering>
<clus scale="   42.244">  2  3  1 -1</clus>
<clus scale="   56.994">  2  4  1 -1</clus>
<clus scale="   82.829">  2  6  1 -1</clus>
<clus scale="   82.829">  1  3  2 -1</clus>
</clustering>
</event>
<event>
 6    0  0.8520634E+002  0.8719545E+02  0.7546771E-02  0.1309789E+00
         21   -1    0    0  505  501  0.00000000000E+00  0.00000000000E+00  0.50834650143E+02  0.50834650143E+02  0.00000000000E+00 0.  1.
         21   -1    0    0  504  502 -0.00000000000E+00 -0.00000000000E+00 -0.12442465874E+04  0.12442465874E+04  0.00000000000E+00 0. -1.
         21    1    1    2  503  502  0.95648924956E+02  0.13219850591E+02 -0.93391562905E+03  0.93889396818E+03  0.00000000000E+00 0. -1.
         21    1    1    2  504  506 -0.51586817589E+02 -0.17103318463E+02 -0.73647409443E+02  0.91529580842E+02  0.00000000000E+00 0.  1.
         21    1    1    2  505  503 -0.38620706199E+02  0.45174017802E+02 -0.20880770054E+03  0.21710114380E+03  0.00000000000E+00 0.  1.
         21    1    1    2  506  501 -0.54414011669E+01 -0.41290549930E+02  0.22958801830E+02  0.47556544677E+02  0.00000000000E+00 0.  1.
<scales pt_clust_3="14000.00000" pt_clust_4="87.19545" pt_clust_5="52.66842" pt_clust_6="41.64755"></scales>
<clustering>
<clus scale="   41.648">  1  6  2 -1</clus>
<clus scale="   52.668">  1  5  2 -1</clus>
<clus scale="   87.195">  1  4  2 -1</clus>
<clus scale="   41.648">  1  3  2 -1</clus>
</clustering>
</event>
<event>
 6    0  0.8520634E+002  0.8124841E+02  0.7546771E-02  0.1325546E+00
         21   -1    0    0  505  501  0.00000000000E+00  0.00000000000E+00  0.19327545708E+03  0.19327545708E+03  0.00000000000E+00 0. -1.
         21   -1    0    0  504  502 -0.00000000000E+00 -0.00000000000E+00 -0.37415935040E+03  0.37415935040E+03  0.00000000000E+00 0. -1.
         21    1    1    2  503  502  0.28234021904E+02 -0.11403636500E+03 -0.16225744157E+03  0.20032206539E+03  0.00000000000E+00 0. -1.
         21    1    1    2  504  506 -0.32405701073E+02  0.28600236404E+02 -0.15719311229E+03  0.16302692274E+03  0.00000000000E+00 0. -1.
         21    1    1    2  505  503 -0.18284791348E+02  0.28445897340E+02  0.13876971446E+03  0.14283044606E+03  0.00000000000E+00 0. -1.
         21    1    1    2  506  501  0.22456470516E+02  0.56990231258E+02 -0.20305391635E+00  0.61255373297E+02  0.00000000000E+00 0. -1.
<scales pt_clust_3="14000.00000" pt_clust_4="45.03282" pt_clust_5="33.81572" pt_clust_6="81.24841"></scales>
<clustering>
<clus scale="   33.816">  1  5  2 -1</clus>
<clus scale="   45.033">  2  4  1 -1</clus>
<clus scale="   81.248">  1  6  2 -1</clus>
<clus scale="   33.816">  1  3  2 -1</clus>
</clustering>
</event>
<event>
 6    0  0.8520634E+002  0.9012033E+02  0.7546771E-02  0.1302561E+00
         21   -1    0    0  505  501  0.00000000000E+00  0.00000000000E+00  0.43693186645E+03  0.43693186645E+03  0.00000000000E+00 0.  1.
         21   -1    0    0  506  502 -0.00000000000E+00 -0.00000000000E+00 -0.27607311911E+03  0.27607311911E+03  0.00000000000E+00 0.  1.
         21    1    1    2  503  501 -0.94430747323E+02  0.33363670677E+02  0.86310373860E+02  0.13221112357E+03  0.00000000000E+00 0.  1.
         21    1    1    2  504  502  0.53277429240E+02  0.25727611279E+02 -0.17398244835E+02  0.61669225485E+02  0.00000000000E+00 0.  1.
         21    1    1    2  505  504  0.76498812559E+02 -0.42805367644E+02  0.29738336449E+03  0.31003424536E+03  0.00000000000E+00 0.  1.
         21    1    1    2  506  503 -0.35345494476E+02 -0.16285914312E+02 -0.20543674618E+03  0.20909039114E+03  0.00000000000E+00 0.  1.
<scales pt_clust_3="14000.00000" pt_clust_4="36.81069" pt_clust_5="90.12033" pt_clust_6="38.91703"></scales>
<clustering>
<clus scale="   38.917">  2  6  1 -1</clus>
<clus scale="   36.811">  2  4  1 -1</clus>
<clus scale="   90.120">  1  5  2 -1</clus>
<clus scale="   90.120">  1  3  2 -1</clus>
</clustering>
</event>
<event>
 6    0  0.8520634E+002  0.8756617E+02  0.7546771E-02  0.1308855E+00
         21   -1    0    0  504  501  0.00000000000E+00  0.00000000000E+00  0.26581487341E+02  0.26581487341E+02  0.00000000000E+00 0. -1.
         21   -1    0    0  506  502 -0.00000000000E+00 -0.00000000000E+00 -0.31916516028E+04  0.31916516028E+04  0.00000000000E+00 0. -1.
         21    1    1    2  503  502  0.29271331497E+02  0.31061611900E+02 -0.71888742915E+03  0.72015329644E+03  0.00000000000E+00 0. -1.
         21    1    1    2  504  505  0.12719865526E+02  0.12716147197E+03 -0.17811013950E+03  0.21921463620E+03  0.00000000000E+00 0. -1.
         21    1    1    2  505  503 -0.18031746562E+02 -0.11058578030E+03 -0.20894803974E+04  0.20924824228E+04  0.00000000000E+00 0. -1.
         21    1    1    2  506  501 -0.23959450462E+02 -0.47637303571E+02 -0.17859214942E+03  0.18638273469E+03  0.00000000000E+00 0. -1.
<scales pt_clust_3="42.68061" pt_clust_4="14000.00000" pt_clust_5="87.56617" pt_clust_6="50.31201"></scales>
<clustering>
<clus scale="   42.681">  2  3  1 -1</clus>
<clus scale="   50.312">  1  6  2 -1</clus>
<clus scale="   87.566">  2  5  1 -1</clus>
<clus scale="   50.312">  1  3  2 -1</clus>
</clustering>
</event>
<event>
 6    0  0.8520634E+002  0.7797193E+02  0.7546771E-02  0.1334907E+00
         21   -1    0    0  505  501  0.00000000000E+00  0.00000000000E+00  0.24958529839E+03  0.24958529839E+03  0.00000000000E+00 0.  1.
         21   -1    0    0  503  502 -0.00000000000E+00 -0.00000000000E+00 -0.20033038970E+03  0.20033038970E+03  0.00000000000E+00 0.  1.
         21    1    1    2  503  506  0.68265716279E+02  0.36213011443E+02 -0.46853521516E+02  0.90370585344E+02  0.00000000000E+00 0.  1.
         21    1    1    2  504  502 -0.45583983284E+02 -0.69869465533E+02 -0.68727625387E+02  0.10808852038E+03  0.00000000000E+00 0.  1.
         21    1    1    2  505  504  0.30173420701E+01  0.59038632986E+02 -0.20549053359E+02  0.62585366756E+02  0.00000000000E+00 0.  1.
         21    1    1    2  506  501 -0.25699075065E+02 -0.25382178896E+02  0.18538510896E+03  0.18887121561E+03  0.00000000000E+00 0.  1.
<scales pt_clust_3="14000.00000" pt_clust_4="77.97193" pt_clust_5="50.80997" pt_clust_6="36.12060"></scales>
<clustering>
<clus scale="   36.121">  1  6  2 -1</clus>
<clus scale="   50.810">  1  5  2 -1</clus>
<clus scale="   77.972">  2  4  1 -1</clus>
<clus scale="   36.121">  1  3  2 -1</clus>
</clustering>
</event>
<event>
 6    0  0.8520634E+002  0.5143079E+02  0.7546771E-02  0.1437774E+00
         21   -1    0    0  503  501  0.00000000000E+00  0.00000000000E+00  0.11706960315E+04  0.11706960315E+04  0.00000000000E+00 0.  1.
         21   -1    0    0  506  502 -0.00000000000E+00 -0.00000000000E+00 -0.10912358857E+03  0.10912358857E+03  0.00000000000E+00 0.  1.
         21    1    1    2  503  502 -0.21741742830E+02  0.77936493708E+02 -0.69318890361E+02  0.10654533774E+03  0.00000000000E+00 0.  1.
         21    1    1    2  504  505 -0.23596010636E+01 -0.96183485911E+02  0.90000312422E+03  0.90513118071E+03  0.00000000000E+00 0.  1.
         21    1    1    2  505  501  0.64020712121E+01  0.48011740972E+02  0.22833905164E+03  0.23341987124E+03  0.00000000000E+00 0.  1.
         21    1    1    2  506  504  0.17699272681E+02 -0.29764748769E+02  0.25491574025E+01  0.34723230354E+02  0.00000000000E+00 0.  1.
<scales pt_clust_3="51.43079" pt_clust_4="14000.00000" pt_clust_5="47.69857" pt_clust_6="34.62953"></scales>
<clustering>
<clus scale="   34.630">  2  6  1 -1</clus>
<clus scale="   47.699">  1  5  2 -1</clus>
<clus scale="   51.431">  2  3  1 -1</clus>
<clus scale="   47.699">  1  3  2 -1</clus>
</clustering>
</event>
<event>
 6    0  0.8520634E+002  0.1392627E+03  0.7546771E-02  0.1214325E+00
         21   -1    0    0  504  501  0.00000000000E+00  0.00000000000E+00  0.10159757338E+04  0.10159757338E+04  0.00000000000E+00 0. -1.
         21   -1    0    0  505  502 -0.00000000000E+00 -0.00000000000E+00 -0.18456915524E+03  0.18456915524E+03  0.00000000000E+00 0. -1.
         21    1    1    2  503  502 -0.40486161878E+02  0.36564663701E+02 -0.13449291462E+02  0.56187074812E+02  0.00000000000E+00 0. -1.
         21    1    1    2  504  503 -0.11571165602E+03  0.28578812180E+02  0.93337449181E+03  0.94095370652E+03  0.00000000000E+00 0. -1.
         21    1    1    2  505  506  0.25617418990E+02 -0.26814639924E+02 -0.49463183342E+02  0.61821384458E+02  0.00000000000E+00 0.  1.
         21    1    1    2  506  501  0.13058039890E+03 -0.38328835956E+02 -0.39055438462E+02  0.14158272323E+03  0.00000000000E+00 0. -1.
<scales pt_clust_3="54.55368" pt_clust_4="120.40695" pt_clust_5="36.52727" pt_clust_6="36.52727"></scales>
<clustering>
<clus scale="   36.527">  5  6 -1 -1</clus>
<clus scale="   54.554">  2  3  1 -1</clus>
<clus scale="  120.407">  1  4  2 -1</clus>
<clus scale="  120.407">  1  3  2 -1</clus>
</clustering>
</event>
<event>
 6    0  0.8520634E+002  0.1010330E+03  0.7546771E-02  0.1278138E+00
         21   -1    0    0  505  501  0.00000000000E+00  0.00000000000E+00  0.22796390419E+04  0.22796390419E+04  0.00000000000E+00 0. -1.
         21   -1    0    0  504  502 -0.00000000000E+00 -0.00000000000E+00 -0.54949895167E+03  0.54949895167E+03  0.00000000000E+00 0.  1.
         21    1    1    2  503  501 -0.29980533513E+02 -0.28419730975E+01  0.84189425456E+03  0.84243269468E+03  0.00000000000E+00 0. -1.
         21    1    1    2  504  506 -0.61702282516E+02  0.10829594169E+03  0.34854535555E+03  0.37016084008E+03  0.00000000000E+00 0. -1.
         21    1    1    2  505  502  0.69006064299E+02 -0.90529911924E+01 -0.53388440444E+03  0.53840166313E+03  0.00000000000E+00 0.  1.
         21    1    1    2  506  503  0.22676751731E+02 -0.96400977404E+02  0.10735848845E+04  0.10781427956E+04  0.00000000000E+00 0. -1.
<scales pt_clust_3="30.11493" pt_clust_4="14000.00000" pt_clust_5="69.55124" pt_clust_6="101.03304"></scales>
<clustering>
<clus scale="   30.115">  1  3  2 -1</clus>
<clus scale="   69.551">  2  5  1 -1</clus>
<clus scale="  101.033">  1  6  2 -1</clus>
<clus scale="   30.115">  1  3  2 -1</clus>
</clustering>
</event>
<event>
 6    0  0.8520634E+002  0.7268276E+02  0.7546771E-02  0.1351201E+00
         21   -1    0    0  503  501  0.00000000000E+00  0.00000000000E+00  0.69460766795E+03  0.69460766795E+03  0.00000000000E+00 0.  1.
         21   -1    0    0  504  502 -0.00000000000E+00 -0.00000000000E+00 -0.82654766521E+03  0.82654766521E+03  0.00000000000E+00 0. -1.
         21    1    1    2  503  505  0.69537129467E+02 -0.55455280394E+01  0.42632980181E+03  0.43199914950E+03  0.00000000000E+00 0.  1.
         21    1    1    2  504  506 -0.11856220044E+02 -0.38061102762E+02 -0.79296043316E+03  0.79396187948E+03  0.00000000000E+00 0. -1.
         21    1    1    2  505  502 -0.80808258670E+02  0.93787865978E+02  0.16226779762E+03  0.20410040818E+03  0.00000000000E+00 0.  1.
         21    1    1    2  506  501  0.23127349246E+02 -0.50181235176E+02  0.72422836468E+02  0.91093896003E+02  0.00000000000E+00 0.  1.
<scales pt_clust_3="72.68276" pt_clust_4="39.86499" pt_clust_5="14000.00000" pt_clust_6="64.05171"></scales>
<clustering>
<clus scale="   39.865">  2  4  1 -1</clus>
<clus scale="   64.052">  2  6  1 -1</clus>
<clus scale="   72.683">  1  3  2 -1</clus>
<clus scale="   72.683">  1  3  2 -1</clus>
</clustering>
</event>
<event>
 6    0  0.8520634E+002  0.2187561E+03  0.7546771E-02  0.1134814E+00
         21   -1    0    0  505  501  0.00000000000E+00  0.00000000000E+00  0.23699922971E+03  0.23699922971E+03  0.00000000000E+00 0.  1.
         21   -1    0    0  506  502 -0.00000000000E+00 -0.00000000000E+00 -0.86496422245E+03  0.86496422245E+03  0.00000000000E+00 0. -1.
         21    1    1    2  503  504  0.20124935926E+02 -0.50312268348E+02 -0.13409222700E+03  0.14462732361E+03  0.00000000000E+00 0.  1.
         21    1    1    2  504  502 -0.79960326060E+02 -0.13720874140E+03 -0.63838310156E+03  0.65783955249E+03  0.00000000000E+00 0. -1.
         21    1    1    2  505  503 -0.40596804477E+02 -0.80161939852E+01  0.33466538497E+02  0.53220006564E+02  0.00000000000E+00 0.  1.
         21    1    1    2  506  501  0.10043219461E+03  0.19553720374E+03  0.11104379733E+03  0.24627656950E+03  0.00000000000E+00 0.  1.
<scales pt_clust_3="53.49504" pt_clust_4="53.49504" pt_clust_5="41.38067" pt_clust_6="198.40280"></scales>
<clustering>
<clus scale="   41.381">  1  5  2 -1</clus>
<clus scale="   53.495">  3  4 -1 -1</clus>
<clus scale="  198.403">  1  6  2 -1</clus>
<clus scale="   41.381">  1  3  2 -1</clus>
</clustering>
</event>
<event>
 6    0  0.8520634E+002  0.2609523E+03  0.7546771E-02  0.1106572E+00
         21   -1    0    0  504  501  0.00000000000E+00  0.00000000000E+00  0.11977230411E+04  0.11977230411E+04  0.00000000000E+00 0. -1.
         21   -1    0    0  506  502 -0.00000000000E+00 -0.00000000000E+00 -0.16470047082E+03  0.16470047082E+03  0.00000000000E+00 0. -1.
         21    1    1    2  503  501 -0.32446329910E+02  0.64986944197E+01  0.52983398893E+03  0.53086632327E+03  0.00000000000E+00 0. -1.
         21    1    1    2  504  505  0.45837759693E+02 -0.24847447892E+03  0.12015159345E+03  0.27978040013E+03  0.00000000000E+00 0. -1.
         21    1    1    2  505  502 -0.22890662540E+02 -0.20498408482E+02 -0.42058798697E+02  0.52087519903E+02  0.00000000000E+00 0.  1.
         21    1    1    2  506  503  0.94992327569E+01  0.26247419298E+03  0.42509578662E+03  0.49968926865E+03  0.00000000000E+00 0.  1.
<scales pt_clust_3="33.17175" pt_clust_4="14000.00000" pt_clust_5="30.72730" pt_clust_6="260.95226"></scales>
<clustering>
<clus scale="   30.727">  2  5  1 -1</clus>
<clus scale="   33.172">  1  3  2 -1</clus>
<clus scale="  260.952">  1  6  2 -1</clus>
<clus scale="   33.172">  1  3  2 -1</clus>
</clustering>
</event>
<event>
 6    0  0.8520634E+002  0.7436666E+02  0.7546771E-02  0.1345844E+00
         21   -1    0    0  505  501  0.00000000000E+00  0.00000000000E+00  0.49965098242E+03  0.49965098242E+03  0.00000000000E+00 0. -1.
         21   -1    0    0  503  502 -0.00000000000E+00 -0.00000000000E+00 -0.40434273868E+03  0.40434273868E+03  0.00000000000E+00 0.  1.
         21    1    1    2  503  504  0.31936554459E+02 -0.44842721841E+01 -0.32458214890E+03  0.32618035439E+03  0.00000000000E+00 0.  1.
         21    1    1    2  504  506 -0.49810716603E+02 -0.64294159351E+02 -0.36036096393E+02  0.88957555375E+02  0.00000000000E+00 0.  1.
         21    1    1    2  505  502  0.39389763477E+02 -0.45447197885E+02  0.15334767861E+03  0.16471949429E+03  0.00000000000E+00 0. -1.
         21    1    1    2  506  501 -0.21515601333E+02  0.11422562942E+03  0.30257881042E+03  0.32413631705E+03  0.00000000000E+00 0. -1.
<scales pt_clust_3="32.24984" pt_clust_4="14000.00000" pt_clust_5="61.91054" pt_clust_6="74.36666"></scales>
<clustering>
<clus scale="   32.250">  2  3  1 -1</clus>
<clus scale="   61.911">  1  5  2 -1</clus>
<clus scale="   74.367">  1  6  2 -1</clus>
<clus scale="   61.911">  1  3  2 -1</clus>
</clustering>
</event>
<event>
 6    0  0.8520634E+002  0.9041312E+02  0.7546771E-02  0.1301854E+00
         21   -1    0    0  505  501  0.00000000000E+00  0.00000000000E+00  0.11507936148E+04  0.11507936148E+04  0.00000000000E+00 0.  1.
         21   -1    0    0  506  502 -0.00000000000E+00 -0.00000000000E+00 -0.78069900632E+02  0.78069900632E+02  0.00000000000E+00 0.  1.
         21    1    1    2  503  501 -0.16352119307E+02  0.45755714344E+02  0.79031267723E+03  0.79180496651E+03  0.00000000000E+00 0.  1.
         21    1    1    2  504  502 -0.30946629703E+02  0.26870136841E+02 -0.10818001036E+02  0.42387820069E+02  0.00000000000E+00 0.  1.
         21    1    1    2  505  504  0.45838718833E+01  0.44881252250E+02 -0.25831821957E+02  0.51986745528E+02  0.00000000000E+00 0.  1.
         21    1    1    2  506  503  0.42714877127E+02 -0.11750710344E+03  0.31906085990E+03  0.34268398329E+03  0.00000000000E+00 0.  1.
<scales pt_clust_3="48.58989" pt_clust_4="39.52979" pt_clust_5="39.52979" pt_clust_6="80.33953"></scales>
<clustering>
<clus scale="   39.530">  4  5 -1 -1</clus>
<clus scale="   48.590">  1  3  2 -1</clus>
<clus scale="   80.340">  1  6  2 -1</clus>
<clus scale="   48.590">  1  3  2 -1</clus>
</clustering>
</event>
<event>
 6    0  0.8520634E+002  0.1619627E+03  0.7546771E-02  0.1186499E+00
         21   -1    0    0  503  501  0.00000000000E+00  0.00000000000E+00  0.52518498683E+03  0.52518498683E+03  0.00000000000E+00 0.  1.
         21   -1    0    0  505  502 -0.00000000000E+00 -0.00000000000E+00 -0.16785893425E+04  0.16785893425E+04  0.00000000000E+00 0.  1.
         21    1    1    2  503  502 -0.54114713973E+01  0.43217029644E+02 -0.19931420008E+02  0.47898404748E+02  0.00000000000E+00 0.  1.
         21    1    1    2  504  506  0.69971030679E+02 -0.15503168229E+03  0.90676160871E+02  0.19275096316E+03  0.00000000000E+00 0.  1.
         21    1    1    2  505  504 -0.90139036188E+02  0.13435820050E+03 -0.15887330435E+04  0.15969501731E+04  0.00000000000E+00 0.  1.
         21    1    1    2  506  501  0.25579476907E+02 -0.22543547850E+02  0.36458394698E+03  0.36617478830E+03  0.00000000000E+00 0.  1.
<scales pt_clust_3="41.36628" pt_clust_4="161.96270" pt_clust_5="14000.00000" pt_clust_6="34.09576"></scales>
<clustering>
<clus scale="   34.096">  1  6  2 -1</clus>
<clus scale="   41.366">  1  3  2 -1</clus>
<clus scale="  161.963">  1  4  2 -1</clus>
<clus scale="   34.096">  1  3  2 -1</clus>
</clustering>
</event>
<event>
 6    0  0.8520634E+002  0.1662588E+03  0.7546771E-02  0.1181806E+00
         21   -1    0    0  505  501  0.00000000000E+00  0.00000000000E+00  0.95861759459E+03  0.95861759459E+03  0.00000000000E+00 0. -1.
         21   -1    0    0  504  502 -0.00000000000E+00 -0.00000000000E+00 -0.83559413390E+03  0.83559413390E+03  0.00000000000E+00 0.  1.
         21    1    1    2  503  501  0.28991810335E+01  0.59763830775E+02  0.90609606836E+03  0.90806949394E+03  0.00000000000E+00 0. -1.
         21    1    1    2  504  506  0.48587144498E+02 -0.87619562759E+00 -0.79607124989E+02  0.93267211163E+02  0.00000000000E+00 0. -1.
         21    1    1    2  505  502 -0.11972875706E+02 -0.18641061182E+03 -0.58599679721E+03  0.61504838207E+03  0.00000000000E+00 0.  1.
         21    1    1    2  506  503 -0.39513449826E+02  0.12752297668E+03 -0.11746868547E+03  0.17782664132E+03  0.00000000000E+00 0. -1.
<scales pt_clust_3="59.83609" pt_clust_4="48.59504" pt_clust_5="166.25884" pt_clust_6="14000.00000"></scales>
<clustering>
<clus scale="   48.595">  2  4  1 -1</clus>
<clus scale="   59.836">  1  3  2 -1</clus>
<clus scale="  166.259">  2  5  1 -1</clus>
<clus scale="   59.836">  1  3  2 -1</clus>
</clustering>
</event>
<event>
 6    0  0.8520634E+002  0.7390525E+02  0.7546771E-02  0.1347295E+00
         21   -1    0    0  503  501  0.00000000000E+00  0.00000000000E+00  0.72126400634E+02  0.72126400634E+02  0.00000000000E+00 0.  1.
         21   -1    0    0  506  502 -0.00000000000E+00 -0.00000000000E+00 -0.86387627818E+03  0.86387627818E+03  0.00000000000E+00 0. -1.
         21    1    1    2  503  504 -0.60217992685E+01  0.69264376362E+02  0.19567849304E+02  0.72226841449E+02  0.00000000000E+00 0.  1.
         21    1    1    2  504  505 -0.29050365120E+02  0.53910835274E+02 -0.24473422817E+03  0.25227989280E+03  0.00000000000E+00 0. -1.
         21    1    1    2  505  502 -0.76744265286E+01 -0.36377196800E+02 -0.48066484548E+03  0.48210049881E+03  0.00000000000E+00 0. -1.
         21    1    1    2  506  501  0.42746590917E+02 -0.86798014836E+02 -0.85918653193E+02  0.12939544575E+03  0.00000000000E+00 0. -1.
<scales pt_clust_3="14000.00000" pt_clust_4="45.55377" pt_clust_5="37.17791" pt_clust_6="73.90525"></scales>
<clustering>
<clus scale="   37.178">  2  5  1 -1</clus>
<clus scale="   45.554">  2  4  1 -1</clus>
<clus scale="   73.905">  2  6  1 -1</clus>
<clus scale="   73.905">  1  3  2 -1</clus>
</clustering>
</event>
<event>
 6    0  0.8520634E+002  0.1215568E+03  0.7546771E-02  0.1240551E+00
         21   -1    0    0  506  501  0.00000000000E+00  0.00000000000E+00  0.13293091027E+04  0.13293091027E+04  0.00000000000E+00 0. -1.
         21   -1    0    0  504  502 -0.00000000000E+00 -0.00000000000E+00 -0.22525793632E+04  0.22525793632E+04  0.00000000000E+00 0. -1.
         21    1    1    2  503  502  0.89253739323E+01 -0.38253303535E+02 -0.84577424604E+02  0.93254052373E+02  0.00000000000E+00 0.  1.
         21    1    1    2  504  505 -0.24000710719E+02 -0.82606480090E+02 -0.21575114028E+04  0.21592256293E+04  0.00000000000E+00 0. -1.
         21    1    1    2  505  501  0.45662721432E+02  0.10132018118E+03  0.63678222325E+03  0.64640735073E+03  0.00000000000E+00 0. -1.
         21    1    1    2  506  503 -0.30587384645E+02  0.19539602446E+02  0.68203634369E+03  0.68300143358E+03  0.00000000000E+00 0. -1.
<scales pt_clust_3="39.10687" pt_clust_4="121.55679" pt_clust_5="14000.00000" pt_clust_6="36.29579"></scales>
<clustering>
<clus scale="   36.296">  1  6  2 -1</clus>
<clus scale="   39.107">  2  3  1 -1</clus>
<clus scale="  121.557">  2  4  1 -1</clus>
<clus scale="   36.296">  1  3  2 -1</clus>
</clustering>
</event>
<event>
 6    0  0.8520634E+002  0.1292291E+03  0.7546771E-02  0.1228604E+00
         21   -1    0    0  505  501  0.00000000000E+00  0.00000000000E+00  0.58836487381E+03  0.58836487381E+03  0.00000000000E+00 0.  1.
         21   -1    0    0  503  502 -0.00000000000E+00 -0.00000000000E+00 -0.90284486375E+02  0.90284486375E+02  0.00000000000E+00 0. -1.
         21    1    1    2  503  504 -0.19289302914E+01 -0.30577194372E+02 -0.14695073168E+02  0.33979858198E+02  0.00000000000E+00 0. -1.
         21    1    1    2  504  506 -0.47909066708E+02  0.64565822709E+01  0.24423546543E+02  0.54161570815E+02  0.00000000000E+00 0. -1.
         21    1    1    2  505  502  0.15144685771E+03 -0.46315683326E+02  0.11094243473E+03  0.19336369115E+03  0.00000000000E+00 0. -1.
         21    1    1    2  506  501 -0.10160886072E+03  0.70436295427E+02  0.37740947933E+03  0.39714424001E+03  0.00000000000E+00 0.  1.
<scales pt_clust_3="30.63798" pt_clust_4="48.34596" pt_clust_5="14000.00000" pt_clust_6="129.22912"></scales>
<clustering>
<clus scale="   30.638">  2  3  1 -1</clus>
<clus scale="   48.346">  2  4  1 -1</clus>
<clus scale="  129.229">  1  6  2 -1</clus>
<clus scale="  129.229">  1  3  2 -1</clus>
</clustering>
</event>
<event>
 6    0  0.8520634E+002  0.1823226E+03  0.7546771E-02  0.1165574E+00
         21   -1    0    0  505  501  0.00000000000E+00  0.00000000000E+00  0.13474523141E+04  0.13474523141E+04  0.00000000000E+00 0.  1.
         21   -1    0    0  506  502 -0.00000000000E+00 -0.00000000000E+00 -0.15159002085E+03  0.15159002085E+03  0.00000000000E+00 0.  1.
         21    1    1    2  503  501 -0.19521726180E+03  0.59815633956E+01  0.11756560191E+04  0.11917686998E+04  0.00000000000E+00 0.  1.
         21    1    1    2  504  503  0.12105139001E+03 -0.54742029692E+02  0.85694122905E+02  0.15809367963E+03  0.00000000000E+00 0.  1.
         21    1    1    2  505  502  0.93417326081E+02  0.14739405969E+02 -0.41190853684E+02  0.10315393026E+03  0.00000000000E+00 0.  1.
         21    1    1    2  506  504 -0.19251454287E+02  0.34021060327E+02 -0.24296995079E+02  0.46026025331E+02  0.00000000000E+00 0.  1.
<scales pt_clust_3="14000.00000" pt_clust_4="182.32259" pt_clust_5="89.01274" pt_clust_6="39.09029"></scales>
<clustering>
<clus scale="   39.090">  2  6  1 -1</clus>
<clus scale="   89.013">  2  5  1 -1</clus>
<clus scale="  182.323">  2  4  1 -1</clus>
<clus scale="  182.323">  1  3  2 -1</clus>
</clustering>
</event>
<event>
 6    0  0.8520634E+002  0.7737626E+02  0.7546771E-02  0.1336667E+00
         21   -1    0    0  505  501  0.00000000000E+00  0.00000000000E+00  0.12736671097E+03  0.12736671097E+03  0.00000000000E+00 0.  1.
         21   -1    0    0  503  502 -0.00000000000E+00 -0.00000000000E+00 -0.12215492887E+04  0.12215492887E+04  0.00000000000E+00 0. -1.
         21    1    1    2  503  504 -0.84035626735E+02 -0.18047504070E+02 -0.13849644086E+03  0.16299988680E+03  0.00000000000E+00 0. -1.
         21    1    1    2  504  501  0.22629192076E+02  0.23812303542E+02  0.10375549707E+03  0.10883156392E+03  0.00000000000E+00 0.  1.
         21    1    1    2  505  506  0.84504615212E+02 -0.38143417764E+02 -0.24954143690E+03  0.26620833767E+03  0.00000000000E+00 0. -1.
         21    1    1    2  506  502 -0.23098180554E+02  0.32378618292E+02 -0.80990019702E+03  0.81087621126E+03  0.00000000000E+00 0. -1.
<scales pt_clust_3="14000.00000" pt_clust_4="32.84975" pt_clust_5="77.37626" pt_clust_6="39.92468"></scales>
<clustering>
<clus scale="   32.850">  1  4  2 -1</clus>
<clus scale="   39.925">  2  6  1 -1</clus>
<clus scale="   77.376">  2  5  1 -1</clus>
<clus scale="   32.850">  1  3  2 -1</clus>
</clustering>
</event>
<event>
 6    0  0.8520634E+002  0.1640587E+03  0.7546771E-02  0.1184189E+00
         21   -1    0    0  504  501  0.00000000000E+00  0.00000000000E+00  0.70575271506E+03  0.70575271506E+03  0.00000000000E+00 0. -1.
         21   -1    0    0  505  502 -0.00000000000E+00 -0.00000000000E+00 -0.10170819923E+03  0.10170819923E+03  0.00000000000E+00 0. -1.
         21    1    1    2  503  502 -0.13606568023E+03 -0.10006269803E+03  0.13977650769E+02  0.16947503531E+03  0.00000000000E+00 0. -1.
         21    1    1    2  504  503 -0.22728788660E+01  0.87495569200E+02  0.31176100954E+03  0.32381409432E+03  0.00000000000E+00 0. -1.
         21    1    1    2  505  506  0.88187808867E+02  0.27128968994E+02  0.15703385212E+03  0.18213374564E+03  0.00000000000E+00 0. -1.
         21    1    1    2  506  501  0.50150750228E+02 -0.14561840160E+02  0.12127200340E+03  0.13203803901E+03  0.00000000000E+00 0. -1.
<scales pt_clust_3="157.99042" pt_clust_4="87.52509" pt_clust_5="33.25814" pt_clust_6="33.25814"></scales>
<clustering>
<clus scale="   33.258">  5  6 -1 -1</clus>
<clus scale="   87.525">  1  4  2 -1</clus>
<clus scale="  157.990">  2  3  1 -1</clus>
<clus scale="   87.525">  1  3  2 -1</clus>
</clustering>
</event>
<event>
 6    0  0.8520634E+002  0.9948709E+02  0.7546771E-02  0.1281378E+00
         21   -1    0    0  506  501  0.00000000000E+00  0.00000000000E+00  0.21867260897E+03  0.21867260897E+03  0.00000000000E+00 0.  1.
         21   -1    0    0  505  502 -0.00000000000E+00 -0.00000000000E+00 -0.27259092102E+03  0.27259092102E+03  0.00000000000E+00 0.  1.
         21    1    1    2  503  504 -0.26653664515E+02  0.46399050620E+02  0.12530606048E+03  0.13625306794E+03  0.00000000000E+00 0.  1.
         21    1    1    2  504  502 -0.44586896608E+02 -0.96075107090E+02 -0.21368136502E+03  0.23849139043E+03  0.00000000000E+00 0.  1.
         21    1    1    2  505  501  0.58156469703E+02  0.49385417083E+01  0.38203407095E+02  0.69757182255E+02  0.00000000000E+00 0.  1.
         21    1    1    2  506  503  0.13084091420E+02  0.44737514762E+02 -0.37464146052E+01  0.46761889373E+02  0.00000000000E+00 0. -1.
<scales pt_clust_3="14000.00000" pt_clust_4="99.48709" pt_clust_5="64.08629" pt_clust_6="46.61157"></scales>
<clustering>
<clus scale="   46.612">  1  6  2 -1</clus>
<clus scale="   64.086">  1  5  2 -1</clus>
<clus scale="   99.487">  2  4  1 -1</clus>
<clus scale="   46.612">  1  3  2 -1</clus>
</clustering>
</event>
<event>
 6    0  0.8520634E+002  0.8894097E+02  0.7546771E-02  0.1305437E+00
         21   -1    0    0  506  501  0.00000000000E+00  0.00000000000E+00  0.12730238754E+04  0.12730238754E+04  0.00000000000E+00 0. -1.
         21   -1    0    0  504  502 -0.00000000000E+00 -0.00000000000E+00 -0.27198566058E+02  0.27198566058E+02  0.00000000000E+00 0. -1.
         21    1    1    2  503  501  0.30769187567E+02  0.66567644180E+02  0.47881906753E+03  0.48440240873E+03  0.00000000000E+00 0. -1.
         21    1    1    2  504  505  0.15220535458E+02 -0.36445570142E+02  0.17645667565E+02  0.43258685445E+02  0.00000000000E+00 0. -1.
         21    1    1    2  505  503 -0.46765500789E+02  0.59090596600E+02  0.53640842388E+03  0.54167583284E+03  0.00000000000E+00 0. -1.
         21    1    1    2  506  502  0.77577776426E+00 -0.89212670638E+02  0.21295215034E+03  0.23088551442E+03  0.00000000000E+00 0. -1.
<scales pt_clust_3="68.38990" pt_clust_4="39.49613" pt_clust_5="88.94097" pt_clust_6="14000.00000"></scales>
<clustering>
<clus scale="   39.496">  2  4  1 -1</clus>
<clus scale="   68.390">  1  3  2 -1</clus>
<clus scale="   88.941">  1  5  2 -1</clus>
<clus scale="   68.390">  1  3  2 -1</clus>
</clustering>
</event>
<event>
 6    0  0.8520634E+002  0.8428379E+02  0.7546771E-02  0.1317316E+00
         21   -1    0    0  506  501  0.00000000000E+00  0.00000000000E+00  0.26673878422E+03  0.26673878422E+03  0.00000000000E+00 0.  1.
         21   -1    0    0  504  502 -0.00000000000E+00 -0.00000000000E+00 -0.31006982604E+03  0.31006982604E+03  0.00000000000E+00 0.  1.
         21    1    1    2  503  502 -0.68268458391E+02 -0.34824534538E+02 -0.17989699836E+03  0.19554094363E+03  0.00000000000E+00 0.  1.
         21    1    1    2  504  505  0.97857241547E+02  0.54795462481E+02 -0.82082351826E+02  0.13898235468E+03  0.00000000000E+00 0.  1.
         21    1    1    2  505  501  0.18816057277E+02 -0.35904261805E+02  0.15776607913E+03  0.16289044094E+03  0.00000000000E+00 0.  1.
         21    1    1    2  506  503 -0.48404840434E+02  0.15933333862E+02  0.60882229238E+02  0.79394871008E+02  0.00000000000E+00 0.  1.
<scales pt_clust_3="14000.00000" pt_clust_4="84.28379" pt_clust_5="40.53591" pt_clust_6="36.82356"></scales>
<clustering>
<clus scale="   40.536">  1  5  2 -1</clus>
<clus scale="   36.824">  1  6  2 -1</clus>
<clus scale="   84.284">  1  4  2 -1</clus>
<clus scale="   40.536">  1  3  2 -1</clus>
</clustering>
</event>
<event>
 6    0  0.8520634E+002  0.1452434E+03  0.7546771E-02  0.1206443E+00
         21   -1    0    0  504  501  0.00000000000E+00  0.00000000000E+00  0.12073205010E+04  0.12073205010E+04  0.00000000000E+00 0. -1.
         21   -1    0    0  506  502 -0.00000000000E+00 -0.00000000000E+00 -0.29470984605E+02  0.29470984605E+02  0.00000000000E+00 0. -1.
         21    1    1    2  503  502 -0.10451434558E+00  0.43390134797E+02  0.87468902744E+02  0.97639764790E+02  0.00000000000E+00 0. -1.
         21    1    1    2  504  505 -0.10410550802E+03 -0.10721692263E+03  0.68808664798E+03  0.70412829827E+03  0.00000000000E+00 0. -1.
         21    1    1    2  505  503  0.66465453984E+02  0.71051877644E+02  0.14338581634E+03  0.17327872985E+03  0.00000000000E+00 0. -1.
         21    1    1    2  506  501  0.37744568380E+02 -0.72250898072E+01  0.25890814938E+03  0.26174469274E+03  0.00000000000E+00 0.  1.
<scales pt_clust_3="34.06614" pt_clust_4="135.99067" pt_clust_5="34.06614" pt_clust_6="38.42986"></scales>
<clustering>
<clus scale="   34.066">  3  5 -1 -1</clus>
<clus scale="   38.430">  1  6  2 -1</clus>
<clus scale="  135.991">  1  4  2 -1</clus>
<clus scale="   38.430">  1  3  2 -1</clus>
</clustering>
</event>
<event>
 6    0  0.8520634E+002  0.7710732E+02  0.7546771E-02  0.1337467E+00
         21   -1    0    0  503  501  0.00000000000E+00  0.00000000000E+00  0.91297118085E+02  0.91297118085E+02  0.00000000000E+00 0.  1.
         21   -1    0    0  506  502 -0.00000000000E+00 -0.00000000000E+00 -0.17168602893E+04  0.17168602893E+04  0.00000000000E+00 0.  1.
         21    1    1    2  503  504  0.92791528538E+02  0.62203946840E+02 -0.11928383893E+03  0.16342653702E+03  0.00000000000E+00 0.  1.
         21    1    1    2  504  502 -0.27692919153E+02 -0.23206320184E+02 -0.13784209752E+04  0.13788944180E+04  0.00000000000E+00 0.  1.
         21    1    1    2  505  501 -0.21494141971E+02 -0.71892967649E+02  0.42982756795E+02  0.86476091021E+02  0.00000000000E+00 0.  1.
         21    1    1    2  506  505 -0.43604467414E+02  0.32895340993E+02 -0.17084111382E+03  0.17936036131E+03  0.00000000000E+00 0. -1.
<scales pt_clust_3="77.10732" pt_clust_4="36.13075" pt_clust_5="14000.00000" pt_clust_6="61.58971"></scales>
<clustering>
<clus scale="   36.131">  2  4  1 -1</clus>
<clus scale="   61.590">  2  6  1 -1</clus>
<clus scale="   77.107">  2  3  1 -1</clus>
<clus scale="   77.107">  1  3  2 -1</clus>
</clustering>
</event>
<event>
 6    0  0.8520634E+002  0.5799744E+02  0.7546771E-02  0.1406433E+00
         21   -1    0    0  505  501  0.00000000000E+00  0.00000000000E+00  0.66244578781E+03  0.66244578781E+03  0.00000000000E+00 0.  1.
         21   -1    0    0  504  502 -0.00000000000E+00 -0.00000000000E+00 -0.88170324727E+02  0.88170324727E+02  0.00000000000E+00 0. -1.
         21    1    1    2  503  502  0.38432683512E+02 -0.23467391016E+02  0.43399951648E+02  0.62540749964E+02  0.00000000000E+00 0. -1.
         21    1    1    2  504  506 -0.75395120426E+02  0.56703606742E+02 -0.39532467381E+02  0.10228655424E+03  0.00000000000E+00 0. -1.
         21    1    1    2  505  503  0.82944044547E+02 -0.24369358418E+02  0.37929193916E+03  0.38901922223E+03  0.00000000000E+00 0.  1.
         21    1    1    2  506  501 -0.45981607633E+02 -0.88668573075E+01  0.19111603965E+03  0.19676958610E+03  0.00000000000E+00 0.  1.
<scales pt_clust_3="45.03098" pt_clust_4="14000.00000" pt_clust_5="57.99744" pt_clust_6="45.64436"></scales>
<clustering>
<clus scale="   45.031">  2  3  1 -1</clus>
<clus scale="   45.644">  1  6  2 -1</clus>
<clus scale="   57.997">  1  5  2 -1</clus>
<clus scale="   45.644">  1  3  2 -1</clus>
</clustering>
</event>
<event>
 6    0  0.8520634E+002  0.8212143E+02  0.7546771E-02  0.1323137E+00
         21   -1    0    0  503  501  0.00000000000E+00  0.00000000000E+00  0.58169021388E+03  0.58169021388E+03  0.00000000000E+00 0.  1.
         21   -1    0    0  504  502 -0.00000000000E+00 -0.00000000000E+00 -0.23457053757E+03  0.23457053757E+03  0.00000000000E+00 0.  1.
         21    1    1    2  503  506 -0.78688140526E+02 -0.22276678886E+02  0.48543705168E+03  0.49227756909E+03  0.00000000000E+00 0.  1.
         21    1    1    2  504  505 -0.26116631967E+02 -0.35824393959E+02  0.21844883146E+02  0.49423320280E+02  0.00000000000E+00 0. -1.
         21    1    1    2  505  501  0.68898278413E+02  0.70327994121E+02  0.11164851920E+02  0.99084072604E+02  0.00000000000E+00 0.  1.
         21    1    1    2  506  502  0.35906494081E+02 -0.12226921276E+02 -0.17132711044E+03  0.17547578948E+03  0.00000000000E+00 0.  1.
<scales pt_clust_3="82.12143" pt_clust_4="42.58254" pt_clust_5="14000.00000" pt_clust_6="37.93117"></scales>
<clustering>
<clus scale="   37.931">  2  6  1 -1</clus>
<clus scale="   42.583">  2  4  1 -1</clus>
<clus scale="   82.121">  1  3  2 -1</clus>
<clus scale="   82.121">  1  3  2 -1</clus>
</clustering>
</event>
<event>
 6    0  0.8520634E+002  0.7390028E+02  0.7546771E-02  0.1347311E+00
         21   -1    0    0  506  501  0.00000000000E+00  0.00000000000E+00  0.29221323598E+03  0.29221323598E+03  0.00000000000E+00 0. -1.
         21   -1    0    0  503  502 -0.00000000000E+00 -0.00000000000E+00 -0.50105440031E+03  0.50105440031E+03  0.00000000000E+00 0. -1.
         21    1    1    2  503  501 -0.32363495546E+02 -0.23271787293E+02  0.35761545951E+02  0.53552405143E+02  0.00000000000E+00 0. -1.
         21    1    1    2  504  502 -0.77442780293E+01 -0.55502674211E+02 -0.25761923484E+02  0.61678175949E+02  0.00000000000E+00 0. -1.
         21    1    1    2  505  504 -0.59864019782E+02  0.31621023250E+02 -0.43234667756E+03  0.43761540143E+03  0.00000000000E+00 0. -1.
         21    1    1    2  506  505  0.99971793357E+02  0.47153438254E+02  0.21350589076E+03  0.24042165376E+03  0.00000000000E+00 0. -1.
<scales pt_clust_3="39.86191" pt_clust_4="58.07444" pt_clust_5="14000.00000" pt_clust_6="73.90028"></scales>
<clustering>
<clus scale="   39.862">  1  3  2 -1</clus>
<clus scale="   58.074">  2  4  1 -1</clus>
<clus scale="   73.900">  1  6  2 -1</clus>
<clus scale="   39.862">  1  3  2 -1</clus>
</clustering>
</event>
<event>
 6    0  0.8520634E+002  0.1955758E+03  0.7546771E-02  0.1153526E+00
         21   -1    0    0  505  501  0.00000000000E+00  0.00000000000E+00  0.33262357982E+03  0.33262357982E+03  0.00000000000E+00 0. -1.
         21   -1    0    0  506  502 -0.00000000000E+00 -0.00000000000E+00 -0.36290700505E+03  0.36290700505E+03  0.00000000000E+00 0. -1.
         21    1    1    2  503  504  0.75713436397E+02  0.21199494387E+03 -0.81394799384E+02  0.23937312724E+03  0.00000000000E+00 0. -1.
         21    1    1    2  504  502  0.51922751337E+02 -0.66325561895E+02 -0.12881000746E+03  0.15390604370E+03  0.00000000000E+00 0. -1.
         21    1    1    2  505  503 -0.15828945708E+03 -0.10747539095E+03  0.15988169008E+03  0.24933645282E+03  0.00000000000E+00 0. -1.
         21    1    1    2  506  501  0.30653269345E+02 -0.38193991029E+02  0.20039691536E+02  0.52914961109E+02  0.00000000000E+00 0. -1.
<scales pt_clust_3="195.57577" pt_clust_4="86.30704" pt_clust_5="14000.00000" pt_clust_6="48.97350"></scales>
<clustering>
<clus scale="   48.974">  1  6  2 -1</clus>
<clus scale="   86.307">  2  4  1 -1</clus>
<clus scale="  195.576">  2  3  1 -1</clus>
<clus scale="   48.974">  1  3  2 -1</clus>
</clustering>
</event>
<event>
 6    0  0.8520634E+002  0.1223167E+03  0.7546771E-02  0.1239323E+00
         21   -1    0    0  506  501  0.00000000000E+00  0.00000000000E+00  0.13146772370E+04  0.13146772370E+04  0.00000000000E+00 0.  1.
         21   -1    0    0  503  502 -0.00000000000E+00 -0.00000000000E+00 -0.13290757135E+04  0.13290757135E+04  0.00000000000E+00 0. -1.
         21    1    1    2  503  505 -0.19016573577E+02 -0.27103085796E+02 -0.98069246479E+02  0.10350741247E+03  0.00000000000E+00 0. -1.
         21    1    1    2  504  502 -0.28191901148E+02 -0.31259271341E+02 -0.11334137405E+04  0.11341951474E+04  0.00000000000E+00 0. -1.
         21    1    1    2  505  501  0.12364427307E+03  0.81066966904E+01  0.12857265024E+04  0.12916834998E+04  0.00000000000E+00 0.  1.
         21    1    1    2  506  504 -0.76435798340E+02  0.50255660446E+02 -0.68641991869E+02  0.11436689085E+03  0.00000000000E+00 0. -1.
<scales pt_clust_3="33.10902" pt_clust_4="72.52466" pt_clust_5="14000.00000" pt_clust_6="122.31671"></scales>
<clustering>
<clus scale="   33.109">  2  3  1 -1</clus>
<clus scale="   72.525">  2  4  1 -1</clus>
<clus scale="  122.317">  2  6  1 -1</clus>
<clus scale="  122.317">  1  3  2 -1</clus>
</clustering>
</event>
<event>
 6    0  0.8520634E+002  0.1168914E+03  0.7546771E-02  0.1248315E+00
         21   -1    0    0  505  501  0.00000000000E+00  0.00000000000E+00  0.23639479167E+03  0.23639479167E+03  0.00000000000E+00 0.  1.
         21   -1    0    0  504  502 -0.00000000000E+00 -0.00000000000E+00 -0.44116061267E+03  0.44116061267E+03  0.00000000000E+00 0. -1.
         21    1    1    2  503  501 -0.61896233612E+02  0.24319083295E+02  0.92685720490E+02  0.11407543263E+03  0.00000000000E+00 0.  1.
         21    1    1    2  504  506  0.54518340483E+02 -0.59245332366E+02 -0.33413198693E+03  0.34369527716E+03  0.00000000000E+00 0. -1.
         21    1    1    2  505  502 -0.51499309291E+01 -0.60384505825E+02 -0.58695509356E+02  0.84368081352E+02  0.00000000000E+00 0. -1.
         21    1    1    2  506  503  0.12527824058E+02  0.95310754896E+02  0.95375954797E+02  0.13541661319E+03  0.00000000000E+00 0. -1.
<scales pt_clust_3="66.02351" pt_clust_4="14000.00000" pt_clust_5="60.60372" pt_clust_6="116.89142"></scales>
<clustering>
<clus scale="   60.604">  2  5  1 -1</clus>
<clus scale="   66.024">  1  3  2 -1</clus>
<clus scale="  116.891">  1  6  2 -1</clus>
<clus scale="   66.024">  1  3  2 -1</clus>
</clustering>
</event>
<event>
 6    0  0.8520634E+002  0.1090237E+03  0.7546771E-02  0.1262389E+00
         21   -1    0    0  505  501  0.00000000000E+00  0.00000000000E+00  0.58487097003E+03  0.58487097003E+03  0.00000000000E+00 0.  1.
         21   -1    0    0  503  502 -0.00000000000E+00 -0.00000000000E+00 -0.12495489926E+04  0.12495489926E+04  0.00000000000E+00 0.  1.
         21    1    1    2  503  506 -0.38097498832E+02  0.36975688807E+02 -0.11329119991E+04  0.11341552886E+04  0.00000000000E+00 0.  1.
         21    1    1    2  504  502  0.25432543669E+02  0.79235297267E+02 -0.77066622664E+02  0.11342094577E+03  0.00000000000E+00 0. -1.
         21    1    1    2  505  504 -0.41684952781E+02 -0.18562028387E+02  0.20059953604E+02  0.49845620919E+02  0.00000000000E+00 0. -1.
         21    1    1    2  506  501  0.54349907944E+02 -0.97648957687E+02  0.52524064562E+03  0.53699810730E+03  0.00000000000E+00 0.  1.
<scales pt_clust_3="53.10991" pt_clust_4="109.02374" pt_clust_5="45.63096" pt_clust_6="14000.00000"></scales>
<clustering>
<clus scale="   45.631">  1  5  2 -1</clus>
<clus scale="   53.110">  2  3  1 -1</clus>
<clus scale="  109.024">  2  4  1 -1</clus>
<clus scale="   45.631">  1  3  2 -1</clus>
</clustering>
</event>
<event>
 6    0  0.8520634E+002  0.8926906E+02  0.7546771E-02  0.1304631E+00
         21   -1    0    0  504  501  0.00000000000E+00  0.00000000000E+00  0.86849529907E+02  0.86849529907E+02  0.00000000000E+00 0. -1.
         21   -1    0    0  505  502 -0.00000000000E+00 -0.00000000000E+00 -0.38940607134E+03  0.38940607134E+03  0.00000000000E+00 0.  1.
         21    1    1    2  503  502  0.76249473695E+01  0.41064421162E+02 -0.11434881188E+03  0.12173773978E+03  0.00000000000E+00 0.  1.
         21    1    1    2  504  506 -0.35211096000E+02 -0.24289411421E+01  0.44660706991E+02  0.56923631169E+02  0.00000000000E+00 0. -1.
         21    1    1    2  505  501  0.92285353441E+02 -0.67497138813E+02 -0.13861808785E+03  0.17968701813E+03  0.00000000000E+00 0.  1.
         21    1    1    2  506  503 -0.64699204811E+02  0.28861658793E+02 -0.94250348701E+02  0.11790721217E+03  0.00000000000E+00 0.  1.
<scales pt_clust_3="41.01277" pt_clust_4="35.29477" pt_clust_5="89.26906" pt_clust_6="14000.00000"></scales>
<clustering>
<clus scale="   35.295">  1  4  2 -1</clus>
<clus scale="   41.013">  2  3  1 -1</clus>
<clus scale="   89.269">  1  5  2 -1</clus>
<clus scale="   35.295">  1  3  2 -1</clus>
</clustering>
</event>
<event>
 6    0  0.8520634E+002  0.1054812E+03  0.7546771E-02  0.1269174E+00
         21   -1    0    0  504  501  0.00000000000E+00  0.00000000000E+00  0.19898920612E+03  0.19898920612E+03  0.00000000000E+00 0.  1.
         21   -1    0    0  506  502 -0.00000000000E+00 -0.00000000000E+00 -0.83212880921E+03  0.83212880921E+03  0.00000000000E+00 0.  1.
         21    1    1    2  503  502  0.28718265476E+02  0.18480895770E+02 -0.32260247542E+03  0.32440505457E+03  0.00000000000E+00 0.  1.
         21    1    1    2  504  503  0.36906623003E+02  0.38212773578E+01 -0.43099646130E+02  0.56870734817E+02  0.00000000000E+00 0.  1.
         21    1    1    2  505  501 -0.64214144821E+02  0.84571887307E+02  0.16950358581E+03  0.20001831447E+03  0.00000000000E+00 0.  1.
         21    1    1    2  506  505 -0.14107436574E+01 -0.10687406044E+03 -0.43694106735E+03  0.44982391147E+03  0.00000000000E+00 0.  1.
<scales pt_clust_3="34.15088" pt_clust_4="40.12690" pt_clust_5="14000.00000" pt_clust_6="105.48125"></scales>
<clustering>
<clus scale="   34.151">  2  3  1 -1</clus>
<clus scale="   40.127">  2  4  1 -1</clus>
<clus scale="  105.481">  2  6  1 -1</clus>
<clus scale="  105.481">  1  3  2 -1</clus>
</clustering>
</event>
<event>
 6    0  0.8520634E+002  0.1525628E+03  0.7546771E-02  0.1197359E+00
         21   -1    0    0  505  501  0.00000000000E+00  0.00000000000E+00  0.24755753308E+03  0.24755753308E+03  0.00000000000E+00 0.  1.
         21   -1    0    0  503  502 -0.00000000000E+00 -0.00000000000E+00 -0.12375579782E+04  0.12375579782E+04  0.00000000000E+00 0.  1.
         21    1    1    2  503  506  0.66362146017E+01  0.49172767258E+02 -0.92828721149E+03  0.92961236405E+03  0.00000000000E+00 0.  1.
         21    1    1    2  504  502 -0.12773720056E+03  0.59366442521E+02 -0.25316974868E+03  0.28971725622E+03  0.00000000000E+00 0.  1.
         21    1    1    2  505  504  0.61225715922E+02 -0.96633826519E+00  0.62475559325E+02  0.87479812601E+02  0.00000000000E+00 0. -1.
         21    1    1    2  506  501  0.59875270032E+02 -0.10757287151E+03  0.12898095574E+03  0.17830607839E+03  0.00000000000E+00 0.  1.
<scales pt_clust_3="49.61855" pt_clust_4="14000.00000" pt_clust_5="61.50311" pt_clust_6="152.56283"></scales>
<clustering>
<clus scale="   49.619">  2  3  1 -1</clus>
<clus scale="   61.503">  1  5  2 -1</clus>
<clus scale="  152.563">  1  6  2 -1</clus>
<clus scale="   61.503">  1  3  2 -1</clus>
</clustering>
</event>
<event>
 6    0  0.8520634E+002  0.1076017E+03  0.7546771E-02  0.1265077E+00
         21   -1    0    0  503  501  0.00000000000E+00  0.00000000000E+00  0.17306698969E+04  0.17306698969E+04  0.00000000000E+00 0.  1.
         21   -1    0    0  505  502 -0.00000000000E+00 -0.00000000000E+00 -0.10477834694E+03  0.10477834694E+03  0.00000000000E+00 0.  1.
         21    1    1    2  503  506 -0.22977038480E+02 -0.76672843177E+02  0.14890353704E+04  0.14911851003E+04  0.00000000000E+00 0.  1.
         21    1    1    2  504  501  0.85053533099E+01 -0.31708133358E+02  0.17504538810E+03  0.17809726178E+03  0.00000000000E+00 0.  1.
         21    1    1    2  505  504  0.46887785081E+02  0.89672789980E+02 -0.64872847792E+02  0.12020049930E+03  0.00000000000E+00 0.  1.
         21    1    1    2  506  502 -0.32416099911E+02  0.18708186556E+02  0.26683639254E+02  0.45965382425E+02  0.00000000000E+00 0.  1.
<scales pt_clust_3="107.60168" pt_clust_4="32.82905" pt_clust_5="14000.00000" pt_clust_6="36.88861"></scales>
<clustering>
<clus scale="   32.829">  1  4  2 -1</clus>
<clus scale="   36.889">  2  6  1 -1</clus>
<clus scale="  107.602">  1  3  2 -1</clus>
<clus scale="   32.829">  1  3  2 -1</clus>
</clustering>
</event>
<event>
 6    0  0.8520634E+002  0.9580980E+02  0.7546771E-02  0.1289363E+00
         21   -1    0    0  503  501  0.00000000000E+00  0.00000000000E+00  0.15745964010E+04  0.15745964010E+04  0.00000000000E+00 0. -1.
         21   -1    0    0  504  502 -0.00000000000E+00 -0.00000000000E+00 -0.10091076828E+03  0.10091076828E+03  0.00000000000E+00 0. -1.
         21    1    1    2  503  506 -0.12057981649E+02 -0.46877870200E+02  0.79723544096E+02  0.93267213527E+02  0.00000000000E+00 0. -1.
         21    1    1    2  504  505  0.89290652298E+02 -0.32744640834E+02  0.61811491990E+02  0.11342703661E+03  0.00000000000E+00 0. -1.
         21    1    1    2  505  501 -0.87362775011E+02  0.39481644143E+02  0.13924079095E+04  0.13957044247E+04  0.00000000000E+00 0. -1.
         21    1    1    2  506  502  0.10130104361E+02  0.40140866891E+02 -0.60257312861E+02  0.73108494461E+02  0.00000000000E+00 0. -1.
<scales pt_clust_3="40.21323" pt_clust_4="95.80980" pt_clust_5="14000.00000" pt_clust_6="41.39937"></scales>
<clustering>
<clus scale="   41.399">  2  6  1 -1</clus>
<clus scale="   40.213">  2  3  1 -1</clus>
<clus scale="   95.810">  2  4  1 -1</clus>
<clus scale="   95.810">  1  3  2 -1</clus>
</clustering>
</event>
<event>
 6    0  0.8520634E+002  0.8447706E+02  0.7546771E-02  0.1316806E+00
         21   -1    0    0  503  501  0.00000000000E+00  0.00000000000E+00  0.46486761707E+03  0.46486761707E+03  0.00000000000E+00 0. -1.
         21   -1    0    0  504  502 -0.00000000000E+00 -0.00000000000E+00 -0.10689812400E+04  0.10689812400E+04  0.00000000000E+00 0.  1.
         21    1    1    2  503  506 -0.14719946026E+02  0.32860511230E+02  0.42071855683E+01  0.36251764367E+02  0.00000000000E+00 0.  1.
         21    1    1    2  504  505  0.70523744508E+02 -0.64200360353E+02 -0.14323246965E+03  0.17207796248E+03  0.00000000000E+00 0.  1.
         21    1    1    2  505  501  0.29173772061E+02  0.23638060799E+02  0.42735738097E+03  0.42900372721E+03  0.00000000000E+00 0. -1.
         21    1    1    2  506  502 -0.84977570543E+02  0.77017883234E+01 -0.89244571979E+03  0.89651540300E+03  0.00000000000E+00 0.  1.
<scales pt_clust_3="36.00681" pt_clust_4="14000.00000" pt_clust_5="57.28081" pt_clust_6="84.47706"></scales>
<clustering>
<clus scale="   36.007">  1  3  2 -1</clus>
<clus scale="   57.281">  1  5  2 -1</clus>
<clus scale="   84.477">  2  6  1 -1</clus>
<clus scale="   36.007">  1  3  2 -1</clus>
</clustering>
</event>
<event>
 6    0  0.8520634E+002  0.7744531E+02  0.7546771E-02  0.1336462E+00
         21   -1    0    0  506  501  0.00000000000E+00  0.00000000000E+00  0.33875769921E+03  0.33875769921E+03  0.00000000000E+00 0.  1.
         21   -1    0    0  504  502 -0.00000000000E+00 -0.00000000000E+00 -0.10317107611E+03  0.10317107611E+03  0.00000000000E+00 0.  1.
         21    1    1    2  503  501 -0.35543119737E+02 -0.87600603430E+02  0.20520202127E+03  0.22593151310E+03  0.00000000000E+00 0.  1.
         21    1    1    2  504  503  0.84776165657E+02  0.44592569628E+02 -0.43733390714E+02  0.10530007119E+03  0.00000000000E+00 0.  1.
         21    1    1    2  505  502 -0.38484349018E+02  0.97785517436E+01  0.15828672511E+02  0.42745901172E+02  0.00000000000E+00 0.  1.
         21    1    1    2  506  505 -0.10748696903E+02  0.33229482059E+02  0.58289320038E+02  0.67951289859E+02  0.00000000000E+00 0.  1.
<scales pt_clust_3="77.44531" pt_clust_4="14000.00000" pt_clust_5="41.80181" pt_clust_6="34.92468"></scales>
<clustering>
<clus scale="   34.925">  1  6  2 -1</clus>
<clus scale="   41.802">  2  5  1 -1</clus>
<clus scale="   77.445">  1  3  2 -1</clus>
<clus scale="   34.925">  1  3  2 -1</clus>
</clustering>
</event>
<event>
 6    0  0.8520634E+002  0.1180481E+03  0.7546771E-02  0.1246352E+00
         21   -1    0    0  503  501  0.00000000000E+00  0.00000000000E+00  0.39739093387E+03  0.39739093387E+03  0.00000000000E+00 0.  1.
         21   -1    0    0  501  502 -0.00000000000E+00 -0.00000000000E+00 -0.76671268057E+03  0.76671268057E+03  0.00000000000E+00 0. -1.
         21    1    1    2  503  504 -0.36651130163E+02 -0.99311709164E+01  0.31754565730E+03  0.31980803299E+03  0.00000000000E+00 0.  1.
         21    1    1    2  504  505  0.23050424735E+02 -0.33594377072E+02 -0.19715688559E+02  0.45261602123E+02  0.00000000000E+00 0. -1.
         21    1    1    2  505  506  0.79672926956E+02  0.13717234777E+03 -0.42874564291E+02  0.16432363356E+03  0.00000000000E+00 0.  1.
         21    1    1    2  506  502 -0.66072221528E+02 -0.93646799783E+02 -0.62427715115E+03  0.63471034576E+03  0.00000000000E+00 0. -1.
<scales pt_clust_3="37.97280" pt_clust_4="39.14039" pt_clust_5="14000.00000" pt_clust_6="118.04815"></scales>
<clustering>
<clus scale="   37.973">  1  3  2 -1</clus>
<clus scale="   39.140">  1  4  2 -1</clus>
<clus scale="  118.048">  2  6  1 -1</clus>
<clus scale="   37.973">  1  3  2 -1</clus>
</clustering>
</event>
<event>
 6    0  0.8520634E+002  0.9153848E+02  0.7546771E-02  0.1299168E+00
         21   -1    0    0  505  501  0.00000000000E+00  0.00000000000E+00  0.64497539801E+02  0.64497539801E+02  0.00000000000E+00 0. -1.
         21   -1    0    0  506  502 -0.00000000000E+00 -0.00000000000E+00 -0.70372078906E+03  0.70372078906E+03  0.00000000000E+00 0. -1.
         21    1    1    2  503  501 -0.35870157431E+02  0.11420745170E+02  0.13854450515E+02  0.40112933244E+02  0.00000000000E+00 0. -1.
         21    1    1    2  504  503 -0.62604372732E+02 -0.44812741983E+02 -0.37618744077E+02  0.85689318092E+02  0.00000000000E+00 0. -1.
         21    1    1    2  505  502  0.50892882875E+02  0.93174876676E+02 -0.39832316438E+03  0.41222928869E+03  0.00000000000E+00 0. -1.
         21    1    1    2  506  504  0.47581647288E+02 -0.59782879863E+02 -0.21713579132E+03  0.23018678883E+03  0.00000000000E+00 0. -1.
<scales pt_clust_3="37.64441" pt_clust_4="91.53848" pt_clust_5="14000.00000" pt_clust_6="71.06035"></scales>
<clustering>
<clus scale="   37.644">  1  3  2 -1</clus>
<clus scale="   71.060">  2  6  1 -1</clus>
<clus scale="   91.538">  1  4  2 -1</clus>
<clus scale="   37.644">  1  3  2 -1</clus>
</clustering>
</event>
<event>
 6    0  0.8520634E+002  0.1591194E+03  0.7546771E-02  0.1189694E+00
         21   -1    0    0  505  501  0.00000000000E+00  0.00000000000E+00  0.80383238702E+02  0.80383238702E+02  0.00000000000E+00 0. -1.
         21   -1    0    0  504  502 -0.00000000000E+00 -0.00000000000E+00 -0.56961349899E+03  0.56961349899E+03  0.00000000000E+00 0. -1.
         21    1    1    2  503  506 -0.10501815067E+03  0.21524756741E+02 -0.27018971949E+03  0.29067956867E+03  0.00000000000E+00 0. -1.
         21    1    1    2  504  503 -0.47807044915E+02 -0.45467021797E+02 -0.15754381050E+03  0.17080051476E+03  0.00000000000E+00 0. -1.
         21    1    1    2  505  502  0.62677468690E+02  0.16493770529E+02 -0.72671828977E+02  0.97374043125E+02  0.00000000000E+00 0. -1.
         21    1    1    2  506  501  0.90147726892E+02  0.74484945269E+01  0.11175098683E+02  0.91142611139E+02  0.00000000000E+00 0. -1.
<scales pt_clust_3="61.16621" pt_clust_4="61.16621" pt_clust_5="64.81134" pt_clust_6="138.70787"></scales>
<clustering>
<clus scale="   61.166">  3  4 -1 -1</clus>
<clus scale="   64.811">  1  5  2 -1</clus>
<clus scale="  138.708">  1  6  2 -1</clus>
<clus scale="   64.811">  1  3  2 -1</clus>
</clustering>
</event>
<event>
 6    0  0.8520634E+002  0.1110205E+03  0.7546771E-02  0.1258692E+00
         21   -1    0    0  505  501  0.00000000000E+00  0.00000000000E+00  0.17520700463E+03  0.17520700463E+03  0.00000000000E+00 0.  1.
         21   -1    0    0  503  502 -0.00000000000E+00 -0.00000000000E+00 -0.52133699847E+03  0.52133699847E+03  0.00000000000E+00 0.  1.
         21    1    1    2  503  504 -0.68629538703E+02  0.13689458360E+03 -0.17942174354E+03  0.23588620701E+03  0.00000000000E+00 0.  1.
         21    1    1    2  504  501 -0.20321325850E+02 -0.10638414488E+03  0.10296038227E+03  0.14943688595E+03  0.00000000000E+00 0.  1.
         21    1    1    2  505  506  0.46320343440E+02  0.71374832724E+01 -0.13440086199E+02  0.48756064248E+02  0.00000000000E+00 0.  1.
         21    1    1    2  506  502  0.42630521113E+02 -0.37647921988E+02 -0.25622854636E+03  0.26246484589E+03  0.00000000000E+00 0.  1.
<scales pt_clust_3="111.02051" pt_clust_4="14000.00000" pt_clust_5="46.86702" pt_clust_6="57.47273"></scales>
<clustering>
<clus scale="   46.867">  1  5  2 -1</clus>
<clus scale="   57.473">  2  6  1 -1</clus>
<clus scale="  111.021">  2  3  1 -1</clus>
<clus scale="   46.867">  1  3  2 -1</clus>
</clustering>
</event>
<event>
 6    0  0.8520634E+002  0.9673427E+02  0.7546771E-02  0.1287317E+00
         21   -1    0    0  505  501  0.00000000000E+00  0.00000000000E+00  0.29413533613E+03  0.29413533613E+03  0.00000000000E+00 0.  1.
         21   -1    0    0  503  502 -0.00000000000E+00 -0.00000000000E+00 -0.30677482114E+03  0.30677482114E+03  0.00000000000E+00 0. -1.
         21    1    1    2  503  504 -0.11791865643E+02 -0.81405870348E+02  0.12764099640E+03  0.15184922715E+03  0.00000000000E+00 0.  1.
         21    1    1    2  504  501  0.32875764479E+02 -0.30302571869E+02  0.11089416533E+03  0.11956829704E+03  0.00000000000E+00 0.  1.
         21    1    1    2  505  506 -0.73499717139E+02  0.28570867345E+02 -0.24737666514E+02  0.82646566928E+02  0.00000000000E+00 0.  1.
         21    1    1    2  506  502  0.52415818303E+02  0.83137574871E+02 -0.22643698022E+03  0.24684606616E+03  0.00000000000E+00 0. -1.
<scales pt_clust_3="96.73427" pt_clust_4="44.71087" pt_clust_5="72.16982" pt_clust_6="14000.00000"></scales>
<clustering>
<clus scale="   44.711">  1  4  2 -1</clus>
<clus scale="   72.170">  1  5  2 -1</clus>
<clus scale="   96.734">  1  3  2 -1</clus>
<clus scale="   44.711">  1  3  2 -1</clus>
</clustering>
</event>
<event>
 6    0  0.8520634E+002  0.1318555E+03  0.7546771E-02  0.1224728E+00
         21   -1    0    0  503  501  0.00000000000E+00  0.00000000000E+00  0.20253138196E+03  0.20253138196E+03  0.00000000000E+00 0.  1.
         21   -1    0    0  505  502 -0.00000000000E+00 -0.00000000000E+00 -0.14000897742E+03  0.14000897742E+03  0.00000000000E+00 0. -1.
         21    1    1    2  503  506 -0.34116046991E+02  0.24088633319E-01  0.75208897947E+02  0.82585008161E+02  0.00000000000E+00 0.  1.
         21    1    1    2  504  501  0.57863729859E+02  0.65288952640E+02  0.29645633796E+00  0.87240738513E+02  0.00000000000E+00 0. -1.
         21    1    1    2  505  504  0.38404058625E+02  0.27942146213E+02 -0.34367643783E+02  0.58623972853E+02  0.00000000000E+00 0. -1.
         21    1    1    2  506  502 -0.62151741493E+02 -0.93255187486E+02  0.21384694042E+02  0.11409063986E+03  0.00000000000E+00 0.  1.
<scales pt_clust_3="34.11606" pt_clust_4="34.81503" pt_clust_5="34.81503" pt_clust_6="123.40881"></scales>
<clustering>
<clus scale="   34.116">  1  3  2 -1</clus>
<clus scale="   34.815">  4  5 -1 -1</clus>
<clus scale="  123.409">  1  6  2 -1</clus>
<clus scale="   34.116">  1  3  2 -1</clus>
</clustering>
</event>
<event>
 6    0  0.8520634E+002  0.1133978E+03  0.7546771E-02  0.1254404E+00
         21   -1    0    0  504  501  0.00000000000E+00  0.00000000000E+00  0.19497909078E+04  0.19497909078E+04  0.00000000000E+00 0.  1.
         21   -1    0    0  503  502 -0.00000000000E+00 -0.00000000000E+00 -0.51774962942E+02  0.51774962942E+02  0.00000000000E+00 0. -1.
         21    1    1    2  503  505 -0.63832470544E+02 -0.19513314321E+02  0.31417279809E+01  0.66822332990E+02  0.00000000000E+00 0. -1.
         21    1    1    2  504  502  0.69891296926E+02  0.45630095457E+02  0.15788836633E+04  0.15810883976E+04  0.00000000000E+00 0.  1.
         21    1    1    2  505  506 -0.36688380509E+02 -0.64104434476E+02  0.66337767196E+02  0.99277969059E+02  0.00000000000E+00 0.  1.
         21    1    1    2  506  501  0.30629554126E+02  0.37987653340E+02  0.24965278639E+03  0.25437717104E+03  0.00000000000E+00 0. -1.
<scales pt_clust_3="65.91849" pt_clust_4="14000.00000" pt_clust_5="113.39777" pt_clust_6="48.79786"></scales>
<clustering>
<clus scale="   48.798">  1  6  2 -1</clus>
<clus scale="   65.918">  2  3  1 -1</clus>
<clus scale="  113.398">  2  5  1 -1</clus>
<clus scale="   48.798">  1  3  2 -1</clus>
</clustering>
</event>
<event>
 6    0  0.8520634E+002  0.7218450E+02  0.7546771E-02  0.1352818E+00
         21   -1    0    0  506  501  0.00000000000E+00  0.00000000000E+00  0.58253856315E+03  0.58253856315E+03  0.00000000000E+00 0. -1.
         21   -1    0    0  504  502 -0.00000000000E+00 -0.00000000000E+00 -0.88389543130E+02  0.88389543130E+02  0.00000000000E+00 0. -1.
         21    1    1    2  503  505  0.16789149838E+02 -0.49151385478E+02  0.37190601868E+02  0.63881727544E+02  0.00000000000E+00 0. -1.
         21    1    1    2  504  501 -0.24652771132E+02  0.96527570138E+02  0.95367505445E+02  0.13791407476E+03  0.00000000000E+00 0. -1.
         21    1    1    2  505  502  0.48256465091E+02 -0.18401066319E+02 -0.39470687217E+02  0.65001698548E+02  0.00000000000E+00 0. -1.
         21    1    1    2  506  503 -0.40392843797E+02 -0.28975118341E+02  0.40106159992E+03  0.40413060543E+03  0.00000000000E+00 0. -1.
<scales pt_clust_3="72.18450" pt_clust_4="14000.00000" pt_clust_5="49.78763" pt_clust_6="49.71056"></scales>
<clustering>
<clus scale="   49.711">  1  6  2 -1</clus>
<clus scale="   49.788">  2  5  1 -1</clus>
<clus scale="   72.184">  1  3  2 -1</clus>
<clus scale="   49.711">  1  3  2 -1</clus>
</clustering>
</event>
<event>
 6    0  0.8520634E+002  0.1880223E+03  0.7546771E-02  0.1160257E+00
         21   -1    0    0  503  501  0.00000000000E+00  0.00000000000E+00  0.54781701114E+03  0.54781701114E+03  0.00000000000E+00 0.  1.
         21   -1    0    0  504  502 -0.00000000000E+00 -0.00000000000E+00 -0.15841631690E+04  0.15841631690E+04  0.00000000000E+00 0.  1.
         21    1    1    2  503  502 -0.22104376838E+02 -0.82451467434E+02  0.35521917893E+02  0.92458934713E+02  0.00000000000E+00 0. -1.
         21    1    1    2  504  505 -0.82488459682E+01  0.56764691655E+02 -0.12258332884E+04  0.12271746105E+04  0.00000000000E+00 0.  1.
         21    1    1    2  505  506 -0.32719399173E+01  0.14163357515E+03 -0.30578558922E+03  0.33700979478E+03  0.00000000000E+00 0.  1.
         21    1    1    2  506  501  0.33625162724E+02 -0.11594679938E+03  0.45975080183E+03  0.47533684019E+03  0.00000000000E+00 0.  1.
<scales pt_clust_3="81.18893" pt_clust_4="57.36091" pt_clust_5="188.02234" pt_clust_6="14000.00000"></scales>
<clustering>
<clus scale="   57.361">  2  4  1 -1</clus>
<clus scale="   81.189">  1  3  2 -1</clus>
<clus scale="  188.022">  2  5  1 -1</clus>
<clus scale="   81.189">  1  3  2 -1</clus>
</clustering>
</event>
<event>
 6    0  0.8520634E+002  0.1428497E+03  0.7546771E-02  0.1209545E+00
         21   -1    0    0  503  501  0.00000000000E+00  0.00000000000E+00  0.59900517942E+03  0.59900517942E+03  0.00000000000E+00 0.  1.
         21   -1    0    0  505  502 -0.00000000000E+00 -0.00000000000E+00 -0.22518231065E+03  0.22518231065E+03  0.00000000000E+00 0. -1.
         21    1    1    2  503  504 -0.33510435493E+02  0.28812070059E+02  0.13798788787E+03  0.14489217324E+03  0.00000000000E+00 0. -1.
         21    1    1    2  504  506  0.14075324626E+03  0.45825467224E+02  0.29248386699E+03  0.32780827053E+03  0.00000000000E+00 0.  1.
         21    1    1    2  505  501 -0.17581177207E+03 -0.16696638506E+02  0.75225960872E+02  0.19195703198E+03  0.00000000000E+00 0. -1.
         21    1    1    2  506  502  0.68568961307E+02 -0.57940898777E+02 -0.13187484696E+03  0.15953001431E+03  0.00000000000E+00 0. -1.
<scales pt_clust_3="44.19372" pt_clust_4="14000.00000" pt_clust_5="142.84970" pt_clust_6="88.43562"></scales>
<clustering>
<clus scale="   44.194">  1  3  2 -1</clus>
<clus scale="   88.436">  2  6  1 -1</clus>
<clus scale="  142.850">  2  5  1 -1</clus>
<clus scale="   44.194">  1  3  2 -1</clus>
</clustering>
</event>
<event>
 6    0  0.8520634E+002  0.8452865E+02  0.7546771E-02  0.1316670E+00
         21   -1    0    0  504  501  0.00000000000E+00  0.00000000000E+00  0.21002659567E+03  0.21002659567E+03  0.00000000000E+00 0.  1.
         21   -1    0    0  503  502 -0.00000000000E+00 -0.00000000000E+00 -0.76390623480E+03  0.76390623480E+03  0.00000000000E+00 0.  1.
         21    1    1    2  503  506  0.49548805402E+02 -0.18241697242E+02 -0.37143679202E+03  0.37517080656E+03  0.00000000000E+00 0.  1.
         21    1    1    2  504  505  0.61501539246E+02 -0.44496967448E+02  0.91362772337E+02  0.11878373462E+03  0.00000000000E+00 0.  1.
         21    1    1    2  505  502 -0.47309301791E+02 -0.18919933109E+02 -0.34853905026E+03  0.35224367057E+03  0.00000000000E+00 0.  1.
         21    1    1    2  506  501 -0.63741042858E+02  0.81658597799E+02  0.74733430804E+02  0.12773461872E+03  0.00000000000E+00 0.  1.
<scales pt_clust_3="35.97799" pt_clust_4="84.52865" pt_clust_5="50.95227" pt_clust_6="14000.00000"></scales>
<clustering>
<clus scale="   50.952">  2  5  1 -1</clus>
<clus scale="   35.978">  2  3  1 -1</clus>
<clus scale="   84.529">  1  4  2 -1</clus>
<clus scale="   84.529">  1  3  2 -1</clus>
</clustering>
</event>
<event>
 6    0  0.8520634E+002  0.7730170E+02  0.7546771E-02  0.1336888E+00
         21   -1    0    0  503  501  0.00000000000E+00  0.00000000000E+00  0.59952562745E+03  0.59952562745E+03  0.00000000000E+00 0.  1.
         21   -1    0    0  506  502 -0.00000000000E+00 -0.00000000000E+00 -0.19584264985E+03  0.19584264985E+03  0.00000000000E+00 0. -1.
         21    1    1    2  503  504 -0.89128215817E+02 -0.96258414777E+02  0.36766033258E+03  0.39036347347E+03  0.00000000000E+00 0.  1.
         21    1    1    2  504  505  0.11173040771E+01  0.52572105657E+02  0.37015151429E+02  0.64305490410E+02  0.00000000000E+00 0.  1.
         21    1    1    2  505  502  0.41206184771E+02  0.13096207805E+02 -0.16335413105E+03  0.16897938470E+03  0.00000000000E+00 0. -1.
         21    1    1    2  506  501  0.46804726969E+02  0.30590101316E+02  0.16236162464E+03  0.17171992872E+03  0.00000000000E+00 0.  1.
<scales pt_clust_3="14000.00000" pt_clust_4="61.93390" pt_clust_5="43.23726" pt_clust_6="77.30170"></scales>
<clustering>
<clus scale="   43.237">  2  5  1 -1</clus>
<clus scale="   61.934">  2  4  1 -1</clus>
<clus scale="   77.302">  1  6  2 -1</clus>
<clus scale="   77.302">  1  3  2 -1</clus>
</clustering>
</event>
<event>
 6    0  0.8520634E+002  0.1312203E+03  0.7546771E-02  0.1225656E+00
         21   -1    0    0  502  501  0.00000000000E+00  0.00000000000E+00  0.64016003363E+03  0.64016003363E+03  0.00000000000E+00 0.  1.
         21   -1    0    0  506  502 -0.00000000000E+00 -0.00000000000E+00 -0.37629752605E+03  0.37629752605E+03  0.00000000000E+00 0. -1.
         21    1    1    2  503  505  0.47883372791E+02 -0.69448656033E+02 -0.16278989114E+03  0.18334798027E+03  0.00000000000E+00 0.  1.
         21    1    1    2  504  501  0.88708873929E+02 -0.62205339798E+02  0.26172135277E+03  0.28326107235E+03  0.00000000000E+00 0.  1.
         21    1    1    2  505  504 -0.11191380238E+03  0.15897636886E+03  0.32875418543E+03  0.38193913057E+03  0.00000000000E+00 0.  1.
         21    1    1    2  506  503 -0.24678444341E+02 -0.27322373034E+02 -0.16382313948E+03  0.16790937649E+03  0.00000000000E+00 0. -1.
<scales pt_clust_3="95.97026" pt_clust_4="131.22025" pt_clust_5="14000.00000" pt_clust_6="36.81763"></scales>
<clustering>
<clus scale="   36.818">  2  6  1 -1</clus>
<clus scale="   95.970">  2  3  1 -1</clus>
<clus scale="  131.220">  1  4  2 -1</clus>
<clus scale="  131.220">  1  3  2 -1</clus>
</clustering>
</event>
<event>
 6    0  0.8520634E+002  0.1004525E+03  0.7546771E-02  0.1279347E+00
         21   -1    0    0  506  501  0.00000000000E+00  0.00000000000E+00  0.38506954444E+03  0.38506954444E+03  0.00000000000E+00 0. -1.
         21   -1    0    0  505  502 -0.00000000000E+00 -0.00000000000E+00 -0.22130962737E+03  0.22130962737E+03  0.00000000000E+00 0.  1.
         21    1    1    2  503  501  0.10236826763E+03 -0.33993274727E+02  0.23312840274E+03  0.25687284229E+03  0.00000000000E+00 0. -1.
         21    1    1    2  504  502 -0.12442514261E+02 -0.67222802222E+02 -0.98393651972E+01  0.69069055352E+02  0.00000000000E+00 0.  1.
         21    1    1    2  505  503 -0.20483031609E+02  0.12755685137E+03  0.57836142284E+02  0.14154619130E+03  0.00000000000E+00 0.  1.
         21    1    1    2  506  504 -0.69442721757E+02 -0.26340774424E+02 -0.11736526275E+03  0.13889108288E+03  0.00000000000E+00 0.  1.
<scales pt_clust_3="14000.00000" pt_clust_4="68.36462" pt_clust_5="100.45251" pt_clust_6="107.46563"></scales>
<clustering>
<clus scale="   68.365">  2  4  1 -1</clus>
<clus scale="  107.466">  2  6  1 -1</clus>
<clus scale="  100.453">  2  5  1 -1</clus>
<clus scale="  100.453">  1  3  2 -1</clus>
</clustering>
</event>
<event>
 6    0  0.8520634E+002  0.1781446E+03  0.7546771E-02  0.1169611E+00
         21   -1    0    0  506  501  0.00000000000E+00  0.00000000000E+00  0.93887327548E+03  0.93887327548E+03  0.00000000000E+00 0.  1.
         21   -1    0    0  504  502 -0.00000000000E+00 -0.00000000000E+00 -0.10279507391E+04  0.10279507391E+04  0.00000000000E+00 0.  1.
         21    1    1    2  503  501 -0.21587664891E+02 -0.35541672671E+02  0.28663090334E+02  0.50505549391E+02  0.00000000000E+00 0. -1.
         21    1    1    2  504  503  0.13033729497E+03  0.14275190097E+03 -0.52861780111E+03  0.56285228555E+03  0.00000000000E+00 0.  1.
         21    1    1    2  505  502 -0.15526498537E+03 -0.72014035912E+02 -0.45474177321E+03  0.48588405752E+03  0.00000000000E+00 0.  1.
         21    1    1    2  506  505  0.46515355288E+02 -0.35196192385E+02  0.86561902036E+03  0.86758212213E+03  0.00000000000E+00 0.  1.
<scales pt_clust_3="41.58410" pt_clust_4="14000.00000" pt_clust_5="178.14461" pt_clust_6="74.05314"></scales>
<clustering>
<clus scale="   41.584">  1  3  2 -1</clus>
<clus scale="   74.053">  1  6  2 -1</clus>
<clus scale="  178.145">  2  5  1 -1</clus>
<clus scale="   41.584">  1  3  2 -1</clus>
</clustering>
</event>
<event>
 6    0  0.8520634E+002  0.9197113E+02  0.7546771E-02  0.1298147E+00
         21   -1    0    0  503  501  0.00000000000E+00  0.00000000000E+00  0.59534625746E+03  0.59534625746E+03  0.00000000000E+00 0. -1.
         21   -1    0    0  501  502 -0.00000000000E+00 -0.00000000000E+00 -0.36489440287E+03  0.36489440287E+03  0.00000000000E+00 0. -1.
         21    1    1    2  503  504  0.14259431855E+02 -0.36547857144E+02  0.50631289631E+03  0.50783050935E+03  0.00000000000E+00 0. -1.
         21    1    1    2  504  505  0.27369255854E+01  0.74271194559E+02  0.38121798575E+02  0.83528274432E+02  0.00000000000E+00 0. -1.
         21    1    1    2  505  506  0.80065828540E+02 -0.71163576340E+01 -0.78531039186E+02  0.11237572496E+03  0.00000000000E+00 0. -1.
         21    1    1    2  506  502 -0.97062185980E+02 -0.30606979781E+02 -0.23545180110E+03  0.25650615159E+03  0.00000000000E+00 0. -1.
<scales pt_clust_3="39.23108" pt_clust_4="50.67006" pt_clust_5="91.97113" pt_clust_6="14000.00000"></scales>
<clustering>
<clus scale="   39.231">  1  3  2 -1</clus>
<clus scale="   50.670">  1  4  2 -1</clus>
<clus scale="   91.971">  1  5  2 -1</clus>
<clus scale="   39.231">  1  3  2 -1</clus>
</clustering>
</event>
<event>
 6    0  0.8520634E+002  0.9239968E+02  0.7546771E-02  0.1297142E+00
         21   -1    0    0  505  501  0.00000000000E+00  0.00000000000E+00  0.12440047325E+03  0.12440047325E+03  0.00000000000E+00 0.  1.
         21   -1    0    0  506  502 -0.00000000000E+00 -0.00000000000E+00 -0.54485129821E+03  0.54485129821E+03  0.00000000000E+00 0.  1.
         21    1    1    2  503  502 -0.34266476053E+02 -0.33124171319E+02 -0.25733474706E+02  0.54162845449E+02  0.00000000000E+00 0.  1.
         21    1    1    2  504  501 -0.20404537751E+02  0.79578954256E+02 -0.10843941052E+03  0.13604506928E+03  0.00000000000E+00 0.  1.
         21    1    1    2  505  503  0.87276593351E+02 -0.47508839122E+02  0.69825576254E+02  0.12144918543E+03  0.00000000000E+00 0.  1.
         21    1    1    2  506  504 -0.32605579547E+02  0.10540561845E+01 -0.35610351598E+03  0.35759467130E+03  0.00000000000E+00 0.  1.
<scales pt_clust_3="52.72031" pt_clust_4="92.39968" pt_clust_5="14000.00000" pt_clust_6="32.62261"></scales>
<clustering>
<clus scale="   32.623">  2  6  1 -1</clus>
<clus scale="   52.720">  2  3  1 -1</clus>
<clus scale="   92.400">  2  4  1 -1</clus>
<clus scale="   92.400">  1  3  2 -1</clus>
</clustering>
</event>
<event>
 6    0  0.1149954E+003  0.8860690E+02  0.7546771E-02  0.1306261E+00
         21   -1    0    0  506  501  0.00000000000E+00  0.00000000000E+00  0.29822326579E+03  0.29822326579E+03  0.00000000000E+00 0.  1.
         21   -1    0    0  505  502 -0.00000000000E+00 -0.00000000000E+00 -0.73792868307E+03  0.73792868307E+03  0.00000000000E+00 0.  1.
         21    1    1    2  503  501 -0.20691145625E+02  0.87979084134E+02  0.26354957227E+03  0.27861590011E+03  0.00000000000E+00 0.  1.
         21    1    1    2  504  502 -0.72844172651E+02 -0.69152884330E+02 -0.55334918635E+03  0.56239107118E+03  0.00000000000E+00 0.  1.
         21    1    1    2  505  503  0.16440747489E+02  0.26797744650E+02 -0.62620843954E+02  0.70069875081E+02  0.00000000000E+00 0.  1.
         21    1    1    2  506  504  0.77094570787E+02 -0.45623944454E+02 -0.87284959243E+02  0.12507510249E+03  0.00000000000E+00 0.  1.
<scales pt_clust_3="14000.00000" pt_clust_4="75.51183" pt_clust_5="31.43910" pt_clust_6="88.60690"></scales>
<clustering>
<clus scale="   31.439">  2  5  1 -1</clus>
<clus scale="   75.512">  2  4  1 -1</clus>
<clus scale="   88.607">  2  6  1 -1</clus>
<clus scale="   88.607">  1  3  2 -1</clus>
</clustering>
</event>
<event>
 6    0  0.8520634E+002  0.1818985E+03  0.7546771E-02  0.1165978E+00
         21   -1    0    0  504  501  0.00000000000E+00  0.00000000000E+00  0.19962624627E+04  0.19962624627E+04  0.00000000000E+00 0. -1.
         21   -1    0    0  503  502 -0.00000000000E+00 -0.00000000000E+00 -0.84752216298E+02  0.84752216298E+02  0.00000000000E+00 0.  1.
         21    1    1    2  503  506 -0.18566865161E+03  0.78511040466E+02  0.18154299005E+03  0.27128341067E+03  0.00000000000E+00 0.  1.
         21    1    1    2  504  502 -0.79650063885E+01 -0.44021603876E+02 -0.16146605796E+02  0.47561074560E+02  0.00000000000E+00 0.  1.
         21    1    1    2  505  501  0.62547106841E+02  0.10009966630E+02  0.10783069765E+04  0.10801658556E+04  0.00000000000E+00 0. -1.
         21    1    1    2  506  505  0.13108655116E+03 -0.44499403220E+02  0.66780688569E+03  0.68200433822E+03  0.00000000000E+00 0. -1.
<scales pt_clust_3="181.89854" pt_clust_4="44.73637" pt_clust_5="63.08697" pt_clust_6="14000.00000"></scales>
<clustering>
<clus scale="   44.736">  2  4  1 -1</clus>
<clus scale="   63.087">  1  5  2 -1</clus>
<clus scale="  181.899">  2  3  1 -1</clus>
<clus scale="   63.087">  1  3  2 -1</clus>
</clustering>
</event>
<event>
 6    0  0.8520634E+002  0.7673111E+02  0.7546771E-02  0.1338593E+00
         21   -1    0    0  503  501  0.00000000000E+00  0.00000000000E+00  0.22306307185E+03  0.22306307185E+03  0.00000000000E+00 0.  1.
         21   -1    0    0  504  502 -0.00000000000E+00 -0.00000000000E+00 -0.10215008318E+04  0.10215008318E+04  0.00000000000E+00 0.  1.
         21    1    1    2  503  506  0.33709126432E+02 -0.41539471869E+02 -0.23932422458E+02  0.58605407367E+02  0.00000000000E+00 0.  1.
         21    1    1    2  504  505 -0.12604270738E+02  0.79474156142E+02 -0.81463724851E+03  0.81860176875E+03  0.00000000000E+00 0.  1.
         21    1    1    2  505  501 -0.56998003585E+02  0.19349263101E+02  0.19195110205E+03  0.20116757187E+03  0.00000000000E+00 0.  1.
         21    1    1    2  506  502  0.35893147891E+02 -0.57283947374E+02 -0.15181919101E+03  0.16618915563E+03  0.00000000000E+00 0.  1.
<scales pt_clust_3="53.49610" pt_clust_4="76.73111" pt_clust_5="32.06673" pt_clust_6="14000.00000"></scales>
<clustering>
<clus scale="   53.496">  1  3  2 -1</clus>
<clus scale="   32.067">  1  5  2 -1</clus>
<clus scale="   76.731">  2  4  1 -1</clus>
<clus scale="   53.496">  1  3  2 -1</clus>
</clustering>
</event>
<event>
 6    0  0.8520634E+002  0.1139888E+03  0.7546771E-02  0.1253357E+00
         21   -1    0    0  504  501  0.00000000000E+00  0.00000000000E+00  0.15637651477E+03  0.15637651477E+03  0.00000000000E+00 0.  1.
         21   -1    0    0  505  502 -0.00000000000E+00 -0.00000000000E+00 -0.19898201601E+03  0.19898201601E+03  0.00000000000E+00 0.  1.
         21    1    1    2  503  506 -0.30972647191E+02  0.15813932971E+02 -0.31688805959E+02  0.47048546982E+02  0.00000000000E+00 0.  1.
         21    1    1    2  504  502  0.65027750118E+02 -0.12145209936E+03  0.44629870933E+02  0.14481383257E+03  0.00000000000E+00 0.  1.
         21    1    1    2  505  503 -0.61196124504E+01  0.71722074180E+02 -0.84401965703E+02  0.11092879426E+03  0.00000000000E+00 0.  1.
         21    1    1    2  506  501 -0.27935490477E+02  0.33916092207E+02  0.28855399489E+02  0.52567356967E+02  0.00000000000E+00 0.  1.
<scales pt_clust_3="34.34356" pt_clust_4="102.72327" pt_clust_5="34.34356" pt_clust_6="43.93965"></scales>
<clustering>
<clus scale="   34.344">  3  5 -1 -1</clus>
<clus scale="   43.940">  1  6  2 -1</clus>
<clus scale="  102.723">  1  4  2 -1</clus>
<clus scale="   43.940">  1  3  2 -1</clus>
</clustering>
</event>
<event>
 6    0  0.8520634E+002  0.8251017E+02  0.7546771E-02  0.1322075E+00
         21   -1    0    0  504  501  0.00000000000E+00  0.00000000000E+00  0.15802694225E+03  0.15802694225E+03  0.00000000000E+00 0. -1.
         21   -1    0    0  506  502 -0.00000000000E+00 -0.00000000000E+00 -0.27986689200E+03  0.27986689200E+03  0.00000000000E+00 0.  1.
         21    1    1    2  503  505  0.96919764939E+02  0.57129853820E+02  0.91429421393E+02  0.14497103204E+03  0.00000000000E+00 0. -1.
         21    1    1    2  504  503 -0.31227598382E+02  0.55495583724E+01  0.96044907439E+01  0.33139202484E+02  0.00000000000E+00 0. -1.
         21    1    1    2  505  502 -0.17049809728E+02 -0.60125381389E+02 -0.49580041982E+02  0.79774294493E+02  0.00000000000E+00 0. -1.
         21    1    1    2  506  501 -0.48642356829E+02 -0.25540308041E+01 -0.17329381991E+03  0.18000930523E+03  0.00000000000E+00 0.  1.
<scales pt_clust_3="82.51017" pt_clust_4="31.71688" pt_clust_5="14000.00000" pt_clust_6="49.46876"></scales>
<clustering>
<clus scale="   31.717">  1  4  2 -1</clus>
<clus scale="   49.469">  2  6  1 -1</clus>
<clus scale="   82.510">  1  3  2 -1</clus>
<clus scale="   31.717">  1  3  2 -1</clus>
</clustering>
</event>
<event>
 6    0  0.8520634E+002  0.6808637E+02  0.7546771E-02  0.1366724E+00
         21   -1    0    0  504  501  0.00000000000E+00  0.00000000000E+00  0.44840389504E+03  0.44840389504E+03  0.00000000000E+00 0. -1.
         21   -1    0    0  506  502 -0.00000000000E+00 -0.00000000000E+00 -0.98760073696E+02  0.98760073696E+02  0.00000000000E+00 0.  1.
         21    1    1    2  503  505  0.70020099107E+02  0.25422730589E+02  0.27679832788E+02  0.79468878517E+02  0.00000000000E+00 0.  1.
         21    1    1    2  504  502 -0.71420488764E+02 -0.30138152792E+02  0.43061459764E+02  0.88676286492E+02  0.00000000000E+00 0. -1.
         21    1    1    2  505  501  0.35652483337E+02  0.58604581803E+02  0.30307656672E+03  0.31074266182E+03  0.00000000000E+00 0. -1.
         21    1    1    2  506  503 -0.34252093681E+02 -0.53889159600E+02 -0.24174037933E+02  0.68276141908E+02  0.00000000000E+00 0.  1.
<scales pt_clust_3="53.14943" pt_clust_4="68.08637" pt_clust_5="14000.00000" pt_clust_6="63.85333"></scales>
<clustering>
<clus scale="   63.853">  2  6  1 -1</clus>
<clus scale="   53.149">  2  3  1 -1</clus>
<clus scale="   68.086">  2  4  1 -1</clus>
<clus scale="   68.086">  1  3  2 -1</clus>
</clustering>
</event>
<event>
 6    0  0.8520634E+002  0.7957462E+02  0.7546771E-02  0.1330263E+00
         21   -1    0    0  503  501  0.00000000000E+00  0.00000000000E+00  0.47623220088E+03  0.47623220088E+03  0.00000000000E+00 0.  1.
         21   -1    0    0  506  502 -0.00000000000E+00 -0.00000000000E+00 -0.27577449283E+03  0.27577449283E+03  0.00000000000E+00 0. -1.
         21    1    1    2  503  505  0.22131116190E+02 -0.33160385225E+02  0.20068378781E+03  0.20460542550E+03  0.00000000000E+00 0.  1.
         21    1    1    2  504  501  0.11795225954E+02  0.10113136323E+03  0.23861857205E+03  0.25943304129E+03  0.00000000000E+00 0.  1.
         21    1    1    2  505  502 -0.32838275398E+02 -0.11205710104E+03 -0.17352898439E+03  0.20915892199E+03  0.00000000000E+00 0. -1.
         21    1    1    2  506  504 -0.10880667456E+01  0.44086123040E+02 -0.65315667419E+02  0.78809304935E+02  0.00000000000E+00 0. -1.
<scales pt_clust_3="39.86725" pt_clust_4="79.57462" pt_clust_5="14000.00000" pt_clust_6="43.27177"></scales>
<clustering>
<clus scale="   39.867">  1  3  2 -1</clus>
<clus scale="   43.272">  2  6  1 -1</clus>
<clus scale="   79.575">  1  4  2 -1</clus>
<clus scale="   39.867">  1  3  2 -1</clus>
</clustering>
</event>
<event>
 6    0  0.8520634E+002  0.8210199E+02  0.7546771E-02  0.1323190E+00
         21   -1    0    0  504  501  0.00000000000E+00  0.00000000000E+00  0.78137818440E+03  0.78137818440E+03  0.00000000000E+00 0. -1.
         21   -1    0    0  505  502 -0.00000000000E+00 -0.00000000000E+00 -0.14029798882E+03  0.14029798882E+03  0.00000000000E+00 0. -1.
         21    1    1    2  503  501 -0.71624675389E+01 -0.68049897659E+02  0.12344194238E+02  0.69530343333E+02  0.00000000000E+00 0. -1.
         21    1    1    2  504  502  0.18204912164E+02  0.30027162757E+02  0.67541900155E+03  0.67633118883E+03  0.00000000000E+00 0. -1.
         21    1    1    2  505  506 -0.86274071882E+02  0.29326734355E+02 -0.40843736559E+02  0.99857316423E+02  0.00000000000E+00 0. -1.
         21    1    1    2  506  503  0.75231627256E+02  0.86960005472E+01 -0.58392636462E+01  0.75957324631E+02  0.00000000000E+00 0. -1.
<scales pt_clust_3="56.39886" pt_clust_4="35.11480" pt_clust_5="14000.00000" pt_clust_6="82.10199"></scales>
<clustering>
<clus scale="   35.115">  1  4  2 -1</clus>
<clus scale="   56.399">  1  3  2 -1</clus>
<clus scale="   82.102">  1  6  2 -1</clus>
<clus scale="   35.115">  1  3  2 -1</clus>
</clustering>
</event>
<event>
 6    0  0.8520634E+002  0.9394420E+02  0.7546771E-02  0.1293572E+00
         21   -1    0    0  506  501  0.00000000000E+00  0.00000000000E+00  0.18850754934E+04  0.18850754934E+04  0.00000000000E+00 0.  1.
         21   -1    0    0  503  502 -0.00000000000E+00 -0.00000000000E+00 -0.54491404117E+02  0.54491404117E+02  0.00000000000E+00 0.  1.
         21    1    1    2  503  505 -0.11694639973E+03 -0.83187865024E+02  0.20741498527E+03  0.25222540993E+03  0.00000000000E+00 0.  1.
         21    1    1    2  504  502  0.48076013268E+02  0.64936493151E+02  0.43058386976E+02  0.91553677607E+02  0.00000000000E+00 0.  1.
         21    1    1    2  505  501  0.44676338111E+02 -0.45811984288E+02  0.14225557485E+04  0.14239942312E+04  0.00000000000E+00 0.  1.
         21    1    1    2  506  504  0.24194048352E+02  0.64063356161E+02  0.15755496856E+03  0.17179357874E+03  0.00000000000E+00 0.  1.
<scales pt_clust_3="14000.00000" pt_clust_4="93.94420" pt_clust_5="63.98995" pt_clust_6="62.35319"></scales>
<clustering>
<clus scale="   63.990">  1  5  2 -1</clus>
<clus scale="   62.353">  1  6  2 -1</clus>
<clus scale="   93.944">  2  4  1 -1</clus>
<clus scale="   63.990">  1  3  2 -1</clus>
</clustering>
</event>
<event>
 6    0  0.8520634E+002  0.1175732E+03  0.7546771E-02  0.1247155E+00
         21   -1    0    0  504  501  0.00000000000E+00  0.00000000000E+00  0.53435826415E+03  0.53435826415E+03  0.00000000000E+00 0. -1.
         21   -1    0    0  506  502 -0.00000000000E+00 -0.00000000000E+00 -0.56105020440E+03  0.56105020440E+03  0.00000000000E+00 0. -1.
         21    1    1    2  503  501 -0.11580766302E+03  0.22884084660E+02  0.49936363279E+03  0.51312682048E+03  0.00000000000E+00 0. -1.
         21    1    1    2  504  502  0.94901661087E+02  0.46043803266E+02 -0.47580538427E+03  0.48735728249E+03  0.00000000000E+00 0. -1.
         21    1    1    2  505  503  0.17229270650E+02 -0.27590916727E+02 -0.41122104946E+02  0.52432184469E+02  0.00000000000E+00 0.  1.
         21    1    1    2  506  505  0.36767312873E+01 -0.41336971199E+02 -0.91280838213E+01  0.42492181106E+02  0.00000000000E+00 0.  1.
<scales pt_clust_3="117.57323" pt_clust_4="14000.00000" pt_clust_5="31.88974" pt_clust_6="80.53294"></scales>
<clustering>
<clus scale="   31.890">  5  6 -1 -1</clus>
<clus scale="   80.533">  2  5  1 -1</clus>
<clus scale="  117.573">  1  3  2 -1</clus>
<clus scale="  117.573">  1  3  2 -1</clus>
</clustering>
</event>
<event>
 6    0  0.8520634E+002  0.1236135E+03  0.7546771E-02  0.1237252E+00
         21   -1    0    0  503  501  0.00000000000E+00  0.00000000000E+00  0.42534264213E+03  0.42534264213E+03  0.00000000000E+00 0.  1.
         21   -1    0    0  504  502 -0.00000000000E+00 -0.00000000000E+00 -0.31433496446E+04  0.31433496446E+04  0.00000000000E+00 0. -1.
         21    1    1    2  503  502 -0.53969001536E+02  0.37841127306E+02 -0.36979355251E+02  0.75578282313E+02  0.00000000000E+00 0. -1.
         21    1    1    2  504  505 -0.17170854217E+02 -0.52956496399E+02 -0.28291989510E+04  0.28297466200E+04  0.00000000000E+00 0. -1.
         21    1    1    2  505  506 -0.10551420118E+02  0.10964808388E+03 -0.23543361209E+03  0.25992887579E+03  0.00000000000E+00 0.  1.
         21    1    1    2  506  501  0.81691275871E+02 -0.94532714785E+02  0.38360491594E+03  0.40343850863E+03  0.00000000000E+00 0.  1.
<scales pt_clust_3="63.70196" pt_clust_4="55.67072" pt_clust_5="14000.00000" pt_clust_6="123.61352"></scales>
<clustering>
<clus scale="   55.671">  2  4  1 -1</clus>
<clus scale="   63.702">  2  3  1 -1</clus>
<clus scale="  123.614">  1  6  2 -1</clus>
<clus scale="  123.614">  1  3  2 -1</clus>
</clustering>
</event>
<event>
 6    0  0.8520634E+002  0.9016037E+02  0.7546771E-02  0.1302464E+00
         21   -1    0    0  505  501  0.00000000000E+00  0.00000000000E+00  0.66742228046E+03  0.66742228046E+03  0.00000000000E+00 0.  1.
         21   -1    0    0  506  502 -0.00000000000E+00 -0.00000000000E+00 -0.34684576006E+03  0.34684576006E+03  0.00000000000E+00 0. -1.
         21    1    1    2  503  504 -0.21234030238E+00  0.83190207196E+02  0.98925198012E+02  0.12925498235E+03  0.00000000000E+00 0. -1.
         21    1    1    2  504  501  0.30134760556E+02  0.55673451297E-01  0.44351212446E+03  0.44453471342E+03  0.00000000000E+00 0. -1.
         21    1    1    2  505  502 -0.60977483660E+02 -0.89386499095E+02  0.81504059269E+02  0.13546627407E+03  0.00000000000E+00 0.  1.
         21    1    1    2  506  503  0.31055063407E+02  0.61406184477E+01 -0.30336486134E+03  0.30501207067E+03  0.00000000000E+00 0. -1.
<scales pt_clust_3="90.16037" pt_clust_4="30.13481" pt_clust_5="14000.00000" pt_clust_6="31.76538"></scales>
<clustering>
<clus scale="   30.135">  1  4  2 -1</clus>
<clus scale="   31.765">  2  6  1 -1</clus>
<clus scale="   90.160">  1  3  2 -1</clus>
<clus scale="   30.135">  1  3  2 -1</clus>
</clustering>
</event>
<event>
 6    0  0.8520634E+002  0.6789017E+02  0.7546771E-02  0.1367418E+00
         21   -1    0    0  504  501  0.00000000000E+00  0.00000000000E+00  0.14844618031E+04  0.14844618031E+04  0.00000000000E+00 0.  1.
         21   -1    0    0  505  502 -0.00000000000E+00 -0.00000000000E+00 -0.53010768979E+02  0.53010768979E+02  0.00000000000E+00 0. -1.
         21    1    1    2  503  502  0.65814055223E+02 -0.16340600151E+01 -0.18797802869E+02  0.68465446831E+02  0.00000000000E+00 0. -1.
         21    1    1    2  504  503  0.35111996844E+02  0.21779346864E+02  0.14787745994E+03  0.15354131506E+03  0.00000000000E+00 0. -1.
         21    1    1    2  505  506 -0.13388140528E+03 -0.30818312316E+02  0.78460271347E+03  0.79653965189E+03  0.00000000000E+00 0.  1.
         21    1    1    2  506  501  0.32955353210E+02  0.10673025467E+02  0.51776866360E+03  0.51892615832E+03  0.00000000000E+00 0.  1.
<scales pt_clust_3="67.89017" pt_clust_4="46.58250" pt_clust_5="14000.00000" pt_clust_6="34.64057"></scales>
<clustering>
<clus scale="   34.641">  1  6  2 -1</clus>
<clus scale="   46.582">  1  4  2 -1</clus>
<clus scale="   67.890">  2  3  1 -1</clus>
<clus scale="   34.641">  1  3  2 -1</clus>
</clustering>
</event>
<event>
 6    0  0.8520634E+002  0.1059752E+03  0.7546771E-02  0.1268210E+00
         21   -1    0    0  505  501  0.00000000000E+00  0.00000000000E+00  0.11469328089E+04  0.11469328089E+04  0.00000000000E+00 0. -1.
         21   -1    0    0  503  502 -0.00000000000E+00 -0.00000000000E+00 -0.44036880359E+03  0.44036880359E+03  0.00000000000E+00 0. -1.
         21    1    1    2  503  501  0.27353060065E+02  0.10238034927E+03 -0.16883913325E+01  0.10598479362E+03  0.00000000000E+00 0. -1.
         21    1    1    2  504  502 -0.16424716664E+02 -0.60914874441E+02 -0.37317982815E+03  0.37847533260E+03  0.00000000000E+00 0. -1.
         21    1    1    2  505  506 -0.56304985368E+02  0.72366873565E+02  0.38995766087E+03  0.40059230276E+03  0.00000000000E+00 0. -1.
         21    1    1    2  506  504  0.45376641967E+02 -0.11383234840E+03  0.69147456394E+03  0.70224918352E+03  0.00000000000E+00 0. -1.
<scales pt_clust_3="53.34526" pt_clust_4="63.09036" pt_clust_5="14000.00000" pt_clust_6="105.97518"></scales>
<clustering>
<clus scale="   63.090">  2  4  1 -1</clus>
<clus scale="   53.345">  2  3  1 -1</clus>
<clus scale="  105.975">  2  6  1 -1</clus>
<clus scale="  105.975">  1  3  2 -1</clus>
</clustering>
</event>
<event>
 6    0  0.8520634E+002  0.9058197E+02  0.7546771E-02  0.1301448E+00
         21   -1    0    0  505  501  0.00000000000E+00  0.00000000000E+00  0.99189445409E+02  0.99189445409E+02  0.00000000000E+00 0.  1.
         21   -1    0    0  504  502 -0.00000000000E+00 -0.00000000000E+00 -0.41250261560E+03  0.41250261560E+03  0.00000000000E+00 0.  1.
         21    1    1    2  503  501  0.45395117614E+02  0.67632184078E+01 -0.17270271151E+02  0.49037945431E+02  0.00000000000E+00 0.  1.
         21    1    1    2  504  503  0.56242322076E+02  0.63405304105E+02 -0.21750757119E+03  0.23343730402E+03  0.00000000000E+00 0.  1.
         21    1    1    2  505  506  0.79813746209E+01 -0.29847112951E+02  0.47956695641E+02  0.57047323769E+02  0.00000000000E+00 0. -1.
         21    1    1    2  506  502 -0.10961881431E+03 -0.40321409562E+02 -0.12649202348E+03  0.17216948779E+03  0.00000000000E+00 0.  1.
<scales pt_clust_3="48.22989" pt_clust_4="14000.00000" pt_clust_5="30.89583" pt_clust_6="90.58197"></scales>
<clustering>
<clus scale="   30.896">  1  5  2 -1</clus>
<clus scale="   48.230">  1  3  2 -1</clus>
<clus scale="   90.582">  1  6  2 -1</clus>
<clus scale="   30.896">  1  3  2 -1</clus>
</clustering>
</event>
<event>
 6    0  0.8520634E+002  0.1402780E+03  0.7546771E-02  0.1212955E+00
         21   -1    0    0  505  501  0.00000000000E+00  0.00000000000E+00  0.42913287557E+02  0.42913287557E+02  0.00000000000E+00 0. -1.
         21   -1    0    0  506  502 -0.00000000000E+00 -0.00000000000E+00 -0.10955379179E+04  0.10955379179E+04  0.00000000000E+00 0.  1.
         21    1    1    2  503  501 -0.21879467544E+02 -0.42149281928E+02 -0.45306420338E+02  0.65634935750E+02  0.00000000000E+00 0.  1.
         21    1    1    2  504  502 -0.25911581454E+02 -0.11646115011E+03 -0.58078091917E+03  0.59290900281E+03  0.00000000000E+00 0.  1.
         21    1    1    2  505  504  0.78727013373E+02  0.16359096864E+03 -0.31017745344E+03  0.35940228196E+03  0.00000000000E+00 0. -1.
         21    1    1    2  506  503 -0.30935964376E+02 -0.49805366016E+01 -0.11635983734E+03  0.12050498489E+03  0.00000000000E+00 0.  1.
<scales pt_clust_3="48.57082" pt_clust_4="14000.00000" pt_clust_5="140.27803" pt_clust_6="31.33432"></scales>
<clustering>
<clus scale="   31.334">  2  6  1 -1</clus>
<clus scale="   48.571">  1  3  2 -1</clus>
<clus scale="  140.278">  1  5  2 -1</clus>
<clus scale="   48.571">  1  3  2 -1</clus>
</clustering>
</event>
<event>
 6    0  0.8520634E+002  0.8098576E+02  0.7546771E-02  0.1326277E+00
         21   -1    0    0  504  501  0.00000000000E+00  0.00000000000E+00  0.48520641357E+03  0.48520641357E+03  0.00000000000E+00 0. -1.
         21   -1    0    0  505  502 -0.00000000000E+00 -0.00000000000E+00 -0.43300973499E+03  0.43300973499E+03  0.00000000000E+00 0. -1.
         21    1    1    2  503  502  0.20702882243E+01  0.43897204471E+02 -0.78136508622E+02  0.89646888587E+02  0.00000000000E+00 0. -1.
         21    1    1    2  504  506 -0.89489419168E+01 -0.30600372734E+02  0.15019247334E+03  0.15353906806E+03  0.00000000000E+00 0. -1.
         21    1    1    2  505  501  0.62954816407E+02  0.88176281482E+02  0.30841125422E+03  0.32688815711E+03  0.00000000000E+00 0. -1.
         21    1    1    2  506  503 -0.56076162715E+02 -0.10147311322E+03 -0.32827054037E+03  0.34814203481E+03  0.00000000000E+00 0. -1.
<scales pt_clust_3="43.41118" pt_clust_4="31.88207" pt_clust_5="80.98576" pt_clust_6="14000.00000"></scales>
<clustering>
<clus scale="   31.882">  1  4  2 -1</clus>
<clus scale="   43.411">  2  3  1 -1</clus>
<clus scale="   80.986">  1  5  2 -1</clus>
<clus scale="   31.882">  1  3  2 -1</clus>
</clustering>
</event>
<event>
 6    0  0.8520634E+002  0.1241263E+03  0.7546771E-02  0.1236441E+00
         21   -1    0    0  505  501  0.00000000000E+00  0.00000000000E+00  0.16585107880E+04  0.16585107880E+04  0.00000000000E+00 0.  1.
         21   -1    0    0  501  502 -0.00000000000E+00 -0.00000000000E+00 -0.13550502766E+03  0.13550502766E+03  0.00000000000E+00 0. -1.
         21    1    1    2  503  506 -0.86026965914E+02  0.33541944118E+02 -0.16911935593E+02  0.93870732633E+02  0.00000000000E+00 0. -1.
         21    1    1    2  504  503  0.66901680631E+02 -0.73547575995E+02  0.38710482476E+03  0.39966889566E+03  0.00000000000E+00 0.  1.
         21    1    1    2  505  504  0.57071344200E+02  0.11865576832E+02  0.12183187226E+04  0.12197124415E+04  0.00000000000E+00 0.  1.
         21    1    1    2  506  502 -0.37946058918E+02  0.28140055044E+02 -0.65505851367E+02  0.80763745880E+02  0.00000000000E+00 0. -1.
<scales pt_clust_3="124.12631" pt_clust_4="14000.00000" pt_clust_5="57.94201" pt_clust_6="47.24157"></scales>
<clustering>
<clus scale="   47.242">  2  6  1 -1</clus>
<clus scale="   57.942">  1  5  2 -1</clus>
<clus scale="  124.126">  2  3  1 -1</clus>
<clus scale="   57.942">  1  3  2 -1</clus>
</clustering>
</event>
<event>
 6    0  0.8520634E+002  0.7745894E+02  0.7546771E-02  0.1336421E+00
         21   -1    0    0  503  501  0.00000000000E+00  0.00000000000E+00  0.48537972289E+03  0.48537972289E+03  0.00000000000E+00 0.  1.
         21   -1    0    0  504  502 -0.00000000000E+00 -0.00000000000E+00 -0.11773157553E+03  0.11773157553E+03  0.00000000000E+00 0.  1.
         21    1    1    2  503  506 -0.30735447770E+02  0.19908716999E+00  0.42426493165E+02  0.52390024886E+02  0.00000000000E+00 0. -1.
         21    1    1    2  504  505 -0.10091045861E+03 -0.45628891188E+02 -0.93846303490E+00  0.11075105905E+03  0.00000000000E+00 0.  1.
         21    1    1    2  505  501  0.98317604740E+02 -0.15358538124E+02  0.35214509381E+03  0.36593497126E+03  0.00000000000E+00 0.  1.
         21    1    1    2  506  502  0.33328301644E+02  0.60788342142E+02 -0.25984976575E+02  0.74035243219E+02  0.00000000000E+00 0.  1.
<scales pt_clust_3="30.73609" pt_clust_4="14000.00000" pt_clust_5="77.45894" pt_clust_6="68.54039"></scales>
<clustering>
<clus scale="   30.736">  1  3  2 -1</clus>
<clus scale="   68.540">  2  6  1 -1</clus>
<clus scale="   77.459">  1  5  2 -1</clus>
<clus scale="   30.736">  1  3  2 -1</clus>
</clustering>
</event>
<event>
 6    0  0.8520634E+002  0.1538143E+03  0.7546771E-02  0.1195863E+00
         21   -1    0    0  505  501  0.00000000000E+00  0.00000000000E+00  0.25709039108E+03  0.25709039108E+03  0.00000000000E+00 0. -1.
         21   -1    0    0  506  502 -0.00000000000E+00 -0.00000000000E+00 -0.24666149334E+03  0.24666149334E+03  0.00000000000E+00 0. -1.
         21    1    1    2  503  501  0.25058956700E+02  0.30648252142E+02  0.41609005296E+02  0.57433230729E+02  0.00000000000E+00 0. -1.
         21    1    1    2  504  503 -0.61572570775E+02 -0.16172769369E+03  0.96450231320E+02  0.19811530860E+03  0.00000000000E+00 0. -1.
         21    1    1    2  505  502  0.60279208436E+02  0.16254994870E+03 -0.10644770802E+03  0.20343840182E+03  0.00000000000E+00 0. -1.
         21    1    1    2  506  504 -0.23765594361E+02 -0.31470507156E+02 -0.21182630855E+02  0.44764943269E+02  0.00000000000E+00 0.  1.
<scales pt_clust_3="38.12967" pt_clust_4="153.81429" pt_clust_5="14000.00000" pt_clust_6="39.43598"></scales>
<clustering>
<clus scale="   39.436">  2  6  1 -1</clus>
<clus scale="   38.130">  1  3  2 -1</clus>
<clus scale="  153.814">  1  4  2 -1</clus>
<clus scale="   38.130">  1  3  2 -1</clus>
</clustering>
</event>
<event>
 6    0  0.8520634E+002  0.1122930E+03  0.7546771E-02  0.1256382E+00
         21   -1    0    0  504  501  0.00000000000E+00  0.00000000000E+00  0.76765452138E+02  0.76765452138E+02  0.00000000000E+00 0.  1.
         21   -1    0    0  503  502 -0.00000000000E+00 -0.00000000000E+00 -0.15092593647E+04  0.15092593647E+04  0.00000000000E+00 0.  1.
         21    1    1    2  503  505 -0.82918709916E+01 -0.43100109492E+02 -0.89304275560E+03  0.89412065064E+03  0.00000000000E+00 0.  1.
         21    1    1    2  504  502 -0.90713809491E+02  0.84460542491E+02 -0.22659915079E+03  0.25828231378E+03  0.00000000000E+00 0.  1.
         21    1    1    2  505  506  0.11271517305E+03 -0.67022133697E+01 -0.35782165504E+03  0.37521456091E+03  0.00000000000E+00 0.  1.
         21    1    1    2  506  501 -0.13709492572E+02 -0.34658219629E+02  0.44969648912E+02  0.58407291477E+02  0.00000000000E+00 0.  1.
<scales pt_clust_3="44.67785" pt_clust_4="14000.00000" pt_clust_5="112.29303" pt_clust_6="37.27120"></scales>
<clustering>
<clus scale="   37.271">  1  6  2 -1</clus>
<clus scale="   44.678">  2  3  1 -1</clus>
<clus scale="  112.293">  2  5  1 -1</clus>
<clus scale="   37.271">  1  3  2 -1</clus>
</clustering>
</event>
<event>
 6    0  0.8520634E+002  0.7709035E+02  0.7546771E-02  0.1337517E+00
         21   -1    0    0  503  501  0.00000000000E+00  0.00000000000E+00  0.16703794768E+03  0.16703794768E+03  0.00000000000E+00 0.  1.
         21   -1    0    0  505  502 -0.00000000000E+00 -0.00000000000E+00 -0.75823087071E+03  0.75823087071E+03  0.00000000000E+00 0. -1.
         21    1    1    2  503  506 -0.42863677318E+02 -0.19442180351E+01  0.25406890243E+01  0.42982902621E+02  0.00000000000E+00 0.  1.
         21    1    1    2  504  501  0.11143923183E+03 -0.24885170729E+02  0.10661796469E+03  0.15622216395E+03  0.00000000000E+00 0.  1.
         21    1    1    2  505  504 -0.13951859603E+02 -0.32969700458E+02 -0.57936705922E+03  0.58047208791E+03  0.00000000000E+00 0. -1.
         21    1    1    2  506  502 -0.54623694909E+02  0.59799089223E+02 -0.12098451753E+03  0.14559166391E+03  0.00000000000E+00 0. -1.
<scales pt_clust_3="44.80773" pt_clust_4="14000.00000" pt_clust_5="35.80022" pt_clust_6="77.09035"></scales>
<clustering>
<clus scale="   35.800">  2  5  1 -1</clus>
<clus scale="   44.808">  1  3  2 -1</clus>
<clus scale="   77.090">  2  6  1 -1</clus>
<clus scale="   44.808">  1  3  2 -1</clus>
</clustering>
</event>
<event>
 6    0  0.8520634E+002  0.1096869E+03  0.7546771E-02  0.1261151E+00
         21   -1    0    0  503  501  0.00000000000E+00  0.00000000000E+00  0.11706297690E+03  0.11706297690E+03  0.00000000000E+00 0.  1.
         21   -1    0    0  505  502 -0.00000000000E+00 -0.00000000000E+00 -0.55195004595E+03  0.55195004595E+03  0.00000000000E+00 0.  1.
         21    1    1    2  503  506  0.68044238055E+02  0.11382023313E+03  0.44178476854E+02  0.13977410926E+03  0.00000000000E+00 0.  1.
         21    1    1    2  504  501  0.19304433618E+02 -0.42977568080E+02 -0.19428314888E+02  0.50962652352E+02  0.00000000000E+00 0.  1.
         21    1    1    2  505  504 -0.86866660490E+02 -0.40228788173E+02 -0.27663480125E+03  0.29273022626E+03  0.00000000000E+00 0.  1.
         21    1    1    2  506  502 -0.48201118256E+00 -0.30613876881E+02 -0.18300242977E+03  0.18554603497E+03  0.00000000000E+00 0.  1.
<scales pt_clust_3="14000.00000" pt_clust_4="49.78385" pt_clust_5="109.68694" pt_clust_6="30.61767"></scales>
<clustering>
<clus scale="   30.618">  2  6  1 -1</clus>
<clus scale="   49.784">  1  4  2 -1</clus>
<clus scale="  109.687">  2  5  1 -1</clus>
<clus scale="   49.784">  1  3  2 -1</clus>
</clustering>
</event>
<event>
 6    0  0.8520634E+002  0.1647522E+03  0.7546771E-02  0.1183434E+00
         21   -1    0    0  503  501  0.00000000000E+00  0.00000000000E+00  0.82276150779E+03  0.82276150779E+03  0.00000000000E+00 0. -1.
         21   -1    0    0  504  502 -0.00000000000E+00 -0.00000000000E+00 -0.24264342901E+03  0.24264342901E+03  0.00000000000E+00 0. -1.
         21    1    1    2  503  502 -0.46869825850E+02 -0.23892596111E+02 -0.16103169535E+03  0.16940733051E+03  0.00000000000E+00 0. -1.
         21    1    1    2  504  505 -0.10960447812E+03  0.42524821668E+02 -0.17284071348E+02  0.11882862115E+03  0.00000000000E+00 0. -1.
         21    1    1    2  505  506  0.42836699789E+02 -0.27659627027E+02  0.15847709267E+03  0.16647830705E+03  0.00000000000E+00 0. -1.
         21    1    1    2  506  501  0.11363760418E+03  0.90274014701E+01  0.59995675281E+03  0.61069067809E+03  0.00000000000E+00 0. -1.
<scales pt_clust_3="52.60833" pt_clust_4="152.33166" pt_clust_5="41.97192" pt_clust_6="41.97192"></scales>
<clustering>
<clus scale="   41.972">  5  6 -1 -1</clus>
<clus scale="   52.608">  2  3  1 -1</clus>
<clus scale="  152.332">  2  4  1 -1</clus>
<clus scale="  164.752">  1  3  2 -1</clus>
</clustering>
</event>
<event>
 6    0  0.8520634E+002  0.1226745E+03  0.7546771E-02  0.1238749E+00
         21   -1    0    0  505  501  0.00000000000E+00  0.00000000000E+00  0.30222844494E+02  0.30222844494E+02  0.00000000000E+00 0.  1.
         21   -1    0    0  504  502 -0.00000000000E+00 -0.00000000000E+00 -0.14868135427E+04  0.14868135427E+04  0.00000000000E+00 0.  1.
         21    1    1    2  503  502  0.81973527127E+02 -0.81054876161E+02 -0.56543355270E+03  0.57706555487E+03  0.00000000000E+00 0.  1.
         21    1    1    2  504  506  0.39034200614E+02 -0.34811922051E+01 -0.42232115983E+03  0.42413553206E+03  0.00000000000E+00 0. -1.
         21    1    1    2  505  503  0.12845585901E+02  0.63396760990E+02 -0.73455525534E+02  0.97876823675E+02  0.00000000000E+00 0.  1.
         21    1    1    2  506  501 -0.13385331364E+03  0.21139307377E+02 -0.39538046015E+03  0.41795847659E+03  0.00000000000E+00 0.  1.
<scales pt_clust_3="14000.00000" pt_clust_4="39.18912" pt_clust_5="65.11024" pt_clust_6="122.67453"></scales>
<clustering>
<clus scale="   39.189">  2  4  1 -1</clus>
<clus scale="   65.110">  1  5  2 -1</clus>
<clus scale="  122.675">  1  6  2 -1</clus>
<clus scale="   65.110">  1  3  2 -1</clus>
</clustering>
</event>
<event>
 6    0  0.8520634E+002  0.6289059E+02  0.7546771E-02  0.1386087E+00
         21   -1    0    0  506  501  0.00000000000E+00  0.00000000000E+00  0.46409630577E+03  0.46409630577E+03  0.00000000000E+00 0.  1.
         21   -1    0    0  504  502 -0.00000000000E+00 -0.00000000000E+00 -0.22763854267E+03  0.22763854267E+03  0.00000000000E+00 0.  1.
         21    1    1    2  503  501 -0.33240440442E+02  0.48683899419E+02  0.26038292598E+03  0.26697250249E+03  0.00000000000E+00 0.  1.
         21    1    1    2  504  503  0.50047069768E+02  0.46196206048E+02  0.52150992623E+02  0.85781843518E+02  0.00000000000E+00 0.  1.
         21    1    1    2  505  502 -0.62030593557E+02 -0.18787674713E+01 -0.18119056546E+03  0.19152374609E+03  0.00000000000E+00 0.  1.
         21    1    1    2  506  505  0.45223964231E+02 -0.93001337996E+02  0.10511440996E+03  0.14745675634E+03  0.00000000000E+00 0.  1.
<scales pt_clust_3="58.94955" pt_clust_4="14000.00000" pt_clust_5="62.89059" pt_clust_6="62.56317"></scales>
<clustering>
<clus scale="   58.950">  1  3  2 -1</clus>
<clus scale="   62.891">  2  5  1 -1</clus>
<clus scale="   62.563">  1  6  2 -1</clus>
<clus scale="   58.950">  1  3  2 -1</clus>
</clustering>
</event>
<event>
 6    0  0.8520634E+002  0.8928373E+02  0.7546771E-02  0.1304596E+00
         21   -1    0    0  506  501  0.00000000000E+00  0.00000000000E+00  0.16461021279E+04  0.16461021279E+04  0.00000000000E+00 0. -1.
         21   -1    0    0  503  502 -0.00000000000E+00 -0.00000000000E+00 -0.35679558166E+03  0.35679558166E+03  0.00000000000E+00 0. -1.
         21    1    1    2  503  501 -0.53759614057E+02 -0.17852054066E+02  0.94639623078E+02  0.11029709966E+03  0.00000000000E+00 0. -1.
         21    1    1    2  504  502  0.11831140170E+01  0.48208302371E+02 -0.29430396827E+03  0.29822854645E+03  0.00000000000E+00 0. -1.
         21    1    1    2  505  504  0.18846889319E+02  0.53617543980E+02 -0.35636005514E+02  0.67081824278E+02  0.00000000000E+00 0. -1.
         21    1    1    2  506  505  0.33729610721E+02 -0.83973792285E+02  0.15246068970E+04  0.15272902392E+04  0.00000000000E+00 0. -1.
<scales pt_clust_3="54.85088" pt_clust_4="48.22282" pt_clust_5="89.28373" pt_clust_6="14000.00000"></scales>
<clustering>
<clus scale="   48.223">  2  4  1 -1</clus>
<clus scale="   54.851">  2  3  1 -1</clus>
<clus scale="   89.284">  2  5  1 -1</clus>
<clus scale="   89.284">  1  3  2 -1</clus>
</clustering>
</event>
<event>
 6    0  0.8520634E+002  0.8230056E+02  0.7546771E-02  0.1322647E+00
         21   -1    0    0  505  501  0.00000000000E+00  0.00000000000E+00  0.60519167140E+03  0.60519167140E+03  0.00000000000E+00 0.  1.
         21   -1    0    0  504  502 -0.00000000000E+00 -0.00000000000E+00 -0.32660666043E+03  0.32660666043E+03  0.00000000000E+00 0.  1.
         21    1    1    2  503  502  0.28675261654E+02  0.60207508975E+02 -0.92011306566E+01  0.67319206570E+02  0.00000000000E+00 0.  1.
         21    1    1    2  504  506 -0.84053394215E+01  0.30010357265E+02 -0.25956197891E+03  0.26142626527E+03  0.00000000000E+00 0.  1.
         21    1    1    2  505  503 -0.51893919829E+02  0.12416109631E+02  0.46413421430E+03  0.46719129655E+03  0.00000000000E+00 0.  1.
         21    1    1    2  506  501  0.31623997597E+02 -0.10263397587E+03  0.83213906243E+02  0.13586156344E+03  0.00000000000E+00 0.  1.
<scales pt_clust_3="82.30056" pt_clust_4="31.16523" pt_clust_5="53.71273" pt_clust_6="14000.00000"></scales>
<clustering>
<clus scale="   31.165">  2  4  1 -1</clus>
<clus scale="   53.713">  1  5  2 -1</clus>
<clus scale="   82.301">  2  3  1 -1</clus>
<clus scale="   53.713">  1  3  2 -1</clus>
</clustering>
</event>
<event>
 6    0  0.8520634E+002  0.1071632E+03  0.7546771E-02  0.1265915E+00
         21   -1    0    0  506  501  0.00000000000E+00  0.00000000000E+00  0.13074335944E+03  0.13074335944E+03  0.00000000000E+00 0. -1.
         21   -1    0    0  504  502 -0.00000000000E+00 -0.00000000000E+00 -0.83664063133E+03  0.83664063133E+03  0.00000000000E+00 0. -1.
         21    1    1    2  503  502 -0.42258762940E+02 -0.31060619310E+01 -0.35207225247E+03  0.35461291802E+03  0.00000000000E+00 0. -1.
         21    1    1    2  504  501  0.85699743002E+02 -0.78413842353E+02 -0.10225557211E+03  0.15475586790E+03  0.00000000000E+00 0.  1.
         21    1    1    2  505  503 -0.50518761587E+02  0.35410483211E+02 -0.34665549039E+03  0.35210236666E+03  0.00000000000E+00 0. -1.
         21    1    1    2  506  505  0.70777815244E+01  0.46109421073E+02  0.95086043080E+02  0.10591283818E+03  0.00000000000E+00 0. -1.
<scales pt_clust_3="32.88790" pt_clust_4="99.54476" pt_clust_5="32.88790" pt_clust_6="46.64948"></scales>
<clustering>
<clus scale="   32.888">  3  5 -1 -1</clus>
<clus scale="   46.649">  1  6  2 -1</clus>
<clus scale="   99.545">  1  4  2 -1</clus>
<clus scale="   46.649">  1  3  2 -1</clus>
</clustering>
</event>
<event>
 6    0  0.8520634E+002  0.7383395E+02  0.7546771E-02  0.1347520E+00
         21   -1    0    0  506  501  0.00000000000E+00  0.00000000000E+00  0.72636392270E+03  0.72636392270E+03  0.00000000000E+00 0. -1.
         21   -1    0    0  503  502 -0.00000000000E+00 -0.00000000000E+00 -0.81491546870E+02  0.81491546870E+02  0.00000000000E+00 0.  1.
         21    1    1    2  503  504  0.58354542014E+02 -0.40071831239E+02 -0.32871672572E+02  0.78048389415E+02  0.00000000000E+00 0.  1.
         21    1    1    2  504  505  0.33711203950E+02 -0.53453634333E+02  0.92916153835E+02  0.11237058307E+03  0.00000000000E+00 0.  1.
         21    1    1    2  505  501 -0.35165888085E+02  0.70625669423E+01  0.42819035745E+03  0.42969000658E+03  0.00000000000E+00 0. -1.
         21    1    1    2  506  502 -0.56899857880E+02  0.86462898629E+02  0.15663753711E+03  0.18774649051E+03  0.00000000000E+00 0. -1.
<scales pt_clust_3="73.83395" pt_clust_4="55.39088" pt_clust_5="35.86809" pt_clust_6="14000.00000"></scales>
<clustering>
<clus scale="   35.868">  1  5  2 -1</clus>
<clus scale="   55.391">  1  4  2 -1</clus>
<clus scale="   73.834">  2  3  1 -1</clus>
<clus scale="   35.868">  1  3  2 -1</clus>
</clustering>
</event>
<event>
 6    0  0.8520634E+002  0.9206096E+02  0.7546771E-02  0.1297936E+00
         21   -1    0    0  506  501  0.00000000000E+00  0.00000000000E+00  0.51358534314E+03  0.51358534314E+03  0.00000000000E+00 0. -1.
         21   -1    0    0  505  502 -0.00000000000E+00 -0.00000000000E+00 -0.21280042737E+03  0.21280042737E+03  0.00000000000E+00 0. -1.
         21    1    1    2  503  504 -0.58765796956E+02  0.41530222661E+02 -0.68821068416E+02  0.99571671393E+02  0.00000000000E+00 0. -1.
         21    1    1    2  504  501  0.56344208999E+02 -0.74427252719E+02  0.46419135543E+03  0.47348463574E+03  0.00000000000E+00 0. -1.
         21    1    1    2  505  503 -0.11864697998E+02  0.60850859849E+02 -0.10354217863E+03  0.12068380570E+03  0.00000000000E+00 0. -1.
         21    1    1    2  506  502  0.14286285955E+02 -0.27953829790E+02  0.89568073890E+01  0.32645657674E+02  0.00000000000E+00 0.  1.
<scales pt_clust_3="92.06096" pt_clust_4="14000.00000" pt_clust_5="45.42272" pt_clust_6="31.39291"></scales>
<clustering>
<clus scale="   31.393">  2  6  1 -1</clus>
<clus scale="   45.423">  2  5  1 -1</clus>
<clus scale="   92.061">  2  3  1 -1</clus>
<clus scale="   92.061">  1  3  2 -1</clus>
</clustering>
</event>
<event>
 6    0  0.8520634E+002  0.9973146E+02  0.7546771E-02  0.1280862E+00
         21   -1    0    0  505  501  0.00000000000E+00  0.00000000000E+00  0.21082472392E+03  0.21082472392E+03  0.00000000000E+00 0. -1.
         21   -1    0    0  504  502 -0.00000000000E+00 -0.00000000000E+00 -0.37552483978E+03  0.37552483978E+03  0.00000000000E+00 0. -1.
         21    1    1    2  503  502  0.90769385837E+02  0.25265813815E+02  0.18102439166E+02  0.95943426334E+02  0.00000000000E+00 0. -1.
         21    1    1    2  504  501 -0.10092288214E+03  0.81409141936E+01 -0.30619352114E+03  0.32249988374E+03  0.00000000000E+00 0. -1.
         21    1    1    2  505  506  0.37287059744E+02  0.10658198457E+02  0.10670522730E+03  0.11353381677E+03  0.00000000000E+00 0. -1.
         21    1    1    2  506  503 -0.27133563440E+02 -0.44064926466E+02  0.16685738819E+02  0.54372436853E+02  0.00000000000E+00 0.  1.
<scales pt_clust_3="99.73146" pt_clust_4="14000.00000" pt_clust_5="38.78043" pt_clust_6="42.65991"></scales>
<clustering>
<clus scale="   38.780">  1  5  2 -1</clus>
<clus scale="   42.660">  1  6  2 -1</clus>
<clus scale="   99.731">  1  3  2 -1</clus>
<clus scale="   38.780">  1  3  2 -1</clus>
</clustering>
</event>
<event>
 6    0  0.9156290E+002  0.1123452E+03  0.7546771E-02  0.1256288E+00
         21   -1    0    0  505  501  0.00000000000E+00  0.00000000000E+00  0.22386319302E+04  0.22386319302E+04  0.00000000000E+00 0. -1.
         21   -1    0    0  503  502 -0.00000000000E+00 -0.00000000000E+00 -0.17911035103E+03  0.17911035103E+03  0.00000000000E+00 0. -1.
         21    1    1    2  503  501  0.21924668884E+02  0.23422844634E+02 -0.14833364527E+03  0.15176360260E+03  0.00000000000E+00 0. -1.
         21    1    1    2  504  506  0.53883253337E+02  0.55246110752E+02  0.83662920129E+02  0.11382012980E+03  0.00000000000E+00 0.  1.
         21    1    1    2  505  504 -0.10057104162E+03 -0.58509810017E+02  0.21159955020E+04  0.21191920387E+04  0.00000000000E+00 0. -1.
         21    1    1    2  506  502  0.24763119401E+02 -0.20159145370E+02  0.81968023273E+01  0.32966510171E+02  0.00000000000E+00 0.  1.
<scales pt_clust_3="44.52502" pt_clust_4="14000.00000" pt_clust_5="112.34523" pt_clust_6="31.93123"></scales>
<clustering>
<clus scale="   31.931">  2  6  1 -1</clus>
<clus scale="   44.525">  2  3  1 -1</clus>
<clus scale="  112.345">  1  5  2 -1</clus>
<clus scale="  112.345">  1  3  2 -1</clus>
</clustering>
</event>
<event>
 6    0  0.8520634E+002  0.1072578E+03  0.7546771E-02  0.1265734E+00
         21   -1    0    0  502  501  0.00000000000E+00  0.00000000000E+00  0.44852485463E+03  0.44852485463E+03  0.00000000000E+00 0. -1.
         21   -1    0    0  506  502 -0.00000000000E+00 -0.00000000000E+00 -0.10693300701E+04  0.10693300701E+04  0.00000000000E+00 0.  1.
         21    1    1    2  503  504  0.90919370449E+02 -0.74461605309E+02  0.13361068219E+03  0.17794009380E+03  0.00000000000E+00 0. -1.
         21    1    1    2  504  505 -0.44396316987E+02  0.15838113818E+02  0.91462441926E+02  0.10289439778E+03  0.00000000000E+00 0. -1.
         21    1    1    2  505  501 -0.53365016833E+02 -0.19697391021E+02  0.18991322811E+03  0.19824945510E+03  0.00000000000E+00 0. -1.
         21    1    1    2  506  503  0.68419633703E+01  0.78320882512E+02 -0.10357915677E+04  0.10387709780E+04  0.00000000000E+00 0.  1.
<scales pt_clust_3="97.78068" pt_clust_4="40.12738" pt_clust_5="40.12738" pt_clust_6="78.61916"></scales>
<clustering>
<clus scale="   40.127">  4  5 -1 -1</clus>
<clus scale="   78.619">  2  6  1 -1</clus>
<clus scale="   97.781">  2  3  1 -1</clus>
<clus scale="  107.258">  1  3  2 -1</clus>
</clustering>
</event>
<event>
 6    0  0.8520634E+002  0.9507769E+02  0.7546771E-02  0.1291001E+00
         21   -1    0    0  506  501  0.00000000000E+00  0.00000000000E+00  0.19598301444E+03  0.19598301444E+03  0.00000000000E+00 0. -1.
         21   -1    0    0  503  502 -0.00000000000E+00 -0.00000000000E+00 -0.88838554468E+03  0.88838554468E+03  0.00000000000E+00 0.  1.
         21    1    1    2  503  504  0.65095229862E+02  0.52209965016E+02 -0.47980634826E+03  0.48700862541E+03  0.00000000000E+00 0.  1.
         21    1    1    2  504  505  0.31315254119E+02 -0.82477759080E+02 -0.36426634714E+03  0.37479754207E+03  0.00000000000E+00 0.  1.
         21    1    1    2  505  501 -0.37393762933E+02 -0.82245213092E+01 -0.15379486264E+02  0.41260936185E+02  0.00000000000E+00 0.  1.
         21    1    1    2  506  502 -0.59016721048E+02  0.38492315373E+02  0.16704965143E+03  0.18130145545E+03  0.00000000000E+00 0. -1.
<scales pt_clust_3="82.77175" pt_clust_4="14000.00000" pt_clust_5="38.28755" pt_clust_6="95.07769"></scales>
<clustering>
<clus scale="   38.288">  1  5  2 -1</clus>
<clus scale="   82.772">  2  3  1 -1</clus>
<clus scale="   95.078">  1  6  2 -1</clus>
<clus scale="   38.288">  1  3  2 -1</clus>
</clustering>
</event>
<event>
 6    0  0.8520634E+002  0.8299662E+02  0.7546771E-02  0.1320756E+00
         21   -1    0    0  506  501  0.00000000000E+00  0.00000000000E+00  0.14241731679E+03  0.14241731679E+03  0.00000000000E+00 0.  1.
         21   -1    0    0  505  502 -0.00000000000E+00 -0.00000000000E+00 -0.53071453446E+03  0.53071453446E+03  0.00000000000E+00 0. -1.
         21    1    1    2  503  502 -0.68340557247E+01 -0.46550239843E+02 -0.33095004754E+03  0.33427767367E+03  0.00000000000E+00 0. -1.
         21    1    1    2  504  501  0.81218683779E+02  0.71993450205E+01  0.93759425610E+02  0.12425431604E+03  0.00000000000E+00 0.  1.
         21    1    1    2  505  504  0.25148420945E+02 -0.23698554918E+02 -0.33671543709E+02  0.48247667684E+02  0.00000000000E+00 0.  1.
         21    1    1    2  506  503 -0.99533049000E+02  0.63049449740E+02 -0.11743505204E+03  0.16635219386E+03  0.00000000000E+00 0. -1.
<scales pt_clust_3="63.47722" pt_clust_4="82.99662" pt_clust_5="34.55524" pt_clust_6="14000.00000"></scales>
<clustering>
<clus scale="   34.555">  2  5  1 -1</clus>
<clus scale="   63.477">  2  3  1 -1</clus>
<clus scale="   82.997">  1  4  2 -1</clus>
<clus scale="   82.997">  1  3  2 -1</clus>
</clustering>
</event>
<event>
 6    0  0.8520634E+002  0.1728804E+03  0.7546771E-02  0.1174877E+00
         21   -1    0    0  503  501  0.00000000000E+00  0.00000000000E+00  0.51575212760E+03  0.51575212760E+03  0.00000000000E+00 0.  1.
         21   -1    0    0  504  502 -0.00000000000E+00 -0.00000000000E+00 -0.43540946779E+03  0.43540946779E+03  0.00000000000E+00 0. -1.
         21    1    1    2  503  502 -0.19491737579E+03  0.10801789642E+03 -0.18656234799E+03  0.29063062299E+03  0.00000000000E+00 0. -1.
         21    1    1    2  504  506  0.63699455569E+02 -0.11399842907E+02 -0.13127683396E+03  0.14635977655E+03  0.00000000000E+00 0.  1.
         21    1    1    2  505  501 -0.14179280151E+02 -0.32987840166E+02  0.34488706333E+03  0.34675111541E+03  0.00000000000E+00 0.  1.
         21    1    1    2  506  505  0.14539720037E+03 -0.63630213346E+02  0.53294778426E+02  0.16742008044E+03  0.00000000000E+00 0.  1.
<scales pt_clust_3="172.88038" pt_clust_4="64.36868" pt_clust_5="35.90612" pt_clust_6="14000.00000"></scales>
<clustering>
<clus scale="   35.906">  1  5  2 -1</clus>
<clus scale="   64.369">  2  4  1 -1</clus>
<clus scale="  172.880">  2  3  1 -1</clus>
<clus scale="   35.906">  1  3  2 -1</clus>
</clustering>
</event>
<event>
 6    0  0.8520634E+002  0.8859330E+02  0.7546771E-02  0.1306294E+00
         21   -1    0    0  503  501  0.00000000000E+00  0.00000000000E+00  0.11232764037E+04  0.11232764037E+04  0.00000000000E+00 0. -1.
         21   -1    0    0  506  502 -0.00000000000E+00 -0.00000000000E+00 -0.10213285117E+03  0.10213285117E+03  0.00000000000E+00 0.  1.
         21    1    1    2  503  505  0.59873031985E+02 -0.14344740434E+02  0.77992375121E+02  0.99364793132E+02  0.00000000000E+00 0.  1.
         21    1    1    2  504  501 -0.94310605731E+02 -0.12515912332E+02  0.98921312414E+03  0.99377751202E+03  0.00000000000E+00 0. -1.
         21    1    1    2  505  502  0.70073504188E+02 -0.33631375041E+01 -0.48803332932E+02  0.85459768244E+02  0.00000000000E+00 0.  1.
         21    1    1    2  506  504 -0.35635930443E+02  0.30223790270E+02  0.27413861688E+01  0.46807181446E+02  0.00000000000E+00 0. -1.
<scales pt_clust_3="14000.00000" pt_clust_4="88.59330" pt_clust_5="45.81678" pt_clust_6="46.72683"></scales>
<clustering>
<clus scale="   46.727">  2  6  1 -1</clus>
<clus scale="   45.817">  2  5  1 -1</clus>
<clus scale="   88.593">  1  4  2 -1</clus>
<clus scale="   88.593">  1  3  2 -1</clus>
</clustering>
</event>
<event>
 6    0  0.8520634E+002  0.6168191E+02  0.7546771E-02  0.1390906E+00
         21   -1    0    0  504  501  0.00000000000E+00  0.00000000000E+00  0.32068137762E+03  0.32068137762E+03  0.00000000000E+00 0.  1.
         21   -1    0    0  503  502 -0.00000000000E+00 -0.00000000000E+00 -0.25803043997E+03  0.25803043997E+03  0.00000000000E+00 0.  1.
         21    1    1    2  503  505  0.44081440954E+02 -0.42050478670E+02 -0.18578071200E+03  0.19551442183E+03  0.00000000000E+00 0.  1.
         21    1    1    2  504  506 -0.70183200747E+02 -0.13087174018E+01  0.21368326402E+03  0.22491761098E+03  0.00000000000E+00 0.  1.
         21    1    1    2  505  501  0.32227427981E+02 -0.50426521160E+02  0.68202500904E+01  0.60232524120E+02  0.00000000000E+00 0.  1.
         21    1    1    2  506  502 -0.61256681884E+01  0.93785717232E+02  0.27928135542E+02  0.98047260656E+02  0.00000000000E+00 0.  1.
<scales pt_clust_3="14000.00000" pt_clust_4="60.51707" pt_clust_5="59.84514" pt_clust_6="61.68191"></scales>
<clustering>
<clus scale="   59.845">  1  5  2 -1</clus>
<clus scale="   60.517">  1  4  2 -1</clus>
<clus scale="   61.682">  1  6  2 -1</clus>
<clus scale="   59.845">  1  3  2 -1</clus>
</clustering>
</event>
<event>
 6    0  0.8520634E+002  0.6346901E+02  0.7546771E-02  0.1383825E+00
         21   -1    0    0  504  501  0.00000000000E+00  0.00000000000E+00  0.38867128749E+03  0.38867128749E+03  0.00000000000E+00 0. -1.
         21   -1    0    0  506  502 -0.00000000000E+00 -0.00000000000E+00 -0.11576936311E+04  0.11576936311E+04  0.00000000000E+00 0.  1.
         21    1    1    2  503  505  0.81133885769E+02  0.86250366249E+02 -0.83653965598E+02  0.14498213358E+03  0.00000000000E+00 0.  1.
         21    1    1    2  504  502 -0.64172111176E+02 -0.60127264460E+02 -0.89745452356E+03  0.90175272090E+03  0.00000000000E+00 0.  1.
         21    1    1    2  505  501 -0.50137324783E+02 -0.36811191000E+02  0.35097018816E+03  0.35643917867E+03  0.00000000000E+00 0. -1.
         21    1    1    2  506  503  0.33175550190E+02  0.10688089211E+02 -0.13888404261E+03  0.14319088544E+03  0.00000000000E+00 0.  1.
<scales pt_clust_3="14000.00000" pt_clust_4="61.47839" pt_clust_5="63.46901" pt_clust_6="34.85473"></scales>
<clustering>
<clus scale="   34.855">  2  6  1 -1</clus>
<clus scale="   61.478">  2  4  1 -1</clus>
<clus scale="   63.469">  1  5  2 -1</clus>
<clus scale="   63.469">  1  3  2 -1</clus>
</clustering>
</event>
<event>
 6    0  0.8520634E+002  0.1624313E+03  0.7546771E-02  0.1185979E+00
         21   -1    0    0  505  501  0.00000000000E+00  0.00000000000E+00  0.18285049769E+04  0.18285049769E+04  0.00000000000E+00 0. -1.
         21   -1    0    0  503  502 -0.00000000000E+00 -0.00000000000E+00 -0.33800487839E+02  0.33800487839E+02  0.00000000000E+00 0. -1.
         21    1    1    2  503  506 -0.11883566061E+03 -0.10342513487E+03  0.35198014846E+03  0.38562766714E+03  0.00000000000E+00 0. -1.
         21    1    1    2  504  502 -0.33885018830E+02  0.20766128438E+02  0.27009574987E+02  0.48051469617E+02  0.00000000000E+00 0.  1.
         21    1    1    2  505  504  0.44218422102E+01  0.35431116176E+02  0.23469530906E+03  0.23739588197E+03  0.00000000000E+00 0. -1.
         21    1    1    2  506  501  0.14829883723E+03  0.47227890257E+02  0.11810194565E+04  0.11912304460E+04  0.00000000000E+00 0. -1.
<scales pt_clust_3="162.43128" pt_clust_4="40.09679" pt_clust_5="35.70598" pt_clust_6="14000.00000"></scales>
<clustering>
<clus scale="   35.706">  1  5  2 -1</clus>
<clus scale="   40.097">  2  4  1 -1</clus>
<clus scale="  162.431">  2  3  1 -1</clus>
<clus scale="   35.706">  1  3  2 -1</clus>
</clustering>
</event>
<event>
 6    0  0.8520634E+002  0.1233325E+03  0.7546771E-02  0.1237699E+00
         21   -1    0    0  506  501  0.00000000000E+00  0.00000000000E+00  0.26499131176E+03  0.26499131176E+03  0.00000000000E+00 0.  1.
         21   -1    0    0  503  502 -0.00000000000E+00 -0.00000000000E+00 -0.75688333681E+03  0.75688333681E+03  0.00000000000E+00 0.  1.
         21    1    1    2  503  504  0.82889801755E+02  0.36100523104E+02 -0.21938254328E+03  0.23728183095E+03  0.00000000000E+00 0.  1.
         21    1    1    2  504  505  0.54659681362E+02  0.48626793614E+02  0.11955068328E+02  0.74129410374E+02  0.00000000000E+00 0.  1.
         21    1    1    2  505  501  0.27908052422E+02  0.16893467103E+02  0.19262799640E+03  0.19537091293E+03  0.00000000000E+00 0.  1.
         21    1    1    2  506  502 -0.16545753554E+03 -0.10162078382E+03 -0.47709254650E+03  0.51509249432E+03  0.00000000000E+00 0.  1.
<scales pt_clust_3="14000.00000" pt_clust_4="92.67863" pt_clust_5="32.62282" pt_clust_6="123.33252"></scales>
<clustering>
<clus scale="   32.623">  1  5  2 -1</clus>
<clus scale="   92.679">  1  4  2 -1</clus>
<clus scale="  123.333">  1  6  2 -1</clus>
<clus scale="   32.623">  1  3  2 -1</clus>
</clustering>
</event>
<event>
 6    0  0.8520634E+002  0.9687469E+02  0.7546771E-02  0.1287009E+00
         21   -1    0    0  504  501  0.00000000000E+00  0.00000000000E+00  0.18671480152E+02  0.18671480152E+02  0.00000000000E+00 0. -1.
         21   -1    0    0  505  502 -0.00000000000E+00 -0.00000000000E+00 -0.21040434955E+04  0.21040434955E+04  0.00000000000E+00 0. -1.
         21    1    1    2  503  502 -0.62960152346E+02  0.98988574537E+02 -0.12816024648E+04  0.12869606041E+04  0.00000000000E+00 0. -1.
         21    1    1    2  504  503  0.37255750713E+02  0.45388703009E+02 -0.19297753185E+03  0.20171379011E+03  0.00000000000E+00 0.  1.
         21    1    1    2  505  506 -0.60255446064E+01 -0.42591420987E+02 -0.34485891711E+03  0.34753130656E+03  0.00000000000E+00 0. -1.
         21    1    1    2  506  501  0.31729946240E+02 -0.10178585656E+03 -0.26593310159E+03  0.28650927490E+03  0.00000000000E+00 0. -1.
<scales pt_clust_3="14000.00000" pt_clust_4="54.65332" pt_clust_5="43.01554" pt_clust_6="96.87469"></scales>
<clustering>
<clus scale="   43.016">  2  5  1 -1</clus>
<clus scale="   54.653">  1  4  2 -1</clus>
<clus scale="   96.875">  1  6  2 -1</clus>
<clus scale="   54.653">  1  3  2 -1</clus>
</clustering>
</event>
<event>
 6    0  0.8520634E+002  0.1065979E+03  0.7546771E-02  0.1267003E+00
         21   -1    0    0  505  501  0.00000000000E+00  0.00000000000E+00  0.60953278932E+02  0.60953278932E+02  0.00000000000E+00 0. -1.
         21   -1    0    0  506  502 -0.00000000000E+00 -0.00000000000E+00 -0.78339970152E+03  0.78339970152E+03  0.00000000000E+00 0. -1.
         21    1    1    2  503  502  0.25583778635E+02 -0.28214811205E+02 -0.28701503567E+03  0.28953106224E+03  0.00000000000E+00 0. -1.
         21    1    1    2  504  503 -0.18308346079E+02  0.10720452906E+03 -0.15009911293E+03  0.18535843733E+03  0.00000000000E+00 0. -1.
         21    1    1    2  505  504  0.92088313050E+02 -0.49295299833E+01 -0.19625906701E+03  0.21684598002E+03  0.00000000000E+00 0. -1.
         21    1    1    2  506  501 -0.99363745606E+02 -0.74060187872E+02 -0.89073206971E+02  0.15261750086E+03  0.00000000000E+00 0. -1.
<scales pt_clust_3="38.08681" pt_clust_4="98.12135" pt_clust_5="14000.00000" pt_clust_6="106.59786"></scales>
<clustering>
<clus scale="   38.087">  2  3  1 -1</clus>
<clus scale="   98.121">  2  4  1 -1</clus>
<clus scale="  106.598">  1  6  2 -1</clus>
<clus scale="  106.598">  1  3  2 -1</clus>
</clustering>
</event>
<event>
 6    0  0.8520634E+002  0.9065152E+02  0.7546771E-02  0.1301282E+00
         21   -1    0    0  504  501  0.00000000000E+00  0.00000000000E+00  0.23990839083E+03  0.23990839083E+03  0.00000000000E+00 0.  1.
         21   -1    0    0  503  502 -0.00000000000E+00 -0.00000000000E+00 -0.18113407462E+03  0.18113407462E+03  0.00000000000E+00 0.  1.
         21    1    1    2  503  506 -0.15714984798E+02  0.49506322164E+02 -0.80350207999E+02  0.95676499763E+02  0.00000000000E+00 0.  1.
         21    1    1    2  504  502  0.42340927242E+01  0.88720957712E+02  0.79954598958E+00  0.88825532097E+02  0.00000000000E+00 0. -1.
         21    1    1    2  505  501 -0.34247157465E+02 -0.43707122682E+02  0.11684198994E+03  0.12936472077E+03  0.00000000000E+00 0.  1.
         21    1    1    2  506  505  0.45728049538E+02 -0.94520157193E+02  0.21482988279E+02  0.10717571281E+03  0.00000000000E+00 0.  1.
<scales pt_clust_3="51.94070" pt_clust_4="14000.00000" pt_clust_5="53.63554" pt_clust_6="90.65152"></scales>
<clustering>
<clus scale="   51.941">  2  3  1 -1</clus>
<clus scale="   53.636">  1  5  2 -1</clus>
<clus scale="   90.652">  2  6  1 -1</clus>
<clus scale="   53.636">  1  3  2 -1</clus>
</clustering>
</event>
<event>
 6    0  0.8520634E+002  0.1525350E+03  0.7546771E-02  0.1197392E+00
         21   -1    0    0  504  501  0.00000000000E+00  0.00000000000E+00  0.12301269189E+03  0.12301269189E+03  0.00000000000E+00 0.  1.
         21   -1    0    0  503  502 -0.00000000000E+00 -0.00000000000E+00 -0.23293989532E+04  0.23293989532E+04  0.00000000000E+00 0.  1.
         21    1    1    2  503  506  0.19245545065E+02  0.24922566848E+02 -0.11181064916E+04  0.11185497986E+04  0.00000000000E+00 0.  1.
         21    1    1    2  504  502 -0.15325752807E+03  0.84679113378E+02 -0.10635594405E+04  0.10778762015E+04  0.00000000000E+00 0.  1.
         21    1    1    2  505  501  0.90192296348E+02 -0.18099093527E+02  0.71231152324E+02  0.11634476597E+03  0.00000000000E+00 0.  1.
         21    1    1    2  506  505  0.43819686659E+02 -0.91502586699E+02 -0.95951481560E+02  0.13964087913E+03  0.00000000000E+00 0.  1.
<scales pt_clust_3="31.48850" pt_clust_4="14000.00000" pt_clust_5="92.25199" pt_clust_6="152.53495"></scales>
<clustering>
<clus scale="   31.488">  2  3  1 -1</clus>
<clus scale="   92.252">  1  5  2 -1</clus>
<clus scale="  152.535">  1  6  2 -1</clus>
<clus scale="   92.252">  1  3  2 -1</clus>
</clustering>
</event>
<event>
 6    0  0.8520634E+002  0.1085298E+03  0.7546771E-02  0.1263317E+00
         21   -1    0    0  505  501  0.00000000000E+00  0.00000000000E+00  0.56460982278E+03  0.56460982278E+03  0.00000000000E+00 0.  1.
         21   -1    0    0  504  502 -0.00000000000E+00 -0.00000000000E+00 -0.36090597633E+03  0.36090597633E+03  0.00000000000E+00 0.  1.
         21    1    1    2  503  506 -0.43093154208E+01  0.10099595943E+03 -0.11829634202E+03  0.15560455827E+03  0.00000000000E+00 0.  1.
         21    1    1    2  504  503 -0.50507014982E+02 -0.67498916956E+01 -0.20191221386E+03  0.20824279509E+03  0.00000000000E+00 0.  1.
         21    1    1    2  505  502  0.85006851059E+02 -0.11435573924E+03  0.49552934723E+03  0.51560909009E+03  0.00000000000E+00 0.  1.
         21    1    1    2  506  501 -0.30190520656E+02  0.20109671507E+02  0.28383055113E+02  0.46059355652E+02  0.00000000000E+00 0.  1.
<scales pt_clust_3="108.52983" pt_clust_4="51.11987" pt_clust_5="14000.00000" pt_clust_6="36.27487"></scales>
<clustering>
<clus scale="   36.275">  1  6  2 -1</clus>
<clus scale="   51.120">  2  4  1 -1</clus>
<clus scale="  108.530">  2  3  1 -1</clus>
<clus scale="   36.275">  1  3  2 -1</clus>
</clustering>
</event>
<event>
 6    0  0.8520634E+002  0.5795053E+02  0.7546771E-02  0.1406639E+00
         21   -1    0    0  504  501  0.00000000000E+00  0.00000000000E+00  0.50196423688E+03  0.50196423688E+03  0.00000000000E+00 0. -1.
         21   -1    0    0  503  502 -0.00000000000E+00 -0.00000000000E+00 -0.44714794222E+03  0.44714794222E+03  0.00000000000E+00 0. -1.
         21    1    1    2  503  505 -0.18201238574E+02 -0.54645909285E+02 -0.41585726169E+03  0.41982701508E+03  0.00000000000E+00 0. -1.
         21    1    1    2  504  502 -0.16201591241E+02  0.38131787662E+02  0.21279337160E+02  0.46576120266E+02  0.00000000000E+00 0.  1.
         21    1    1    2  505  506  0.62479818149E+02  0.77392472697E+02  0.18609274087E+03  0.21100670774E+03  0.00000000000E+00 0. -1.
         21    1    1    2  506  501 -0.28076988334E+02 -0.60878351074E+02  0.26330147833E+03  0.27170233601E+03  0.00000000000E+00 0.  1.
<scales pt_clust_3="57.95053" pt_clust_4="41.43096" pt_clust_5="14000.00000" pt_clust_6="54.05218"></scales>
<clustering>
<clus scale="   41.431">  1  4  2 -1</clus>
<clus scale="   54.052">  1  6  2 -1</clus>
<clus scale="   57.951">  2  3  1 -1</clus>
<clus scale="   41.431">  1  3  2 -1</clus>
</clustering>
</event>
<event>
 6    0  0.8520634E+002  0.1308706E+03  0.7546771E-02  0.1226170E+00
         21   -1    0    0  504  501  0.00000000000E+00  0.00000000000E+00  0.16768473087E+03  0.16768473087E+03  0.00000000000E+00 0. -1.
         21   -1    0    0  503  502 -0.00000000000E+00 -0.00000000000E+00 -0.95665197386E+03  0.95665197386E+03  0.00000000000E+00 0.  1.
         21    1    1    2  503  505 -0.30642620738E+01 -0.40899719922E+02 -0.74219296025E+02  0.84797881426E+02  0.00000000000E+00 0.  1.
         21    1    1    2  504  506  0.42807381474E+01  0.43289681941E+02  0.38144573227E+02  0.57856112454E+02  0.00000000000E+00 0.  1.
         21    1    1    2  505  501 -0.12660984251E+02 -0.16660212952E+03  0.40065490151E+02  0.17181913044E+03  0.00000000000E+00 0. -1.
         21    1    1    2  506  502  0.11444508178E+02  0.16421216750E+03 -0.79295801033E+03  0.80986358041E+03  0.00000000000E+00 0.  1.
<scales pt_clust_3="41.01435" pt_clust_4="43.04011" pt_clust_5="14000.00000" pt_clust_6="130.87064"></scales>
<clustering>
<clus scale="   41.014">  2  3  1 -1</clus>
<clus scale="   43.040">  1  4  2 -1</clus>
<clus scale="  130.871">  2  6  1 -1</clus>
<clus scale="   43.040">  1  3  2 -1</clus>
</clustering>
</event>
<event>
 6    0  0.8520634E+002  0.8288393E+02  0.7546771E-02  0.1321061E+00
         21   -1    0    0  505  501  0.00000000000E+00  0.00000000000E+00  0.17398318139E+04  0.17398318139E+04  0.00000000000E+00 0.  1.
         21   -1    0    0  503  502 -0.00000000000E+00 -0.00000000000E+00 -0.74903085937E+02  0.74903085937E+02  0.00000000000E+00 0. -1.
         21    1    1    2  503  506 -0.53576561154E+02  0.51548473504E+02 -0.15936779331E+02  0.76037319529E+02  0.00000000000E+00 0. -1.
         21    1    1    2  504  502 -0.25919277073E+02 -0.26046413507E+02 -0.10845858560E+02  0.38312624923E+02  0.00000000000E+00 0. -1.
         21    1    1    2  505  504 -0.13806777553E+02  0.28225378869E+02  0.95285118523E+02  0.10033221283E+03  0.00000000000E+00 0. -1.
         21    1    1    2  506  501  0.93302615780E+02 -0.53727438867E+02  0.15964262473E+04  0.16000527425E+04  0.00000000000E+00 0.  1.
<scales pt_clust_3="14000.00000" pt_clust_4="36.66036" pt_clust_5="31.42132" pt_clust_6="82.88393"></scales>
<clustering>
<clus scale="   31.421">  1  5  2 -1</clus>
<clus scale="   36.660">  2  4  1 -1</clus>
<clus scale="   82.884">  1  6  2 -1</clus>
<clus scale="   31.421">  1  3  2 -1</clus>
</clustering>
</event>
<event>
 6    0  0.8520634E+002  0.9114842E+02  0.7546771E-02  0.1300094E+00
         21   -1    0    0  506  501  0.00000000000E+00  0.00000000000E+00  0.37531688126E+02  0.37531688126E+02  0.00000000000E+00 0. -1.
         21   -1    0    0  503  502 -0.00000000000E+00 -0.00000000000E+00 -0.49977751540E+03  0.49977751540E+03  0.00000000000E+00 0. -1.
         21    1    1    2  503  504  0.79884013580E+02  0.70718315740E+02 -0.17058742250E+03  0.20120289392E+03  0.00000000000E+00 0. -1.
         21    1    1    2  504  501  0.21643761050E+02 -0.34059824272E+02 -0.63502158778E+02  0.75239937475E+02  0.00000000000E+00 0. -1.
         21    1    1    2  505  502 -0.12741470729E+02 -0.32225402431E+02 -0.91478852482E+02  0.97822298530E+02  0.00000000000E+00 0. -1.
         21    1    1    2  506  505 -0.88786303901E+02 -0.44330890376E+01 -0.13667739352E+03  0.16304407361E+03  0.00000000000E+00 0. -1.
<scales pt_clust_3="91.14842" pt_clust_4="44.10417" pt_clust_5="34.65287" pt_clust_6="14000.00000"></scales>
<clustering>
<clus scale="   34.653">  2  5  1 -1</clus>
<clus scale="   44.104">  1  4  2 -1</clus>
<clus scale="   91.148">  2  3  1 -1</clus>
<clus scale="   44.104">  1  3  2 -1</clus>
</clustering>
</event>
<event>
 6    0  0.8520634E+002  0.1892186E+03  0.7546771E-02  0.1159168E+00
         21   -1    0    0  503  501  0.00000000000E+00  0.00000000000E+00  0.10199139522E+04  0.10199139522E+04  0.00000000000E+00 0. -1.
         21   -1    0    0  501  502 -0.00000000000E+00 -0.00000000000E+00 -0.28626590540E+03  0.28626590540E+03  0.00000000000E+00 0.  1.
         21    1    1    2  503  506 -0.91279825688E+02 -0.59279657390E+02  0.76865946749E+03  0.77632690364E+03  0.00000000000E+00 0. -1.
         21    1    1    2  504  505  0.10426642725E+03  0.87679021307E+02 -0.10837243391E+03  0.17407953085E+03  0.00000000000E+00 0.  1.
         21    1    1    2  505  502  0.33936400117E+02  0.20961002596E+02 -0.13279663294E+03  0.13865781119E+03  0.00000000000E+00 0.  1.
         21    1    1    2  506  504 -0.46923001677E+02 -0.49360366514E+02  0.20615764615E+03  0.21711561191E+03  0.00000000000E+00 0. -1.
<scales pt_clust_3="59.67688" pt_clust_4="173.33994" pt_clust_5="39.88788" pt_clust_6="59.67688"></scales>
<clustering>
<clus scale="   39.888">  2  5  1 -1</clus>
<clus scale="   59.677">  3  6 -1 -1</clus>
<clus scale="  173.340">  2  4  1 -1</clus>
<clus scale="  189.219">  1  3  2 -1</clus>
</clustering>
</event>
<event>
 6    0  0.8520634E+002  0.6225415E+02  0.7546771E-02  0.1388608E+00
         21   -1    0    0  503  501  0.00000000000E+00  0.00000000000E+00  0.78460756899E+02  0.78460756899E+02  0.00000000000E+00 0. -1.
         21   -1    0    0  506  502 -0.00000000000E+00 -0.00000000000E+00 -0.20383492598E+04  0.20383492598E+04  0.00000000000E+00 0.  1.
         21    1    1    2  503  505 -0.36248965263E+02  0.10668675794E+02  0.58664242333E+02  0.69780380153E+02  0.00000000000E+00 0. -1.
         21    1    1    2  504  502  0.39677273884E+02 -0.47748124521E+02 -0.15456866592E+04  0.15469329067E+04  0.00000000000E+00 0.  1.
         21    1    1    2  505  504 -0.15547971805E+02 -0.55123034564E+02 -0.28228919045E+03  0.28804075304E+03  0.00000000000E+00 0. -1.
         21    1    1    2  506  501  0.12119663183E+02  0.92202483290E+02 -0.19057689557E+03  0.21205597677E+03  0.00000000000E+00 0. -1.
<scales pt_clust_3="37.78635" pt_clust_4="62.25415" pt_clust_5="57.69436" pt_clust_6="14000.00000"></scales>
<clustering>
<clus scale="   37.786">  1  3  2 -1</clus>
<clus scale="   57.694">  1  5  2 -1</clus>
<clus scale="   62.254">  2  4  1 -1</clus>
<clus scale="   37.786">  1  3  2 -1</clus>
</clustering>
</event>
<event>
 6    0  0.8520634E+002  0.1477935E+03  0.7546771E-02  0.1203211E+00
         21   -1    0    0  503  501  0.00000000000E+00  0.00000000000E+00  0.97722205677E+02  0.97722205677E+02  0.00000000000E+00 0. -1.
         21   -1    0    0  506  502 -0.00000000000E+00 -0.00000000000E+00 -0.13121053403E+04  0.13121053403E+04  0.00000000000E+00 0.  1.
         21    1    1    2  503  502 -0.49410509614E+02  0.78588224589E+02  0.53091923936E+02  0.10694045021E+03  0.00000000000E+00 0. -1.
         21    1    1    2  504  501 -0.80637894006E+02 -0.13019075184E+03 -0.65362331221E+03  0.67132371929E+03  0.00000000000E+00 0.  1.
         21    1    1    2  505  504  0.68650266138E+02  0.33061486220E+01 -0.24056727779E+03  0.25019273531E+03  0.00000000000E+00 0.  1.
         21    1    1    2  506  505  0.61398137482E+02  0.48296378634E+02 -0.37328446856E+03  0.38137064117E+03  0.00000000000E+00 0.  1.
<scales pt_clust_3="92.83053" pt_clust_4="139.14019" pt_clust_5="46.73922" pt_clust_6="46.73922"></scales>
<clustering>
<clus scale="   46.739">  5  6 -1 -1</clus>
<clus scale="   92.831">  1  3  2 -1</clus>
<clus scale="  139.140">  1  4  2 -1</clus>
<clus scale="   92.831">  1  3  2 -1</clus>
</clustering>
</event>
<event>
 6    0  0.8520634E+002  0.7786544E+02  0.7546771E-02  0.1335220E+00
         21   -1    0    0  505  501  0.00000000000E+00  0.00000000000E+00  0.34179164763E+02  0.34179164763E+02  0.00000000000E+00 0. -1.
         21   -1    0    0  504  502 -0.00000000000E+00 -0.00000000000E+00 -0.58170511778E+03  0.58170511778E+03  0.00000000000E+00 0. -1.
         21    1    1    2  503  506 -0.85219219752E+02 -0.25497333907E+02 -0.15149796205E+03  0.17568170638E+03  0.00000000000E+00 0. -1.
         21    1    1    2  504  503  0.43792947696E+02 -0.53332514370E+02 -0.24705483531E+03  0.25651173659E+03  0.00000000000E+00 0. -1.
         21    1    1    2  505  502  0.54803722078E+02  0.46335068972E+02 -0.90928900582E+02  0.11583804009E+03  0.00000000000E+00 0. -1.
         21    1    1    2  506  501 -0.13377450023E+02  0.32494779305E+02 -0.58044255073E+02  0.67852799487E+02  0.00000000000E+00 0. -1.
<scales pt_clust_3="14000.00000" pt_clust_4="63.60278" pt_clust_5="77.86544" pt_clust_6="35.14067"></scales>
<clustering>
<clus scale="   35.141">  1  6  2 -1</clus>
<clus scale="   63.603">  2  4  1 -1</clus>
<clus scale="   77.865">  1  5  2 -1</clus>
<clus scale="   35.141">  1  3  2 -1</clus>
</clustering>
</event>
<event>
 6    0  0.8520634E+002  0.8956504E+02  0.7546771E-02  0.1303908E+00
         21   -1    0    0  506  501  0.00000000000E+00  0.00000000000E+00  0.92820965084E+03  0.92820965084E+03  0.00000000000E+00 0.  1.
         21   -1    0    0  504  502 -0.00000000000E+00 -0.00000000000E+00 -0.10705461763E+03  0.10705461763E+03  0.00000000000E+00 0. -1.
         21    1    1    2  503  502  0.45364621834E+02  0.66904170582E+01 -0.43703800744E+02  0.63346134799E+02  0.00000000000E+00 0. -1.
         21    1    1    2  504  501 -0.10523871863E+03 -0.47763049336E+02  0.91652190745E+02  0.14750125711E+03  0.00000000000E+00 0. -1.
         21    1    1    2  505  503  0.29534438517E+02 -0.22201409774E+02 -0.98368659507E+01  0.38235449340E+02  0.00000000000E+00 0. -1.
         21    1    1    2  506  505  0.30339658282E+02  0.63274042052E+02  0.78304350917E+03  0.78618142722E+03  0.00000000000E+00 0.  1.
<scales pt_clust_3="35.92536" pt_clust_4="80.12579" pt_clust_5="35.92536" pt_clust_6="70.17193"></scales>
<clustering>
<clus scale="   35.925">  3  5 -1 -1</clus>
<clus scale="   70.172">  1  6  2 -1</clus>
<clus scale="   80.126">  1  4  2 -1</clus>
<clus scale="   70.172">  1  3  2 -1</clus>
</clustering>
</event>
<event>
 6    0  0.8520634E+002  0.1665649E+03  0.7546771E-02  0.1181478E+00
         21   -1    0    0  505  501  0.00000000000E+00  0.00000000000E+00  0.23932481647E+03  0.23932481647E+03  0.00000000000E+00 0. -1.
         21   -1    0    0  501  502 -0.00000000000E+00 -0.00000000000E+00 -0.29732010475E+03  0.29732010475E+03  0.00000000000E+00 0.  1.
         21    1    1    2  503  506 -0.10071417465E+03 -0.15013133177E+03  0.13636797872E+03  0.22644864180E+03  0.00000000000E+00 0. -1.
         21    1    1    2  504  502  0.30098980045E+02  0.10069693254E+03 -0.17157546133E+03  0.20120626171E+03  0.00000000000E+00 0.  1.
         21    1    1    2  505  503  0.28652877711E+02  0.16375294990E+02  0.21677908386E+02  0.39485052857E+02  0.00000000000E+00 0.  1.
         21    1    1    2  506  504  0.41962316891E+02  0.33059104247E+02 -0.44465714060E+02  0.69504964854E+02  0.00000000000E+00 0.  1.
<scales pt_clust_3="155.61680" pt_clust_4="42.76525" pt_clust_5="33.00209" pt_clust_6="42.76525"></scales>
<clustering>
<clus scale="   33.002">  1  5  2 -1</clus>
<clus scale="   42.765">  4  6 -1 -1</clus>
<clus scale="  155.617">  1  3  2 -1</clus>
<clus scale="   33.002">  1  3  2 -1</clus>
</clustering>
</event>
<event>
 6    0  0.8520634E+002  0.1805669E+03  0.7546771E-02  0.1167256E+00
         21   -1    0    0  504  501  0.00000000000E+00  0.00000000000E+00  0.24429381519E+03  0.24429381519E+03  0.00000000000E+00 0.  1.
         21   -1    0    0  505  502 -0.00000000000E+00 -0.00000000000E+00 -0.96966236096E+03  0.96966236096E+03  0.00000000000E+00 0. -1.
         21    1    1    2  503  501 -0.21939297138E+02  0.24440469220E+02  0.14603531701E+03  0.14968294194E+03  0.00000000000E+00 0.  1.
         21    1    1    2  504  506  0.61456030406E+02 -0.12666827281E+03 -0.32689342046E+02  0.14453472972E+03  0.00000000000E+00 0.  1.
         21    1    1    2  505  503 -0.19429670286E+03  0.94968028474E+02 -0.56856128287E+03  0.60830261183E+03  0.00000000000E+00 0. -1.
         21    1    1    2  506  502  0.15477996959E+03  0.72597751183E+01 -0.27015323785E+03  0.31143589267E+03  0.00000000000E+00 0.  1.
<scales pt_clust_3="32.84310" pt_clust_4="122.59735" pt_clust_5="14000.00000" pt_clust_6="180.56686"></scales>
<clustering>
<clus scale="   32.843">  1  3  2 -1</clus>
<clus scale="  122.597">  1  4  2 -1</clus>
<clus scale="  180.567">  1  6  2 -1</clus>
<clus scale="   32.843">  1  3  2 -1</clus>
</clustering>
</event>
<event>
 6    0  0.8520634E+002  0.8571701E+02  0.7546771E-02  0.1313568E+00
         21   -1    0    0  504  501  0.00000000000E+00  0.00000000000E+00  0.12283773276E+04  0.12283773276E+04  0.00000000000E+00 0.  1.
         21   -1    0    0  505  502 -0.00000000000E+00 -0.00000000000E+00 -0.34122773523E+02  0.34122773523E+02  0.00000000000E+00 0.  1.
         21    1    1    2  503  502 -0.12375096104E+03  0.69959794251E+02  0.39153916966E+03  0.41654722967E+03  0.00000000000E+00 0.  1.
         21    1    1    2  504  503 -0.16670933629E+01 -0.40040751327E+02  0.19225512764E+03  0.19638756343E+03  0.00000000000E+00 0.  1.
         21    1    1    2  505  506  0.74321972487E+02 -0.14727242749E+02  0.60313395251E+02  0.96841896512E+02  0.00000000000E+00 0.  1.
         21    1    1    2  506  501  0.51096081916E+02 -0.15191800176E+02  0.55014686148E+03  0.55272341146E+03  0.00000000000E+00 0.  1.
<scales pt_clust_3="14000.00000" pt_clust_4="40.07544" pt_clust_5="85.71701" pt_clust_6="62.09870"></scales>
<clustering>
<clus scale="   40.075">  1  4  2 -1</clus>
<clus scale="   62.099">  1  6  2 -1</clus>
<clus scale="   85.717">  2  5  1 -1</clus>
<clus scale="   40.075">  1  3  2 -1</clus>
</clustering>
</event>
<event>
 6    0  0.8520634E+002  0.1480872E+03  0.7546771E-02  0.1202843E+00
         21   -1    0    0  504  501  0.00000000000E+00  0.00000000000E+00  0.16938666783E+04  0.16938666783E+04  0.00000000000E+00 0.  1.
         21   -1    0    0  506  502 -0.00000000000E+00 -0.00000000000E+00 -0.17157027420E+03  0.17157027420E+03  0.00000000000E+00 0.  1.
         21    1    1    2  503  501 -0.11851873218E+03  0.15807958320E+02  0.33135523119E+03  0.35226818003E+03  0.00000000000E+00 0.  1.
         21    1    1    2  504  505  0.38976620746E+02 -0.16265485680E+03  0.12517174870E+04  0.12628430016E+04  0.00000000000E+00 0.  1.
         21    1    1    2  505  502  0.46453549479E+02  0.76120952312E+02  0.59301033508E+02  0.10709315672E+03  0.00000000000E+00 0.  1.
         21    1    1    2  506  503  0.33088561959E+02  0.70725946168E+02 -0.12007734752E+03  0.14323261424E+03  0.00000000000E+00 0.  1.
<scales pt_clust_3="115.09174" pt_clust_4="14000.00000" pt_clust_5="148.08720" pt_clust_6="78.08337"></scales>
<clustering>
<clus scale="   78.083">  2  6  1 -1</clus>
<clus scale="  115.092">  2  3  1 -1</clus>
<clus scale="  148.087">  2  5  1 -1</clus>
<clus scale="  148.087">  1  3  2 -1</clus>
</clustering>
</event>
<event>
 6    0  0.8520634E+002  0.2303168E+03  0.7546771E-02  0.1126417E+00
         21   -1    0    0  506  501  0.00000000000E+00  0.00000000000E+00  0.56783644213E+03  0.56783644213E+03  0.00000000000E+00 0. -1.
         21   -1    0    0  505  502 -0.00000000000E+00 -0.00000000000E+00 -0.45739865371E+03  0.45739865371E+03  0.00000000000E+00 0. -1.
         21    1    1    2  503  501 -0.53489054586E+02  0.66826167487E+02  0.21515896915E+03  0.23156035418E+03  0.00000000000E+00 0. -1.
         21    1    1    2  504  503 -0.78588304339E+02  0.51736563789E+02  0.17425789282E+03  0.19803688248E+03  0.00000000000E+00 0. -1.
         21    1    1    2  505  504 -0.18716324995E+03 -0.63063915473E+02 -0.14494293175E+03  0.24498080135E+03  0.00000000000E+00 0. -1.
         21    1    1    2  506  502  0.31924060887E+03 -0.55498815803E+02 -0.13403614179E+03  0.35065705784E+03  0.00000000000E+00 0. -1.
<scales pt_clust_3="35.77389" pt_clust_4="181.40643" pt_clust_5="14000.00000" pt_clust_6="230.31677"></scales>
<clustering>
<clus scale="   35.774">  3  4 -1 -1</clus>
<clus scale="  181.406">  1  3  2 -1</clus>
<clus scale="  230.317">  1  6  2 -1</clus>
<clus scale="  181.406">  1  3  2 -1</clus>
</clustering>
</event>
<event>
 6    0  0.8520634E+002  0.1757977E+03  0.7546771E-02  0.1171933E+00
         21   -1    0    0  503  501  0.00000000000E+00  0.00000000000E+00  0.13360382372E+04  0.13360382372E+04  0.00000000000E+00 0.  1.
         21   -1    0    0  504  502 -0.00000000000E+00 -0.00000000000E+00 -0.47681073111E+03  0.47681073111E+03  0.00000000000E+00 0. -1.
         21    1    1    2  503  502 -0.33534362627E+02 -0.43062202515E+02 -0.79576185044E+01  0.55156418072E+02  0.00000000000E+00 0.  1.
         21    1    1    2  504  505  0.50556292477E+02 -0.37078819285E+01 -0.41239073864E+03  0.41549465510E+03  0.00000000000E+00 0. -1.
         21    1    1    2  505  506 -0.11757224580E+03  0.17578118105E+03  0.45756567256E+03  0.50407201995E+03  0.00000000000E+00 0.  1.
         21    1    1    2  506  501  0.10055031595E+03 -0.12901109660E+03  0.82201019064E+03  0.83812587515E+03  0.00000000000E+00 0.  1.
<scales pt_clust_3="45.65800" pt_clust_4="50.69208" pt_clust_5="175.79770" pt_clust_6="14000.00000"></scales>
<clustering>
<clus scale="   50.692">  2  4  1 -1</clus>
<clus scale="   45.658">  2  3  1 -1</clus>
<clus scale="  175.798">  2  5  1 -1</clus>
<clus scale="  175.798">  1  3  2 -1</clus>
</clustering>
</event>
<event>
 6    0  0.8520634E+002  0.1107776E+03  0.7546771E-02  0.1259137E+00
         21   -1    0    0  506  501  0.00000000000E+00  0.00000000000E+00  0.20109880359E+04  0.20109880359E+04  0.00000000000E+00 0.  1.
         21   -1    0    0  503  502 -0.00000000000E+00 -0.00000000000E+00 -0.33891530446E+03  0.33891530446E+03  0.00000000000E+00 0. -1.
         21    1    1    2  503  504  0.30014108739E+02  0.70261558540E+01 -0.11333344732E+02  0.32842933674E+02  0.00000000000E+00 0. -1.
         21    1    1    2  504  501  0.47672727897E+02  0.12875697461E+03  0.12421112161E+03  0.18514710429E+03  0.00000000000E+00 0.  1.
         21    1    1    2  505  502 -0.11993139165E+03 -0.32913623906E+02 -0.27108848433E+03  0.29825460882E+03  0.00000000000E+00 0. -1.
         21    1    1    2  506  505  0.42244555013E+02 -0.10286950656E+03  0.18302834389E+04  0.18336586936E+04  0.00000000000E+00 0.  1.
<scales pt_clust_3="30.82553" pt_clust_4="14000.00000" pt_clust_5="96.69437" pt_clust_6="110.77755"></scales>
<clustering>
<clus scale="   30.826">  2  3  1 -1</clus>
<clus scale="   96.694">  2  5  1 -1</clus>
<clus scale="  110.778">  1  6  2 -1</clus>
<clus scale="  110.778">  1  3  2 -1</clus>
</clustering>
</event>
<event>
 6    0  0.8520634E+002  0.1190970E+03  0.7546771E-02  0.1244594E+00
         21   -1    0    0  503  501  0.00000000000E+00  0.00000000000E+00  0.66425022772E+03  0.66425022772E+03  0.00000000000E+00 0.  1.
         21   -1    0    0  504  502 -0.00000000000E+00 -0.00000000000E+00 -0.44125525458E+03  0.44125525458E+03  0.00000000000E+00 0. -1.
         21    1    1    2  503  502  0.30229555909E+02 -0.59942771935E+01 -0.52430753884E+02  0.60817278486E+02  0.00000000000E+00 0. -1.
         21    1    1    2  504  506 -0.14933022216E+02  0.53908165193E+02 -0.34193118758E+03  0.34647658286E+03  0.00000000000E+00 0. -1.
         21    1    1    2  505  501  0.13733046717E+02 -0.12580754453E+03  0.60011630891E+03  0.61331535042E+03  0.00000000000E+00 0.  1.
         21    1    1    2  506  505 -0.29029580410E+02  0.77893656536E+02  0.17240605692E+02  0.84896270542E+02  0.00000000000E+00 0. -1.
<scales pt_clust_3="30.81813" pt_clust_4="50.03387" pt_clust_5="14000.00000" pt_clust_6="119.09697"></scales>
<clustering>
<clus scale="   30.818">  2  3  1 -1</clus>
<clus scale="   50.034">  2  4  1 -1</clus>
<clus scale="  119.097">  2  6  1 -1</clus>
<clus scale="  119.097">  1  3  2 -1</clus>
</clustering>
</event>
<event>
 6    0  0.8520634E+002  0.7396763E+02  0.7546771E-02  0.1347098E+00
         21   -1    0    0  506  501  0.00000000000E+00  0.00000000000E+00  0.34381758636E+03  0.34381758636E+03  0.00000000000E+00 0. -1.
         21   -1    0    0  503  502 -0.00000000000E+00 -0.00000000000E+00 -0.25232061869E+03  0.25232061869E+03  0.00000000000E+00 0. -1.
         21    1    1    2  503  504  0.45532604140E+02 -0.30891140451E+02 -0.21697325393E+02  0.59146044055E+02  0.00000000000E+00 0.  1.
         21    1    1    2  504  501 -0.30123030135E+02 -0.54011738731E+02  0.66159321042E+02  0.90563351450E+02  0.00000000000E+00 0. -1.
         21    1    1    2  505  502 -0.58836532875E+02  0.10873521807E+03 -0.17760090634E+03  0.21639585760E+03  0.00000000000E+00 0. -1.
         21    1    1    2  506  505  0.43426958870E+02 -0.23832338891E+02  0.22463587837E+03  0.23003295195E+03  0.00000000000E+00 0. -1.
<scales pt_clust_3="62.95459" pt_clust_4="73.96763" pt_clust_5="14000.00000" pt_clust_6="49.53666"></scales>
<clustering>
<clus scale="   49.537">  1  6  2 -1</clus>
<clus scale="   62.955">  2  3  1 -1</clus>
<clus scale="   73.968">  1  4  2 -1</clus>
<clus scale="   49.537">  1  3  2 -1</clus>
</clustering>
</event>
<event>
 6    0  0.8520634E+002  0.1030561E+03  0.7546771E-02  0.1273998E+00
         21   -1    0    0  506  501  0.00000000000E+00  0.00000000000E+00  0.33117008507E+03  0.33117008507E+03  0.00000000000E+00 0. -1.
         21   -1    0    0  504  502 -0.00000000000E+00 -0.00000000000E+00 -0.21646461829E+03  0.21646461829E+03  0.00000000000E+00 0.  1.
         21    1    1    2  503  501 -0.46260517044E+02  0.24270634964E+02  0.20345734198E+03  0.21005710929E+03  0.00000000000E+00 0. -1.
         21    1    1    2  504  505 -0.27251459853E+02  0.18409155588E+02 -0.65586850414E+02  0.73370116674E+02  0.00000000000E+00 0. -1.
         21    1    1    2  505  503 -0.59736259409E+02  0.14986676386E+02  0.68801702658E+02  0.92340107461E+02  0.00000000000E+00 0. -1.
         21    1    1    2  506  502  0.13324823631E+03 -0.57666466938E+02 -0.91966727454E+02  0.17186736993E+03  0.00000000000E+00 0.  1.
<scales pt_clust_3="52.97462" pt_clust_4="32.88676" pt_clust_5="14000.00000" pt_clust_6="103.05608"></scales>
<clustering>
<clus scale="   32.887">  2  4  1 -1</clus>
<clus scale="   52.975">  1  3  2 -1</clus>
<clus scale="  103.056">  2  6  1 -1</clus>
<clus scale="   52.975">  1  3  2 -1</clus>
</clustering>
</event>
<event>
 6    0  0.8520634E+002  0.1364652E+03  0.7546771E-02  0.1218166E+00
         21   -1    0    0  504  501  0.00000000000E+00  0.00000000000E+00  0.19792552180E+04  0.19792552180E+04  0.00000000000E+00 0. -1.
         21   -1    0    0  503  502 -0.00000000000E+00 -0.00000000000E+00 -0.31396199344E+02  0.31396199344E+02  0.00000000000E+00 0.  1.
         21    1    1    2  503  505  0.21425842195E+02 -0.32743828860E+02  0.42374564598E+02  0.57678668215E+02  0.00000000000E+00 0.  1.
         21    1    1    2  504  506 -0.10904223862E+02  0.11670414978E+03  0.12005742275E+04  0.12062824032E+04  0.00000000000E+00 0. -1.
         21    1    1    2  505  501  0.42741974729E+02  0.28837977961E+02  0.52637288272E+03  0.52889216012E+03  0.00000000000E+00 0.  1.
         21    1    1    2  506  502 -0.53263593062E+02 -0.11279829888E+03  0.17853734392E+03  0.21779818583E+03  0.00000000000E+00 0.  1.
<scales pt_clust_3="39.13087" pt_clust_4="136.46518" pt_clust_5="51.57318" pt_clust_6="14000.00000"></scales>
<clustering>
<clus scale="   39.131">  2  3  1 -1</clus>
<clus scale="   51.573">  1  5  2 -1</clus>
<clus scale="  136.465">  1  4  2 -1</clus>
<clus scale="   51.573">  1  3  2 -1</clus>
</clustering>
</event>
<event>
 6    0  0.8520634E+002  0.7220770E+02  0.7546771E-02  0.1352743E+00
         21   -1    0    0  504  501  0.00000000000E+00  0.00000000000E+00  0.10962816559E+04  0.10962816559E+04  0.00000000000E+00 0.  1.
         21   -1    0    0  506  502 -0.00000000000E+00 -0.00000000000E+00 -0.67256369348E+02  0.67256369348E+02  0.00000000000E+00 0.  1.
         21    1    1    2  503  502 -0.30292765204E+02 -0.45353368495E+02  0.26903590909E+02  0.60814331052E+02  0.00000000000E+00 0.  1.
         21    1    1    2  504  505 -0.18131145426E+01 -0.51033767781E+02  0.65665210075E+03  0.65863473509E+03  0.00000000000E+00 0.  1.
         21    1    1    2  505  503  0.77307019666E+02  0.55842013360E+02  0.36736450153E+03  0.37954101587E+03  0.00000000000E+00 0.  1.
         21    1    1    2  506  501 -0.45201139920E+02  0.40545122916E+02 -0.21894906622E+02  0.64547943254E+02  0.00000000000E+00 0.  1.
<scales pt_clust_3="58.94484" pt_clust_4="51.06597" pt_clust_5="72.20770" pt_clust_6="14000.00000"></scales>
<clustering>
<clus scale="   51.066">  1  4  2 -1</clus>
<clus scale="   58.945">  2  3  1 -1</clus>
<clus scale="   72.208">  1  5  2 -1</clus>
<clus scale="   51.066">  1  3  2 -1</clus>
</clustering>
</event>
<event>
 6    0  0.8520634E+002  0.6466116E+02  0.7546771E-02  0.1379251E+00
         21   -1    0    0  503  501  0.00000000000E+00  0.00000000000E+00  0.33697961187E+03  0.33697961187E+03  0.00000000000E+00 0. -1.
         21   -1    0    0  505  502 -0.00000000000E+00 -0.00000000000E+00 -0.23592482200E+03  0.23592482200E+03  0.00000000000E+00 0. -1.
         21    1    1    2  503  504  0.45578196492E+02 -0.30067041993E+02  0.13321384755E+03  0.14396988640E+03  0.00000000000E+00 0.  1.
         21    1    1    2  504  506  0.25975857481E+02 -0.87601688979E+02 -0.45468132409E+02  0.10205955197E+03  0.00000000000E+00 0. -1.
         21    1    1    2  505  501 -0.46649475256E+02  0.84396876411E+02  0.15315470039E+03  0.18098444281E+03  0.00000000000E+00 0. -1.
         21    1    1    2  506  502 -0.24904578717E+02  0.33271854561E+02 -0.13984562566E+03  0.14589055268E+03  0.00000000000E+00 0. -1.
<scales pt_clust_3="52.34821" pt_clust_4="64.66116" pt_clust_5="14000.00000" pt_clust_6="41.56025"></scales>
<clustering>
<clus scale="   41.560">  2  6  1 -1</clus>
<clus scale="   52.348">  1  3  2 -1</clus>
<clus scale="   64.661">  2  4  1 -1</clus>
<clus scale="   52.348">  1  3  2 -1</clus>
</clustering>
</event>
<event>
 6    0  0.8520634E+002  0.1529826E+03  0.7546771E-02  0.1196855E+00
         21   -1    0    0  505  501  0.00000000000E+00  0.00000000000E+00  0.14234153384E+04  0.14234153384E+04  0.00000000000E+00 0. -1.
         21   -1    0    0  503  502 -0.00000000000E+00 -0.00000000000E+00 -0.77825876726E+02  0.77825876726E+02  0.00000000000E+00 0. -1.
         21    1    1    2  503  501  0.20235775812E+03  0.47562731772E+02  0.78812939455E+03  0.81508209297E+03  0.00000000000E+00 0. -1.
         21    1    1    2  504  506 -0.10511310028E+03  0.36536180474E+02  0.88855621089E+02  0.14240427568E+03  0.00000000000E+00 0. -1.
         21    1    1    2  505  504 -0.46981295373E+02  0.46422390274E+01  0.43324836716E+03  0.43581296463E+03  0.00000000000E+00 0. -1.
         21    1    1    2  506  502 -0.50263362470E+02 -0.88741151273E+02  0.35356078840E+02  0.10794188180E+03  0.00000000000E+00 0. -1.
<scales pt_clust_3="152.98260" pt_clust_4="14000.00000" pt_clust_5="47.21009" pt_clust_6="103.41951"></scales>
<clustering>
<clus scale="   47.210">  1  5  2 -1</clus>
<clus scale="  103.420">  2  6  1 -1</clus>
<clus scale="  152.983">  1  3  2 -1</clus>
<clus scale="   47.210">  1  3  2 -1</clus>
</clustering>
</event>
<event>
 6    0  0.8520634E+002  0.1696850E+03  0.7546771E-02  0.1178177E+00
         21   -1    0    0  505  501  0.00000000000E+00  0.00000000000E+00  0.83432933330E+03  0.83432933330E+03  0.00000000000E+00 0. -1.
         21   -1    0    0  503  502 -0.00000000000E+00 -0.00000000000E+00 -0.90271001649E+03  0.90271001649E+03  0.00000000000E+00 0.  1.
         21    1    1    2  503  506  0.25166118990E+02 -0.31279305448E+02 -0.74542172702E+03  0.74650202920E+03  0.00000000000E+00 0.  1.
         21    1    1    2  504  502  0.15373609983E+03 -0.10925776266E+02 -0.67492413000E+02  0.16825393544E+03  0.00000000000E+00 0.  1.
         21    1    1    2  505  504 -0.14410714599E+03  0.88410993680E+02  0.15327686084E+03  0.22820422739E+03  0.00000000000E+00 0.  1.
         21    1    1    2  506  501 -0.34795072826E+02 -0.46205911965E+02  0.59125659599E+03  0.59407915777E+03  0.00000000000E+00 0. -1.
<scales pt_clust_3="40.14634" pt_clust_4="169.68495" pt_clust_5="14000.00000" pt_clust_6="57.93161"></scales>
<clustering>
<clus scale="   40.146">  2  3  1 -1</clus>
<clus scale="   57.932">  1  6  2 -1</clus>
<clus scale="  169.685">  2  4  1 -1</clus>
<clus scale="   57.932">  1  3  2 -1</clus>
</clustering>
</event>
<event>
 6    0  0.8520634E+002  0.1062542E+03  0.7546771E-02  0.1267668E+00
         21   -1    0    0  503  501  0.00000000000E+00  0.00000000000E+00  0.63929835368E+03  0.63929835368E+03  0.00000000000E+00 0.  1.
         21   -1    0    0  506  502 -0.00000000000E+00 -0.00000000000E+00 -0.88669874655E+02  0.88669874655E+02  0.00000000000E+00 0. -1.
         21    1    1    2  503  505  0.25058332082E+02 -0.28474093915E+02  0.13331983999E+03  0.13861051102E+03  0.00000000000E+00 0.  1.
         21    1    1    2  504  501 -0.33888675850E+01  0.10965620936E+03  0.15548997433E+03  0.19029740090E+03  0.00000000000E+00 0. -1.
         21    1    1    2  505  502 -0.48881500738E+02  0.21231493819E+02  0.28553979020E+03  0.29047056518E+03  0.00000000000E+00 0.  1.
         21    1    1    2  506  504  0.27212036241E+02 -0.10241360926E+03 -0.23721125499E+02  0.10858975123E+03  0.00000000000E+00 0. -1.
<scales pt_clust_3="37.93012" pt_clust_4="14000.00000" pt_clust_5="34.89449" pt_clust_6="106.25421"></scales>
<clustering>
<clus scale="   37.930">  1  3  2 -1</clus>
<clus scale="   34.894">  1  5  2 -1</clus>
<clus scale="  106.254">  2  6  1 -1</clus>
<clus scale="   37.930">  1  3  2 -1</clus>
</clustering>
</event>
<event>
 6    0  0.8520634E+002  0.1705848E+03  0.7546771E-02  0.1177239E+00
         21   -1    0    0  506  501  0.00000000000E+00  0.00000000000E+00  0.17919614192E+03  0.17919614192E+03  0.00000000000E+00 0.  1.
         21   -1    0    0  504  502 -0.00000000000E+00 -0.00000000000E+00 -0.91513733237E+03  0.91513733237E+03  0.00000000000E+00 0.  1.
         21    1    1    2  503  501  0.13606579006E+03 -0.14948170562E+03 -0.48492187230E+01  0.20219345801E+03  0.00000000000E+00 0.  1.
         21    1    1    2  504  505 -0.43578025916E+02 -0.99322793691E+01 -0.32695859830E+03  0.32999942351E+03  0.00000000000E+00 0.  1.
         21    1    1    2  505  503  0.13155059681E+02  0.54630782206E+02 -0.40941378817E+03  0.41325201500E+03  0.00000000000E+00 0.  1.
         21    1    1    2  506  502 -0.10564282383E+03  0.10478320278E+03  0.52804147404E+01  0.14888857777E+03  0.00000000000E+00 0.  1.
<scales pt_clust_3="170.58483" pt_clust_4="44.69558" pt_clust_5="50.74314" pt_clust_6="14000.00000"></scales>
<clustering>
<clus scale="   44.696">  2  4  1 -1</clus>
<clus scale="   50.743">  2  5  1 -1</clus>
<clus scale="  170.585">  2  3  1 -1</clus>
<clus scale="  170.585">  1  3  2 -1</clus>
</clustering>
</event>
<event>
 6    0  0.8520634E+002  0.2095542E+03  0.7546771E-02  0.1141920E+00
         21   -1    0    0  506  501  0.00000000000E+00  0.00000000000E+00  0.20098126045E+04  0.20098126045E+04  0.00000000000E+00 0.  1.
         21   -1    0    0  505  502 -0.00000000000E+00 -0.00000000000E+00 -0.48943385494E+02  0.48943385494E+02  0.00000000000E+00 0.  1.
         21    1    1    2  503  504 -0.33125519790E+02 -0.16287922847E+02  0.10647675462E+03  0.11269381424E+03  0.00000000000E+00 0. -1.
         21    1    1    2  504  502  0.19878104171E+03 -0.69575665604E+02  0.27108276517E+03  0.34327910126E+03  0.00000000000E+00 0.  1.
         21    1    1    2  505  501 -0.19501800347E+03  0.64902917085E+02  0.11712535111E+04  0.11891506203E+04  0.00000000000E+00 0.  1.
         21    1    1    2  506  503  0.29362481545E+02  0.20960671366E+02  0.41205618808E+03  0.41363245425E+03  0.00000000000E+00 0.  1.
<scales pt_clust_3="34.47292" pt_clust_4="14000.00000" pt_clust_5="209.55418" pt_clust_6="36.07638"></scales>
<clustering>
<clus scale="   36.076">  1  6  2 -1</clus>
<clus scale="   34.473">  1  3  2 -1</clus>
<clus scale="  209.554">  1  5  2 -1</clus>
<clus scale="   36.076">  1  3  2 -1</clus>
</clustering>
</event>
<event>
 6    0  0.8520634E+002  0.1549242E+03  0.7546771E-02  0.1194549E+00
         21   -1    0    0  504  501  0.00000000000E+00  0.00000000000E+00  0.59385285527E+03  0.59385285527E+03  0.00000000000E+00 0. -1.
         21   -1    0    0  506  502 -0.00000000000E+00 -0.00000000000E+00 -0.81141820711E+03  0.81141820711E+03  0.00000000000E+00 0.  1.
         21    1    1    2  503  505 -0.11658629554E+03  0.72785866208E+02 -0.17984901640E+03  0.22635329759E+03  0.00000000000E+00 0.  1.
         21    1    1    2  504  503  0.12381692305E+03 -0.74751669195E+02  0.53636794255E+03  0.55552588804E+03  0.00000000000E+00 0. -1.
         21    1    1    2  505  502  0.11548871526E+01  0.34984191082E+02 -0.58619313389E+03  0.58723727539E+03  0.00000000000E+00 0.  1.
         21    1    1    2  506  501 -0.83855146603E+01 -0.33018388095E+02  0.12108855895E+02  0.36154601361E+02  0.00000000000E+00 0. -1.
<scales pt_clust_3="154.92423" pt_clust_4="14000.00000" pt_clust_5="34.97276" pt_clust_6="34.06656"></scales>
<clustering>
<clus scale="   34.067">  1  6  2 -1</clus>
<clus scale="   34.973">  2  5  1 -1</clus>
<clus scale="  154.924">  2  3  1 -1</clus>
<clus scale="   34.067">  1  3  2 -1</clus>
</clustering>
</event>
<event>
 6    0  0.8520634E+002  0.7090738E+02  0.7546771E-02  0.1357034E+00
         21   -1    0    0  505  501  0.00000000000E+00  0.00000000000E+00  0.12132232760E+04  0.12132232760E+04  0.00000000000E+00 0. -1.
         21   -1    0    0  506  502 -0.00000000000E+00 -0.00000000000E+00 -0.40586298246E+02  0.40586298246E+02  0.00000000000E+00 0. -1.
         21    1    1    2  503  501  0.29122028957E+02 -0.13777400497E+02  0.51833762516E+03  0.51933785053E+03  0.00000000000E+00 0. -1.
         21    1    1    2  504  503  0.71291042571E+02  0.46942805004E+02  0.28320998509E+03  0.29579373784E+03  0.00000000000E+00 0. -1.
         21    1    1    2  505  502 -0.80900741688E+02  0.14151138237E+02  0.37819081158E+03  0.38700578120E+03  0.00000000000E+00 0. -1.
         21    1    1    2  506  504 -0.19512329840E+02 -0.47316542744E+02 -0.71014440325E+01  0.51672204718E+02  0.00000000000E+00 0. -1.
<scales pt_clust_3="32.21660" pt_clust_4="70.90738" pt_clust_5="14000.00000" pt_clust_6="51.24476"></scales>
<clustering>
<clus scale="   32.217">  1  3  2 -1</clus>
<clus scale="   51.245">  2  6  1 -1</clus>
<clus scale="   70.907">  2  4  1 -1</clus>
<clus scale="   32.217">  1  3  2 -1</clus>
</clustering>
</event>
<event>
 6    0  0.8520634E+002  0.7857265E+02  0.7546771E-02  0.1333152E+00
         21   -1    0    0  505  501  0.00000000000E+00  0.00000000000E+00  0.13016877719E+03  0.13016877719E+03  0.00000000000E+00 0. -1.
         21   -1    0    0  506  502 -0.00000000000E+00 -0.00000000000E+00 -0.57709406298E+03  0.57709406298E+03  0.00000000000E+00 0.  1.
         21    1    1    2  503  504 -0.61478569646E+02 -0.47494703267E+02 -0.18540149446E+03  0.20102008733E+03  0.00000000000E+00 0.  1.
         21    1    1    2  504  502  0.99413035820E+02 -0.32462053728E+02 -0.30382634115E+03  0.32132099557E+03  0.00000000000E+00 0.  1.
         21    1    1    2  505  503 -0.13519711030E+02  0.55370558298E+02  0.10145447365E+03  0.11636877389E+03  0.00000000000E+00 0. -1.
         21    1    1    2  506  501 -0.24414755144E+02  0.24586198698E+02 -0.59151923835E+02  0.68552983367E+02  0.00000000000E+00 0.  1.
<scales pt_clust_3="14000.00000" pt_clust_4="78.57265" pt_clust_5="57.42897" pt_clust_6="34.64912"></scales>
<clustering>
<clus scale="   34.649">  2  6  1 -1</clus>
<clus scale="   57.429">  1  5  2 -1</clus>
<clus scale="   78.573">  2  4  1 -1</clus>
<clus scale="   57.429">  1  3  2 -1</clus>
</clustering>
</event>
<event>
 6    0  0.8520634E+002  0.1563519E+03  0.7546771E-02  0.1192878E+00
         21   -1    0    0  503  501  0.00000000000E+00  0.00000000000E+00  0.43641293966E+03  0.43641293966E+03  0.00000000000E+00 0.  1.
         21   -1    0    0  505  502 -0.00000000000E+00 -0.00000000000E+00 -0.13046686962E+04  0.13046686962E+04  0.00000000000E+00 0. -1.
         21    1    1    2  503  504 -0.89636717490E+02 -0.25903082444E+02  0.30712853121E+03  0.32098854416E+03  0.00000000000E+00 0.  1.
         21    1    1    2  504  506 -0.58382254847E+02  0.12866543769E+01  0.10876569178E+03  0.12345087634E+03  0.00000000000E+00 0.  1.
         21    1    1    2  505  501  0.11666350403E+03  0.16468237916E+02 -0.12100154370E+04  0.12157380203E+04  0.00000000000E+00 0. -1.
         21    1    1    2  506  502  0.31355468304E+02  0.81481901515E+01 -0.74134542455E+02  0.80904195073E+02  0.00000000000E+00 0. -1.
<scales pt_clust_3="35.73449" pt_clust_4="35.73449" pt_clust_5="149.67665" pt_clust_6="32.39689"></scales>
<clustering>
<clus scale="   32.397">  2  6  1 -1</clus>
<clus scale="   35.734">  3  4 -1 -1</clus>
<clus scale="  149.677">  2  5  1 -1</clus>
<clus scale="  156.352">  1  3  2 -1</clus>
</clustering>
</event>
<event>
 6    0  0.8520634E+002  0.7704402E+02  0.7546771E-02  0.1337656E+00
         21   -1    0    0  506  501  0.00000000000E+00  0.00000000000E+00  0.81787619279E+03  0.81787619279E+03  0.00000000000E+00 0. -1.
         21   -1    0    0  503  502 -0.00000000000E+00 -0.00000000000E+00 -0.52076438080E+03  0.52076438080E+03  0.00000000000E+00 0. -1.
         21    1    1    2  503  501  0.54105809285E+02  0.32800524240E+02  0.64670039974E+03  0.64978821166E+03  0.00000000000E+00 0. -1.
         21    1    1    2  504  502  0.40231601887E+02 -0.80865805866E+01 -0.34517694238E+03  0.34760767559E+03  0.00000000000E+00 0. -1.
         21    1    1    2  505  504  0.31529971168E+02 -0.27674269582E+02 -0.14592242781E+03  0.15183332709E+03  0.00000000000E+00 0. -1.
         21    1    1    2  506  505 -0.12586738234E+03  0.29603259282E+01  0.14151078244E+03  0.18941135925E+03  0.00000000000E+00 0. -1.
<scales pt_clust_3="63.53971" pt_clust_4="41.03626" pt_clust_5="77.04402" pt_clust_6="14000.00000"></scales>
<clustering>
<clus scale="   41.036">  2  4  1 -1</clus>
<clus scale="   63.540">  1  3  2 -1</clus>
<clus scale="   77.044">  2  5  1 -1</clus>
<clus scale="   63.540">  1  3  2 -1</clus>
</clustering>
</event>
<event>
 6    0  0.8520634E+002  0.8472614E+02  0.7546771E-02  0.1316150E+00
         21   -1    0    0  506  501  0.00000000000E+00  0.00000000000E+00  0.35371663100E+03  0.35371663100E+03  0.00000000000E+00 0. -1.
         21   -1    0    0  504  502 -0.00000000000E+00 -0.00000000000E+00 -0.70514710577E+02  0.70514710577E+02  0.00000000000E+00 0. -1.
         21    1    1    2  503  501  0.67237527954E+02  0.10967634989E+03  0.15247216512E+03  0.19949322802E+03  0.00000000000E+00 0. -1.
         21    1    1    2  504  503 -0.49575406324E+02 -0.12170830149E+02  0.46821679846E+02  0.69268461238E+02  0.00000000000E+00 0. -1.
         21    1    1    2  505  502 -0.17991204433E+02 -0.28439090261E+02 -0.13332367398E+02  0.36196924071E+02  0.00000000000E+00 0. -1.
         21    1    1    2  506  505  0.32908280285E+00 -0.69066429479E+02  0.97240442852E+02  0.11927272824E+03  0.00000000000E+00 0. -1.
<scales pt_clust_3="14000.00000" pt_clust_4="57.28385" pt_clust_5="33.65212" pt_clust_6="84.72614"></scales>
<clustering>
<clus scale="   33.652">  2  5  1 -1</clus>
<clus scale="   57.284">  2  4  1 -1</clus>
<clus scale="   84.726">  1  6  2 -1</clus>
<clus scale="   84.726">  1  3  2 -1</clus>
</clustering>
</event>
<event>
 6    0  0.8520634E+002  0.1333905E+03  0.7546771E-02  0.1222510E+00
         21   -1    0    0  503  501  0.00000000000E+00  0.00000000000E+00  0.34090884596E+03  0.34090884596E+03  0.00000000000E+00 0.  1.
         21   -1    0    0  505  502 -0.00000000000E+00 -0.00000000000E+00 -0.74929662104E+03  0.74929662104E+03  0.00000000000E+00 0.  1.
         21    1    1    2  503  504 -0.13313898380E+03  0.67921393497E+02  0.18303589250E+03  0.23630794030E+03  0.00000000000E+00 0.  1.
         21    1    1    2  504  502 -0.18964503607E+02 -0.88532052706E+02 -0.23697658178E+03  0.25368381317E+03  0.00000000000E+00 0.  1.
         21    1    1    2  505  506  0.40802887256E+02  0.56787143189E+02 -0.44611030664E+03  0.45155737280E+03  0.00000000000E+00 0.  1.
         21    1    1    2  506  501  0.11130060016E+03 -0.36176483980E+02  0.91663220828E+02  0.14865634073E+03  0.00000000000E+00 0.  1.
<scales pt_clust_3="14000.00000" pt_clust_4="44.54033" pt_clust_5="69.92607" pt_clust_6="133.39049"></scales>
<clustering>
<clus scale="   69.926">  2  5  1 -1</clus>
<clus scale="   44.540">  2  4  1 -1</clus>
<clus scale="  133.390">  2  6  1 -1</clus>
<clus scale="  133.390">  1  3  2 -1</clus>
</clustering>
</event>
<event>
 6    0  0.8520634E+002  0.7498223E+02  0.7546771E-02  0.1343926E+00
         21   -1    0    0  506  501  0.00000000000E+00  0.00000000000E+00  0.26655017295E+03  0.26655017295E+03  0.00000000000E+00 0.  1.
         21   -1    0    0  505  502 -0.00000000000E+00 -0.00000000000E+00 -0.12434279590E+03  0.12434279590E+03  0.00000000000E+00 0.  1.
         21    1    1    2  503  501 -0.43227392329E+02 -0.26069166128E+02  0.10045028548E+03  0.11242094433E+03  0.00000000000E+00 0.  1.
         21    1    1    2  504  502  0.27903060159E+02 -0.34267128521E+02  0.51547792950E+01  0.44490320441E+02  0.00000000000E+00 0.  1.
         21    1    1    2  505  503 -0.81219206607E+02  0.55707353569E+02 -0.44247329150E+02  0.10797080578E+03  0.00000000000E+00 0.  1.
         21    1    1    2  506  504  0.96543538776E+02  0.46289410801E+01  0.80849641422E+02  0.12601089831E+03  0.00000000000E+00 0.  1.
<scales pt_clust_3="50.18780" pt_clust_4="44.19069" pt_clust_5="74.98223" pt_clust_6="14000.00000"></scales>
<clustering>
<clus scale="   44.191">  2  4  1 -1</clus>
<clus scale="   50.188">  1  3  2 -1</clus>
<clus scale="   74.982">  2  5  1 -1</clus>
<clus scale="   50.188">  1  3  2 -1</clus>
</clustering>
</event>
<event>
 6    0  0.8520634E+002  0.1129900E+03  0.7546771E-02  0.1255131E+00
         21   -1    0    0  506  501  0.00000000000E+00  0.00000000000E+00  0.18032124481E+03  0.18032124481E+03  0.00000000000E+00 0.  1.
         21   -1    0    0  505  502 -0.00000000000E+00 -0.00000000000E+00 -0.80639483745E+03  0.80639483745E+03  0.00000000000E+00 0.  1.
         21    1    1    2  503  502  0.51785348688E+02 -0.16603711329E+03 -0.62262768260E+03  0.64646366988E+03  0.00000000000E+00 0.  1.
         21    1    1    2  504  503 -0.62749127543E+02  0.81795333013E+02  0.47763583928E+02  0.11361905412E+03  0.00000000000E+00 0.  1.
         21    1    1    2  505  501 -0.12213873875E+02  0.61978198179E+02 -0.12835698757E+03  0.14305940033E+03  0.00000000000E+00 0.  1.
         21    1    1    2  506  504  0.23177652730E+02  0.22263582098E+02  0.77147493606E+02  0.83573957927E+02  0.00000000000E+00 0.  1.
<scales pt_clust_3="112.99001" pt_clust_4="14000.00000" pt_clust_5="64.47772" pt_clust_6="32.13831"></scales>
<clustering>
<clus scale="   32.138">  1  6  2 -1</clus>
<clus scale="   64.478">  2  5  1 -1</clus>
<clus scale="  112.990">  2  3  1 -1</clus>
<clus scale="   32.138">  1  3  2 -1</clus>
</clustering>
</event>
<event>
 6    0  0.8520634E+002  0.1369739E+03  0.7546771E-02  0.1217460E+00
         21   -1    0    0  503  501  0.00000000000E+00  0.00000000000E+00  0.17499959389E+04  0.17499959389E+04  0.00000000000E+00 0. -1.
         21   -1    0    0  506  502 -0.00000000000E+00 -0.00000000000E+00 -0.58349602913E+02  0.58349602913E+02  0.00000000000E+00 0. -1.
         21    1    1    2  503  504 -0.44851481715E+02  0.35918249060E+02  0.10462364783E+04  0.10478132203E+04  0.00000000000E+00 0. -1.
         21    1    1    2  504  505 -0.78755071914E+02  0.31280615421E+02  0.17641492881E+03  0.19571168938E+03  0.00000000000E+00 0.  1.
         21    1    1    2  505  502  0.18107423474E+03  0.46599016805E+02  0.29064361482E+03  0.34559088195E+03  0.00000000000E+00 0. -1.
         21    1    1    2  506  501 -0.57467681114E+02 -0.11379788129E+03  0.17835131411E+03  0.21922975027E+03  0.00000000000E+00 0. -1.
<scales pt_clust_3="57.46108" pt_clust_4="99.38193" pt_clust_5="136.97391" pt_clust_6="14000.00000"></scales>
<clustering>
<clus scale="   57.461">  1  3  2 -1</clus>
<clus scale="   99.382">  1  4  2 -1</clus>
<clus scale="  136.974">  1  5  2 -1</clus>
<clus scale="   57.461">  1  3  2 -1</clus>
</clustering>
</event>
<event>
 6    0  0.8520634E+002  0.1085243E+03  0.7546771E-02  0.1263327E+00
         21   -1    0    0  506  501  0.00000000000E+00  0.00000000000E+00  0.19820004733E+02  0.19820004733E+02  0.00000000000E+00 0. -1.
         21   -1    0    0  504  502 -0.00000000000E+00 -0.00000000000E+00 -0.17335900838E+04  0.17335900838E+04  0.00000000000E+00 0. -1.
         21    1    1    2  503  505  0.38041126969E+02 -0.94262231851E+02 -0.79713340697E+03  0.80358830517E+03  0.00000000000E+00 0. -1.
         21    1    1    2  504  503  0.71031388943E+02  0.30806120823E+02 -0.51425886705E+03  0.52005447564E+03  0.00000000000E+00 0. -1.
         21    1    1    2  505  501 -0.77479925159E+02  0.79835364024E+02 -0.34247409879E+03  0.36009072814E+03  0.00000000000E+00 0. -1.
         21    1    1    2  506  502 -0.31592590753E+02 -0.16379252995E+02 -0.59903706275E+02  0.69676579599E+02  0.00000000000E+00 0.  1.
<scales pt_clust_3="14000.00000" pt_clust_4="70.53672" pt_clust_5="108.52433" pt_clust_6="35.58612"></scales>
<clustering>
<clus scale="   35.586">  1  6  2 -1</clus>
<clus scale="   70.537">  2  4  1 -1</clus>
<clus scale="  108.524">  1  5  2 -1</clus>
<clus scale="   35.586">  1  3  2 -1</clus>
</clustering>
</event>
<event>
 6    0  0.8520634E+002  0.1521175E+03  0.7546771E-02  0.1197895E+00
         21   -1    0    0  503  501  0.00000000000E+00  0.00000000000E+00  0.40590198943E+03  0.40590198943E+03  0.00000000000E+00 0.  1.
         21   -1    0    0  504  502 -0.00000000000E+00 -0.00000000000E+00 -0.70899942541E+03  0.70899942541E+03  0.00000000000E+00 0.  1.
         21    1    1    2  503  506  0.44144660965E+01 -0.10717665842E+03  0.28413667125E+03  0.30371034156E+03  0.00000000000E+00 0.  1.
         21    1    1    2  504  505  0.53235262478E+02  0.34071039307E+02 -0.20181055116E+02  0.66348352475E+02  0.00000000000E+00 0. -1.
         21    1    1    2  505  501  0.70145276701E+02  0.12039562562E+03  0.21262869802E+02  0.14095238963E+03  0.00000000000E+00 0.  1.
         21    1    1    2  506  502 -0.12779500527E+03 -0.47290006499E+02 -0.58831592192E+03  0.60389033116E+03  0.00000000000E+00 0.  1.
<scales pt_clust_3="107.26753" pt_clust_4="42.00459" pt_clust_5="42.00459" pt_clust_6="138.74444"></scales>
<clustering>
<clus scale="   42.005">  4  5 -1 -1</clus>
<clus scale="  107.268">  1  3  2 -1</clus>
<clus scale="  138.744">  2  6  1 -1</clus>
<clus scale="  107.268">  1  3  2 -1</clus>
</clustering>
</event>
<event>
 6    0  0.8520634E+002  0.7747341E+02  0.7546771E-02  0.1336378E+00
         21   -1    0    0  503  501  0.00000000000E+00  0.00000000000E+00  0.69356830604E+02  0.69356830604E+02  0.00000000000E+00 0. -1.
         21   -1    0    0  506  502 -0.00000000000E+00 -0.00000000000E+00 -0.44418002607E+03  0.44418002607E+03  0.00000000000E+00 0.  1.
         21    1    1    2  503  504 -0.96816595011E+02 -0.41061875254E+02 -0.20653641380E+02  0.10717324093E+03  0.00000000000E+00 0. -1.
         21    1    1    2  504  502  0.93034698354E+02 -0.76357234163E+01 -0.27107118961E+03  0.28669382485E+03  0.00000000000E+00 0.  1.
         21    1    1    2  505  501  0.32447150016E+02  0.29760926937E+02 -0.21178323434E+02  0.48857463092E+02  0.00000000000E+00 0.  1.
         21    1    1    2  506  505 -0.28665253359E+02  0.18936671734E+02 -0.61920041040E+02  0.70812327803E+02  0.00000000000E+00 0.  1.
<scales pt_clust_3="14000.00000" pt_clust_4="77.47341" pt_clust_5="43.36733" pt_clust_6="34.35541"></scales>
<clustering>
<clus scale="   34.355">  2  6  1 -1</clus>
<clus scale="   43.367">  1  5  2 -1</clus>
<clus scale="   77.473">  2  4  1 -1</clus>
<clus scale="   43.367">  1  3  2 -1</clus>
</clustering>
</event>
<event>
 6    0  0.8520634E+002  0.8232308E+02  0.7546771E-02  0.1322585E+00
         21   -1    0    0  506  501  0.00000000000E+00  0.00000000000E+00  0.10780398528E+04  0.10780398528E+04  0.00000000000E+00 0.  1.
         21   -1    0    0  503  502 -0.00000000000E+00 -0.00000000000E+00 -0.49944809720E+03  0.49944809720E+03  0.00000000000E+00 0. -1.
         21    1    1    2  503  505 -0.29773166971E+02 -0.41374211679E+02 -0.12928592081E+03  0.13897163805E+03  0.00000000000E+00 0. -1.
         21    1    1    2  504  502  0.14109343100E+02  0.39320963122E+02 -0.39419898300E+02  0.57438141383E+02  0.00000000000E+00 0. -1.
         21    1    1    2  505  501  0.78345231656E+02 -0.51231942899E+02 -0.30834171954E+03  0.32223796068E+03  0.00000000000E+00 0. -1.
         21    1    1    2  506  504 -0.62681407785E+02  0.53285191457E+02  0.10556392943E+04  0.10588402099E+04  0.00000000000E+00 0.  1.
<scales pt_clust_3="39.18069" pt_clust_4="41.77573" pt_clust_5="14000.00000" pt_clust_6="82.32308"></scales>
<clustering>
<clus scale="   41.776">  2  4  1 -1</clus>
<clus scale="   39.181">  2  3  1 -1</clus>
<clus scale="   82.323">  1  6  2 -1</clus>
<clus scale="   82.323">  1  3  2 -1</clus>
</clustering>
</event>
<event>
 6    0  0.8520634E+002  0.8754913E+02  0.7546771E-02  0.1308898E+00
         21   -1    0    0  506  501  0.00000000000E+00  0.00000000000E+00  0.11261412492E+03  0.11261412492E+03  0.00000000000E+00 0.  1.
         21   -1    0    0  504  502 -0.00000000000E+00 -0.00000000000E+00 -0.84756225578E+03  0.84756225578E+03  0.00000000000E+00 0.  1.
         21    1    1    2  503  502 -0.46563524638E+02 -0.79453886723E+02 -0.32729012428E+02  0.97735716075E+02  0.00000000000E+00 0.  1.
         21    1    1    2  504  501 -0.11724984305E+02  0.87858703038E+02 -0.75201078636E+03  0.75721651445E+03  0.00000000000E+00 0.  1.
         21    1    1    2  505  503  0.42776684715E+02  0.18927342528E+02  0.51620561117E+00  0.46779862319E+02  0.00000000000E+00 0.  1.
         21    1    1    2  506  505  0.15511824228E+02 -0.27332158843E+02  0.49275462310E+02  0.58444287863E+02  0.00000000000E+00 0.  1.
<scales pt_clust_3="14000.00000" pt_clust_4="87.54913" pt_clust_5="49.65675" pt_clust_6="31.42712"></scales>
<clustering>
<clus scale="   31.427">  1  6  2 -1</clus>
<clus scale="   49.657">  1  5  2 -1</clus>
<clus scale="   87.549">  2  4  1 -1</clus>
<clus scale="   31.427">  1  3  2 -1</clus>
</clustering>
</event>
<event>
 6    0  0.8520634E+002  0.1051998E+03  0.7546771E-02  0.1269727E+00
         21   -1    0    0  504  501  0.00000000000E+00  0.00000000000E+00  0.10125933897E+04  0.10125933897E+04  0.00000000000E+00 0.  1.
         21   -1    0    0  505  502 -0.00000000000E+00 -0.00000000000E+00 -0.65376208763E+02  0.65376208763E+02  0.00000000000E+00 0.  1.
         21    1    1    2  503  501  0.92165996580E+02 -0.71367329758E+02  0.22460198432E+03  0.25304924035E+03  0.00000000000E+00 0.  1.
         21    1    1    2  504  506 -0.57092759509E+02  0.86097887033E+02  0.65830483783E+03  0.66636153014E+03  0.00000000000E+00 0.  1.
         21    1    1    2  505  503  0.38372025598E+02 -0.14643913995E+02 -0.20884341843E+02  0.46076157607E+02  0.00000000000E+00 0.  1.
         21    1    1    2  506  502 -0.73445262669E+02 -0.86643279397E-01  0.85194700604E+02  0.11248267034E+03  0.00000000000E+00 0.  1.
<scales pt_clust_3="105.19976" pt_clust_4="14000.00000" pt_clust_5="41.07136" pt_clust_6="57.38355"></scales>
<clustering>
<clus scale="   41.071">  2  5  1 -1</clus>
<clus scale="   57.384">  2  6  1 -1</clus>
<clus scale="  105.200">  2  3  1 -1</clus>
<clus scale="  105.200">  1  3  2 -1</clus>
</clustering>
</event>
<event>
 6    0  0.8520634E+002  0.1431597E+03  0.7546771E-02  0.1209139E+00
         21   -1    0    0  503  501  0.00000000000E+00  0.00000000000E+00  0.93764444289E+02  0.93764444289E+02  0.00000000000E+00 0.  1.
         21   -1    0    0  504  502 -0.00000000000E+00 -0.00000000000E+00 -0.10712238836E+04  0.10712238836E+04  0.00000000000E+00 0.  1.
         21    1    1    2  503  505  0.67729433603E+01  0.36834603602E+02  0.49316370584E+02  0.61925480958E+02  0.00000000000E+00 0.  1.
         21    1    1    2  504  501  0.53211298903E+01 -0.68864614279E+02 -0.52757564795E+02  0.86913808835E+02  0.00000000000E+00 0.  1.
         21    1    1    2  505  506 -0.73512196111E+02  0.14404593180E+03 -0.55708290887E+03  0.58008158116E+03  0.00000000000E+00 0.  1.
         21    1    1    2  506  502  0.61418122861E+02 -0.11201592113E+03 -0.41693533627E+03  0.43606745697E+03  0.00000000000E+00 0.  1.
<scales pt_clust_3="37.45211" pt_clust_4="53.03457" pt_clust_5="143.15970" pt_clust_6="14000.00000"></scales>
<clustering>
<clus scale="   37.452">  1  3  2 -1</clus>
<clus scale="   53.035">  1  4  2 -1</clus>
<clus scale="  143.160">  1  5  2 -1</clus>
<clus scale="   37.452">  1  3  2 -1</clus>
</clustering>
</event>
<event>
 6    0  0.8520634E+002  0.1394791E+03  0.7546771E-02  0.1214032E+00
         21   -1    0    0  503  501  0.00000000000E+00  0.00000000000E+00  0.10606363564E+04  0.10606363564E+04  0.00000000000E+00 0.  1.
         21   -1    0    0  504  502 -0.00000000000E+00 -0.00000000000E+00 -0.22297731062E+03  0.22297731062E+03  0.00000000000E+00 0. -1.
         21    1    1    2  503  505 -0.27349884235E+02  0.29554656332E+02  0.57676913955E+02  0.70342876554E+02  0.00000000000E+00 0. -1.
         21    1    1    2  504  506  0.14012955092E+03 -0.22693585129E+02 -0.18055248360E+03  0.22967474651E+03  0.00000000000E+00 0. -1.
         21    1    1    2  505  502 -0.62485604816E+02 -0.43682951877E+02  0.12986280952E+03  0.15058884551E+03  0.00000000000E+00 0. -1.
         21    1    1    2  506  501 -0.50294061873E+02  0.36821880675E+02  0.83067180589E+03  0.83300719844E+03  0.00000000000E+00 0.  1.
<scales pt_clust_3="40.26778" pt_clust_4="139.47908" pt_clust_5="77.21632" pt_clust_6="14000.00000"></scales>
<clustering>
<clus scale="   40.268">  1  3  2 -1</clus>
<clus scale="   77.216">  1  5  2 -1</clus>
<clus scale="  139.479">  2  4  1 -1</clus>
<clus scale="   40.268">  1  3  2 -1</clus>
</clustering>
</event>
<event>
 6    0  0.8520634E+002  0.1336710E+03  0.7546771E-02  0.1222108E+00
         21   -1    0    0  505  501  0.00000000000E+00  0.00000000000E+00  0.46413488086E+03  0.46413488086E+03  0.00000000000E+00 0.  1.
         21   -1    0    0  506  502 -0.00000000000E+00 -0.00000000000E+00 -0.55583826689E+02  0.55583826689E+02  0.00000000000E+00 0.  1.
         21    1    1    2  503  501 -0.42583929993E+02  0.70814519190E+02  0.11051699902E+03  0.13799309510E+03  0.00000000000E+00 0.  1.
         21    1    1    2  504  502  0.26175189083E+02 -0.11342457665E+03  0.11003071273E+03  0.16017812852E+03  0.00000000000E+00 0.  1.
         21    1    1    2  505  504  0.23662675929E+02 -0.25342212967E+02  0.12089352827E+03  0.12576722613E+03  0.00000000000E+00 0.  1.
         21    1    1    2  506  503 -0.72539350196E+01  0.67952270430E+02  0.67109814144E+02  0.95780257801E+02  0.00000000000E+00 0.  1.
<scales pt_clust_3="33.52070" pt_clust_4="128.48845" pt_clust_5="34.67203" pt_clust_6="33.52070"></scales>
<clustering>
<clus scale="   33.521">  3  6 -1 -1</clus>
<clus scale="   34.672">  1  5  2 -1</clus>
<clus scale="  128.488">  2  4  1 -1</clus>
<clus scale="   34.672">  1  3  2 -1</clus>
</clustering>
</event>
<event>
 6    0  0.8520634E+002  0.2078439E+03  0.7546771E-02  0.1143285E+00
         21   -1    0    0  506  501  0.00000000000E+00  0.00000000000E+00  0.40249378714E+03  0.40249378714E+03  0.00000000000E+00 0.  1.
         21   -1    0    0  504  502 -0.00000000000E+00 -0.00000000000E+00 -0.24393639508E+03  0.24393639508E+03  0.00000000000E+00 0.  1.
         21    1    1    2  503  502  0.13867350501E+03 -0.29081858676E+02 -0.97126348112E+02  0.17178365171E+03  0.00000000000E+00 0.  1.
         21    1    1    2  504  501  0.67069155248E+02  0.11132684830E+03  0.32881126489E+00  0.12996940738E+03  0.00000000000E+00 0.  1.
         21    1    1    2  505  503 -0.28616937597E+02 -0.30832613741E+02  0.78965318738E+02  0.89471228621E+02  0.00000000000E+00 0.  1.
         21    1    1    2  506  505 -0.17712572266E+03 -0.51412375878E+02  0.17638961017E+03  0.25520589452E+03  0.00000000000E+00 0.  1.
<scales pt_clust_3="196.71596" pt_clust_4="129.96899" pt_clust_5="32.04366" pt_clust_6="32.04366"></scales>
<clustering>
<clus scale="   32.044">  5  6 -1 -1</clus>
<clus scale="  129.969">  2  4  1 -1</clus>
<clus scale="  196.716">  2  3  1 -1</clus>
<clus scale="  207.844">  1  3  2 -1</clus>
</clustering>
</event>
<event>
 6    0  0.8520634E+002  0.1367559E+03  0.7546771E-02  0.1217762E+00
         21   -1    0    0  503  501  0.00000000000E+00  0.00000000000E+00  0.11757309227E+03  0.11757309227E+03  0.00000000000E+00 0. -1.
         21   -1    0    0  505  502 -0.00000000000E+00 -0.00000000000E+00 -0.77225864214E+03  0.77225864214E+03  0.00000000000E+00 0. -1.
         21    1    1    2  503  504  0.66758843170E+02  0.24557767009E+02  0.34583486568E+02  0.79093897395E+02  0.00000000000E+00 0. -1.
         21    1    1    2  504  502  0.37440580747E+02  0.12003432396E+03 -0.35481315103E+03  0.37643380316E+03  0.00000000000E+00 0. -1.
         21    1    1    2  505  506 -0.75135271211E+02 -0.13518747498E+03 -0.36169506785E+03  0.39337550061E+03  0.00000000000E+00 0. -1.
         21    1    1    2  506  501 -0.29064152706E+02 -0.94046159924E+01  0.27239182441E+02  0.40928533257E+02  0.00000000000E+00 0. -1.
<scales pt_clust_3="50.35874" pt_clust_4="136.75585" pt_clust_5="14000.00000" pt_clust_6="30.54786"></scales>
<clustering>
<clus scale="   30.548">  1  6  2 -1</clus>
<clus scale="   50.359">  1  3  2 -1</clus>
<clus scale="  136.756">  2  4  1 -1</clus>
<clus scale="   30.548">  1  3  2 -1</clus>
</clustering>
</event>
<event>
 6    0  0.8520634E+002  0.8127887E+02  0.7546771E-02  0.1325461E+00
         21   -1    0    0  504  501  0.00000000000E+00  0.00000000000E+00  0.12396067332E+04  0.12396067332E+04  0.00000000000E+00 0.  1.
         21   -1    0    0  506  502 -0.00000000000E+00 -0.00000000000E+00 -0.32731740129E+02  0.32731740129E+02  0.00000000000E+00 0.  1.
         21    1    1    2  503  501  0.40541810425E+01  0.75141497956E+02  0.15994451591E+03  0.17676235252E+03  0.00000000000E+00 0.  1.
         21    1    1    2  504  505  0.41547893434E+02 -0.36627066778E+02  0.58178217630E+03  0.58441275664E+03  0.00000000000E+00 0.  1.
         21    1    1    2  505  502 -0.66340264210E+02  0.45019197189E+02  0.38598727506E+03  0.39422574152E+03  0.00000000000E+00 0.  1.
         21    1    1    2  506  503  0.20738189733E+02 -0.83533628367E+02  0.79161025783E+02  0.11693762262E+03  0.00000000000E+00 0.  1.
<scales pt_clust_3="81.27887" pt_clust_4="55.38745" pt_clust_5="47.70405" pt_clust_6="14000.00000"></scales>
<clustering>
<clus scale="   55.387">  1  4  2 -1</clus>
<clus scale="   47.704">  1  5  2 -1</clus>
<clus scale="   81.279">  1  3  2 -1</clus>
<clus scale="   55.387">  1  3  2 -1</clus>
</clustering>
</event>
<event>
 6    0  0.8520634E+002  0.1309781E+03  0.7546771E-02  0.1226012E+00
         21   -1    0    0  506  501  0.00000000000E+00  0.00000000000E+00  0.18008848599E+04  0.18008848599E+04  0.00000000000E+00 0. -1.
         21   -1    0    0  503  502 -0.00000000000E+00 -0.00000000000E+00 -0.51912569011E+03  0.51912569011E+03  0.00000000000E+00 0.  1.
         21    1    1    2  503  501 -0.53536009327E+02 -0.40935292193E+02 -0.14393628151E+03  0.15893223580E+03  0.00000000000E+00 0.  1.
         21    1    1    2  504  505 -0.57787914719E+01  0.86252536422E+02  0.90713511252E+03  0.91124475682E+03  0.00000000000E+00 0. -1.
         21    1    1    2  505  502  0.14118164444E+03 -0.58397682850E+02 -0.34761024468E+03  0.37970439594E+03  0.00000000000E+00 0.  1.
         21    1    1    2  506  504 -0.81866843646E+02  0.13080438620E+02  0.86617058346E+03  0.87012916146E+03  0.00000000000E+00 0. -1.
<scales pt_clust_3="67.39290" pt_clust_4="130.97814" pt_clust_5="14000.00000" pt_clust_6="83.15546"></scales>
<clustering>
<clus scale="   67.393">  2  3  1 -1</clus>
<clus scale="   83.155">  1  6  2 -1</clus>
<clus scale="  130.978">  1  4  2 -1</clus>
<clus scale="   83.155">  1  3  2 -1</clus>
</clustering>
</event>
<event>
 6    0  0.8520634E+002  0.1113419E+03  0.7546771E-02  0.1258105E+00
         21   -1    0    0  504  501  0.00000000000E+00  0.00000000000E+00  0.29326784101E+03  0.29326784101E+03  0.00000000000E+00 0. -1.
         21   -1    0    0  505  502 -0.00000000000E+00 -0.00000000000E+00 -0.34744008020E+03  0.34744008020E+03  0.00000000000E+00 0.  1.
         21    1    1    2  503  502 -0.84731844380E+02 -0.43633064739E+02 -0.27635074106E+03  0.29232355682E+03  0.00000000000E+00 0.  1.
         21    1    1    2  504  506 -0.11714259121E+02  0.38609119123E+02  0.13885633031E+03  0.14459933752E+03  0.00000000000E+00 0. -1.
         21    1    1    2  505  501 -0.29420064299E+01 -0.30112567136E+02 -0.34366673310E+02  0.45787447360E+02  0.00000000000E+00 0. -1.
         21    1    1    2  506  503  0.99388109931E+02  0.35136512752E+02  0.11768884487E+03  0.15799757951E+03  0.00000000000E+00 0. -1.
<scales pt_clust_3="14000.00000" pt_clust_4="40.08601" pt_clust_5="30.25594" pt_clust_6="111.34190"></scales>
<clustering>
<clus scale="   30.256">  2  5  1 -1</clus>
<clus scale="   40.086">  1  4  2 -1</clus>
<clus scale="  111.342">  1  6  2 -1</clus>
<clus scale="   40.086">  1  3  2 -1</clus>
</clustering>
</event>
<event>
 6    0  0.8520634E+002  0.7162017E+02  0.7546771E-02  0.1354669E+00
         21   -1    0    0  505  501  0.00000000000E+00  0.00000000000E+00  0.53590198285E+02  0.53590198285E+02  0.00000000000E+00 0.  1.
         21   -1    0    0  503  502 -0.00000000000E+00 -0.00000000000E+00 -0.22876536962E+04  0.22876536962E+04  0.00000000000E+00 0.  1.
         21    1    1    2  503  506  0.52739004235E+02 -0.34215745993E+02 -0.13333009269E+04  0.13347821851E+04  0.00000000000E+00 0.  1.
         21    1    1    2  504  502 -0.98321736450E+02  0.56448677901E+02 -0.90881384224E+03  0.91585818604E+03  0.00000000000E+00 0.  1.
         21    1    1    2  505  504  0.40707401950E+02  0.11237010226E+02  0.28622588622E+02  0.51015836284E+02  0.00000000000E+00 0.  1.
         21    1    1    2  506  501  0.48753302655E+01 -0.33469942134E+02 -0.20571317400E+02  0.39587687117E+02  0.00000000000E+00 0.  1.
<scales pt_clust_3="71.62017" pt_clust_4="14000.00000" pt_clust_5="48.94781" pt_clust_6="33.82316"></scales>
<clustering>
<clus scale="   33.823">  1  6  2 -1</clus>
<clus scale="   48.948">  1  5  2 -1</clus>
<clus scale="   71.620">  2  3  1 -1</clus>
<clus scale="   33.823">  1  3  2 -1</clus>
</clustering>
</event>
<event>
 6    0  0.8520634E+002  0.8947197E+02  0.7546771E-02  0.1304135E+00
         21   -1    0    0  503  501  0.00000000000E+00  0.00000000000E+00  0.95679470474E+01  0.95679470474E+01  0.00000000000E+00 0. -1.
         21   -1    0    0  504  502 -0.00000000000E+00 -0.00000000000E+00 -0.24540009828E+04  0.24540009828E+04  0.00000000000E+00 0. -1.
         21    1    1    2  503  505  0.23802723099E+02 -0.32228223968E+02 -0.14333689746E+03  0.14883109292E+03  0.00000000000E+00 0.  1.
         21    1    1    2  504  506  0.41358877887E+01 -0.29750806703E+02 -0.76547586174E+03  0.76606495219E+03  0.00000000000E+00 0. -1.
         21    1    1    2  505  502  0.78890428803E+02  0.23260390356E+02 -0.81629799928E+03  0.82043108738E+03  0.00000000000E+00 0. -1.
         21    1    1    2  506  501 -0.10682903969E+03  0.38718640315E+02 -0.71932227725E+03  0.72824179733E+03  0.00000000000E+00 0. -1.
<scales pt_clust_3="42.36691" pt_clust_4="30.03691" pt_clust_5="14000.00000" pt_clust_6="89.47197"></scales>
<clustering>
<clus scale="   30.037">  2  4  1 -1</clus>
<clus scale="   42.367">  1  3  2 -1</clus>
<clus scale="   89.472">  1  6  2 -1</clus>
<clus scale="   42.367">  1  3  2 -1</clus>
</clustering>
</event>
<event>
 6    0  0.8520634E+002  0.8704073E+02  0.7546771E-02  0.1310180E+00
         21   -1    0    0  504  501  0.00000000000E+00  0.00000000000E+00  0.32963115479E+03  0.32963115479E+03  0.00000000000E+00 0.  1.
         21   -1    0    0  505  502 -0.00000000000E+00 -0.00000000000E+00 -0.16901370103E+03  0.16901370103E+03  0.00000000000E+00 0.  1.
         21    1    1    2  503  501 -0.10673765881E+01  0.50261490336E+02  0.23135033395E+03  0.23674951683E+03  0.00000000000E+00 0.  1.
         21    1    1    2  504  506 -0.67376325463E+02  0.26054976177E+02  0.27663712498E+02  0.77354456922E+02  0.00000000000E+00 0.  1.
         21    1    1    2  505  503  0.39696158312E+02 -0.99154417424E+02 -0.10195260874E+03  0.14765404806E+03  0.00000000000E+00 0.  1.
         21    1    1    2  506  502  0.28747543739E+02  0.22837950910E+02  0.35560160573E+01  0.36886834006E+02  0.00000000000E+00 0.  1.
<scales pt_clust_3="50.66925" pt_clust_4="87.04073" pt_clust_5="14000.00000" pt_clust_6="36.71503"></scales>
<clustering>
<clus scale="   36.715">  2  6  1 -1</clus>
<clus scale="   50.669">  1  3  2 -1</clus>
<clus scale="   87.041">  1  4  2 -1</clus>
<clus scale="   50.669">  1  3  2 -1</clus>
</clustering>
</event>
<event>
 6    0  0.8520634E+002  0.1452592E+03  0.7546771E-02  0.1206423E+00
         21   -1    0    0  504  501  0.00000000000E+00  0.00000000000E+00  0.14854184623E+04  0.14854184623E+04  0.00000000000E+00 0. -1.
         21   -1    0    0  503  502 -0.00000000000E+00 -0.00000000000E+00 -0.65344919711E+02  0.65344919711E+02  0.00000000000E+00 0.  1.
         21    1    1    2  503  505  0.12879984633E+03 -0.89621714166E+02  0.72387151280E+02  0.17280437418E+03  0.00000000000E+00 0.  1.
         21    1    1    2  504  502  0.12545589027E+02  0.62543862145E+02  0.15071780581E+03  0.16366118503E+03  0.00000000000E+00 0.  1.
         21    1    1    2  505  506 -0.10990389113E+03  0.29732033125E+02  0.37926936712E+03  0.39599004017E+03  0.00000000000E+00 0.  1.
         21    1    1    2  506  501 -0.31441544230E+02 -0.26541811045E+01  0.81769921833E+03  0.81830778259E+03  0.00000000000E+00 0. -1.
<scales pt_clust_3="145.25918" pt_clust_4="62.13176" pt_clust_5="14000.00000" pt_clust_6="31.55337"></scales>
<clustering>
<clus scale="   31.553">  1  6  2 -1</clus>
<clus scale="   62.132">  1  4  2 -1</clus>
<clus scale="  145.259">  2  3  1 -1</clus>
<clus scale="   31.553">  1  3  2 -1</clus>
</clustering>
</event>
<event>
 6    0  0.8520634E+002  0.2826623E+03  0.7546771E-02  0.1094244E+00
         21   -1    0    0  503  501  0.00000000000E+00  0.00000000000E+00  0.12411285390E+04  0.12411285390E+04  0.00000000000E+00 0.  1.
         21   -1    0    0  505  502 -0.00000000000E+00 -0.00000000000E+00 -0.50814991848E+03  0.50814991848E+03  0.00000000000E+00 0. -1.
         21    1    1    2  503  506 -0.91646494533E+02  0.46047061861E+02  0.10502494487E+04  0.10552456190E+04  0.00000000000E+00 0.  1.
         21    1    1    2  504  501 -0.66833714670E+02 -0.20752608887E+03  0.21371113000E+02  0.21906744955E+03  0.00000000000E+00 0. -1.
         21    1    1    2  505  504  0.19472677306E+02 -0.61914361026E+02 -0.37053859863E+02  0.74736616150E+02  0.00000000000E+00 0. -1.
         21    1    1    2  506  502  0.13900753190E+03  0.22339338804E+03 -0.30158808136E+03  0.40022877278E+03  0.00000000000E+00 0. -1.
<scales pt_clust_3="102.56418" pt_clust_4="57.82914" pt_clust_5="57.82914" pt_clust_6="262.03881"></scales>
<clustering>
<clus scale="   57.829">  4  5 -1 -1</clus>
<clus scale="  102.564">  1  3  2 -1</clus>
<clus scale="  262.039">  2  6  1 -1</clus>
<clus scale="  102.564">  1  3  2 -1</clus>
</clustering>
</event>
<event>
 6    0  0.8520634E+002  0.9121625E+02  0.7546771E-02  0.1299933E+00
         21   -1    0    0  504  501  0.00000000000E+00  0.00000000000E+00  0.27375260905E+03  0.27375260905E+03  0.00000000000E+00 0.  1.
         21   -1    0    0  505  502 -0.00000000000E+00 -0.00000000000E+00 -0.29237209270E+04  0.29237209270E+04  0.00000000000E+00 0.  1.
         21    1    1    2  503  501 -0.32709903952E+02 -0.85106589349E+02  0.20711772032E+03  0.22629807652E+03  0.00000000000E+00 0.  1.
         21    1    1    2  504  502 -0.46556858896E+02 -0.23870004423E+02 -0.25938839669E+04  0.25944115618E+04  0.00000000000E+00 0.  1.
         21    1    1    2  505  506  0.33422651771E+01  0.42463194649E+02 -0.27211893425E+03  0.27543240190E+03  0.00000000000E+00 0.  1.
         21    1    1    2  506  503  0.75924497670E+02  0.66513399123E+02  0.89168628611E+01  0.10133149586E+03  0.00000000000E+00 0.  1.
<scales pt_clust_3="14000.00000" pt_clust_4="46.76373" pt_clust_5="42.59453" pt_clust_6="91.21625"></scales>
<clustering>
<clus scale="   42.595">  2  5  1 -1</clus>
<clus scale="   46.764">  2  4  1 -1</clus>
<clus scale="   91.216">  2  6  1 -1</clus>
<clus scale="   91.216">  1  3  2 -1</clus>
</clustering>
</event>
<event>
 6    0  0.8520634E+002  0.7468602E+02  0.7546771E-02  0.1344846E+00
         21   -1    0    0  506  501  0.00000000000E+00  0.00000000000E+00  0.88692812449E+02  0.88692812449E+02  0.00000000000E+00 0. -1.
         21   -1    0    0  503  502 -0.00000000000E+00 -0.00000000000E+00 -0.28000795090E+03  0.28000795090E+03  0.00000000000E+00 0. -1.
         21    1    1    2  503  504  0.49331999883E+02  0.29501830149E+02 -0.62505324551E+02  0.84917134854E+02  0.00000000000E+00 0. -1.
         21    1    1    2  504  501  0.47443429563E+02  0.38969926497E+02  0.59215618559E+01  0.61681432171E+02  0.00000000000E+00 0. -1.
         21    1    1    2  505  502 -0.23871883915E+02  0.29656501517E+02 -0.79116894502E+02  0.87800102048E+02  0.00000000000E+00 0. -1.
         21    1    1    2  506  505 -0.72903545530E+02 -0.98128258163E+02 -0.55614481249E+02  0.13430209427E+03  0.00000000000E+00 0. -1.
<scales pt_clust_3="57.27818" pt_clust_4="14000.00000" pt_clust_5="38.07066" pt_clust_6="74.68602"></scales>
<clustering>
<clus scale="   38.071">  2  5  1 -1</clus>
<clus scale="   57.278">  2  3  1 -1</clus>
<clus scale="   74.686">  2  6  1 -1</clus>
<clus scale="   74.686">  1  3  2 -1</clus>
</clustering>
</event>
<event>
 6    0  0.8520634E+002  0.7946686E+02  0.7546771E-02  0.1330571E+00
         21   -1    0    0  503  501  0.00000000000E+00  0.00000000000E+00  0.15018688016E+03  0.15018688016E+03  0.00000000000E+00 0. -1.
         21   -1    0    0  505  502 -0.00000000000E+00 -0.00000000000E+00 -0.83024217605E+03  0.83024217605E+03  0.00000000000E+00 0. -1.
         21    1    1    2  503  506  0.10023484833E+03 -0.48338910276E+02 -0.16079182213E+01  0.11129357784E+03  0.00000000000E+00 0. -1.
         21    1    1    2  504  501 -0.17229244798E+02  0.56527815091E+02  0.54369591502E+02  0.80301265466E+02  0.00000000000E+00 0. -1.
         21    1    1    2  505  504 -0.57181513054E+02  0.14038183417E+02 -0.37791906309E+01  0.59000663646E+02  0.00000000000E+00 0. -1.
         21    1    1    2  506  502 -0.25824090477E+02 -0.22227088232E+02 -0.72903777854E+03  0.72983354927E+03  0.00000000000E+00 0. -1.
<scales pt_clust_3="14000.00000" pt_clust_4="57.46903" pt_clust_5="79.46686" pt_clust_6="34.07238"></scales>
<clustering>
<clus scale="   34.072">  2  6  1 -1</clus>
<clus scale="   57.469">  1  4  2 -1</clus>
<clus scale="   79.467">  2  5  1 -1</clus>
<clus scale="   57.469">  1  3  2 -1</clus>
</clustering>
</event>
<event>
 6    0  0.8520634E+002  0.6268449E+02  0.7546771E-02  0.1386899E+00
         21   -1    0    0  504  501  0.00000000000E+00  0.00000000000E+00  0.96776153369E+03  0.96776153369E+03  0.00000000000E+00 0.  1.
         21   -1    0    0  503  502 -0.00000000000E+00 -0.00000000000E+00 -0.88244501991E+02  0.88244501991E+02  0.00000000000E+00 0.  1.
         21    1    1    2  503  505  0.49627772280E+02 -0.35613981832E+02  0.30529020370E+02  0.68288304768E+02  0.00000000000E+00 0.  1.
         21    1    1    2  504  506 -0.43402719745E+02  0.37001102269E+02  0.15515985995E+03  0.16531019264E+03  0.00000000000E+00 0. -1.
         21    1    1    2  505  501  0.55262540285E+00 -0.70637088368E+02  0.73709459775E+03  0.74047170755E+03  0.00000000000E+00 0.  1.
         21    1    1    2  506  502 -0.67776779378E+01  0.69249967932E+02 -0.43266446364E+02  0.81935830732E+02  0.00000000000E+00 0.  1.
<scales pt_clust_3="62.68449" pt_clust_4="57.03400" pt_clust_5="53.72461" pt_clust_6="14000.00000"></scales>
<clustering>
<clus scale="   57.034">  1  4  2 -1</clus>
<clus scale="   53.725">  1  5  2 -1</clus>
<clus scale="   62.684">  1  3  2 -1</clus>
<clus scale="   57.034">  1  3  2 -1</clus>
</clustering>
</event>
<event>
 6    0  0.8520634E+002  0.1309883E+03  0.7546771E-02  0.1225997E+00
         21   -1    0    0  505  501  0.00000000000E+00  0.00000000000E+00  0.60967964063E+03  0.60967964063E+03  0.00000000000E+00 0. -1.
         21   -1    0    0  504  502 -0.00000000000E+00 -0.00000000000E+00 -0.16311710877E+04  0.16311710877E+04  0.00000000000E+00 0.  1.
         21    1    1    2  503  502  0.20072541319E+03 -0.17549596538E+02 -0.76886454030E+03  0.79482788148E+03  0.00000000000E+00 0.  1.
         21    1    1    2  504  506 -0.10636802102E+03  0.32644073686E+02 -0.81312281440E+03  0.82070000776E+03  0.00000000000E+00 0.  1.
         21    1    1    2  505  503  0.50750198322E+02 -0.59495871338E+02  0.50164127518E+02  0.92907378747E+02  0.00000000000E+00 0. -1.
         21    1    1    2  506  501 -0.14510759050E+03  0.44401394190E+02  0.51033178011E+03  0.53241546034E+03  0.00000000000E+00 0. -1.
<scales pt_clust_3="130.98835" pt_clust_4="14000.00000" pt_clust_5="78.20065" pt_clust_6="96.84826"></scales>
<clustering>
<clus scale="   78.201">  1  5  2 -1</clus>
<clus scale="   96.848">  1  6  2 -1</clus>
<clus scale="  130.988">  1  3  2 -1</clus>
<clus scale="   78.201">  1  3  2 -1</clus>
</clustering>
</event>
<event>
 6    0  0.8520634E+002  0.1516125E+03  0.7546771E-02  0.1198505E+00
         21   -1    0    0  503  501  0.00000000000E+00  0.00000000000E+00  0.19135250089E+04  0.19135250089E+04  0.00000000000E+00 0. -1.
         21   -1    0    0  504  502 -0.00000000000E+00 -0.00000000000E+00 -0.14808928538E+03  0.14808928538E+03  0.00000000000E+00 0. -1.
         21    1    1    2  503  506  0.18015319629E+03 -0.12152882919E+03  0.88817798007E+03  0.91437659350E+03  0.00000000000E+00 0. -1.
         21    1    1    2  504  501 -0.69303093765E+02  0.22694990301E+02  0.94429232091E+03  0.94710399045E+03  0.00000000000E+00 0. -1.
         21    1    1    2  505  502  0.17340172278E+02  0.47309488329E+02 -0.19459251184E+02  0.54014180705E+02  0.00000000000E+00 0.  1.
         21    1    1    2  506  505 -0.12819027480E+03  0.51524350557E+02 -0.47575326324E+02  0.14611952959E+03  0.00000000000E+00 0. -1.
<scales pt_clust_3="151.61248" pt_clust_4="72.90510" pt_clust_5="50.38719" pt_clust_6="14000.00000"></scales>
<clustering>
<clus scale="   50.387">  2  5  1 -1</clus>
<clus scale="   72.905">  1  4  2 -1</clus>
<clus scale="  151.612">  1  3  2 -1</clus>
<clus scale="   72.905">  1  3  2 -1</clus>
</clustering>
</event>
<event>
 6    0  0.8520634E+002  0.1293205E+03  0.7546771E-02  0.1228468E+00
         21   -1    0    0  505  501  0.00000000000E+00  0.00000000000E+00  0.54946285304E+03  0.54946285304E+03  0.00000000000E+00 0. -1.
         21   -1    0    0  503  502 -0.00000000000E+00 -0.00000000000E+00 -0.57443533721E+02  0.57443533721E+02  0.00000000000E+00 0. -1.
         21    1    1    2  503  501  0.29319891702E+02 -0.22388523955E+02  0.57803633022E+02  0.68572312524E+02  0.00000000000E+00 0. -1.
         21    1    1    2  504  506  0.11279715336E+03  0.43998865616E+02  0.94988383147E+02  0.15388921637E+03  0.00000000000E+00 0. -1.
         21    1    1    2  505  504 -0.13359975786E+03 -0.51604158043E+02  0.31097064966E+03  0.34236622114E+03  0.00000000000E+00 0. -1.
         21    1    1    2  506  502 -0.85172872078E+01  0.29993816382E+02  0.28256653495E+02  0.42078636733E+02  0.00000000000E+00 0. -1.
<scales pt_clust_3="34.28730" pt_clust_4="129.32048" pt_clust_5="14000.00000" pt_clust_6="31.17969"></scales>
<clustering>
<clus scale="   31.180">  2  6  1 -1</clus>
<clus scale="   34.287">  1  3  2 -1</clus>
<clus scale="  129.320">  2  4  1 -1</clus>
<clus scale="   34.287">  1  3  2 -1</clus>
</clustering>
</event>
<event>
 6    0  0.8520634E+002  0.1456239E+03  0.7546771E-02  0.1205956E+00
         21   -1    0    0  505  501  0.00000000000E+00  0.00000000000E+00  0.23808930552E+03  0.23808930552E+03  0.00000000000E+00 0. -1.
         21   -1    0    0  504  502 -0.00000000000E+00 -0.00000000000E+00 -0.14596939097E+04  0.14596939097E+04  0.00000000000E+00 0. -1.
         21    1    1    2  503  502  0.13263499014E+03 -0.12929244759E+02 -0.15020921498E+02  0.13410754663E+03  0.00000000000E+00 0. -1.
         21    1    1    2  504  506 -0.23632377566E+02  0.89973131137E+02 -0.12418365727E+04  0.12453159145E+04  0.00000000000E+00 0. -1.
         21    1    1    2  505  503  0.21443820379E+02  0.83432142545E+02  0.66998785073E+02  0.10913110026E+03  0.00000000000E+00 0. -1.
         21    1    1    2  506  501 -0.13044643296E+03 -0.16047602892E+03 -0.31745895041E+02  0.20922865383E+03  0.00000000000E+00 0. -1.
<scales pt_clust_3="14000.00000" pt_clust_4="93.89884" pt_clust_5="86.14383" pt_clust_6="145.62391"></scales>
<clustering>
<clus scale="   86.144">  1  5  2 -1</clus>
<clus scale="   93.899">  2  4  1 -1</clus>
<clus scale="  145.624">  1  6  2 -1</clus>
<clus scale="   86.144">  1  3  2 -1</clus>
</clustering>
</event>
<event>
 6    0  0.8520634E+002  0.1921196E+03  0.7546771E-02  0.1156563E+00
         21   -1    0    0  506  501  0.00000000000E+00  0.00000000000E+00  0.16271906832E+04  0.16271906832E+04  0.00000000000E+00 0. -1.
         21   -1    0    0  505  502 -0.00000000000E+00 -0.00000000000E+00 -0.23268197881E+03  0.23268197881E+03  0.00000000000E+00 0.  1.
         21    1    1    2  503  502  0.65136855854E+02  0.22362449560E+01 -0.19341242068E+03  0.20409844501E+03  0.00000000000E+00 0.  1.
         21    1    1    2  504  503 -0.60336683716E+02 -0.52457654167E+02  0.28048868683E+03  0.29166114640E+03  0.00000000000E+00 0. -1.
         21    1    1    2  505  501 -0.95770341298E+02  0.19542843633E+03  0.75028838057E+03  0.78121500627E+03  0.00000000000E+00 0. -1.
         21    1    1    2  506  504  0.90970169160E+02 -0.14520702712E+03  0.55714405772E+03  0.58289806438E+03  0.00000000000E+00 0. -1.
<scales pt_clust_3="65.17523" pt_clust_4="71.93475" pt_clust_5="192.11960" pt_clust_6="14000.00000"></scales>
<clustering>
<clus scale="   65.175">  2  3  1 -1</clus>
<clus scale="   71.935">  2  4  1 -1</clus>
<clus scale="  192.120">  2  5  1 -1</clus>
<clus scale="  192.120">  1  3  2 -1</clus>
</clustering>
</event>
<event>
 6    0  0.8520634E+002  0.9705900E+02  0.7546771E-02  0.1286605E+00
         21   -1    0    0  506  501  0.00000000000E+00  0.00000000000E+00  0.30762392871E+03  0.30762392871E+03  0.00000000000E+00 0. -1.
         21   -1    0    0  504  502 -0.00000000000E+00 -0.00000000000E+00 -0.13551198416E+03  0.13551198416E+03  0.00000000000E+00 0. -1.
         21    1    1    2  503  505  0.81687029227E+02  0.61820797681E+02  0.20399650355E+02  0.10445442788E+03  0.00000000000E+00 0. -1.
         21    1    1    2  504  501 -0.43140728339E+02 -0.96972633367E+02  0.40168666176E+02  0.11348275555E+03  0.00000000000E+00 0. -1.
         21    1    1    2  505  502 -0.41153229841E+02  0.49082873528E+01 -0.47641106450E+02  0.63145503679E+02  0.00000000000E+00 0. -1.
         21    1    1    2  506  503  0.26069289540E+01  0.30243548334E+02  0.15918473447E+03  0.16205322577E+03  0.00000000000E+00 0. -1.
<scales pt_clust_3="97.05900" pt_clust_4="14000.00000" pt_clust_5="41.52810" pt_clust_6="30.35570"></scales>
<clustering>
<clus scale="   30.356">  1  6  2 -1</clus>
<clus scale="   41.528">  2  5  1 -1</clus>
<clus scale="   97.059">  2  3  1 -1</clus>
<clus scale="   30.356">  1  3  2 -1</clus>
</clustering>
</event>
<event>
 6    0  0.8520634E+002  0.8985156E+02  0.7546771E-02  0.1303212E+00
         21   -1    0    0  506  501  0.00000000000E+00  0.00000000000E+00  0.17414949620E+04  0.17414949620E+04  0.00000000000E+00 0.  1.
         21   -1    0    0  505  502 -0.00000000000E+00 -0.00000000000E+00 -0.90295746853E+03  0.90295746853E+03  0.00000000000E+00 0. -1.
         21    1    1    2  503  501  0.76609502214E+02  0.46801193135E+02  0.17246928896E+04  0.17270277736E+04  0.00000000000E+00 0.  1.
         21    1    1    2  504  502 -0.29834943336E+02  0.42367730947E+02 -0.41572313480E+03  0.41894017863E+03  0.00000000000E+00 0. -1.
         21    1    1    2  505  503  0.16888271213E+02  0.27171182547E+02 -0.10279572626E+03  0.10765894390E+03  0.00000000000E+00 0. -1.
         21    1    1    2  506  504 -0.63662830092E+02 -0.11634010663E+03 -0.36763653509E+03  0.39082553432E+03  0.00000000000E+00 0. -1.
<scales pt_clust_3="14000.00000" pt_clust_4="60.35355" pt_clust_5="31.99198" pt_clust_6="89.85156"></scales>
<clustering>
<clus scale="   31.992">  2  5  1 -1</clus>
<clus scale="   60.354">  2  4  1 -1</clus>
<clus scale="   89.852">  2  6  1 -1</clus>
<clus scale="   89.852">  1  3  2 -1</clus>
</clustering>
</event>
<event>
 6    0  0.8520634E+002  0.1057401E+03  0.7546771E-02  0.1268668E+00
         21   -1    0    0  503  501  0.00000000000E+00  0.00000000000E+00  0.56807964158E+03  0.56807964158E+03  0.00000000000E+00 0. -1.
         21   -1    0    0  504  502 -0.00000000000E+00 -0.00000000000E+00 -0.10662063704E+04  0.10662063704E+04  0.00000000000E+00 0. -1.
         21    1    1    2  503  502 -0.37762445017E+02 -0.93573262584E+02  0.24764651165E+03  0.26741494434E+03  0.00000000000E+00 0. -1.
         21    1    1    2  504  506  0.33363943848E+02  0.43215029594E+01 -0.88593148039E+03  0.88657002886E+03  0.00000000000E+00 0. -1.
         21    1    1    2  505  501 -0.15225685856E+02  0.11808236310E+03  0.29681784837E+03  0.31980634936E+03  0.00000000000E+00 0. -1.
         21    1    1    2  506  505  0.19624187025E+02 -0.28830603473E+02 -0.15665960839E+03  0.16049468937E+03  0.00000000000E+00 0. -1.
<scales pt_clust_3="14000.00000" pt_clust_4="33.64265" pt_clust_5="105.74008" pt_clust_6="55.04117"></scales>
<clustering>
<clus scale="   33.643">  2  4  1 -1</clus>
<clus scale="   55.041">  2  6  1 -1</clus>
<clus scale="  105.740">  2  5  1 -1</clus>
<clus scale="  105.740">  1  3  2 -1</clus>
</clustering>
</event>
<event>
 6    0  0.8520634E+002  0.7909632E+02  0.7546771E-02  0.1331636E+00
         21   -1    0    0  503  501  0.00000000000E+00  0.00000000000E+00  0.92295950015E+02  0.92295950015E+02  0.00000000000E+00 0. -1.
         21   -1    0    0  504  502 -0.00000000000E+00 -0.00000000000E+00 -0.15754145964E+04  0.15754145964E+04  0.00000000000E+00 0.  1.
         21    1    1    2  503  505  0.83130764547E+01 -0.36556309667E+02  0.49223788628E+02  0.61874488955E+02  0.00000000000E+00 0. -1.
         21    1    1    2  504  506  0.56635738285E+02 -0.11603940331E+03 -0.10903497294E+04  0.10979687074E+04  0.00000000000E+00 0.  1.
         21    1    1    2  505  502  0.56406782660E+00  0.74121653480E+02 -0.38244607592E+03  0.38956300989E+03  0.00000000000E+00 0. -1.
         21    1    1    2  506  501 -0.65512882566E+02  0.78474059501E+02 -0.59546629655E+02  0.11830434016E+03  0.00000000000E+00 0. -1.
<scales pt_clust_3="37.48961" pt_clust_4="14000.00000" pt_clust_5="70.59491" pt_clust_6="79.09632"></scales>
<clustering>
<clus scale="   37.490">  1  3  2 -1</clus>
<clus scale="   70.595">  2  5  1 -1</clus>
<clus scale="   79.096">  1  6  2 -1</clus>
<clus scale="   37.490">  1  3  2 -1</clus>
</clustering>
</event>
<event>
 6    0  0.8520634E+002  0.1164899E+03  0.7546771E-02  0.1249003E+00
         21   -1    0    0  503  501  0.00000000000E+00  0.00000000000E+00  0.32214356349E+03  0.32214356349E+03  0.00000000000E+00 0.  1.
         21   -1    0    0  505  502 -0.00000000000E+00 -0.00000000000E+00 -0.11758770461E+03  0.11758770461E+03  0.00000000000E+00 0.  1.
         21    1    1    2  503  502 -0.20468553317E+02  0.86097772785E+02  0.50984779731E+02  0.10213342214E+03  0.00000000000E+00 0.  1.
         21    1    1    2  504  501 -0.49598738596E+02  0.15829470276E+02  0.19388914322E+03  0.20075758232E+03  0.00000000000E+00 0.  1.
         21    1    1    2  505  506  0.47119234299E+02 -0.40283219885E+02 -0.50297014855E+01  0.62195320903E+02  0.00000000000E+00 0. -1.
         21    1    1    2  506  504  0.22948057615E+02 -0.61644023175E+02 -0.35288362588E+02  0.74644942733E+02  0.00000000000E+00 0.  1.
<scales pt_clust_3="108.48394" pt_clust_4="52.06349" pt_clust_5="41.20041" pt_clust_6="41.20041"></scales>
<clustering>
<clus scale="   41.200">  5  6 -1 -1</clus>
<clus scale="   52.063">  1  4  2 -1</clus>
<clus scale="  108.484">  1  3  2 -1</clus>
<clus scale="   52.063">  1  3  2 -1</clus>
</clustering>
</event>
<event>
 6    0  0.8520634E+002  0.9591901E+02  0.7546771E-02  0.1289120E+00
         21   -1    0    0  506  501  0.00000000000E+00  0.00000000000E+00  0.13526026062E+04  0.13526026062E+04  0.00000000000E+00 0. -1.
         21   -1    0    0  504  502 -0.00000000000E+00 -0.00000000000E+00 -0.42654350403E+02  0.42654350403E+02  0.00000000000E+00 0.  1.
         21    1    1    2  503  502 -0.55652658731E+02  0.28465154286E+02  0.91968961978E+02  0.11120149909E+03  0.00000000000E+00 0.  1.
         21    1    1    2  504  501  0.25233250538E+02 -0.11836338538E+03  0.97860930198E+02  0.15563858645E+03  0.00000000000E+00 0.  1.
         21    1    1    2  505  503 -0.15462354761E+01  0.94902891584E+02  0.61686401509E+03  0.62412351565E+03  0.00000000000E+00 0. -1.
         21    1    1    2  506  505  0.31965643669E+02 -0.50046604888E+01  0.50325434857E+03  0.50429335545E+03  0.00000000000E+00 0. -1.
<scales pt_clust_3="58.84365" pt_clust_4="95.91901" pt_clust_5="14000.00000" pt_clust_6="32.35505"></scales>
<clustering>
<clus scale="   32.355">  1  6  2 -1</clus>
<clus scale="   58.844">  2  3  1 -1</clus>
<clus scale="   95.919">  2  4  1 -1</clus>
<clus scale="   32.355">  1  3  2 -1</clus>
</clustering>
</event>
<event>
 6    0  0.8520634E+002  0.1271176E+03  0.7546771E-02  0.1231796E+00
         21   -1    0    0  506  501  0.00000000000E+00  0.00000000000E+00  0.10378596804E+03  0.10378596804E+03  0.00000000000E+00 0. -1.
         21   -1    0    0  504  502 -0.00000000000E+00 -0.00000000000E+00 -0.69491316587E+03  0.69491316587E+03  0.00000000000E+00 0. -1.
         21    1    1    2  503  502 -0.29573403965E+02  0.59040043210E+01 -0.25836216038E+03  0.26011622288E+03  0.00000000000E+00 0. -1.
         21    1    1    2  504  505  0.16451529801E+03 -0.58286232005E+02 -0.28624420902E+03  0.33525857978E+03  0.00000000000E+00 0. -1.
         21    1    1    2  505  501 -0.43397842258E+02  0.78098275916E+02  0.14251188465E+02  0.90475465107E+02  0.00000000000E+00 0. -1.
         21    1    1    2  506  503 -0.91544051783E+02 -0.25716048232E+02 -0.60772016900E+02  0.11284886615E+03  0.00000000000E+00 0. -1.
<scales pt_clust_3="30.15698" pt_clust_4="127.11763" pt_clust_5="91.07628" pt_clust_6="14000.00000"></scales>
<clustering>
<clus scale="   30.157">  2  3  1 -1</clus>
<clus scale="   91.076">  1  5  2 -1</clus>
<clus scale="  127.118">  2  4  1 -1</clus>
<clus scale="   91.076">  1  3  2 -1</clus>
</clustering>
</event>
<event>
 6    0  0.8520634E+002  0.1266752E+03  0.7546771E-02  0.1232474E+00
         21   -1    0    0  503  501  0.00000000000E+00  0.00000000000E+00  0.42573874387E+03  0.42573874387E+03  0.00000000000E+00 0. -1.
         21   -1    0    0  504  502 -0.00000000000E+00 -0.00000000000E+00 -0.14570654431E+04  0.14570654431E+04  0.00000000000E+00 0. -1.
         21    1    1    2  503  506  0.10313208968E+03  0.71242096008E+02  0.37393644962E+03  0.39438576612E+03  0.00000000000E+00 0. -1.
         21    1    1    2  504  505  0.23696450564E+02  0.32923489808E+02 -0.83889475165E+03  0.83987492063E+03  0.00000000000E+00 0. -1.
         21    1    1    2  505  501 -0.19509070482E+03 -0.61637342009E+02 -0.51226929045E+03  0.55161523817E+03  0.00000000000E+00 0. -1.
         21    1    1    2  506  502  0.68262164574E+02 -0.42528243807E+02 -0.54099106747E+02  0.96928262053E+02  0.00000000000E+00 0.  1.
<scales pt_clust_3="126.67520" pt_clust_4="40.56449" pt_clust_5="14000.00000" pt_clust_6="80.90811"></scales>
<clustering>
<clus scale="   40.564">  2  4  1 -1</clus>
<clus scale="   80.908">  2  6  1 -1</clus>
<clus scale="  126.675">  1  3  2 -1</clus>
<clus scale="  126.675">  1  3  2 -1</clus>
</clustering>
</event>
<event>
 6    0  0.8520634E+002  0.7325686E+02  0.7546771E-02  0.1349356E+00
         21   -1    0    0  506  501  0.00000000000E+00  0.00000000000E+00  0.94520859245E+02  0.94520859245E+02  0.00000000000E+00 0. -1.
         21   -1    0    0  504  502 -0.00000000000E+00 -0.00000000000E+00 -0.49629443865E+03  0.49629443865E+03  0.00000000000E+00 0. -1.
         21    1    1    2  503  501 -0.14833315851E+02 -0.10920293600E+03 -0.14504255786E+03  0.18216106083E+03  0.00000000000E+00 0. -1.
         21    1    1    2  504  503  0.15451978913E+02  0.30203442201E+02 -0.16736559732E+03  0.17076959548E+03  0.00000000000E+00 0. -1.
         21    1    1    2  505  502 -0.41957336296E+02  0.21907363860E+02 -0.14215080494E+03  0.14982390332E+03  0.00000000000E+00 0. -1.
         21    1    1    2  506  505  0.41338673233E+02  0.57092129941E+02  0.52785380723E+02  0.88060738267E+02  0.00000000000E+00 0. -1.
<scales pt_clust_3="73.25686" pt_clust_4="33.92656" pt_clust_5="49.81324" pt_clust_6="14000.00000"></scales>
<clustering>
<clus scale="   33.927">  2  4  1 -1</clus>
<clus scale="   49.813">  2  5  1 -1</clus>
<clus scale="   73.257">  2  3  1 -1</clus>
<clus scale="   73.257">  1  3  2 -1</clus>
</clustering>
</event>
<event>
 6    0  0.8520634E+002  0.1557631E+03  0.7546771E-02  0.1193565E+00
         21   -1    0    0  506  501  0.00000000000E+00  0.00000000000E+00  0.80079159218E+02  0.80079159218E+02  0.00000000000E+00 0. -1.
         21   -1    0    0  503  502 -0.00000000000E+00 -0.00000000000E+00 -0.21597133269E+04  0.21597133269E+04  0.00000000000E+00 0.  1.
         21    1    1    2  503  505  0.59793567247E+02 -0.71468068162E+01 -0.14502286141E+04  0.14514783432E+04  0.00000000000E+00 0.  1.
         21    1    1    2  504  501  0.91293942929E+02  0.22269177680E+02 -0.23489531507E+03  0.25299468242E+03  0.00000000000E+00 0.  1.
         21    1    1    2  505  504  0.15051777005E+02  0.89413509478E+02 -0.30753443330E+03  0.32062245607E+03  0.00000000000E+00 0.  1.
         21    1    1    2  506  502 -0.16613928718E+03 -0.10453588034E+03 -0.86975805172E+02  0.21469700443E+03  0.00000000000E+00 0. -1.
<scales pt_clust_3="60.21916" pt_clust_4="155.76313" pt_clust_5="95.73144" pt_clust_6="14000.00000"></scales>
<clustering>
<clus scale="   60.219">  2  3  1 -1</clus>
<clus scale="   95.731">  2  5  1 -1</clus>
<clus scale="  155.763">  2  4  1 -1</clus>
<clus scale="  155.763">  1  3  2 -1</clus>
</clustering>
</event>
<event>
 6    0  0.8520634E+002  0.6436658E+02  0.7546771E-02  0.1380370E+00
         21   -1    0    0  503  501  0.00000000000E+00  0.00000000000E+00  0.28769750607E+03  0.28769750607E+03  0.00000000000E+00 0. -1.
         21   -1    0    0  506  502 -0.00000000000E+00 -0.00000000000E+00 -0.16052418330E+04  0.16052418330E+04  0.00000000000E+00 0.  1.
         21    1    1    2  503  502 -0.78730038041E+02 -0.58656014032E+02  0.25716046144E+03  0.27526432715E+03  0.00000000000E+00 0. -1.
         21    1    1    2  504  505  0.40061814754E+02  0.81474677379E+02 -0.37658504025E+03  0.38737496640E+03  0.00000000000E+00 0. -1.
         21    1    1    2  505  501  0.32955715466E+02  0.16587692231E+02 -0.58383609525E+01  0.37353944558E+02  0.00000000000E+00 0.  1.
         21    1    1    2  506  504  0.57125078214E+01 -0.39406355578E+02 -0.11922813872E+04  0.11929461010E+04  0.00000000000E+00 0.  1.
<scales pt_clust_3="14000.00000" pt_clust_4="64.36658" pt_clust_5="36.89486" pt_clust_6="39.80400"></scales>
<clustering>
<clus scale="   36.895">  1  5  2 -1</clus>
<clus scale="   39.804">  2  6  1 -1</clus>
<clus scale="   64.367">  2  4  1 -1</clus>
<clus scale="   36.895">  1  3  2 -1</clus>
</clustering>
</event>
<event>
 6    0  0.8520634E+002  0.1044591E+03  0.7546771E-02  0.1271189E+00
         21   -1    0    0  503  501  0.00000000000E+00  0.00000000000E+00  0.43842304699E+03  0.43842304699E+03  0.00000000000E+00 0. -1.
         21   -1    0    0  505  502 -0.00000000000E+00 -0.00000000000E+00 -0.76514983224E+03  0.76514983224E+03  0.00000000000E+00 0. -1.
         21    1    1    2  503  504  0.86005071067E+02  0.27839986912E+02  0.34472906854E+03  0.35638471883E+03  0.00000000000E+00 0. -1.
         21    1    1    2  504  502 -0.75470424293E+02 -0.39358815087E+01 -0.94953915690E+02  0.12135700314E+03  0.00000000000E+00 0. -1.
         21    1    1    2  505  506 -0.33893282934E+02  0.28676977965E+02 -0.63919681447E+03  0.64073683468E+03  0.00000000000E+00 0. -1.
         21    1    1    2  506  501  0.23358636160E+02 -0.52581083368E+02  0.62694876371E+02  0.85094322576E+02  0.00000000000E+00 0.  1.
<scales pt_clust_3="14000.00000" pt_clust_4="104.45910" pt_clust_5="44.39734" pt_clust_6="53.98800"></scales>
<clustering>
<clus scale="   44.397">  2  5  1 -1</clus>
<clus scale="   53.988">  1  6  2 -1</clus>
<clus scale="  104.459">  2  4  1 -1</clus>
<clus scale="   53.988">  1  3  2 -1</clus>
</clustering>
</event>
<event>
 6    0  0.8520634E+002  0.1175691E+03  0.7546771E-02  0.1247162E+00
         21   -1    0    0  505  501  0.00000000000E+00  0.00000000000E+00  0.11467354347E+03  0.11467354347E+03  0.00000000000E+00 0.  1.
         21   -1    0    0  506  502 -0.00000000000E+00 -0.00000000000E+00 -0.22950425720E+04  0.22950425720E+04  0.00000000000E+00 0. -1.
         21    1    1    2  503  502 -0.12041797100E+01  0.33787661022E+02 -0.14427620770E+04  0.14431581573E+04  0.00000000000E+00 0. -1.
         21    1    1    2  504  503 -0.33898501115E+02 -0.21866643502E+02 -0.19232891729E+03  0.19651379316E+03  0.00000000000E+00 0. -1.
         21    1    1    2  505  504 -0.12979745621E+02 -0.11723372986E+03  0.74525302272E+02  0.13952147466E+03  0.00000000000E+00 0.  1.
         21    1    1    2  506  501  0.48082426446E+02  0.10531271234E+03 -0.61980333648E+03  0.63052269034E+03  0.00000000000E+00 0. -1.
<scales pt_clust_3="33.80911" pt_clust_4="36.98972" pt_clust_5="14000.00000" pt_clust_6="117.56908"></scales>
<clustering>
<clus scale="   33.809">  2  3  1 -1</clus>
<clus scale="   36.990">  2  4  1 -1</clus>
<clus scale="  117.569">  2  6  1 -1</clus>
<clus scale="  117.569">  1  3  2 -1</clus>
</clustering>
</event>
<event>
 6    0  0.8520634E+002  0.9647295E+02  0.7546771E-02  0.1287893E+00
         21   -1    0    0  506  501  0.00000000000E+00  0.00000000000E+00  0.60027983937E+03  0.60027983937E+03  0.00000000000E+00 0.  1.
         21   -1    0    0  503  502 -0.00000000000E+00 -0.00000000000E+00 -0.17413557166E+03  0.17413557166E+03  0.00000000000E+00 0.  1.
         21    1    1    2  503  501 -0.93047212930E+02 -0.43931960759E+02 -0.13157686338E+03  0.16703374506E+03  0.00000000000E+00 0.  1.
         21    1    1    2  504  502  0.79737725410E+02 -0.13754769264E+02  0.56637067619E+02  0.98767686819E+02  0.00000000000E+00 0.  1.
         21    1    1    2  505  504  0.26192127319E+02  0.27325538176E+02  0.11383534778E+03  0.11996332346E+03  0.00000000000E+00 0. -1.
         21    1    1    2  506  505 -0.12882639799E+02  0.30361191847E+02  0.38724871569E+03  0.38865065571E+03  0.00000000000E+00 0.  1.
<scales pt_clust_3="14000.00000" pt_clust_4="96.47295" pt_clust_5="48.00421" pt_clust_6="32.98127"></scales>
<clustering>
<clus scale="   32.981">  1  6  2 -1</clus>
<clus scale="   48.004">  1  5  2 -1</clus>
<clus scale="   96.473">  1  4  2 -1</clus>
<clus scale="   32.981">  1  3  2 -1</clus>
</clustering>
</event>
<event>
 6    0  0.8520634E+002  0.1341324E+03  0.7546771E-02  0.1221450E+00
         21   -1    0    0  506  501  0.00000000000E+00  0.00000000000E+00  0.24219159119E+03  0.24219159119E+03  0.00000000000E+00 0. -1.
         21   -1    0    0  503  502 -0.00000000000E+00 -0.00000000000E+00 -0.41486778922E+03  0.41486778922E+03  0.00000000000E+00 0. -1.
         21    1    1    2  503  504  0.25117800642E+02  0.14685779830E+03 -0.65341283064E+02  0.16268866003E+03  0.00000000000E+00 0. -1.
         21    1    1    2  504  501 -0.67800543987E+02 -0.97747606804E+02  0.14208649879E+02  0.11980565150E+03  0.00000000000E+00 0. -1.
         21    1    1    2  505  502  0.47980403878E+02 -0.10497548032E+02 -0.24253140824E+03  0.24745464565E+03  0.00000000000E+00 0. -1.
         21    1    1    2  506  505 -0.52976605333E+01 -0.38612643462E+02  0.12098784340E+03  0.12711042323E+03  0.00000000000E+00 0. -1.
<scales pt_clust_3="14000.00000" pt_clust_4="134.13237" pt_clust_5="49.18614" pt_clust_6="38.97437"></scales>
<clustering>
<clus scale="   38.974">  1  6  2 -1</clus>
<clus scale="   49.186">  2  5  1 -1</clus>
<clus scale="  134.132">  1  4  2 -1</clus>
<clus scale="   38.974">  1  3  2 -1</clus>
</clustering>
</event>
<event>
 6    0  0.8520634E+002  0.9187134E+02  0.7546771E-02  0.1298382E+00
         21   -1    0    0  506  501  0.00000000000E+00  0.00000000000E+00  0.12049533245E+04  0.12049533245E+04  0.00000000000E+00 0. -1.
         21   -1    0    0  503  502 -0.00000000000E+00 -0.00000000000E+00 -0.32886038729E+03  0.32886038729E+03  0.00000000000E+00 0.  1.
         21    1    1    2  503  504  0.78403871013E+02 -0.39242587017E+02 -0.25669241642E+03  0.27125291569E+03  0.00000000000E+00 0.  1.
         21    1    1    2  504  505 -0.14127553412E+03  0.48204031679E+02  0.40396094542E+02  0.15464232819E+03  0.00000000000E+00 0. -1.
         21    1    1    2  505  501  0.30906660193E+02 -0.42566044786E+02  0.88461711940E+02  0.10292018409E+03  0.00000000000E+00 0. -1.
         21    1    1    2  506  502  0.31965002918E+02  0.33604600124E+02  0.10039275471E+04  0.10049982838E+04  0.00000000000E+00 0. -1.
<scales pt_clust_3="14000.00000" pt_clust_4="91.87134" pt_clust_5="53.24204" pt_clust_6="46.37920"></scales>
<clustering>
<clus scale="   46.379">  1  6  2 -1</clus>
<clus scale="   53.242">  1  5  2 -1</clus>
<clus scale="   91.871">  1  4  2 -1</clus>
<clus scale="   46.379">  1  3  2 -1</clus>
</clustering>
</event>
<event>
 6    0  0.8520634E+002  0.1097132E+03  0.7546771E-02  0.1261102E+00
         21   -1    0    0  503  501  0.00000000000E+00  0.00000000000E+00  0.16782702982E+03  0.16782702982E+03  0.00000000000E+00 0. -1.
         21   -1    0    0  505  502 -0.00000000000E+00 -0.00000000000E+00 -0.68990215417E+03  0.68990215417E+03  0.00000000000E+00 0.  1.
         21    1    1    2  503  504  0.66879877825E+02 -0.12936305995E+03 -0.43599762905E+03  0.45967559417E+03  0.00000000000E+00 0.  1.
         21    1    1    2  504  502 -0.20157120191E+02  0.35780087558E+02 -0.11765758875E+03  0.12461874799E+03  0.00000000000E+00 0.  1.
         21    1    1    2  505  506  0.54913484166E+02  0.52602541054E+02 -0.84581375343E+02  0.11373885494E+03  0.00000000000E+00 0.  1.
         21    1    1    2  506  501 -0.10163624180E+03  0.40980431339E+02  0.11616146879E+03  0.15969598690E+03  0.00000000000E+00 0. -1.
<scales pt_clust_3="109.71323" pt_clust_4="41.06731" pt_clust_5="78.12869" pt_clust_6="14000.00000"></scales>
<clustering>
<clus scale="   41.067">  2  4  1 -1</clus>
<clus scale="   78.129">  2  5  1 -1</clus>
<clus scale="  109.713">  2  3  1 -1</clus>
<clus scale="  109.713">  1  3  2 -1</clus>
</clustering>
</event>
<event>
 6    0  0.8520634E+002  0.1133204E+03  0.7546771E-02  0.1254542E+00
         21   -1    0    0  505  501  0.00000000000E+00  0.00000000000E+00  0.31944333697E+02  0.31944333697E+02  0.00000000000E+00 0. -1.
         21   -1    0    0  506  502 -0.00000000000E+00 -0.00000000000E+00 -0.12862938317E+04  0.12862938317E+04  0.00000000000E+00 0. -1.
         21    1    1    2  503  502  0.10107051309E+03 -0.98957821335E+01 -0.60402596133E+03  0.61250349965E+03  0.00000000000E+00 0. -1.
         21    1    1    2  504  503 -0.14773089800E+03  0.57833555107E+01 -0.42916106924E+03  0.45391308504E+03  0.00000000000E+00 0. -1.
         21    1    1    2  505  504  0.13646425571E+02 -0.38434393087E+02 -0.23751731328E+02  0.47197163515E+02  0.00000000000E+00 0. -1.
         21    1    1    2  506  501  0.33013959347E+02  0.42546819709E+02 -0.19741073610E+03  0.20462441718E+03  0.00000000000E+00 0. -1.
<scales pt_clust_3="113.32037" pt_clust_4="14000.00000" pt_clust_5="40.78514" pt_clust_6="50.30349"></scales>
<clustering>
<clus scale="   40.785">  1  5  2 -1</clus>
<clus scale="   50.303">  1  6  2 -1</clus>
<clus scale="  113.320">  2  3  1 -1</clus>
<clus scale="   40.785">  1  3  2 -1</clus>
</clustering>
</event>
<event>
 6    0  0.8520634E+002  0.1136473E+03  0.7546771E-02  0.1253961E+00
         21   -1    0    0  503  501  0.00000000000E+00  0.00000000000E+00  0.22243687770E+03  0.22243687770E+03  0.00000000000E+00 0. -1.
         21   -1    0    0  504  502 -0.00000000000E+00 -0.00000000000E+00 -0.84479397328E+03  0.84479397328E+03  0.00000000000E+00 0.  1.
         21    1    1    2  503  505 -0.32782803626E+02 -0.24243257876E+01  0.11265216401E+03  0.11735032861E+03  0.00000000000E+00 0. -1.
         21    1    1    2  504  506 -0.12255693525E+03 -0.48551786597E+02 -0.35643903673E+02  0.13655755647E+03  0.00000000000E+00 0. -1.
         21    1    1    2  505  502  0.64074874280E+02 -0.19704553146E+02 -0.69456141088E+03  0.69778894547E+03  0.00000000000E+00 0.  1.
         21    1    1    2  506  501  0.91264864594E+02  0.70680665531E+02 -0.48039450310E+01  0.11553402043E+03  0.00000000000E+00 0. -1.
<scales pt_clust_3="32.87232" pt_clust_4="113.64726" pt_clust_5="66.57653" pt_clust_6="14000.00000"></scales>
<clustering>
<clus scale="   32.872">  1  3  2 -1</clus>
<clus scale="   66.577">  2  5  1 -1</clus>
<clus scale="  113.647">  2  4  1 -1</clus>
<clus scale="   32.872">  1  3  2 -1</clus>
</clustering>
</event>
<event>
 6    0  0.1284239E+003  0.1116845E+03  0.7546771E-02  0.1257482E+00
         21   -1    0    0  504  501  0.00000000000E+00  0.00000000000E+00  0.77402449219E+03  0.77402449219E+03  0.00000000000E+00 0. -1.
         21   -1    0    0  505  502 -0.00000000000E+00 -0.00000000000E+00 -0.10767631234E+04  0.10767631234E+04  0.00000000000E+00 0.  1.
         21    1    1    2  503  506 -0.81653884426E+02  0.51023018265E+01  0.33595748800E+02  0.88442437004E+02  0.00000000000E+00 0. -1.
         21    1    1    2  504  503 -0.38737778703E+02 -0.42899624408E+02  0.70519549449E+03  0.70756037108E+03  0.00000000000E+00 0. -1.
         21    1    1    2  505  501  0.58399264780E+02  0.59237400389E+02 -0.33329233738E+03  0.34351612173E+03  0.00000000000E+00 0.  1.
         21    1    1    2  506  502  0.61992398348E+02 -0.21440077807E+02 -0.70823753714E+03  0.71126868580E+03  0.00000000000E+00 0.  1.
<scales pt_clust_3="14000.00000" pt_clust_4="57.80133" pt_clust_5="111.68447" pt_clust_6="65.10007"></scales>
<clustering>
<clus scale="   57.801">  1  4  2 -1</clus>
<clus scale="   65.100">  2  6  1 -1</clus>
<clus scale="  111.684">  2  5  1 -1</clus>
<clus scale="   57.801">  1  3  2 -1</clus>
</clustering>
</event>
<event>
 6    0  0.8520634E+002  0.1090249E+03  0.7546771E-02  0.1262386E+00
         21   -1    0    0  505  501  0.00000000000E+00  0.00000000000E+00  0.11950066537E+04  0.11950066537E+04  0.00000000000E+00 0. -1.
         21   -1    0    0  506  502 -0.00000000000E+00 -0.00000000000E+00 -0.52734120309E+03  0.52734120309E+03  0.00000000000E+00 0. -1.
         21    1    1    2  503  504 -0.13101933984E+03 -0.62647974251E+02  0.82019415738E+02  0.16678735158E+03  0.00000000000E+00 0. -1.
         21    1    1    2  504  502  0.43899243050E+02  0.20986941083E+02 -0.46959380456E+03  0.47210797125E+03  0.00000000000E+00 0. -1.
         21    1    1    2  505  503 -0.26898604343E+02  0.24787477231E+02  0.19753478218E+02  0.41571069806E+02  0.00000000000E+00 0. -1.
         21    1    1    2  506  501  0.11401870113E+03  0.16873555937E+02  0.10354863612E+04  0.10418814642E+04  0.00000000000E+00 0. -1.
<scales pt_clust_3="109.02494" pt_clust_4="48.64330" pt_clust_5="36.57805" pt_clust_6="14000.00000"></scales>
<clustering>
<clus scale="   36.578">  1  5  2 -1</clus>
<clus scale="   48.643">  2  4  1 -1</clus>
<clus scale="  109.025">  2  3  1 -1</clus>
<clus scale="   36.578">  1  3  2 -1</clus>
</clustering>
</event>
<event>
 6    0  0.8520634E+002  0.1429808E+03  0.7546771E-02  0.1209373E+00
         21   -1    0    0  506  501  0.00000000000E+00  0.00000000000E+00  0.69629706312E+03  0.69629706312E+03  0.00000000000E+00 0. -1.
         21   -1    0    0  503  502 -0.00000000000E+00 -0.00000000000E+00 -0.13262949257E+03  0.13262949257E+03  0.00000000000E+00 0. -1.
         21    1    1    2  503  505 -0.46208662473E+02  0.98923138404E+02  0.28237476891E+01  0.10921996773E+03  0.00000000000E+00 0. -1.
         21    1    1    2  504  502 -0.10148512381E+03 -0.69308325129E+02  0.15507325986E+02  0.12386828264E+03  0.00000000000E+00 0. -1.
         21    1    1    2  505  501  0.17622171404E+03 -0.13390100918E+02  0.29899535101E+03  0.34732061158E+03  0.00000000000E+00 0. -1.
         21    1    1    2  506  504 -0.28527927763E+02 -0.16224712358E+02  0.24634114588E+03  0.24851769375E+03  0.00000000000E+00 0. -1.
<scales pt_clust_3="108.93221" pt_clust_4="14000.00000" pt_clust_5="142.98076" pt_clust_6="32.81896"></scales>
<clustering>
<clus scale="   32.819">  1  6  2 -1</clus>
<clus scale="  108.932">  2  3  1 -1</clus>
<clus scale="  142.981">  1  5  2 -1</clus>
<clus scale="   32.819">  1  3  2 -1</clus>
</clustering>
</event>
<event>
 6    0  0.8520634E+002  0.9803551E+02  0.7546771E-02  0.1284482E+00
         21   -1    0    0  503  501  0.00000000000E+00  0.00000000000E+00  0.11791258230E+03  0.11791258230E+03  0.00000000000E+00 0.  1.
         21   -1    0    0  501  502 -0.00000000000E+00 -0.00000000000E+00 -0.42815146540E+03  0.42815146540E+03  0.00000000000E+00 0.  1.
         21    1    1    2  503  506  0.13775616702E+02  0.85340259351E+02  0.19053354224E+01  0.86465934244E+02  0.00000000000E+00 0.  1.
         21    1    1    2  504  502  0.17128098777E+02  0.26900705016E+02 -0.27448685646E+03  0.27633323011E+03  0.00000000000E+00 0.  1.
         21    1    1    2  505  504  0.49340745342E+02 -0.12325289310E+02 -0.15876941294E+02  0.53277567252E+02  0.00000000000E+00 0.  1.
         21    1    1    2  506  505 -0.80244460821E+02 -0.99915675057E+02 -0.21780420777E+02  0.12998731609E+03  0.00000000000E+00 0.  1.
<scales pt_clust_3="14000.00000" pt_clust_4="31.89075" pt_clust_5="53.58223" pt_clust_6="98.03551"></scales>
<clustering>
<clus scale="   31.891">  2  4  1 -1</clus>
<clus scale="   53.582">  2  5  1 -1</clus>
<clus scale="   98.036">  2  6  1 -1</clus>
<clus scale="   98.036">  1  3  2 -1</clus>
</clustering>
</event>
<event>
 6    0  0.8520634E+002  0.8823646E+02  0.7546771E-02  0.1307179E+00
         21   -1    0    0  504  501  0.00000000000E+00  0.00000000000E+00  0.15125893065E+03  0.15125893065E+03  0.00000000000E+00 0.  1.
         21   -1    0    0  503  502 -0.00000000000E+00 -0.00000000000E+00 -0.47086947422E+03  0.47086947422E+03  0.00000000000E+00 0.  1.
         21    1    1    2  503  506  0.15084240492E+03 -0.48145031688E+02  0.42636345650E+02  0.16397936812E+03  0.00000000000E+00 0.  1.
         21    1    1    2  504  502 -0.46088112414E+02  0.72779603719E+02 -0.30604325275E+03  0.31793624735E+03  0.00000000000E+00 0.  1.
         21    1    1    2  505  501 -0.38459871192E+02  0.23497172535E+02 -0.10030057788E+02  0.46172295465E+02  0.00000000000E+00 0.  1.
         21    1    1    2  506  505 -0.66294421313E+02 -0.48131744566E+02 -0.46173578675E+02  0.94040493937E+02  0.00000000000E+00 0.  1.
<scales pt_clust_3="88.23646" pt_clust_4="14000.00000" pt_clust_5="45.06971" pt_clust_6="85.36442"></scales>
<clustering>
<clus scale="   45.070">  1  5  2 -1</clus>
<clus scale="   85.364">  1  6  2 -1</clus>
<clus scale="   88.236">  1  3  2 -1</clus>
<clus scale="   45.070">  1  3  2 -1</clus>
</clustering>
</event>
<event>
 6    0  0.8520634E+002  0.1387285E+03  0.7546771E-02  0.1215050E+00
         21   -1    0    0  504  501  0.00000000000E+00  0.00000000000E+00  0.55544495721E+03  0.55544495721E+03  0.00000000000E+00 0. -1.
         21   -1    0    0  505  502 -0.00000000000E+00 -0.00000000000E+00 -0.10414519847E+04  0.10414519847E+04  0.00000000000E+00 0. -1.
         21    1    1    2  503  502 -0.45898260224E+02 -0.15892237316E+02 -0.39216698120E+03  0.39516345307E+03  0.00000000000E+00 0. -1.
         21    1    1    2  504  506  0.10454393652E+03 -0.83550372115E+02  0.44110162101E+03  0.46095633134E+03  0.00000000000E+00 0. -1.
         21    1    1    2  505  501 -0.11568628776E+03  0.14295685096E+03  0.16543748005E+02  0.18464472375E+03  0.00000000000E+00 0. -1.
         21    1    1    2  506  503  0.57040611468E+02 -0.43514241526E+02 -0.55148541533E+03  0.55613243377E+03  0.00000000000E+00 0. -1.
<scales pt_clust_3="48.57174" pt_clust_4="138.72848" pt_clust_5="14000.00000" pt_clust_6="59.81130"></scales>
<clustering>
<clus scale="   48.572">  2  3  1 -1</clus>
<clus scale="   59.811">  2  6  1 -1</clus>
<clus scale="  138.728">  1  4  2 -1</clus>
<clus scale="  138.728">  1  3  2 -1</clus>
</clustering>
</event>
<event>
 6    0  0.8520634E+002  0.2095069E+03  0.7546771E-02  0.1141957E+00
         21   -1    0    0  503  501  0.00000000000E+00  0.00000000000E+00  0.16272435187E+04  0.16272435187E+04  0.00000000000E+00 0. -1.
         21   -1    0    0  506  502 -0.00000000000E+00 -0.00000000000E+00 -0.45705498651E+03  0.45705498651E+03  0.00000000000E+00 0.  1.
         21    1    1    2  503  504 -0.24572357686E+02 -0.42509924349E+02  0.44410427624E+02  0.66205592755E+02  0.00000000000E+00 0. -1.
         21    1    1    2  504  502  0.73288926441E+02  0.49173354425E+02  0.28471943240E+03  0.29808462005E+03  0.00000000000E+00 0. -1.
         21    1    1    2  505  501 -0.23619390958E+03  0.85015204801E+02  0.12424770646E+04  0.12675821093E+04  0.00000000000E+00 0. -1.
         21    1    1    2  506  505  0.18747734082E+03 -0.91678634877E+02 -0.40141839237E+03  0.45242618309E+03  0.00000000000E+00 0.  1.
<scales pt_clust_3="49.10086" pt_clust_4="80.18377" pt_clust_5="209.50694" pt_clust_6="14000.00000"></scales>
<clustering>
<clus scale="   49.101">  1  3  2 -1</clus>
<clus scale="   80.184">  1  4  2 -1</clus>
<clus scale="  209.507">  1  5  2 -1</clus>
<clus scale="   49.101">  1  3  2 -1</clus>
</clustering>
</event>
<event>
 6    0  0.8520634E+002  0.7042745E+02  0.7546771E-02  0.1358645E+00
         21   -1    0    0  504  501  0.00000000000E+00  0.00000000000E+00  0.22944650224E+03  0.22944650224E+03  0.00000000000E+00 0.  1.
         21   -1    0    0  503  502 -0.00000000000E+00 -0.00000000000E+00 -0.10681730135E+03  0.10681730135E+03  0.00000000000E+00 0.  1.
         21    1    1    2  503  506  0.27219276011E+02  0.97423827862E+02 -0.11602001613E+02  0.10181796336E+03  0.00000000000E+00 0.  1.
         21    1    1    2  504  505  0.54109462085E+02 -0.59631508762E+02  0.65530033374E+02  0.10381683870E+03  0.00000000000E+00 0.  1.
         21    1    1    2  505  502 -0.31676743596E+02 -0.41405762018E+02  0.90157193631E+01  0.52906865422E+02  0.00000000000E+00 0.  1.
         21    1    1    2  506  501 -0.49651994501E+02  0.36134429179E+01  0.59685449766E+02  0.77722136110E+02  0.00000000000E+00 0.  1.
<scales pt_clust_3="70.42745" pt_clust_4="14000.00000" pt_clust_5="57.94874" pt_clust_6="49.78331"></scales>
<clustering>
<clus scale="   49.783">  1  6  2 -1</clus>
<clus scale="   57.949">  2  5  1 -1</clus>
<clus scale="   70.427">  2  3  1 -1</clus>
<clus scale="   49.783">  1  3  2 -1</clus>
</clustering>
</event>
<event>
 6    0  0.8520634E+002  0.1119210E+03  0.7546771E-02  0.1257053E+00
         21   -1    0    0  504  501  0.00000000000E+00  0.00000000000E+00  0.29161141769E+02  0.29161141769E+02  0.00000000000E+00 0.  1.
         21   -1    0    0  506  502 -0.00000000000E+00 -0.00000000000E+00 -0.15449219562E+04  0.15449219562E+04  0.00000000000E+00 0.  1.
         21    1    1    2  503  502  0.78294003154E+02  0.68693210998E+02 -0.79668409754E+03  0.80346391297E+03  0.00000000000E+00 0.  1.
         21    1    1    2  504  503  0.44608742177E+02 -0.28968981004E+02 -0.94621067075E+02  0.10854624855E+03  0.00000000000E+00 0.  1.
         21    1    1    2  505  501 -0.31372816033E+02  0.69840986908E+02 -0.24298476048E+03  0.25476187090E+03  0.00000000000E+00 0.  1.
         21    1    1    2  506  505 -0.91529929299E+02 -0.10956521690E+03 -0.38147088928E+03  0.40731106551E+03  0.00000000000E+00 0.  1.
<scales pt_clust_3="111.92095" pt_clust_4="53.18968" pt_clust_5="65.15535" pt_clust_6="14000.00000"></scales>
<clustering>
<clus scale="   53.190">  1  4  2 -1</clus>
<clus scale="   65.155">  1  5  2 -1</clus>
<clus scale="  111.921">  2  3  1 -1</clus>
<clus scale="   53.190">  1  3  2 -1</clus>
</clustering>
</event>
<event>
 6    0  0.8520634E+002  0.7781470E+02  0.7546771E-02  0.1335370E+00
         21   -1    0    0  503  501  0.00000000000E+00  0.00000000000E+00  0.94073686942E+02  0.94073686942E+02  0.00000000000E+00 0. -1.
         21   -1    0    0  505  502 -0.00000000000E+00 -0.00000000000E+00 -0.92450983964E+03  0.92450983964E+03  0.00000000000E+00 0. -1.
         21    1    1    2  503  506  0.38695950248E+02  0.10886123675E+03 -0.11461944478E+02  0.11610134196E+03  0.00000000000E+00 0. -1.
         21    1    1    2  504  501 -0.22606322008E+02 -0.22094619282E+02  0.16844327644E+02  0.35818282619E+02  0.00000000000E+00 0. -1.
         21    1    1    2  505  504 -0.54231712667E+02 -0.18933924118E+02 -0.47566700815E+02  0.74579911288E+02  0.00000000000E+00 0. -1.
         21    1    1    2  506  502  0.38142084428E+02 -0.67832693355E+02 -0.78825183505E+03  0.79208399072E+03  0.00000000000E+00 0. -1.
<scales pt_clust_3="14000.00000" pt_clust_4="31.61041" pt_clust_5="63.20592" pt_clust_6="77.81470"></scales>
<clustering>
<clus scale="   31.610">  1  4  2 -1</clus>
<clus scale="   63.206">  1  5  2 -1</clus>
<clus scale="   77.815">  2  6  1 -1</clus>
<clus scale="   31.610">  1  3  2 -1</clus>
</clustering>
</event>
<event>
 6    0  0.8520634E+002  0.1329994E+03  0.7546771E-02  0.1223072E+00
         21   -1    0    0  506  501  0.00000000000E+00  0.00000000000E+00  0.32952998800E+03  0.32952998800E+03  0.00000000000E+00 0.  1.
         21   -1    0    0  504  502 -0.00000000000E+00 -0.00000000000E+00 -0.23205136267E+03  0.23205136267E+03  0.00000000000E+00 0.  1.
         21    1    1    2  503  502 -0.47372428933E+02 -0.92958910325E+02 -0.52051262689E+02  0.11659691239E+03  0.00000000000E+00 0.  1.
         21    1    1    2  504  505  0.95381260635E+01  0.11308040306E+03 -0.34294690020E+02  0.11855074512E+03  0.00000000000E+00 0.  1.
         21    1    1    2  505  501  0.12329552931E+03  0.71659135748E+02  0.11619845811E+03  0.18395352933E+03  0.00000000000E+00 0.  1.
         21    1    1    2  506  503 -0.85461226440E+02 -0.91780628487E+02  0.67626119924E+02  0.14248016383E+03  0.00000000000E+00 0.  1.
<scales pt_clust_3="104.33363" pt_clust_4="66.69215" pt_clust_5="14000.00000" pt_clust_6="132.99944"></scales>
<clustering>
<clus scale="  104.334">  2  3  1 -1</clus>
<clus scale="   66.692">  2  4  1 -1</clus>
<clus scale="  132.999">  2  6  1 -1</clus>
<clus scale="  132.999">  1  3  2 -1</clus>
</clustering>
</event>
<event>
 6    0  0.8520634E+002  0.1291004E+03  0.7546771E-02  0.1228797E+00
         21   -1    0    0  503  501  0.00000000000E+00  0.00000000000E+00  0.21999933103E+03  0.21999933103E+03  0.00000000000E+00 0. -1.
         21   -1    0    0  505  502 -0.00000000000E+00 -0.00000000000E+00 -0.27772151803E+03  0.27772151803E+03  0.00000000000E+00 0. -1.
         21    1    1    2  503  502  0.20530905024E+02 -0.68710887404E+02  0.14356317861E+03  0.16047769428E+03  0.00000000000E+00 0. -1.
         21    1    1    2  504  501  0.10092954220E+03 -0.41565518592E+01 -0.18642455943E+02  0.10272093543E+03  0.00000000000E+00 0. -1.
         21    1    1    2  505  506 -0.53765649122E+02  0.13309514133E+02 -0.86508441080E+02  0.10272097434E+03  0.00000000000E+00 0. -1.
         21    1    1    2  506  504 -0.67694798102E+02  0.59557925131E+02 -0.96134468578E+02  0.13180124500E+03  0.00000000000E+00 0. -1.
<scales pt_clust_3="71.71265" pt_clust_4="122.82911" pt_clust_5="31.15376" pt_clust_6="31.15376"></scales>
<clustering>
<clus scale="   31.154">  5  6 -1 -1</clus>
<clus scale="   71.713">  1  3  2 -1</clus>
<clus scale="  122.829">  1  4  2 -1</clus>
<clus scale="   71.713">  1  3  2 -1</clus>
</clustering>
</event>
<event>
 6    0  0.8520634E+002  0.4935827E+03  0.7546771E-02  0.1015468E+00
         21   -1    0    0  506  501  0.00000000000E+00  0.00000000000E+00  0.19226496325E+03  0.19226496325E+03  0.00000000000E+00 0. -1.
         21   -1    0    0  504  502 -0.00000000000E+00 -0.00000000000E+00 -0.12580663619E+04  0.12580663619E+04  0.00000000000E+00 0. -1.
         21    1    1    2  503  502 -0.18582397368E+03  0.16689145084E+03 -0.42194115986E+03  0.49032402342E+03  0.00000000000E+00 0. -1.
         21    1    1    2  504  505  0.22051484099E+03 -0.37155271574E+02 -0.29131082754E+03  0.36724556845E+03  0.00000000000E+00 0. -1.
         21    1    1    2  505  501  0.15624716962E+03 -0.21374345743E+03 -0.23074952429E+03  0.35120476445E+03  0.00000000000E+00 0. -1.
         21    1    1    2  506  503 -0.19093803693E+03  0.84007278164E+02 -0.12179988698E+03  0.24155696885E+03  0.00000000000E+00 0. -1.
<scales pt_clust_3="489.89332" pt_clust_4="180.85075" pt_clust_5="180.85075" pt_clust_6="171.20575"></scales>
<clustering>
<clus scale="  171.206">  3  6 -1 -1</clus>
<clus scale="  180.851">  4  5 -1 -1</clus>
<clus scale="  489.893">  2  3  1 -1</clus>
<clus scale="  493.583">  1  3  2 -1</clus>
</clustering>
</event>
<event>
 6    0  0.8520634E+002  0.1161498E+03  0.7546771E-02  0.1249587E+00
         21   -1    0    0  505  501  0.00000000000E+00  0.00000000000E+00  0.21245883858E+03  0.21245883858E+03  0.00000000000E+00 0.  1.
         21   -1    0    0  503  502 -0.00000000000E+00 -0.00000000000E+00 -0.52431942923E+03  0.52431942923E+03  0.00000000000E+00 0.  1.
         21    1    1    2  503  506  0.87670133977E+02 -0.83087126212E+01 -0.31803552773E+03  0.33000255150E+03  0.00000000000E+00 0.  1.
         21    1    1    2  504  502 -0.35415873773E+02  0.73636733865E+01 -0.99322337351E+02  0.10570446773E+03  0.00000000000E+00 0.  1.
         21    1    1    2  505  504 -0.12435077883E+03  0.29230925963E+02  0.16119724562E+03  0.20567478023E+03  0.00000000000E+00 0.  1.
         21    1    1    2  506  501  0.72096518625E+02 -0.28285886728E+02 -0.55699971176E+02  0.95396468357E+02  0.00000000000E+00 0.  1.
<scales pt_clust_3="60.52283" pt_clust_4="36.17330" pt_clust_5="14000.00000" pt_clust_6="116.14979"></scales>
<clustering>
<clus scale="   36.173">  2  4  1 -1</clus>
<clus scale="   60.523">  2  3  1 -1</clus>
<clus scale="  116.150">  2  6  1 -1</clus>
<clus scale="  116.150">  1  3  2 -1</clus>
</clustering>
</event>
<event>
 6    0  0.8520634E+002  0.7109802E+02  0.7546771E-02  0.1356398E+00
         21   -1    0    0  505  501  0.00000000000E+00  0.00000000000E+00  0.96401784851E+03  0.96401784851E+03  0.00000000000E+00 0. -1.
         21   -1    0    0  503  502 -0.00000000000E+00 -0.00000000000E+00 -0.13037633367E+03  0.13037633367E+03  0.00000000000E+00 0.  1.
         21    1    1    2  503  501  0.41036462893E+02  0.27653089676E+02  0.39158089811E+03  0.39469517912E+03  0.00000000000E+00 0. -1.
         21    1    1    2  504  502 -0.22782588399E+02  0.34661013228E+02 -0.97314048723E+02  0.10578495286E+03  0.00000000000E+00 0.  1.
         21    1    1    2  505  506 -0.10144058587E+03 -0.32630141367E+02  0.46908054272E+03  0.48103167686E+03  0.00000000000E+00 0. -1.
         21    1    1    2  506  504  0.83186711373E+02 -0.29683961537E+02  0.70294122732E+02  0.11288237335E+03  0.00000000000E+00 0. -1.
<scales pt_clust_3="49.56058" pt_clust_4="41.47809" pt_clust_5="14000.00000" pt_clust_6="71.09802"></scales>
<clustering>
<clus scale="   41.478">  2  4  1 -1</clus>
<clus scale="   49.561">  1  3  2 -1</clus>
<clus scale="   71.098">  2  6  1 -1</clus>
<clus scale="   49.561">  1  3  2 -1</clus>
</clustering>
</event>
<event>
 6    0  0.8520634E+002  0.1194191E+03  0.7546771E-02  0.1244058E+00
         21   -1    0    0  503  501  0.00000000000E+00  0.00000000000E+00  0.15279279342E+03  0.15279279342E+03  0.00000000000E+00 0. -1.
         21   -1    0    0  506  502 -0.00000000000E+00 -0.00000000000E+00 -0.85500922512E+03  0.85500922512E+03  0.00000000000E+00 0. -1.
         21    1    1    2  503  505 -0.67265440296E+01  0.44938257549E+02 -0.43018512995E+02  0.62572245017E+02  0.00000000000E+00 0. -1.
         21    1    1    2  504  501 -0.80311649488E+02 -0.58901414387E+02  0.86094110014E+02  0.13164928196E+03  0.00000000000E+00 0. -1.
         21    1    1    2  505  502  0.75255159476E+02  0.10930368020E+03 -0.11378231010E+03  0.17480574253E+03  0.00000000000E+00 0. -1.
         21    1    1    2  506  504  0.11783034041E+02 -0.95340523359E+02 -0.63150971862E+03  0.63877474903E+03  0.00000000000E+00 0. -1.
<scales pt_clust_3="33.48729" pt_clust_4="104.81341" pt_clust_5="33.48729" pt_clust_6="96.06589"></scales>
<clustering>
<clus scale="   33.487">  3  5 -1 -1</clus>
<clus scale="   96.066">  2  6  1 -1</clus>
<clus scale="  104.813">  1  4  2 -1</clus>
<clus scale="  104.813">  1  3  2 -1</clus>
</clustering>
</event>
<event>
 6    0  0.8520634E+002  0.9787698E+02  0.7546771E-02  0.1284825E+00
         21   -1    0    0  503  501  0.00000000000E+00  0.00000000000E+00  0.23303210560E+04  0.23303210560E+04  0.00000000000E+00 0. -1.
         21   -1    0    0  504  502 -0.00000000000E+00 -0.00000000000E+00 -0.91114519269E+02  0.91114519269E+02  0.00000000000E+00 0.  1.
         21    1    1    2  503  505  0.81117984567E+02 -0.54776391742E+02  0.22100735823E+04  0.22122400004E+04  0.00000000000E+00 0. -1.
         21    1    1    2  504  506 -0.47552634973E+01  0.45788550927E+02 -0.39058881079E+02  0.60372180001E+02  0.00000000000E+00 0.  1.
         21    1    1    2  505  502  0.17944864194E+02 -0.25897291987E+02  0.19997548672E+02  0.37317420008E+02  0.00000000000E+00 0.  1.
         21    1    1    2  506  501 -0.94307585263E+02  0.34885132802E+02  0.48194286833E+02  0.11150597478E+03  0.00000000000E+00 0.  1.
<scales pt_clust_3="97.87698" pt_clust_4="30.77732" pt_clust_5="31.50695" pt_clust_6="14000.00000"></scales>
<clustering>
<clus scale="   31.507">  2  5  1 -1</clus>
<clus scale="   30.777">  2  4  1 -1</clus>
<clus scale="   97.877">  1  3  2 -1</clus>
<clus scale="   97.877">  1  3  2 -1</clus>
</clustering>
</event>
<event>
 6    0  0.8520634E+002  0.8888737E+02  0.7546771E-02  0.1305569E+00
         21   -1    0    0  503  501  0.00000000000E+00  0.00000000000E+00  0.34302756100E+03  0.34302756100E+03  0.00000000000E+00 0.  1.
         21   -1    0    0  506  502 -0.00000000000E+00 -0.00000000000E+00 -0.13534428323E+03  0.13534428323E+03  0.00000000000E+00 0.  1.
         21    1    1    2  503  504  0.10202968912E+03 -0.18724011070E+02  0.10456954084E+03  0.14729370293E+03  0.00000000000E+00 0.  1.
         21    1    1    2  504  502  0.20049294552E+02 -0.27244497290E+02 -0.29060728490E+01  0.33951172352E+02  0.00000000000E+00 0.  1.
         21    1    1    2  505  501 -0.66216375695E+02  0.55093838446E+02  0.18260054373E+03  0.20189823678E+03  0.00000000000E+00 0.  1.
         21    1    1    2  506  505 -0.55862607978E+02 -0.91253300859E+01 -0.76580733947E+02  0.95228732173E+02  0.00000000000E+00 0.  1.
<scales pt_clust_3="88.88737" pt_clust_4="33.82657" pt_clust_5="14000.00000" pt_clust_6="50.40950"></scales>
<clustering>
<clus scale="   33.827">  2  4  1 -1</clus>
<clus scale="   50.410">  2  6  1 -1</clus>
<clus scale="   88.887">  2  3  1 -1</clus>
<clus scale="   88.887">  1  3  2 -1</clus>
</clustering>
</event>
<event>
 6    0  0.8520634E+002  0.9219122E+02  0.7546771E-02  0.1297630E+00
         21   -1    0    0  504  501  0.00000000000E+00  0.00000000000E+00  0.60837562544E+03  0.60837562544E+03  0.00000000000E+00 0. -1.
         21   -1    0    0  506  502 -0.00000000000E+00 -0.00000000000E+00 -0.71201064412E+02  0.71201064412E+02  0.00000000000E+00 0. -1.
         21    1    1    2  503  502  0.15563600915E+01 -0.78492610809E+02  0.15216029207E+03  0.17121993661E+03  0.00000000000E+00 0. -1.
         21    1    1    2  504  503 -0.16905872368E+02 -0.49514925762E+02  0.30296850676E+03  0.30745317120E+03  0.00000000000E+00 0. -1.
         21    1    1    2  505  501 -0.18933354062E+01  0.33608864962E+02  0.98005088477E+02  0.10362498681E+03  0.00000000000E+00 0. -1.
         21    1    1    2  506  505  0.17242847682E+02  0.94398671610E+02 -0.15959326274E+02  0.97278595246E+02  0.00000000000E+00 0. -1.
<scales pt_clust_3="92.19122" pt_clust_4="34.41482" pt_clust_5="33.66215" pt_clust_6="14000.00000"></scales>
<clustering>
<clus scale="   33.662">  1  5  2 -1</clus>
<clus scale="   34.415">  1  4  2 -1</clus>
<clus scale="   92.191">  1  3  2 -1</clus>
<clus scale="   33.662">  1  3  2 -1</clus>
</clustering>
</event>
<event>
 6    0  0.8520634E+002  0.9015507E+02  0.7546771E-02  0.1302477E+00
         21   -1    0    0  504  501  0.00000000000E+00  0.00000000000E+00  0.13288330145E+03  0.13288330145E+03  0.00000000000E+00 0. -1.
         21   -1    0    0  506  502 -0.00000000000E+00 -0.00000000000E+00 -0.20211007209E+03  0.20211007209E+03  0.00000000000E+00 0. -1.
         21    1    1    2  503  501 -0.55330859378E+01 -0.46074729796E+02  0.25335610480E+02  0.52871437697E+02  0.00000000000E+00 0. -1.
         21    1    1    2  504  505  0.35099883108E+02  0.29641877494E+02  0.34477405806E+02  0.57439831186E+02  0.00000000000E+00 0. -1.
         21    1    1    2  505  502  0.68186350391E+02 -0.30096303164E+02 -0.40503383317E+02  0.84827412456E+02  0.00000000000E+00 0. -1.
         21    1    1    2  506  503 -0.97753147562E+02  0.46529155466E+02 -0.88536403604E+02  0.13985469220E+03  0.00000000000E+00 0. -1.
<scales pt_clust_3="34.30919" pt_clust_4="45.94173" pt_clust_5="90.15507" pt_clust_6="14000.00000"></scales>
<clustering>
<clus scale="   45.942">  1  4  2 -1</clus>
<clus scale="   34.309">  1  3  2 -1</clus>
<clus scale="   90.155">  2  5  1 -1</clus>
<clus scale="   45.942">  1  3  2 -1</clus>
</clustering>
</event>
<event>
 6    0  0.8520634E+002  0.9387018E+02  0.7546771E-02  0.1293741E+00
         21   -1    0    0  505  501  0.00000000000E+00  0.00000000000E+00  0.14595553716E+03  0.14595553716E+03  0.00000000000E+00 0.  1.
         21   -1    0    0  503  502 -0.00000000000E+00 -0.00000000000E+00 -0.90616312576E+03  0.90616312576E+03  0.00000000000E+00 0. -1.
         21    1    1    2  503  506 -0.15701687688E+03 -0.51260642477E+02 -0.68029004777E+03  0.70005464229E+03  0.00000000000E+00 0. -1.
         21    1    1    2  504  502  0.76863139421E+02  0.15929225051E+02 -0.16602107017E+03  0.18364280044E+03  0.00000000000E+00 0.  1.
         21    1    1    2  505  504 -0.15149252503E+01 -0.34246894815E+02  0.36968114698E+02  0.50416131420E+02  0.00000000000E+00 0. -1.
         21    1    1    2  506  501  0.81668662713E+02  0.69578312241E+02  0.49135414644E+02  0.11800508877E+03  0.00000000000E+00 0.  1.
<scales pt_clust_3="14000.00000" pt_clust_4="77.82247" pt_clust_5="34.28039" pt_clust_6="93.87018"></scales>
<clustering>
<clus scale="   34.280">  1  5  2 -1</clus>
<clus scale="   77.822">  2  4  1 -1</clus>
<clus scale="   93.870">  1  6  2 -1</clus>
<clus scale="   34.280">  1  3  2 -1</clus>
</clustering>
</event>
<event>
 6    0  0.8520634E+002  0.8034743E+02  0.7546771E-02  0.1328068E+00
         21   -1    0    0  505  501  0.00000000000E+00  0.00000000000E+00  0.99559159415E+02  0.99559159415E+02  0.00000000000E+00 0. -1.
         21   -1    0    0  504  502 -0.00000000000E+00 -0.00000000000E+00 -0.40820121140E+03  0.40820121140E+03  0.00000000000E+00 0. -1.
         21    1    1    2  503  501  0.23600603250E+02 -0.21851688740E+02  0.50276210670E+02  0.59684019083E+02  0.00000000000E+00 0. -1.
         21    1    1    2  504  506 -0.58529719088E+02 -0.44190694322E+02 -0.16413747397E+03  0.17977668326E+03  0.00000000000E+00 0. -1.
         21    1    1    2  505  502  0.50227366093E+02 -0.41840557901E+02 -0.32952989278E+02  0.73207377309E+02  0.00000000000E+00 0.  1.
         21    1    1    2  506  503 -0.15298250256E+02  0.10788294096E+03 -0.16182779940E+03  0.19509229116E+03  0.00000000000E+00 0. -1.
<scales pt_clust_3="32.16341" pt_clust_4="72.55716" pt_clust_5="80.34743" pt_clust_6="14000.00000"></scales>
<clustering>
<clus scale="   32.163">  1  3  2 -1</clus>
<clus scale="   72.557">  2  4  1 -1</clus>
<clus scale="   80.347">  1  5  2 -1</clus>
<clus scale="   32.163">  1  3  2 -1</clus>
</clustering>
</event>
<event>
 6    0  0.8520634E+002  0.8232200E+02  0.7546771E-02  0.1322588E+00
         21   -1    0    0  505  501  0.00000000000E+00  0.00000000000E+00  0.56005720681E+03  0.56005720681E+03  0.00000000000E+00 0. -1.
         21   -1    0    0  506  502 -0.00000000000E+00 -0.00000000000E+00 -0.18167552387E+03  0.18167552387E+03  0.00000000000E+00 0.  1.
         21    1    1    2  503  502 -0.69368663173E+02 -0.63759204446E+02 -0.20834947812E+01  0.94242180219E+02  0.00000000000E+00 0. -1.
         21    1    1    2  504  501 -0.41086638998E+02  0.10207462678E+03  0.36471261554E+03  0.38094964663E+03  0.00000000000E+00 0. -1.
         21    1    1    2  505  503  0.63632124748E+02 -0.23148335232E+02  0.12753893457E+03  0.14439900469E+03  0.00000000000E+00 0. -1.
         21    1    1    2  506  504  0.46823177423E+02 -0.15167087100E+02 -0.11178637238E+03  0.12214189914E+03  0.00000000000E+00 0.  1.
<scales pt_clust_3="14000.00000" pt_clust_4="82.32200" pt_clust_5="74.11986" pt_clust_6="49.21840"></scales>
<clustering>
<clus scale="   49.218">  2  6  1 -1</clus>
<clus scale="   74.120">  1  5  2 -1</clus>
<clus scale="   82.322">  1  4  2 -1</clus>
<clus scale="   74.120">  1  3  2 -1</clus>
</clustering>
</event>
<event>
 6    0  0.8520634E+002  0.1154118E+03  0.7546771E-02  0.1250864E+00
         21   -1    0    0  504  501  0.00000000000E+00  0.00000000000E+00  0.17457633425E+03  0.17457633425E+03  0.00000000000E+00 0. -1.
         21   -1    0    0  505  502 -0.00000000000E+00 -0.00000000000E+00 -0.45641882184E+03  0.45641882184E+03  0.00000000000E+00 0.  1.
         21    1    1    2  503  506  0.22696001611E+02  0.45664350878E+02 -0.74102206066E+01  0.51529145148E+02  0.00000000000E+00 0. -1.
         21    1    1    2  504  502 -0.11872795250E+03 -0.79518741499E+02  0.98011491633E+02  0.17327957019E+03  0.00000000000E+00 0. -1.
         21    1    1    2  505  503  0.27322231877E+02  0.33466911625E+02 -0.31107217481E+03  0.31405801449E+03  0.00000000000E+00 0.  1.
         21    1    1    2  506  501  0.68709719010E+02  0.38747899624E+00 -0.61371583808E+02  0.92128426263E+02  0.00000000000E+00 0.  1.
<scales pt_clust_3="59.65644" pt_clust_4="14000.00000" pt_clust_5="43.20346" pt_clust_6="115.41176"></scales>
<clustering>
<clus scale="   43.203">  2  5  1 -1</clus>
<clus scale="   59.656">  2  3  1 -1</clus>
<clus scale="  115.412">  2  6  1 -1</clus>
<clus scale="  115.412">  1  3  2 -1</clus>
</clustering>
</event>
<event>
 6    0  0.8520634E+002  0.9390219E+02  0.7546771E-02  0.1293668E+00
         21   -1    0    0  504  501  0.00000000000E+00  0.00000000000E+00  0.75728562252E+03  0.75728562252E+03  0.00000000000E+00 0.  1.
         21   -1    0    0  503  502 -0.00000000000E+00 -0.00000000000E+00 -0.48803194978E+03  0.48803194978E+03  0.00000000000E+00 0.  1.
         21    1    1    2  503  501 -0.13397676600E+03  0.22419765337E+02 -0.41769743540E+03  0.43923065381E+03  0.00000000000E+00 0.  1.
         21    1    1    2  504  505  0.41987410967E+02  0.34619828941E+00  0.96689474635E+02  0.10541307812E+03  0.00000000000E+00 0.  1.
         21    1    1    2  505  506  0.50281338921E+02  0.22583587338E+02  0.62668214846E+03  0.62910153923E+03  0.00000000000E+00 0.  1.
         21    1    1    2  506  502  0.41708016116E+02 -0.45349550965E+02 -0.36420514958E+02  0.71572301143E+02  0.00000000000E+00 0. -1.
<scales pt_clust_3="14000.00000" pt_clust_4="41.98884" pt_clust_5="93.90219" pt_clust_6="62.37283"></scales>
<clustering>
<clus scale="   41.989">  1  4  2 -1</clus>
<clus scale="   62.373">  2  6  1 -1</clus>
<clus scale="   93.902">  1  5  2 -1</clus>
<clus scale="   41.989">  1  3  2 -1</clus>
</clustering>
</event>
<event>
 6    0  0.8520634E+002  0.1203220E+03  0.7546771E-02  0.1242567E+00
         21   -1    0    0  503  501  0.00000000000E+00  0.00000000000E+00  0.67860968059E+02  0.67860968059E+02  0.00000000000E+00 0.  1.
         21   -1    0    0  506  502 -0.00000000000E+00 -0.00000000000E+00 -0.10577065721E+04  0.10577065721E+04  0.00000000000E+00 0.  1.
         21    1    1    2  503  502  0.52441335509E+02  0.13782771045E+03 -0.27140095124E+03  0.30887707550E+03  0.00000000000E+00 0.  1.
         21    1    1    2  504  505 -0.19084846114E+01 -0.12453052973E+03 -0.35602194790E+03  0.37717783940E+03  0.00000000000E+00 0.  1.
         21    1    1    2  505  501 -0.46713083269E+02 -0.46846368293E+02  0.88160736788E+01  0.66741422863E+02  0.00000000000E+00 0.  1.
         21    1    1    2  506  504 -0.38197676292E+01  0.33549187571E+02 -0.37123877855E+03  0.37277120236E+03  0.00000000000E+00 0.  1.
<scales pt_clust_3="14000.00000" pt_clust_4="120.32202" pt_clust_5="65.27660" pt_clust_6="33.76594"></scales>
<clustering>
<clus scale="   33.766">  2  6  1 -1</clus>
<clus scale="   65.277">  1  5  2 -1</clus>
<clus scale="  120.322">  2  4  1 -1</clus>
<clus scale="   65.277">  1  3  2 -1</clus>
</clustering>
</event>
<event>
 6    0  0.8520634E+002  0.7236140E+02  0.7546771E-02  0.1352242E+00
         21   -1    0    0  506  501  0.00000000000E+00  0.00000000000E+00  0.47946364334E+03  0.47946364334E+03  0.00000000000E+00 0. -1.
         21   -1    0    0  505  502 -0.00000000000E+00 -0.00000000000E+00 -0.11634600553E+04  0.11634600553E+04  0.00000000000E+00 0.  1.
         21    1    1    2  503  501  0.30813254972E+02 -0.31445676721E+01  0.57079760996E+02  0.64941851707E+02  0.00000000000E+00 0. -1.
         21    1    1    2  504  502 -0.49982192673E+02  0.40124354433E+01 -0.93812929913E+03  0.93946841411E+03  0.00000000000E+00 0.  1.
         21    1    1    2  505  503  0.11934696380E+03 -0.63529354575E+00 -0.19787294253E+03  0.23107964591E+03  0.00000000000E+00 0.  1.
         21    1    1    2  506  504 -0.10017802610E+03 -0.23257422546E+00  0.39492606869E+03  0.40743378694E+03  0.00000000000E+00 0. -1.
<scales pt_clust_3="30.97329" pt_clust_4="50.09344" pt_clust_5="14000.00000" pt_clust_6="72.36140"></scales>
<clustering>
<clus scale="   30.973">  1  3  2 -1</clus>
<clus scale="   50.093">  2  4  1 -1</clus>
<clus scale="   72.361">  1  6  2 -1</clus>
<clus scale="   30.973">  1  3  2 -1</clus>
</clustering>
</event>
<event>
 6    0  0.8520634E+002  0.2059864E+03  0.7546771E-02  0.1144784E+00
         21   -1    0    0  503  501  0.00000000000E+00  0.00000000000E+00  0.31773590957E+03  0.31773590957E+03  0.00000000000E+00 0.  1.
         21   -1    0    0  504  502 -0.00000000000E+00 -0.00000000000E+00 -0.67971352388E+03  0.67971352388E+03  0.00000000000E+00 0. -1.
         21    1    1    2  503  506  0.32966643604E+02 -0.36424449943E+02  0.42632161998E+01  0.49312423957E+02  0.00000000000E+00 0.  1.
         21    1    1    2  504  505  0.83460680532E+02  0.17371187056E+03  0.43707463293E+02  0.19761538785E+03  0.00000000000E+00 0.  1.
         21    1    1    2  505  501 -0.30968253476E+02  0.52419090464E+02  0.14531569714E+03  0.15755457976E+03  0.00000000000E+00 0.  1.
         21    1    1    2  506  502 -0.85459070660E+02 -0.18970651108E+03 -0.55526399095E+03  0.59296704187E+03  0.00000000000E+00 0. -1.
<scales pt_clust_3="49.12779" pt_clust_4="205.98639" pt_clust_5="36.19824" pt_clust_6="14000.00000"></scales>
<clustering>
<clus scale="   49.128">  1  3  2 -1</clus>
<clus scale="   36.198">  1  5  2 -1</clus>
<clus scale="  205.986">  1  4  2 -1</clus>
<clus scale="   49.128">  1  3  2 -1</clus>
</clustering>
</event>
<event>
 6    0  0.8520634E+002  0.1466509E+03  0.7546771E-02  0.1204650E+00
         21   -1    0    0  502  501  0.00000000000E+00  0.00000000000E+00  0.79285055226E+03  0.79285055226E+03  0.00000000000E+00 0.  1.
         21   -1    0    0  505  502 -0.00000000000E+00 -0.00000000000E+00 -0.72716192156E+02  0.72716192156E+02  0.00000000000E+00 0.  1.
         21    1    1    2  503  501 -0.17252770257E+02  0.63970397436E+02  0.34296051313E+03  0.34930185140E+03  0.00000000000E+00 0.  1.
         21    1    1    2  504  506  0.26875427966E+02 -0.58516955706E+02  0.13931443772E+03  0.15347649752E+03  0.00000000000E+00 0.  1.
         21    1    1    2  505  504 -0.11889542969E+03  0.18698512840E+02  0.25918197303E+02  0.12311584193E+03  0.00000000000E+00 0.  1.
         21    1    1    2  506  503  0.10927277198E+03 -0.24151954570E+02  0.21194121195E+03  0.23967255356E+03  0.00000000000E+00 0.  1.
<scales pt_clust_3="66.25609" pt_clust_4="57.84522" pt_clust_5="125.26496" pt_clust_6="57.84522"></scales>
<clustering>
<clus scale="   57.845">  4  6 -1 -1</clus>
<clus scale="   66.256">  1  3  2 -1</clus>
<clus scale="  125.265">  2  5  1 -1</clus>
<clus scale="   66.256">  1  3  2 -1</clus>
</clustering>
</event>
<event>
 6    0  0.8520634E+002  0.8525443E+02  0.7546771E-02  0.1314769E+00
         21   -1    0    0  505  501  0.00000000000E+00  0.00000000000E+00  0.54503247121E+03  0.54503247121E+03  0.00000000000E+00 0. -1.
         21   -1    0    0  506  502 -0.00000000000E+00 -0.00000000000E+00 -0.84236323524E+02  0.84236323524E+02  0.00000000000E+00 0. -1.
         21    1    1    2  503  501 -0.72029504751E+02 -0.11214165329E+02  0.23678574790E+03  0.24775289598E+03  0.00000000000E+00 0. -1.
         21    1    1    2  504  502  0.33499577958E+02 -0.18721504751E+02 -0.24332117704E+02  0.45439722881E+02  0.00000000000E+00 0. -1.
         21    1    1    2  505  504  0.11426565088E+03  0.47072516079E+02  0.22199926218E+03  0.25407898998E+03  0.00000000000E+00 0. -1.
         21    1    1    2  506  503 -0.75735724086E+02 -0.17136845999E+02  0.26343255308E+02  0.81997185890E+02  0.00000000000E+00 0. -1.
<scales pt_clust_3="85.25443" pt_clust_4="38.37599" pt_clust_5="14000.00000" pt_clust_6="63.23321"></scales>
<clustering>
<clus scale="   38.376">  2  4  1 -1</clus>
<clus scale="   63.233">  2  6  1 -1</clus>
<clus scale="   85.254">  1  3  2 -1</clus>
<clus scale="   85.254">  1  3  2 -1</clus>
</clustering>
</event>
<event>
 6    0  0.8520634E+002  0.1440924E+03  0.7546771E-02  0.1207926E+00
         21   -1    0    0  503  501  0.00000000000E+00  0.00000000000E+00  0.29000810600E+03  0.29000810600E+03  0.00000000000E+00 0. -1.
         21   -1    0    0  504  502 -0.00000000000E+00 -0.00000000000E+00 -0.60709154847E+03  0.60709154847E+03  0.00000000000E+00 0. -1.
         21    1    1    2  503  505 -0.39615672379E+02 -0.13553360496E+03  0.22301103466E+03  0.26395583182E+03  0.00000000000E+00 0. -1.
         21    1    1    2  504  506 -0.14050550669E+02 -0.51728213877E+02 -0.79405250518E+02  0.95804070345E+02  0.00000000000E+00 0. -1.
         21    1    1    2  505  502  0.54029225554E+00  0.21216549203E+03 -0.40084021784E+03  0.45352769283E+03  0.00000000000E+00 0. -1.
         21    1    1    2  506  501  0.53125930793E+02 -0.24903673189E+02 -0.59849008783E+02  0.83812059474E+02  0.00000000000E+00 0. -1.
<scales pt_clust_3="14000.00000" pt_clust_4="53.60248" pt_clust_5="144.09240" pt_clust_6="60.39301"></scales>
<clustering>
<clus scale="   53.602">  2  4  1 -1</clus>
<clus scale="   60.393">  2  6  1 -1</clus>
<clus scale="  144.092">  2  5  1 -1</clus>
<clus scale="  144.092">  1  3  2 -1</clus>
</clustering>
</event>
<event>
 6    0  0.8520634E+002  0.9016667E+02  0.7546771E-02  0.1302449E+00
         21   -1    0    0  504  501  0.00000000000E+00  0.00000000000E+00  0.51538505717E+03  0.51538505717E+03  0.00000000000E+00 0. -1.
         21   -1    0    0  503  502 -0.00000000000E+00 -0.00000000000E+00 -0.32976086672E+03  0.32976086672E+03  0.00000000000E+00 0. -1.
         21    1    1    2  503  501  0.94439338233E+02  0.33893367840E+02  0.35100158471E+03  0.36506117495E+03  0.00000000000E+00 0. -1.
         21    1    1    2  504  505 -0.68296376172E+02 -0.33883409562E+02  0.13757884569E+03  0.15729087457E+03  0.00000000000E+00 0. -1.
         21    1    1    2  505  506 -0.53301277204E+02  0.20794061737E+02 -0.86883665757E+02  0.10402975791E+03  0.00000000000E+00 0. -1.
         21    1    1    2  506  502  0.27158315144E+02 -0.20804020016E+02 -0.21607257420E+03  0.21876411646E+03  0.00000000000E+00 0. -1.
<scales pt_clust_3="14000.00000" pt_clust_4="90.16667" pt_clust_5="30.38533" pt_clust_6="34.21084"></scales>
<clustering>
<clus scale="   34.211">  2  6  1 -1</clus>
<clus scale="   30.385">  2  5  1 -1</clus>
<clus scale="   90.167">  2  4  1 -1</clus>
<clus scale="   90.167">  1  3  2 -1</clus>
</clustering>
</event>
<event>
 6    0  0.8520634E+002  0.1288207E+03  0.7546771E-02  0.1229216E+00
         21   -1    0    0  505  501  0.00000000000E+00  0.00000000000E+00  0.77151362068E+03  0.77151362068E+03  0.00000000000E+00 0.  1.
         21   -1    0    0  506  502 -0.00000000000E+00 -0.00000000000E+00 -0.78943223891E+02  0.78943223891E+02  0.00000000000E+00 0.  1.
         21    1    1    2  503  502 -0.11131729579E+03  0.43670782244E+02  0.79781747492E+02  0.14374910364E+03  0.00000000000E+00 0.  1.
         21    1    1    2  504  501  0.39805435566E+02 -0.54070493188E+02  0.14895678753E+03  0.16338976554E+03  0.00000000000E+00 0.  1.
         21    1    1    2  505  503  0.99633334264E+02 -0.32225611017E+01  0.49154541021E+03  0.50155166882E+03  0.00000000000E+00 0.  1.
         21    1    1    2  506  504 -0.28121474035E+02  0.13622272045E+02 -0.27713548437E+02  0.41766306571E+02  0.00000000000E+00 0.  1.
<scales pt_clust_3="128.82065" pt_clust_4="62.67473" pt_clust_5="14000.00000" pt_clust_6="31.24714"></scales>
<clustering>
<clus scale="   31.247">  2  6  1 -1</clus>
<clus scale="   62.675">  1  4  2 -1</clus>
<clus scale="  128.821">  2  3  1 -1</clus>
<clus scale="   62.675">  1  3  2 -1</clus>
</clustering>
</event>
<event>
 6    0  0.8520634E+002  0.1994585E+03  0.7546771E-02  0.1150197E+00
         21   -1    0    0  505  501  0.00000000000E+00  0.00000000000E+00  0.17930220515E+03  0.17930220515E+03  0.00000000000E+00 0.  1.
         21   -1    0    0  506  502 -0.00000000000E+00 -0.00000000000E+00 -0.74480547362E+03  0.74480547362E+03  0.00000000000E+00 0.  1.
         21    1    1    2  503  502 -0.47847733231E+01 -0.39632798005E+02 -0.45775630118E+03  0.45949372575E+03  0.00000000000E+00 0.  1.
         21    1    1    2  504  503  0.18769357595E+03  0.25589639090E+02 -0.71136430748E+02  0.20234648468E+03  0.00000000000E+00 0.  1.
         21    1    1    2  505  504  0.32698011186E+02  0.47883551463E+00  0.20774924897E+02  0.38742569913E+02  0.00000000000E+00 0.  1.
         21    1    1    2  506  501 -0.21560681382E+03  0.13564323401E+02 -0.57385461441E+02  0.22352489843E+03  0.00000000000E+00 0.  1.
<scales pt_clust_3="39.89550" pt_clust_4="199.45850" pt_clust_5="32.70152" pt_clust_6="14000.00000"></scales>
<clustering>
<clus scale="   32.702">  1  5  2 -1</clus>
<clus scale="   39.895">  2  3  1 -1</clus>
<clus scale="  199.458">  2  4  1 -1</clus>
<clus scale="   32.702">  1  3  2 -1</clus>
</clustering>
</event>
<event>
 6    0  0.8520634E+002  0.7337397E+02  0.7546771E-02  0.1348982E+00
         21   -1    0    0  504  501  0.00000000000E+00  0.00000000000E+00  0.91392323296E+02  0.91392323296E+02  0.00000000000E+00 0.  1.
         21   -1    0    0  503  502 -0.00000000000E+00 -0.00000000000E+00 -0.63541721744E+03  0.63541721744E+03  0.00000000000E+00 0.  1.
         21    1    1    2  503  505  0.10361756338E+03  0.48470561850E+01 -0.14828076397E+03  0.18096209095E+03  0.00000000000E+00 0.  1.
         21    1    1    2  504  506 -0.21302563221E+02  0.47823634599E+02 -0.32964669748E+03  0.33377813647E+03  0.00000000000E+00 0.  1.
         21    1    1    2  505  501 -0.46292056021E+02 -0.56924397854E+02  0.51083364704E+02  0.89402749796E+02  0.00000000000E+00 0.  1.
         21    1    1    2  506  502 -0.36022944143E+02  0.42537070699E+01 -0.11718079739E+03  0.12266656352E+03  0.00000000000E+00 0.  1.
<scales pt_clust_3="73.37397" pt_clust_4="67.34327" pt_clust_5="14000.00000" pt_clust_6="36.27322"></scales>
<clustering>
<clus scale="   36.273">  2  6  1 -1</clus>
<clus scale="   67.343">  2  4  1 -1</clus>
<clus scale="   73.374">  2  3  1 -1</clus>
<clus scale="   73.374">  1  3  2 -1</clus>
</clustering>
</event>
<event>
 6    0  0.8520634E+002  0.1220440E+03  0.7546771E-02  0.1239763E+00
         21   -1    0    0  505  501  0.00000000000E+00  0.00000000000E+00  0.14003087525E+02  0.14003087525E+02  0.00000000000E+00 0.  1.
         21   -1    0    0  506  502 -0.00000000000E+00 -0.00000000000E+00 -0.43643479082E+04  0.43643479082E+04  0.00000000000E+00 0.  1.
         21    1    1    2  503  504 -0.89691867926E+01 -0.56940568489E+02 -0.19072997791E+04  0.19081706218E+04  0.00000000000E+00 0.  1.
         21    1    1    2  504  501  0.83635475620E+02 -0.13404081411E+02 -0.23295463304E+03  0.24787582221E+03  0.00000000000E+00 0.  1.
         21    1    1    2  505  502 -0.91673816709E+02  0.12416451926E+03 -0.10993811284E+04  0.11101620522E+04  0.00000000000E+00 0.  1.
         21    1    1    2  506  503  0.17007527882E+02 -0.53819869356E+02 -0.11107092802E+04  0.11121424996E+04  0.00000000000E+00 0.  1.
<scales pt_clust_3="39.33572" pt_clust_4="84.70279" pt_clust_5="115.38868" pt_clust_6="39.33572"></scales>
<clustering>
<clus scale="   39.336">  3  6 -1 -1</clus>
<clus scale="   84.703">  1  4  2 -1</clus>
<clus scale="  115.389">  1  5  2 -1</clus>
<clus scale="   84.703">  1  3  2 -1</clus>
</clustering>
</event>
<event>
 6    0  0.8520634E+002  0.7665517E+02  0.7546771E-02  0.1338821E+00
         21   -1    0    0  504  501  0.00000000000E+00  0.00000000000E+00  0.20240449820E+03  0.20240449820E+03  0.00000000000E+00 0. -1.
         21   -1    0    0  505  502 -0.00000000000E+00 -0.00000000000E+00 -0.51982252528E+03  0.51982252528E+03  0.00000000000E+00 0. -1.
         21    1    1    2  503  506 -0.38191112091E+01  0.60972683527E+02  0.79280626915E+02  0.10008831875E+03  0.00000000000E+00 0. -1.
         21    1    1    2  504  502 -0.67567411995E+02  0.30802870598E+02 -0.11225457005E+03  0.13459294372E+03  0.00000000000E+00 0.  1.
         21    1    1    2  505  503  0.36576987928E+02 -0.10501845036E+03 -0.37419731118E+03  0.39037210282E+03  0.00000000000E+00 0. -1.
         21    1    1    2  506  501  0.34809535276E+02  0.13242896235E+02  0.89753227237E+02  0.97173658192E+02  0.00000000000E+00 0. -1.
<scales pt_clust_3="14000.00000" pt_clust_4="71.62486" pt_clust_5="76.65517" pt_clust_6="37.24350"></scales>
<clustering>
<clus scale="   37.243">  1  6  2 -1</clus>
<clus scale="   71.625">  2  4  1 -1</clus>
<clus scale="   76.655">  2  5  1 -1</clus>
<clus scale="   37.243">  1  3  2 -1</clus>
</clustering>
</event>
<event>
 6    0  0.8520634E+002  0.7071016E+02  0.7546771E-02  0.1357695E+00
         21   -1    0    0  503  501  0.00000000000E+00  0.00000000000E+00  0.65601281606E+02  0.65601281606E+02  0.00000000000E+00 0.  1.
         21   -1    0    0  506  502 -0.00000000000E+00 -0.00000000000E+00 -0.16799446025E+04  0.16799446025E+04  0.00000000000E+00 0. -1.
         21    1    1    2  503  504 -0.46817283344E+02  0.11316182400E+03 -0.19966195035E+03  0.23422713516E+03  0.00000000000E+00 0.  1.
         21    1    1    2  504  502  0.29078322730E+00 -0.81105285729E+02 -0.12267959113E+04  0.12294740176E+04  0.00000000000E+00 0. -1.
         21    1    1    2  505  501  0.30326222958E+02 -0.57747720292E+02  0.22712698276E+02  0.69067688978E+02  0.00000000000E+00 0.  1.
         21    1    1    2  506  505  0.16200277158E+02  0.25691182024E+02 -0.21059815754E+03  0.21277704240E+03  0.00000000000E+00 0. -1.
<scales pt_clust_3="14000.00000" pt_clust_4="61.20149" pt_clust_5="70.71016" pt_clust_6="30.37245"></scales>
<clustering>
<clus scale="   30.372">  2  6  1 -1</clus>
<clus scale="   61.201">  2  4  1 -1</clus>
<clus scale="   70.710">  1  5  2 -1</clus>
<clus scale="   70.710">  1  3  2 -1</clus>
</clustering>
</event>
<event>
 6    0  0.8520634E+002  0.1353009E+03  0.7546771E-02  0.1219796E+00
         21   -1    0    0  506  501  0.00000000000E+00  0.00000000000E+00  0.83170016125E+03  0.83170016125E+03  0.00000000000E+00 0. -1.
         21   -1    0    0  504  502 -0.00000000000E+00 -0.00000000000E+00 -0.74514855641E+02  0.74514855641E+02  0.00000000000E+00 0.  1.
         21    1    1    2  503  502 -0.43872841610E+02  0.55385965335E+02 -0.33156332296E+02  0.78049815877E+02  0.00000000000E+00 0.  1.
         21    1    1    2  504  501 -0.29363554358E+02  0.49338444756E+02  0.55181356239E+02  0.79633425971E+02  0.00000000000E+00 0. -1.
         21    1    1    2  505  503 -0.23338681087E+01 -0.37261040153E+02  0.14436356824E+03  0.14911295010E+03  0.00000000000E+00 0. -1.
         21    1    1    2  506  505  0.75570264077E+02 -0.67463369938E+02  0.59079671343E+03  0.59941882494E+03  0.00000000000E+00 0. -1.
<scales pt_clust_3="121.64672" pt_clust_4="57.41516" pt_clust_5="35.95819" pt_clust_6="35.95819"></scales>
<clustering>
<clus scale="   35.958">  5  6 -1 -1</clus>
<clus scale="   57.415">  2  4  1 -1</clus>
<clus scale="  121.647">  2  3  1 -1</clus>
<clus scale="  135.301">  1  3  2 -1</clus>
</clustering>
</event>
<event>
 6    0  0.8520634E+002  0.8203836E+02  0.7546771E-02  0.1323364E+00
         21   -1    0    0  506  501  0.00000000000E+00  0.00000000000E+00  0.76870599050E+03  0.76870599050E+03  0.00000000000E+00 0.  1.
         21   -1    0    0  503  502 -0.00000000000E+00 -0.00000000000E+00 -0.40105693076E+02  0.40105693076E+02  0.00000000000E+00 0.  1.
         21    1    1    2  503  505  0.42247200836E+02  0.73289575863E+02  0.74125549559E+02  0.11247570852E+03  0.00000000000E+00 0.  1.
         21    1    1    2  504  502 -0.54973830855E+02 -0.58828944979E+02  0.78230719690E+02  0.11226313887E+03  0.00000000000E+00 0.  1.
         21    1    1    2  505  501 -0.18751787261E+02  0.33174854627E+02  0.21734789448E+03  0.22066333574E+03  0.00000000000E+00 0.  1.
         21    1    1    2  506  504  0.31478417280E+02 -0.47635485511E+02  0.35889613370E+03  0.36340950045E+03  0.00000000000E+00 0.  1.
<scales pt_clust_3="82.03836" pt_clust_4="14000.00000" pt_clust_5="38.10775" pt_clust_6="32.16729"></scales>
<clustering>
<clus scale="   38.108">  1  5  2 -1</clus>
<clus scale="   32.167">  1  6  2 -1</clus>
<clus scale="   82.038">  2  3  1 -1</clus>
<clus scale="   38.108">  1  3  2 -1</clus>
</clustering>
</event>
<event>
 6    0  0.8520634E+002  0.7975364E+02  0.7546771E-02  0.1329752E+00
         21   -1    0    0  506  501  0.00000000000E+00  0.00000000000E+00  0.17834633421E+03  0.17834633421E+03  0.00000000000E+00 0.  1.
         21   -1    0    0  504  502 -0.00000000000E+00 -0.00000000000E+00 -0.71619217346E+03  0.71619217346E+03  0.00000000000E+00 0.  1.
         21    1    1    2  503  501 -0.90286000494E+02 -0.78133478035E+02  0.33152889586E+02  0.12391737716E+03  0.00000000000E+00 0.  1.
         21    1    1    2  504  503 -0.44323039495E+02 -0.11980845807E+02 -0.71977578061E+02  0.85374728344E+02  0.00000000000E+00 0.  1.
         21    1    1    2  505  502  0.75571101925E+02  0.55155495989E+02 -0.57517979475E+03  0.58273914960E+03  0.00000000000E+00 0.  1.
         21    1    1    2  506  505  0.59037938064E+02  0.34958827854E+02  0.76158643974E+02  0.10250725256E+03  0.00000000000E+00 0.  1.
<scales pt_clust_3="79.75364" pt_clust_4="45.91375" pt_clust_5="56.63682" pt_clust_6="14000.00000"></scales>
<clustering>
<clus scale="   45.914">  2  4  1 -1</clus>
<clus scale="   56.637">  2  5  1 -1</clus>
<clus scale="   79.754">  2  3  1 -1</clus>
<clus scale="   79.754">  1  3  2 -1</clus>
</clustering>
</event>
<event>
 6    0  0.8520634E+002  0.1609933E+03  0.7546771E-02  0.1187580E+00
         21   -1    0    0  505  501  0.00000000000E+00  0.00000000000E+00  0.54974571068E+03  0.54974571068E+03  0.00000000000E+00 0.  1.
         21   -1    0    0  503  502 -0.00000000000E+00 -0.00000000000E+00 -0.18176596218E+03  0.18176596218E+03  0.00000000000E+00 0.  1.
         21    1    1    2  503  504  0.22675453449E+02  0.38589028695E+02  0.14344594659E+02  0.47000603408E+02  0.00000000000E+00 0. -1.
         21    1    1    2  504  506 -0.63256925251E+02  0.13109583564E+03 -0.28003821783E+02  0.14822877841E+03  0.00000000000E+00 0.  1.
         21    1    1    2  505  502  0.17439241197E+03 -0.10077082572E+03  0.12003545885E+03  0.23446958022E+03  0.00000000000E+00 0.  1.
         21    1    1    2  506  501 -0.13381094016E+03 -0.68914038608E+02  0.26160351678E+03  0.30181271082E+03  0.00000000000E+00 0.  1.
<scales pt_clust_3="44.75812" pt_clust_4="160.99334" pt_clust_5="14000.00000" pt_clust_6="145.94621"></scales>
<clustering>
<clus scale="   44.758">  2  3  1 -1</clus>
<clus scale="  145.946">  1  6  2 -1</clus>
<clus scale="  160.993">  2  4  1 -1</clus>
<clus scale="  145.946">  1  3  2 -1</clus>
</clustering>
</event>
<event>
 6    0  0.1567754E+003  0.8575211E+02  0.7546771E-02  0.1313477E+00
         21   -1    0    0  504  501  0.00000000000E+00  0.00000000000E+00  0.22213517276E+03  0.22213517276E+03  0.00000000000E+00 0.  1.
         21   -1    0    0  503  502 -0.00000000000E+00 -0.00000000000E+00 -0.14860949533E+04  0.14860949533E+04  0.00000000000E+00 0.  1.
         21    1    1    2  503  501 -0.14523005785E+03 -0.31927667841E+01 -0.18645430974E+03  0.23636237662E+03  0.00000000000E+00 0.  1.
         21    1    1    2  504  506  0.75694902384E+02 -0.35728053295E+02  0.17353735333E+03  0.19266921145E+03  0.00000000000E+00 0.  1.
         21    1    1    2  505  502  0.17273896828E+02  0.35318751453E+02 -0.12149436330E+04  0.12155796284E+04  0.00000000000E+00 0.  1.
         21    1    1    2  506  505  0.52261258637E+02  0.36020686261E+01 -0.36099191164E+02  0.63618909574E+02  0.00000000000E+00 0.  1.
<scales pt_clust_3="14000.00000" pt_clust_4="85.75211" pt_clust_5="39.31668" pt_clust_6="56.35450"></scales>
<clustering>
<clus scale="   39.317">  2  5  1 -1</clus>
<clus scale="   56.354">  2  6  1 -1</clus>
<clus scale="   85.752">  1  4  2 -1</clus>
<clus scale="   85.752">  1  3  2 -1</clus>
</clustering>
</event>
<event>
 6    0  0.8520634E+002  0.1356221E+03  0.7546771E-02  0.1219344E+00
         21   -1    0    0  504  501  0.00000000000E+00  0.00000000000E+00  0.77543761731E+03  0.77543761731E+03  0.00000000000E+00 0. -1.
         21   -1    0    0  501  502 -0.00000000000E+00 -0.00000000000E+00 -0.57491567793E+03  0.57491567793E+03  0.00000000000E+00 0. -1.
         21    1    1    2  503  506 -0.41234007047E+02 -0.15846566369E+03  0.38830997829E+03  0.42142169990E+03  0.00000000000E+00 0. -1.
         21    1    1    2  504  503  0.18559360278E+02  0.33746789647E+02  0.36138038464E+03  0.36342685381E+03  0.00000000000E+00 0. -1.
         21    1    1    2  505  502  0.19370821382E+02  0.44951098157E+02 -0.29681064974E+03  0.30081953352E+03  0.00000000000E+00 0. -1.
         21    1    1    2  506  505  0.33038253868E+01  0.79767775887E+02 -0.25235777382E+03  0.26468520801E+03  0.00000000000E+00 0. -1.
<scales pt_clust_3="127.48581" pt_clust_4="38.51358" pt_clust_5="36.22796" pt_clust_6="36.22796"></scales>
<clustering>
<clus scale="   36.228">  5  6 -1 -1</clus>
<clus scale="   38.514">  1  4  2 -1</clus>
<clus scale="  127.486">  1  3  2 -1</clus>
<clus scale="   38.514">  1  3  2 -1</clus>
</clustering>
</event>
<event>
 6    0  0.8520634E+002  0.8466597E+02  0.7546771E-02  0.1316308E+00
         21   -1    0    0  504  501  0.00000000000E+00  0.00000000000E+00  0.85083618912E+03  0.85083618912E+03  0.00000000000E+00 0. -1.
         21   -1    0    0  506  502 -0.00000000000E+00 -0.00000000000E+00 -0.67235439266E+02  0.67235439266E+02  0.00000000000E+00 0. -1.
         21    1    1    2  503  501 -0.14741760339E+02  0.64868604340E+02  0.42848580881E+03  0.43361889221E+03  0.00000000000E+00 0. -1.
         21    1    1    2  504  502 -0.40344761812E+02  0.10429098515E+02  0.32506426104E+03  0.32772433493E+03  0.00000000000E+00 0. -1.
         21    1    1    2  505  503  0.85704450118E+02 -0.21528606818E+02  0.10002296882E+01  0.88372700202E+02  0.00000000000E+00 0. -1.
         21    1    1    2  506  505 -0.30617927968E+02 -0.53769096036E+02  0.29050450315E+02  0.68355701043E+02  0.00000000000E+00 0.  1.
<scales pt_clust_3="84.66597" pt_clust_4="41.67092" pt_clust_5="14000.00000" pt_clust_6="62.99863"></scales>
<clustering>
<clus scale="   41.671">  1  4  2 -1</clus>
<clus scale="   62.999">  2  6  1 -1</clus>
<clus scale="   84.666">  1  3  2 -1</clus>
<clus scale="   41.671">  1  3  2 -1</clus>
</clustering>
</event>
<event>
 6    0  0.8520634E+002  0.1688802E+03  0.7546771E-02  0.1179021E+00
         21   -1    0    0  504  501  0.00000000000E+00  0.00000000000E+00  0.91931422952E+03  0.91931422952E+03  0.00000000000E+00 0.  1.
         21   -1    0    0  505  502 -0.00000000000E+00 -0.00000000000E+00 -0.19872637799E+03  0.19872637799E+03  0.00000000000E+00 0.  1.
         21    1    1    2  503  501  0.60449261285E+02 -0.56919160493E+02  0.26443004637E+03  0.27715907606E+03  0.00000000000E+00 0. -1.
         21    1    1    2  504  506  0.10358667095E+03  0.32506647484E+02  0.39020923890E+03  0.40503102431E+03  0.00000000000E+00 0.  1.
         21    1    1    2  505  503  0.26067586986E+02  0.16171674427E+03 -0.53967622914E+02  0.17246544231E+03  0.00000000000E+00 0.  1.
         21    1    1    2  506  502 -0.19010351923E+03 -0.13730423126E+03  0.11991618917E+03  0.26338506482E+03  0.00000000000E+00 0.  1.
<scales pt_clust_3="83.02954" pt_clust_4="140.66963" pt_clust_5="168.88023" pt_clust_6="14000.00000"></scales>
<clustering>
<clus scale="   83.030">  1  3  2 -1</clus>
<clus scale="  140.670">  1  4  2 -1</clus>
<clus scale="  168.880">  2  5  1 -1</clus>
<clus scale="   83.030">  1  3  2 -1</clus>
</clustering>
</event>
<event>
 6    0  0.8520634E+002  0.8847734E+02  0.7546771E-02  0.1306581E+00
         21   -1    0    0  503  501  0.00000000000E+00  0.00000000000E+00  0.43763368930E+03  0.43763368930E+03  0.00000000000E+00 0. -1.
         21   -1    0    0  505  502 -0.00000000000E+00 -0.00000000000E+00 -0.29194698223E+03  0.29194698223E+03  0.00000000000E+00 0. -1.
         21    1    1    2  503  502  0.77393128787E+02 -0.49059504098E+02 -0.16890354572E+03  0.19215863000E+03  0.00000000000E+00 0. -1.
         21    1    1    2  504  501 -0.76263836011E+02 -0.52596944923E+02  0.36344198871E+03  0.37506358188E+03  0.00000000000E+00 0. -1.
         21    1    1    2  505  506 -0.47097308288E+02  0.49624330398E+02 -0.61254179627E+02  0.91830306202E+02  0.00000000000E+00 0. -1.
         21    1    1    2  506  504  0.45968015511E+02  0.52032118623E+02  0.12402443714E+02  0.70528153446E+02  0.00000000000E+00 0. -1.
<scales pt_clust_3="38.64940" pt_clust_4="14000.00000" pt_clust_5="68.41587" pt_clust_6="88.47734"></scales>
<clustering>
<clus scale="   68.416">  2  5  1 -1</clus>
<clus scale="   38.649">  2  3  1 -1</clus>
<clus scale="   88.477">  2  6  1 -1</clus>
<clus scale="   88.477">  1  3  2 -1</clus>
</clustering>
</event>
<event>
 6    0  0.8520634E+002  0.7209206E+02  0.7546771E-02  0.1353120E+00
         21   -1    0    0  506  501  0.00000000000E+00  0.00000000000E+00  0.27382560603E+03  0.27382560603E+03  0.00000000000E+00 0.  1.
         21   -1    0    0  505  502 -0.00000000000E+00 -0.00000000000E+00 -0.37857893706E+03  0.37857893706E+03  0.00000000000E+00 0. -1.
         21    1    1    2  503  504 -0.50882028487E+02  0.26322639975E+02  0.37879669175E+02  0.68678464856E+02  0.00000000000E+00 0.  1.
         21    1    1    2  504  501  0.36253095438E+02  0.24365606669E+02  0.55394936745E+02  0.70544799484E+02  0.00000000000E+00 0. -1.
         21    1    1    2  505  503  0.70931565244E+02  0.13470070583E+02 -0.33996878639E+03  0.34755072359E+03  0.00000000000E+00 0. -1.
         21    1    1    2  506  502 -0.56302632196E+02 -0.64158317227E+02  0.14194084944E+03  0.16563055516E+03  0.00000000000E+00 0.  1.
<scales pt_clust_3="52.87342" pt_clust_4="43.68031" pt_clust_5="14000.00000" pt_clust_6="72.09206"></scales>
<clustering>
<clus scale="   43.680">  1  4  2 -1</clus>
<clus scale="   52.873">  1  3  2 -1</clus>
<clus scale="   72.092">  1  6  2 -1</clus>
<clus scale="   43.680">  1  3  2 -1</clus>
</clustering>
</event>
<event>
 6    0  0.8520634E+002  0.1398108E+03  0.7546771E-02  0.1213584E+00
         21   -1    0    0  505  501  0.00000000000E+00  0.00000000000E+00  0.85877373532E+03  0.85877373532E+03  0.00000000000E+00 0.  1.
         21   -1    0    0  506  502 -0.00000000000E+00 -0.00000000000E+00 -0.66307621277E+03  0.66307621277E+03  0.00000000000E+00 0. -1.
         21    1    1    2  503  501 -0.45856224370E+02 -0.73175440868E+02  0.79945815340E+03  0.80410868513E+03  0.00000000000E+00 0.  1.
         21    1    1    2  504  503  0.14218930807E+03  0.11414232373E+03 -0.22564240300E+03  0.29010474561E+03  0.00000000000E+00 0. -1.
         21    1    1    2  505  502 -0.76906524585E+02 -0.84883125100E+02 -0.12314186884E+03  0.16817752024E+03  0.00000000000E+00 0. -1.
         21    1    1    2  506  504 -0.19426559111E+02  0.43916242238E+02 -0.25497635901E+03  0.25945899711E+03  0.00000000000E+00 0. -1.
<scales pt_clust_3="86.20266" pt_clust_4="139.81084" pt_clust_5="14000.00000" pt_clust_6="48.02112"></scales>
<clustering>
<clus scale="   48.021">  2  6  1 -1</clus>
<clus scale="   86.203">  1  3  2 -1</clus>
<clus scale="  139.811">  1  4  2 -1</clus>
<clus scale="   86.203">  1  3  2 -1</clus>
</clustering>
</event>
<event>
 6    0  0.8520634E+002  0.8333304E+02  0.7546771E-02  0.1319850E+00
         21   -1    0    0  503  501  0.00000000000E+00  0.00000000000E+00  0.17402059934E+03  0.17402059934E+03  0.00000000000E+00 0.  1.
         21   -1    0    0  505  502 -0.00000000000E+00 -0.00000000000E+00 -0.23491403665E+03  0.23491403665E+03  0.00000000000E+00 0.  1.
         21    1    1    2  503  502 -0.39183008001E+02  0.71139044380E+02 -0.63575774341E+02  0.10314044228E+03  0.00000000000E+00 0.  1.
         21    1    1    2  504  506  0.63242882528E+02 -0.21344447043E+02 -0.93023771745E+02  0.11449309900E+03  0.00000000000E+00 0.  1.
         21    1    1    2  505  504  0.24626614541E+02  0.26673714446E+02 -0.22215932378E+02  0.42561776720E+02  0.00000000000E+00 0.  1.
         21    1    1    2  506  501 -0.48686489069E+02 -0.76468311782E+02  0.11792204115E+03  0.14873931798E+03  0.00000000000E+00 0.  1.
<scales pt_clust_3="83.33304" pt_clust_4="76.24733" pt_clust_5="36.30368" pt_clust_6="14000.00000"></scales>
<clustering>
<clus scale="   36.304">  2  5  1 -1</clus>
<clus scale="   76.247">  2  4  1 -1</clus>
<clus scale="   83.333">  2  3  1 -1</clus>
<clus scale="   83.333">  1  3  2 -1</clus>
</clustering>
</event>
<event>
 6    0  0.8520634E+002  0.1450621E+03  0.7546771E-02  0.1206675E+00
         21   -1    0    0  503  501  0.00000000000E+00  0.00000000000E+00  0.29519572982E+03  0.29519572982E+03  0.00000000000E+00 0. -1.
         21   -1    0    0  505  502 -0.00000000000E+00 -0.00000000000E+00 -0.17895610365E+03  0.17895610365E+03  0.00000000000E+00 0. -1.
         21    1    1    2  503  504 -0.52716195226E+02 -0.80029139609E+02 -0.99415864555E+02  0.13808394024E+03  0.00000000000E+00 0. -1.
         21    1    1    2  504  502 -0.47123323829E+02 -0.26522576832E+02 -0.12555923143E+02  0.55513114995E+02  0.00000000000E+00 0. -1.
         21    1    1    2  505  506  0.66699831455E+02  0.69033577269E+02  0.82802428667E+02  0.12677044017E+03  0.00000000000E+00 0. -1.
         21    1    1    2  506  501  0.33139687600E+02  0.37518139173E+02  0.14540898520E+03  0.15378433808E+03  0.00000000000E+00 0. -1.
<scales pt_clust_3="45.20153" pt_clust_4="45.20153" pt_clust_5="131.99269" pt_clust_6="50.05846"></scales>
<clustering>
<clus scale="   45.202">  3  4 -1 -1</clus>
<clus scale="   50.058">  1  6  2 -1</clus>
<clus scale="  131.993">  1  5  2 -1</clus>
<clus scale="   50.058">  1  3  2 -1</clus>
</clustering>
</event>
<event>
 6    0  0.8520634E+002  0.6488254E+02  0.7546771E-02  0.1378414E+00
         21   -1    0    0  503  501  0.00000000000E+00  0.00000000000E+00  0.24970945198E+03  0.24970945198E+03  0.00000000000E+00 0. -1.
         21   -1    0    0  505  502 -0.00000000000E+00 -0.00000000000E+00 -0.94520901641E+03  0.94520901641E+03  0.00000000000E+00 0. -1.
         21    1    1    2  503  502  0.27943431382E+02 -0.48709371070E+02 -0.40094924859E+03  0.40486261637E+03  0.00000000000E+00 0. -1.
         21    1    1    2  504  501  0.16124263215E+02 -0.50903522177E+02  0.22561288532E+03  0.23184549695E+03  0.00000000000E+00 0. -1.
         21    1    1    2  505  506  0.33444662169E+02  0.77377298803E+02 -0.42589758874E+03  0.43415958805E+03  0.00000000000E+00 0. -1.
         21    1    1    2  506  504 -0.77512356766E+02  0.22235594445E+02 -0.94265612430E+02  0.12405076702E+03  0.00000000000E+00 0. -1.
<scales pt_clust_3="61.03088" pt_clust_4="53.39626" pt_clust_5="64.88254" pt_clust_6="14000.00000"></scales>
<clustering>
<clus scale="   53.396">  1  4  2 -1</clus>
<clus scale="   61.031">  2  3  1 -1</clus>
<clus scale="   64.883">  2  5  1 -1</clus>
<clus scale="   53.396">  1  3  2 -1</clus>
</clustering>
</event>
<event>
 6    0  0.8520634E+002  0.1668810E+03  0.7546771E-02  0.1181140E+00
         21   -1    0    0  504  501  0.00000000000E+00  0.00000000000E+00  0.88587994615E+03  0.88587994615E+03  0.00000000000E+00 0. -1.
         21   -1    0    0  501  502 -0.00000000000E+00 -0.00000000000E+00 -0.15784018496E+04  0.15784018496E+04  0.00000000000E+00 0. -1.
         21    1    1    2  503  502 -0.15732113379E+03  0.68746235559E+02 -0.90335730609E+03  0.91952727339E+03  0.00000000000E+00 0. -1.
         21    1    1    2  504  505  0.13133722138E+02 -0.30618405288E+02  0.86836491684E+03  0.86900380333E+03  0.00000000000E+00 0. -1.
         21    1    1    2  505  506  0.86557527880E+02 -0.18145331130E+02 -0.28971498602E+03  0.30291291124E+03  0.00000000000E+00 0. -1.
         21    1    1    2  506  503  0.57629883774E+02 -0.19982499142E+02 -0.36781452823E+03  0.37283780783E+03  0.00000000000E+00 0. -1.
<scales pt_clust_3="160.62078" pt_clust_4="33.31638" pt_clust_5="37.01048" pt_clust_6="37.01048"></scales>
<clustering>
<clus scale="   33.316">  1  4  2 -1</clus>
<clus scale="   37.010">  5  6 -1 -1</clus>
<clus scale="  160.621">  2  3  1 -1</clus>
<clus scale="   33.316">  1  3  2 -1</clus>
</clustering>
</event>
<event>
 6    0  0.8520634E+002  0.2308004E+03  0.7546771E-02  0.1126078E+00
         21   -1    0    0  506  501  0.00000000000E+00  0.00000000000E+00  0.23545739029E+04  0.23545739029E+04  0.00000000000E+00 0.  1.
         21   -1    0    0  503  502 -0.00000000000E+00 -0.00000000000E+00 -0.14781577896E+03  0.14781577896E+03  0.00000000000E+00 0.  1.
         21    1    1    2  503  505  0.39543502056E+02  0.87375451702E+01 -0.69038760129E+01  0.41081586562E+02  0.00000000000E+00 0.  1.
         21    1    1    2  504  502 -0.63189275937E+02 -0.13655883102E+01 -0.70097117997E+01  0.63591551989E+02  0.00000000000E+00 0.  1.
         21    1    1    2  505  501  0.20342831371E+03 -0.11822114878E+03  0.82788860885E+02  0.24942596963E+03  0.00000000000E+00 0.  1.
         21    1    1    2  506  504 -0.17978253983E+03  0.11084919192E+03  0.21378828509E+04  0.21482905737E+04  0.00000000000E+00 0.  1.
<scales pt_clust_3="36.20146" pt_clust_4="63.20403" pt_clust_5="36.20146" pt_clust_6="213.66957"></scales>
<clustering>
<clus scale="   36.201">  3  5 -1 -1</clus>
<clus scale="   63.204">  2  4  1 -1</clus>
<clus scale="  213.670">  1  6  2 -1</clus>
<clus scale="  213.670">  1  3  2 -1</clus>
</clustering>
</event>
<event>
 6    0  0.8520634E+002  0.7016984E+02  0.7546771E-02  0.1359516E+00
         21   -1    0    0  506  501  0.00000000000E+00  0.00000000000E+00  0.41968877902E+03  0.41968877902E+03  0.00000000000E+00 0.  1.
         21   -1    0    0  503  502 -0.00000000000E+00 -0.00000000000E+00 -0.39150107308E+03  0.39150107308E+03  0.00000000000E+00 0.  1.
         21    1    1    2  503  501 -0.67569764510E+01  0.42223257118E+02 -0.49171410355E+02  0.65163546318E+02  0.00000000000E+00 0. -1.
         21    1    1    2  504  502 -0.25441277860E+02 -0.10190152608E+03 -0.31352180206E+03  0.33064648797E+03  0.00000000000E+00 0.  1.
         21    1    1    2  505  504  0.69515922403E+02  0.61616526230E+02  0.19536669603E+03  0.21632661808E+03  0.00000000000E+00 0.  1.
         21    1    1    2  506  505 -0.37317668092E+02 -0.19382572712E+01  0.19551422233E+03  0.19905319974E+03  0.00000000000E+00 0.  1.
<scales pt_clust_3="42.92449" pt_clust_4="70.16984" pt_clust_5="14000.00000" pt_clust_6="37.36797"></scales>
<clustering>
<clus scale="   37.368">  1  6  2 -1</clus>
<clus scale="   42.924">  2  3  1 -1</clus>
<clus scale="   70.170">  2  4  1 -1</clus>
<clus scale="   37.368">  1  3  2 -1</clus>
</clustering>
</event>
<event>
 6    0  0.8520634E+002  0.1957545E+03  0.7546771E-02  0.1153371E+00
         21   -1    0    0  505  501  0.00000000000E+00  0.00000000000E+00  0.10629932226E+04  0.10629932226E+04  0.00000000000E+00 0.  1.
         21   -1    0    0  506  502 -0.00000000000E+00 -0.00000000000E+00 -0.34120498765E+03  0.34120498765E+03  0.00000000000E+00 0.  1.
         21    1    1    2  503  504  0.62291812060E+02  0.15721731140E+03  0.66325982098E+02  0.18164990712E+03  0.00000000000E+00 0.  1.
         21    1    1    2  504  502 -0.14125910193E+03  0.98300152248E+02 -0.59259110938E+02  0.18201290075E+03  0.00000000000E+00 0.  1.
         21    1    1    2  505  503 -0.22611261105E+02 -0.22591192061E+02  0.77800558457E+03  0.77866187830E+03  0.00000000000E+00 0.  1.
         21    1    1    2  506  501  0.10157855098E+03 -0.23292627159E+03 -0.63284220780E+02  0.26187352408E+03  0.00000000000E+00 0.  1.
<scales pt_clust_3="156.43007" pt_clust_4="14000.00000" pt_clust_5="31.96296" pt_clust_6="195.75453"></scales>
<clustering>
<clus scale="   31.963">  1  5  2 -1</clus>
<clus scale="  156.430">  1  3  2 -1</clus>
<clus scale="  195.755">  1  6  2 -1</clus>
<clus scale="   31.963">  1  3  2 -1</clus>
</clustering>
</event>
<event>
 6    0  0.8520634E+002  0.7325065E+02  0.7546771E-02  0.1349375E+00
         21   -1    0    0  505  501  0.00000000000E+00  0.00000000000E+00  0.17476906517E+04  0.17476906517E+04  0.00000000000E+00 0. -1.
         21   -1    0    0  503  502 -0.00000000000E+00 -0.00000000000E+00 -0.41649102876E+02  0.41649102876E+02  0.00000000000E+00 0. -1.
         21    1    1    2  503  501  0.91795799945E+02 -0.44737287832E+01  0.13966898970E+04  0.13997103813E+04  0.00000000000E+00 0. -1.
         21    1    1    2  504  506 -0.14358432219E+02 -0.54895095483E+02  0.19592757685E+03  0.20397855636E+03  0.00000000000E+00 0. -1.
         21    1    1    2  505  504 -0.29842599425E+02  0.33308984086E+01  0.10781104284E+03  0.11191468439E+03  0.00000000000E+00 0. -1.
         21    1    1    2  506  502 -0.47594768300E+02  0.56037925858E+02  0.56130320918E+01  0.73736132481E+02  0.00000000000E+00 0. -1.
<scales pt_clust_3="14000.00000" pt_clust_4="57.38513" pt_clust_5="30.02791" pt_clust_6="73.25065"></scales>
<clustering>
<clus scale="   30.028">  1  5  2 -1</clus>
<clus scale="   57.385">  1  4  2 -1</clus>
<clus scale="   73.251">  2  6  1 -1</clus>
<clus scale="   30.028">  1  3  2 -1</clus>
</clustering>
</event>
<event>
 6    0  0.8520634E+002  0.1198907E+03  0.7546771E-02  0.1243277E+00
         21   -1    0    0  506  501  0.00000000000E+00  0.00000000000E+00  0.63780291176E+03  0.63780291176E+03  0.00000000000E+00 0. -1.
         21   -1    0    0  504  502 -0.00000000000E+00 -0.00000000000E+00 -0.75501438696E+03  0.75501438696E+03  0.00000000000E+00 0.  1.
         21    1    1    2  503  501  0.11922448396E+03  0.18978784865E+02  0.58979472550E+03  0.60202366239E+03  0.00000000000E+00 0. -1.
         21    1    1    2  504  503 -0.50061981747E+02  0.83438182638E+02 -0.60568049414E+03  0.61344681376E+03  0.00000000000E+00 0.  1.
         21    1    1    2  505  502 -0.30261525984E+02  0.26356993653E+01 -0.76671790213E+01  0.31328780700E+02  0.00000000000E+00 0. -1.
         21    1    1    2  506  505 -0.38900976229E+02 -0.10505266687E+03 -0.93658527548E+02  0.14601804187E+03  0.00000000000E+00 0. -1.
<scales pt_clust_3="119.89073" pt_clust_4="14000.00000" pt_clust_5="30.37609" pt_clust_6="113.43378"></scales>
<clustering>
<clus scale="   30.376">  2  5  1 -1</clus>
<clus scale="  113.434">  2  6  1 -1</clus>
<clus scale="  119.891">  1  3  2 -1</clus>
<clus scale="  119.891">  1  3  2 -1</clus>
</clustering>
</event>
<event>
 6    0  0.8520634E+002  0.9967755E+02  0.7546771E-02  0.1280975E+00
         21   -1    0    0  505  501  0.00000000000E+00  0.00000000000E+00  0.28512999929E+03  0.28512999929E+03  0.00000000000E+00 0. -1.
         21   -1    0    0  504  502 -0.00000000000E+00 -0.00000000000E+00 -0.47095223410E+03  0.47095223410E+03  0.00000000000E+00 0.  1.
         21    1    1    2  503  502 -0.36465377265E+02 -0.99812307175E+02  0.13594426166E+03  0.17254872552E+03  0.00000000000E+00 0. -1.
         21    1    1    2  504  506 -0.41316286717E+02  0.91664673646E+02 -0.42144549183E+03  0.43327329773E+03  0.00000000000E+00 0.  1.
         21    1    1    2  505  503  0.46656286607E+02 -0.77203881229E+01  0.10477553483E+03  0.11495358268E+03  0.00000000000E+00 0. -1.
         21    1    1    2  506  501  0.31125377375E+02  0.15868021652E+02 -0.50965394585E+01  0.35306627456E+02  0.00000000000E+00 0. -1.
<scales pt_clust_3="14000.00000" pt_clust_4="99.67755" pt_clust_5="59.33368" pt_clust_6="34.93685"></scales>
<clustering>
<clus scale="   34.937">  1  6  2 -1</clus>
<clus scale="   59.334">  1  5  2 -1</clus>
<clus scale="   99.678">  2  4  1 -1</clus>
<clus scale="   34.937">  1  3  2 -1</clus>
</clustering>
</event>
<event>
 6    0  0.8520634E+002  0.1591124E+03  0.7546771E-02  0.1189702E+00
         21   -1    0    0  504  501  0.00000000000E+00  0.00000000000E+00  0.58682763637E+03  0.58682763637E+03  0.00000000000E+00 0.  1.
         21   -1    0    0  503  502 -0.00000000000E+00 -0.00000000000E+00 -0.44417453670E+03  0.44417453670E+03  0.00000000000E+00 0. -1.
         21    1    1    2  503  506 -0.55701017862E+02  0.17926169504E+03 -0.27887270065E+03  0.33616564647E+03  0.00000000000E+00 0. -1.
         21    1    1    2  504  505 -0.18338714369E+02 -0.64896788029E+02 -0.31010718027E+02  0.74226451981E+02  0.00000000000E+00 0. -1.
         21    1    1    2  505  502 -0.61367962940E+01 -0.59901955201E+02 -0.68171811837E+02  0.90957684859E+02  0.00000000000E+00 0. -1.
         21    1    1    2  506  501  0.80176528525E+02 -0.54462951806E+02  0.52070833019E+03  0.52965238975E+03  0.00000000000E+00 0.  1.
<scales pt_clust_3="155.05458" pt_clust_4="33.73887" pt_clust_5="33.73887" pt_clust_6="96.92517"></scales>
<clustering>
<clus scale="   33.739">  4  5 -1 -1</clus>
<clus scale="   96.925">  1  6  2 -1</clus>
<clus scale="  155.055">  2  3  1 -1</clus>
<clus scale="   96.925">  1  3  2 -1</clus>
</clustering>
</event>
<event>
 6    0  0.8520634E+002  0.1164408E+03  0.7546771E-02  0.1249087E+00
         21   -1    0    0  502  501  0.00000000000E+00  0.00000000000E+00  0.18055530917E+03  0.18055530917E+03  0.00000000000E+00 0. -1.
         21   -1    0    0  503  502 -0.00000000000E+00 -0.00000000000E+00 -0.38611492981E+03  0.38611492981E+03  0.00000000000E+00 0. -1.
         21    1    1    2  503  506 -0.30974076911E+02  0.12404036066E+01 -0.24286976084E+02  0.39380061566E+02  0.00000000000E+00 0.  1.
         21    1    1    2  504  505  0.20639022599E+02 -0.98686949974E+02 -0.72166408748E+02  0.12398820065E+03  0.00000000000E+00 0. -1.
         21    1    1    2  505  501 -0.59268370132E+02 -0.29794500344E+02  0.11710559925E+03  0.13458890491E+03  0.00000000000E+00 0. -1.
         21    1    1    2  506  504  0.69603424444E+02  0.12724104671E+03 -0.22621183506E+03  0.26871307185E+03  0.00000000000E+00 0. -1.
<scales pt_clust_3="30.99890" pt_clust_4="14000.00000" pt_clust_5="67.00602" pt_clust_6="116.44076"></scales>
<clustering>
<clus scale="   30.999">  2  3  1 -1</clus>
<clus scale="   67.006">  1  5  2 -1</clus>
<clus scale="  116.441">  2  6  1 -1</clus>
<clus scale="   67.006">  1  3  2 -1</clus>
</clustering>
</event>
<event>
 6    0  0.8520634E+002  0.8892352E+02  0.7546771E-02  0.1305480E+00
         21   -1    0    0  506  501  0.00000000000E+00  0.00000000000E+00  0.49605190668E+03  0.49605190668E+03  0.00000000000E+00 0.  1.
         21   -1    0    0  504  502 -0.00000000000E+00 -0.00000000000E+00 -0.18887327768E+03  0.18887327768E+03  0.00000000000E+00 0.  1.
         21    1    1    2  503  501  0.25442434770E+02  0.83570506328E+02  0.36446340784E+03  0.37478650278E+03  0.00000000000E+00 0.  1.
         21    1    1    2  504  505  0.73176863031E+01  0.34566324138E+02 -0.84167973973E+02  0.91283224855E+02  0.00000000000E+00 0.  1.
         21    1    1    2  505  503 -0.69286570607E+02 -0.94874761546E+02 -0.52305780040E+02  0.12859915968E+03  0.00000000000E+00 0.  1.
         21    1    1    2  506  502  0.36526449534E+02 -0.23262068919E+02  0.79188975172E+02  0.90256297036E+02  0.00000000000E+00 0.  1.
<scales pt_clust_3="88.92352" pt_clust_4="35.33241" pt_clust_5="14000.00000" pt_clust_6="42.66506"></scales>
<clustering>
<clus scale="   35.332">  2  4  1 -1</clus>
<clus scale="   42.665">  1  6  2 -1</clus>
<clus scale="   88.924">  1  3  2 -1</clus>
<clus scale="   42.665">  1  3  2 -1</clus>
</clustering>
</event>
<event>
 6    0  0.8520634E+002  0.1705499E+03  0.7546771E-02  0.1177276E+00
         21   -1    0    0  505  501  0.00000000000E+00  0.00000000000E+00  0.20585097871E+04  0.20585097871E+04  0.00000000000E+00 0. -1.
         21   -1    0    0  504  502 -0.00000000000E+00 -0.00000000000E+00 -0.90323361796E+03  0.90323361796E+03  0.00000000000E+00 0.  1.
         21    1    1    2  503  502 -0.40926677681E+01 -0.53685732149E+02 -0.62622224587E+03  0.62853258387E+03  0.00000000000E+00 0. -1.
         21    1    1    2  504  501  0.11765667946E+03  0.12622517643E+03  0.18156321082E+04  0.18238135436E+04  0.00000000000E+00 0. -1.
         21    1    1    2  505  506 -0.41440919129E+02  0.27846085619E+02  0.22064155153E+03  0.22621991186E+03  0.00000000000E+00 0. -1.
         21    1    1    2  506  503 -0.72123092565E+02 -0.10038552990E+03 -0.25477524478E+03  0.28317736570E+03  0.00000000000E+00 0.  1.
<scales pt_clust_3="53.82602" pt_clust_4="14000.00000" pt_clust_5="49.92749" pt_clust_6="170.54985"></scales>
<clustering>
<clus scale="   49.927">  1  5  2 -1</clus>
<clus scale="   53.826">  2  3  1 -1</clus>
<clus scale="  170.550">  2  6  1 -1</clus>
<clus scale="   49.927">  1  3  2 -1</clus>
</clustering>
</event>
<event>
 6    0  0.8520634E+002  0.9239097E+02  0.7546771E-02  0.1297163E+00
         21   -1    0    0  505  501  0.00000000000E+00  0.00000000000E+00  0.83195909039E+02  0.83195909039E+02  0.00000000000E+00 0. -1.
         21   -1    0    0  503  502 -0.00000000000E+00 -0.00000000000E+00 -0.34432467903E+03  0.34432467903E+03  0.00000000000E+00 0.  1.
         21    1    1    2  503  504  0.43079804678E+02  0.41605536763E+01 -0.57844273026E+02  0.72243613557E+02  0.00000000000E+00 0.  1.
         21    1    1    2  504  501  0.49963387524E+02 -0.72980410924E+02 -0.15654452326E+03  0.17980174703E+03  0.00000000000E+00 0.  1.
         21    1    1    2  505  506 -0.88015079504E+02  0.37926502718E+02  0.23412371548E+02  0.98657047239E+02  0.00000000000E+00 0. -1.
         21    1    1    2  506  502 -0.50281126973E+01  0.30893354530E+02 -0.70152345259E+02  0.76818180249E+02  0.00000000000E+00 0.  1.
<scales pt_clust_3="43.44397" pt_clust_4="14000.00000" pt_clust_5="92.39097" pt_clust_6="31.29986"></scales>
<clustering>
<clus scale="   31.300">  2  6  1 -1</clus>
<clus scale="   43.444">  2  3  1 -1</clus>
<clus scale="   92.391">  1  5  2 -1</clus>
<clus scale="   92.391">  1  3  2 -1</clus>
</clustering>
</event>
<event>
 6    0  0.8520634E+002  0.9455592E+02  0.7546771E-02  0.1292179E+00
         21   -1    0    0  503  501  0.00000000000E+00  0.00000000000E+00  0.42437940769E+03  0.42437940769E+03  0.00000000000E+00 0. -1.
         21   -1    0    0  505  502 -0.00000000000E+00 -0.00000000000E+00 -0.33446574856E+04  0.33446574856E+04  0.00000000000E+00 0. -1.
         21    1    1    2  503  506 -0.18427207195E+02 -0.82352806172E+02 -0.14430939797E+03  0.16717281176E+03  0.00000000000E+00 0. -1.
         21    1    1    2  504  501 -0.62092248159E+02  0.71436542351E+02  0.40531032345E+03  0.41621519093E+03  0.00000000000E+00 0. -1.
         21    1    1    2  505  504  0.72941004272E+02 -0.40680182047E+02 -0.92380555301E+03  0.92757315996E+03  0.00000000000E+00 0. -1.
         21    1    1    2  506  502  0.75784510819E+01  0.51596445868E+02 -0.22574734504E+04  0.22580757307E+04  0.00000000000E+00 0. -1.
<scales pt_clust_3="76.93921" pt_clust_4="94.55592" pt_clust_5="14000.00000" pt_clust_6="52.15003"></scales>
<clustering>
<clus scale="   52.150">  2  6  1 -1</clus>
<clus scale="   76.939">  2  3  1 -1</clus>
<clus scale="   94.556">  1  4  2 -1</clus>
<clus scale="   94.556">  1  3  2 -1</clus>
</clustering>
</event>
<event>
 6    0  0.8520634E+002  0.9443288E+02  0.7546771E-02  0.1292459E+00
         21   -1    0    0  506  501  0.00000000000E+00  0.00000000000E+00  0.56670375646E+03  0.56670375646E+03  0.00000000000E+00 0. -1.
         21   -1    0    0  503  502 -0.00000000000E+00 -0.00000000000E+00 -0.12566235842E+03  0.12566235842E+03  0.00000000000E+00 0. -1.
         21    1    1    2  503  501  0.44444473525E+01 -0.11014703785E+03  0.35534161899E+02  0.11582227644E+03  0.00000000000E+00 0. -1.
         21    1    1    2  504  505 -0.24324663473E+02  0.75057133897E+02 -0.98279142466E+01  0.79510065402E+02  0.00000000000E+00 0. -1.
         21    1    1    2  505  502  0.45859193906E+02  0.57114790636E+02 -0.67675182567E+01  0.73559256919E+02  0.00000000000E+00 0. -1.
         21    1    1    2  506  504 -0.25978977785E+02 -0.22024886686E+02  0.42210266865E+03  0.42347451612E+03  0.00000000000E+00 0. -1.
<scales pt_clust_3="14000.00000" pt_clust_4="94.43288" pt_clust_5="65.50486" pt_clust_6="34.05882"></scales>
<clustering>
<clus scale="   34.059">  1  6  2 -1</clus>
<clus scale="   65.505">  2  5  1 -1</clus>
<clus scale="   94.433">  1  4  2 -1</clus>
<clus scale="   34.059">  1  3  2 -1</clus>
</clustering>
</event>
<event>
 6    0  0.8520634E+002  0.1178298E+03  0.7546771E-02  0.1246721E+00
         21   -1    0    0  505  501  0.00000000000E+00  0.00000000000E+00  0.13023932850E+03  0.13023932850E+03  0.00000000000E+00 0. -1.
         21   -1    0    0  503  502 -0.00000000000E+00 -0.00000000000E+00 -0.15539759366E+04  0.15539759366E+04  0.00000000000E+00 0.  1.
         21    1    1    2  503  506  0.16311306207E+02 -0.34104719725E+02 -0.77707778942E+03  0.77799683895E+03  0.00000000000E+00 0.  1.
         21    1    1    2  504  501 -0.86454209487E+00  0.30863259556E+02  0.10258599658E+03  0.10713157760E+03  0.00000000000E+00 0. -1.
         21    1    1    2  505  502 -0.11700507818E+03 -0.35687497052E+02 -0.61131169323E+03  0.62343064735E+03  0.00000000000E+00 0.  1.
         21    1    1    2  506  504  0.10155831407E+03  0.38928957220E+02 -0.13793312203E+03  0.17565620120E+03  0.00000000000E+00 0. -1.
<scales pt_clust_3="37.29447" pt_clust_4="30.87537" pt_clust_5="117.82985" pt_clust_6="14000.00000"></scales>
<clustering>
<clus scale="   30.875">  1  4  2 -1</clus>
<clus scale="   37.294">  2  3  1 -1</clus>
<clus scale="  117.830">  2  5  1 -1</clus>
<clus scale="   30.875">  1  3  2 -1</clus>
</clustering>
</event>
<event>
 6    0  0.8520634E+002  0.6481990E+02  0.7546771E-02  0.1378650E+00
         21   -1    0    0  503  501  0.00000000000E+00  0.00000000000E+00  0.11413359825E+03  0.11413359825E+03  0.00000000000E+00 0.  1.
         21   -1    0    0  505  502 -0.00000000000E+00 -0.00000000000E+00 -0.26881906858E+03  0.26881906858E+03  0.00000000000E+00 0.  1.
         21    1    1    2  503  504  0.13734026315E+02  0.57170265459E+02  0.18628411389E+02  0.61677227907E+02  0.00000000000E+00 0.  1.
         21    1    1    2  504  506 -0.74975082283E+02  0.27430448560E+02 -0.16507040212E+03  0.18336283737E+03  0.00000000000E+00 0.  1.
         21    1    1    2  505  501  0.21211502597E+02 -0.74305553274E+02  0.28744315786E+02  0.82446823952E+02  0.00000000000E+00 0.  1.
         21    1    1    2  506  502  0.40029553372E+02 -0.10295160745E+02 -0.36987795380E+02  0.55465777602E+02  0.00000000000E+00 0.  1.
<scales pt_clust_3="64.81990" pt_clust_4="47.75140" pt_clust_5="14000.00000" pt_clust_6="41.33226"></scales>
<clustering>
<clus scale="   41.332">  2  6  1 -1</clus>
<clus scale="   47.751">  2  4  1 -1</clus>
<clus scale="   64.820">  1  3  2 -1</clus>
<clus scale="   64.820">  1  3  2 -1</clus>
</clustering>
</event>
<event>
 6    0  0.8520634E+002  0.7480935E+02  0.7546771E-02  0.1344462E+00
         21   -1    0    0  505  501  0.00000000000E+00  0.00000000000E+00  0.58541297037E+02  0.58541297037E+02  0.00000000000E+00 0.  1.
         21   -1    0    0  506  502 -0.00000000000E+00 -0.00000000000E+00 -0.85247284282E+03  0.85247284282E+03  0.00000000000E+00 0.  1.
         21    1    1    2  503  504  0.99787600443E+02 -0.46071085447E+02 -0.56501803643E+02  0.12358221527E+03  0.00000000000E+00 0.  1.
         21    1    1    2  504  501 -0.22944841030E+02  0.33778371917E+02 -0.41809379442E+02  0.58442008424E+02  0.00000000000E+00 0.  1.
         21    1    1    2  505  502 -0.49494664287E+02 -0.56822117972E+02 -0.83909589719E+02  0.11277984807E+03  0.00000000000E+00 0.  1.
         21    1    1    2  506  503 -0.27348095126E+02  0.69114831502E+02 -0.61171077298E+03  0.61621006809E+03  0.00000000000E+00 0.  1.
<scales pt_clust_3="74.80935" pt_clust_4="40.83435" pt_clust_5="73.25108" pt_clust_6="14000.00000"></scales>
<clustering>
<clus scale="   40.834">  1  4  2 -1</clus>
<clus scale="   73.251">  1  5  2 -1</clus>
<clus scale="   74.809">  1  3  2 -1</clus>
<clus scale="   40.834">  1  3  2 -1</clus>
</clustering>
</event>
<event>
 6    0  0.8520634E+002  0.9414851E+02  0.7546771E-02  0.1293105E+00
         21   -1    0    0  505  501  0.00000000000E+00  0.00000000000E+00  0.87814856644E+02  0.87814856644E+02  0.00000000000E+00 0.  1.
         21   -1    0    0  503  502 -0.00000000000E+00 -0.00000000000E+00 -0.10849873127E+04  0.10849873127E+04  0.00000000000E+00 0.  1.
         21    1    1    2  503  506 -0.32717713852E+02  0.45716313457E+01 -0.49670965134E+03  0.49780701717E+03  0.00000000000E+00 0.  1.
         21    1    1    2  504  502  0.76664373189E+02  0.75896612198E+02 -0.49694674623E+03  0.50852117994E+03  0.00000000000E+00 0.  1.
         21    1    1    2  505  504  0.39353964798E+02 -0.11532634876E+02 -0.34939529726E+02  0.53874919489E+02  0.00000000000E+00 0.  1.
         21    1    1    2  506  501 -0.83300624136E+02 -0.68935608668E+02  0.31423471273E+02  0.11259905271E+03  0.00000000000E+00 0.  1.
<scales pt_clust_3="33.03557" pt_clust_4="94.14851" pt_clust_5="38.54126" pt_clust_6="14000.00000"></scales>
<clustering>
<clus scale="   33.036">  2  3  1 -1</clus>
<clus scale="   38.541">  1  5  2 -1</clus>
<clus scale="   94.149">  2  4  1 -1</clus>
<clus scale="   38.541">  1  3  2 -1</clus>
</clustering>
</event>
<event>
 6    0  0.8520634E+002  0.8986889E+02  0.7546771E-02  0.1303170E+00
         21   -1    0    0  506  501  0.00000000000E+00  0.00000000000E+00  0.53022793243E+03  0.53022793243E+03  0.00000000000E+00 0. -1.
         21   -1    0    0  505  502 -0.00000000000E+00 -0.00000000000E+00 -0.65042815402E+02  0.65042815402E+02  0.00000000000E+00 0. -1.
         21    1    1    2  503  501  0.25142677175E+02 -0.11688764009E+03  0.24735382494E+03  0.27473403381E+03  0.00000000000E+00 0. -1.
         21    1    1    2  504  502  0.16535778623E+02  0.71775768419E+02  0.19729792793E+01  0.73682328642E+02  0.00000000000E+00 0. -1.
         21    1    1    2  505  503 -0.37673191316E+02  0.14062714471E+02  0.13995234581E+02  0.42578114956E+02  0.00000000000E+00 0.  1.
         21    1    1    2  506  504 -0.40052644822E+01  0.31049157202E+02  0.20186307823E+03  0.20427627042E+03  0.00000000000E+00 0.  1.
<scales pt_clust_3="89.86889" pt_clust_4="14000.00000" pt_clust_5="41.54459" pt_clust_6="31.30643"></scales>
<clustering>
<clus scale="   31.306">  1  6  2 -1</clus>
<clus scale="   41.545">  2  5  1 -1</clus>
<clus scale="   89.869">  1  3  2 -1</clus>
<clus scale="   31.306">  1  3  2 -1</clus>
</clustering>
</event>
<event>
 6    0  0.8520634E+002  0.3383769E+03  0.7546771E-02  0.1067489E+00
         21   -1    0    0  504  501  0.00000000000E+00  0.00000000000E+00  0.61941867674E+03  0.61941867674E+03  0.00000000000E+00 0.  1.
         21   -1    0    0  506  502 -0.00000000000E+00 -0.00000000000E+00 -0.55744315466E+03  0.55744315466E+03  0.00000000000E+00 0.  1.
         21    1    1    2  503  505  0.26552022396E+03 -0.11061762386E+03 -0.60721947974E+02  0.29398027656E+03  0.00000000000E+00 0.  1.
         21    1    1    2  504  502 -0.53670313334E+02  0.26698037275E+02 -0.23430425915E+03  0.24185072583E+03  0.00000000000E+00 0.  1.
         21    1    1    2  505  501 -0.25912162103E+03  0.15785737495E+03  0.43041734807E+03  0.52661376628E+03  0.00000000000E+00 0.  1.
         21    1    1    2  506  503  0.47271710409E+02 -0.73937788360E+02 -0.73415618870E+02  0.11441706274E+03  0.00000000000E+00 0.  1.
<scales pt_clust_3="69.72250" pt_clust_4="59.94404" pt_clust_5="312.41463" pt_clust_6="69.72250"></scales>
<clustering>
<clus scale="   59.944">  2  4  1 -1</clus>
<clus scale="   69.723">  3  6 -1 -1</clus>
<clus scale="  312.415">  1  5  2 -1</clus>
<clus scale="  312.415">  1  3  2 -1</clus>
</clustering>
</event>
<event>
 6    0  0.8520634E+002  0.1684444E+03  0.7546771E-02  0.1179480E+00
         21   -1    0    0  506  501  0.00000000000E+00  0.00000000000E+00  0.11054688376E+04  0.11054688376E+04  0.00000000000E+00 0.  1.
         21   -1    0    0  505  502 -0.00000000000E+00 -0.00000000000E+00 -0.58537581545E+03  0.58537581545E+03  0.00000000000E+00 0. -1.
         21    1    1    2  503  504 -0.20278622433E+03  0.98336296700E+02  0.26944177458E+03  0.35127076439E+03  0.00000000000E+00 0.  1.
         21    1    1    2  504  502  0.70092741936E+02 -0.63992080689E+01 -0.52300674543E+03  0.52772151567E+03  0.00000000000E+00 0. -1.
         21    1    1    2  505  501  0.29944081098E+02 -0.39935142555E+02  0.27755252278E+02  0.57112324700E+02  0.00000000000E+00 0.  1.
         21    1    1    2  506  503  0.10274940130E+03 -0.52001946077E+02  0.74590274070E+03  0.75474004826E+03  0.00000000000E+00 0.  1.
<scales pt_clust_3="14000.00000" pt_clust_4="70.45848" pt_clust_5="49.91456" pt_clust_6="168.44445"></scales>
<clustering>
<clus scale="   49.915">  1  5  2 -1</clus>
<clus scale="   70.458">  2  4  1 -1</clus>
<clus scale="  168.444">  1  6  2 -1</clus>
<clus scale="   49.915">  1  3  2 -1</clus>
</clustering>
</event>
<event>
 6    0  0.8520634E+002  0.2817435E+03  0.7546771E-02  0.1094740E+00
         21   -1    0    0  506  501  0.00000000000E+00  0.00000000000E+00  0.11903373757E+04  0.11903373757E+04  0.00000000000E+00 0.  1.
         21   -1    0    0  504  502 -0.00000000000E+00 -0.00000000000E+00 -0.10907600590E+04  0.10907600590E+04  0.00000000000E+00 0. -1.
         21    1    1    2  503  502  0.98503773453E+02  0.92879251137E+02 -0.55752404179E+03  0.57372694364E+03  0.00000000000E+00 0. -1.
         21    1    1    2  504  505  0.21421912660E+02 -0.45145028340E+02 -0.20063459818E+03  0.20676366681E+03  0.00000000000E+00 0.  1.
         21    1    1    2  505  501 -0.25753927823E+03  0.12566639396E+03  0.11207648073E+04  0.11568198977E+04  0.00000000000E+00 0.  1.
         21    1    1    2  506  503  0.13761359212E+03 -0.17340061676E+03 -0.26302885063E+03  0.34378692659E+03  0.00000000000E+00 0. -1.
<scales pt_clust_3="129.18399" pt_clust_4="49.96971" pt_clust_5="281.74346" pt_clust_6="14000.00000"></scales>
<clustering>
<clus scale="   49.970">  2  4  1 -1</clus>
<clus scale="  129.184">  2  3  1 -1</clus>
<clus scale="  281.743">  1  5  2 -1</clus>
<clus scale="  281.743">  1  3  2 -1</clus>
</clustering>
</event>
<event>
 6    0  0.8520634E+002  0.6832929E+02  0.7546771E-02  0.1365868E+00
         21   -1    0    0  505  501  0.00000000000E+00  0.00000000000E+00  0.21885402878E+03  0.21885402878E+03  0.00000000000E+00 0.  1.
         21   -1    0    0  503  502 -0.00000000000E+00 -0.00000000000E+00 -0.41152593327E+03  0.41152593327E+03  0.00000000000E+00 0.  1.
         21    1    1    2  503  504 -0.19099302642E+01 -0.10507544670E+03 -0.30309577481E+03  0.32079829495E+03  0.00000000000E+00 0.  1.
         21    1    1    2  504  501 -0.45564199730E+02 -0.81528913890E+01  0.49335504203E+02  0.67650261714E+02  0.00000000000E+00 0.  1.
         21    1    1    2  505  506  0.70538108436E+02  0.66648896974E+02  0.12583102052E+03  0.15890609156E+03  0.00000000000E+00 0.  1.
         21    1    1    2  506  502 -0.23063978442E+02  0.46579441116E+02 -0.64742654402E+02  0.83025313822E+02  0.00000000000E+00 0.  1.
<scales pt_clust_3="68.32929" pt_clust_4="46.28786" pt_clust_5="14000.00000" pt_clust_6="52.77376"></scales>
<clustering>
<clus scale="   46.288">  1  4  2 -1</clus>
<clus scale="   52.774">  2  6  1 -1</clus>
<clus scale="   68.329">  2  3  1 -1</clus>
<clus scale="   46.288">  1  3  2 -1</clus>
</clustering>
</event>
<event>
 6    0  0.8520634E+002  0.1428786E+03  0.7546771E-02  0.1209507E+00
         21   -1    0    0  505  501  0.00000000000E+00  0.00000000000E+00  0.56923667108E+03  0.56923667108E+03  0.00000000000E+00 0. -1.
         21   -1    0    0  506  502 -0.00000000000E+00 -0.00000000000E+00 -0.10045421462E+03  0.10045421462E+03  0.00000000000E+00 0. -1.
         21    1    1    2  503  501 -0.72203318580E+02 -0.13835310240E+03  0.11286148751E+03  0.19259443274E+03  0.00000000000E+00 0. -1.
         21    1    1    2  504  502  0.28098179126E+02  0.12771875349E+03  0.14513433923E+03  0.19536008826E+03  0.00000000000E+00 0. -1.
         21    1    1    2  505  504  0.25706417521E+02  0.36130381942E+02  0.23680797843E+03  0.24092372870E+03  0.00000000000E+00 0. -1.
         21    1    1    2  506  503  0.18398721933E+02 -0.25496033026E+02 -0.26021348717E+02  0.40812636007E+02  0.00000000000E+00 0. -1.
<scales pt_clust_3="142.87863" pt_clust_4="14000.00000" pt_clust_5="44.04132" pt_clust_6="31.44138"></scales>
<clustering>
<clus scale="   31.441">  2  6  1 -1</clus>
<clus scale="   44.041">  1  5  2 -1</clus>
<clus scale="  142.879">  1  3  2 -1</clus>
<clus scale="   44.041">  1  3  2 -1</clus>
</clustering>
</event>
<event>
 6    0  0.8520634E+002  0.1485786E+03  0.7546771E-02  0.1202231E+00
         21   -1    0    0  502  501  0.00000000000E+00  0.00000000000E+00  0.10795233288E+04  0.10795233288E+04  0.00000000000E+00 0.  1.
         21   -1    0    0  506  502 -0.00000000000E+00 -0.00000000000E+00 -0.17024494474E+03  0.17024494474E+03  0.00000000000E+00 0. -1.
         21    1    1    2  503  505 -0.74490563273E+02 -0.41073969906E+02  0.12445820356E+02  0.85969840438E+02  0.00000000000E+00 0. -1.
         21    1    1    2  504  501  0.68933070275E+02 -0.13513117647E+03  0.92123964245E+03  0.93364590817E+03  0.00000000000E+00 0.  1.
         21    1    1    2  505  504 -0.11561739485E+02  0.13347052234E+03  0.49715370019E+02  0.14289741834E+03  0.00000000000E+00 0. -1.
         21    1    1    2  506  503  0.17119232484E+02  0.42734624033E+02 -0.74122448775E+02  0.87255106581E+02  0.00000000000E+00 0. -1.
<scales pt_clust_3="71.44955" pt_clust_4="148.57860" pt_clust_5="14000.00000" pt_clust_6="46.03603"></scales>
<clustering>
<clus scale="   46.036">  2  6  1 -1</clus>
<clus scale="   71.450">  2  3  1 -1</clus>
<clus scale="  148.579">  1  4  2 -1</clus>
<clus scale="  148.579">  1  3  2 -1</clus>
</clustering>
</event>
<event>
 6    0  0.8520634E+002  0.8084751E+02  0.7546771E-02  0.1326663E+00
         21   -1    0    0  504  501  0.00000000000E+00  0.00000000000E+00  0.58165312055E+03  0.58165312055E+03  0.00000000000E+00 0.  1.
         21   -1    0    0  503  502 -0.00000000000E+00 -0.00000000000E+00 -0.62670867690E+03  0.62670867690E+03  0.00000000000E+00 0.  1.
         21    1    1    2  503  506 -0.47374360047E+02  0.20998683739E+02 -0.46311399863E+03  0.46600413135E+03  0.00000000000E+00 0.  1.
         21    1    1    2  504  502 -0.44504963451E+02 -0.32592638263E+02  0.78820458690E+02  0.96206218868E+02  0.00000000000E+00 0.  1.
         21    1    1    2  505  501  0.86449389448E+02 -0.40667070449E+02  0.48338052472E+03  0.49273120384E+03  0.00000000000E+00 0.  1.
         21    1    1    2  506  505  0.54299340505E+01  0.52261024973E+02 -0.14414254113E+03  0.15342024338E+03  0.00000000000E+00 0. -1.
<scales pt_clust_3="51.81964" pt_clust_4="56.59833" pt_clust_5="14000.00000" pt_clust_6="80.84751"></scales>
<clustering>
<clus scale="   51.820">  2  3  1 -1</clus>
<clus scale="   56.598">  1  4  2 -1</clus>
<clus scale="   80.848">  2  6  1 -1</clus>
<clus scale="   56.598">  1  3  2 -1</clus>
</clustering>
</event>
<event>
 6    0  0.8520634E+002  0.1295493E+03  0.7546771E-02  0.1228126E+00
         21   -1    0    0  504  501  0.00000000000E+00  0.00000000000E+00  0.82872222118E+03  0.82872222118E+03  0.00000000000E+00 0.  1.
         21   -1    0    0  503  502 -0.00000000000E+00 -0.00000000000E+00 -0.26020043686E+03  0.26020043686E+03  0.00000000000E+00 0. -1.
         21    1    1    2  503  505  0.65770688450E+02 -0.60484565178E+02 -0.21572295954E+03  0.23349638404E+03  0.00000000000E+00 0. -1.
         21    1    1    2  504  506 -0.95567630352E+01 -0.31767559281E+02  0.14950946692E+03  0.15314565041E+03  0.00000000000E+00 0.  1.
         21    1    1    2  505  501 -0.10014904903E+03  0.10288540927E+03  0.64078509047E+03  0.65667402235E+03  0.00000000000E+00 0.  1.
         21    1    1    2  506  502  0.43935123615E+02 -0.10633284815E+02 -0.60498135170E+01  0.45606601239E+02  0.00000000000E+00 0. -1.
<scales pt_clust_3="14000.00000" pt_clust_4="33.17393" pt_clust_5="129.54925" pt_clust_6="45.16090"></scales>
<clustering>
<clus scale="   33.174">  1  4  2 -1</clus>
<clus scale="   45.161">  2  6  1 -1</clus>
<clus scale="  129.549">  1  5  2 -1</clus>
<clus scale="   33.174">  1  3  2 -1</clus>
</clustering>
</event>
<event>
 6    0  0.8520634E+002  0.1058695E+03  0.7546771E-02  0.1268416E+00
         21   -1    0    0  506  501  0.00000000000E+00  0.00000000000E+00  0.85013941073E+03  0.85013941073E+03  0.00000000000E+00 0. -1.
         21   -1    0    0  505  502 -0.00000000000E+00 -0.00000000000E+00 -0.34951043552E+03  0.34951043552E+03  0.00000000000E+00 0. -1.
         21    1    1    2  503  502  0.71994204278E+01  0.10507638433E+03 -0.29422937567E+03  0.31251208569E+03  0.00000000000E+00 0. -1.
         21    1    1    2  504  501 -0.41277346884E+02  0.13429137885E+02  0.83295063764E+02  0.93926720147E+02  0.00000000000E+00 0. -1.
         21    1    1    2  505  504 -0.39930735987E+02 -0.48681966359E+01 -0.22930375344E+02  0.46302971053E+02  0.00000000000E+00 0. -1.
         21    1    1    2  506  503  0.74008662443E+02 -0.11363732558E+03  0.73449366246E+03  0.74690806936E+03  0.00000000000E+00 0. -1.
<scales pt_clust_3="14000.00000" pt_clust_4="44.02345" pt_clust_5="40.22640" pt_clust_6="105.86949"></scales>
<clustering>
<clus scale="   40.226">  2  5  1 -1</clus>
<clus scale="   44.023">  1  4  2 -1</clus>
<clus scale="  105.869">  1  6  2 -1</clus>
<clus scale="   44.023">  1  3  2 -1</clus>
</clustering>
</event>
<event>
 6    0  0.8520634E+002  0.5441394E+02  0.7546771E-02  0.1422891E+00
         21   -1    0    0  506  501  0.00000000000E+00  0.00000000000E+00  0.77291711547E+02  0.77291711547E+02  0.00000000000E+00 0. -1.
         21   -1    0    0  504  502 -0.00000000000E+00 -0.00000000000E+00 -0.91488462293E+03  0.91488462293E+03  0.00000000000E+00 0. -1.
         21    1    1    2  503  501  0.25889428343E+01 -0.48116975007E+02 -0.52956242747E+02  0.71598251059E+02  0.00000000000E+00 0. -1.
         21    1    1    2  504  503 -0.32585361127E+02  0.27745878937E+02 -0.31948903869E+03  0.32234280727E+03  0.00000000000E+00 0. -1.
         21    1    1    2  505  502  0.40582099237E+02 -0.73774951702E+02 -0.49248475358E+03  0.49963074644E+03  0.00000000000E+00 0. -1.
         21    1    1    2  506  505 -0.10585680944E+02  0.94146047773E+02  0.27337123626E+02  0.98604529715E+02  0.00000000000E+00 0. -1.
<scales pt_clust_3="45.21541" pt_clust_4="42.79766" pt_clust_5="54.41394" pt_clust_6="14000.00000"></scales>
<clustering>
<clus scale="   42.798">  2  4  1 -1</clus>
<clus scale="   45.215">  1  3  2 -1</clus>
<clus scale="   54.414">  2  5  1 -1</clus>
<clus scale="   45.215">  1  3  2 -1</clus>
</clustering>
</event>
<event>
 6    0  0.8520634E+002  0.1059129E+03  0.7546771E-02  0.1268331E+00
         21   -1    0    0  504  501  0.00000000000E+00  0.00000000000E+00  0.50731894306E+03  0.50731894306E+03  0.00000000000E+00 0.  1.
         21   -1    0    0  503  502 -0.00000000000E+00 -0.00000000000E+00 -0.90952902199E+02  0.90952902199E+02  0.00000000000E+00 0.  1.
         21    1    1    2  503  506 -0.51097070750E+02 -0.72620304158E+01 -0.43067639397E+02  0.67219560309E+02  0.00000000000E+00 0.  1.
         21    1    1    2  504  502 -0.79008613692E+02  0.56413397350E+02  0.12743646865E+03  0.16020264036E+03  0.00000000000E+00 0.  1.
         21    1    1    2  505  501  0.34438574412E+02  0.18333988368E+02  0.14558818131E+03  0.15072514413E+03  0.00000000000E+00 0.  1.
         21    1    1    2  506  505  0.95667110029E+02 -0.67485355302E+02  0.18640903030E+03  0.22012450045E+03  0.00000000000E+00 0.  1.
<scales pt_clust_3="50.37939" pt_clust_4="105.91295" pt_clust_5="39.01475" pt_clust_6="14000.00000"></scales>
<clustering>
<clus scale="   39.015">  1  5  2 -1</clus>
<clus scale="   50.379">  2  3  1 -1</clus>
<clus scale="  105.913">  1  4  2 -1</clus>
<clus scale="   39.015">  1  3  2 -1</clus>
</clustering>
</event>
<event>
 6    0  0.8520634E+002  0.8132695E+02  0.7546771E-02  0.1325327E+00
         21   -1    0    0  504  501  0.00000000000E+00  0.00000000000E+00  0.36884520996E+03  0.36884520996E+03  0.00000000000E+00 0. -1.
         21   -1    0    0  503  502 -0.00000000000E+00 -0.00000000000E+00 -0.38573057191E+03  0.38573057191E+03  0.00000000000E+00 0. -1.
         21    1    1    2  503  505  0.15098643924E+02  0.28571532293E+02 -0.33896262973E+03  0.34049958276E+03  0.00000000000E+00 0. -1.
         21    1    1    2  504  502  0.48492425832E+02 -0.68953968761E+02  0.28881153731E+02  0.89108283632E+02  0.00000000000E+00 0.  1.
         21    1    1    2  505  506 -0.57877540586E+02  0.80558640837E+02  0.19705087525E+03  0.22060950060E+03  0.00000000000E+00 0. -1.
         21    1    1    2  506  501 -0.57135291699E+01 -0.40176204369E+02  0.96145238792E+02  0.10435841488E+03  0.00000000000E+00 0. -1.
<scales pt_clust_3="32.31565" pt_clust_4="81.32695" pt_clust_5="14000.00000" pt_clust_6="37.87791"></scales>
<clustering>
<clus scale="   32.316">  2  3  1 -1</clus>
<clus scale="   37.878">  1  6  2 -1</clus>
<clus scale="   81.327">  2  4  1 -1</clus>
<clus scale="   37.878">  1  3  2 -1</clus>
</clustering>
</event>
<event>
 6    0  0.8520634E+002  0.6819865E+02  0.7546771E-02  0.1366328E+00
         21   -1    0    0  505  501  0.00000000000E+00  0.00000000000E+00  0.56797860642E+03  0.56797860642E+03  0.00000000000E+00 0.  1.
         21   -1    0    0  503  502 -0.00000000000E+00 -0.00000000000E+00 -0.16962884327E+03  0.16962884327E+03  0.00000000000E+00 0.  1.
         21    1    1    2  503  504  0.83562522781E+02 -0.19382558689E+02 -0.31592909351E+02  0.91413843132E+02  0.00000000000E+00 0.  1.
         21    1    1    2  504  501  0.29999527983E+02 -0.12445844654E+02  0.35121568273E+03  0.35271422785E+03  0.00000000000E+00 0.  1.
         21    1    1    2  505  506 -0.87818373959E+02 -0.13222537092E+02  0.16811079085E+03  0.19012664277E+03  0.00000000000E+00 0.  1.
         21    1    1    2  506  502 -0.25743676806E+02  0.45050940435E+02 -0.89383801086E+02  0.10335273594E+03  0.00000000000E+00 0.  1.
<scales pt_clust_3="14000.00000" pt_clust_4="32.47877" pt_clust_5="68.19865" pt_clust_6="51.06101"></scales>
<clustering>
<clus scale="   32.479">  1  4  2 -1</clus>
<clus scale="   51.061">  2  6  1 -1</clus>
<clus scale="   68.199">  1  5  2 -1</clus>
<clus scale="   32.479">  1  3  2 -1</clus>
</clustering>
</event>
<event>
 6    0  0.8520634E+002  0.1588524E+03  0.7546771E-02  0.1189998E+00
         21   -1    0    0  504  501  0.00000000000E+00  0.00000000000E+00  0.40026870594E+03  0.40026870594E+03  0.00000000000E+00 0.  1.
         21   -1    0    0  503  502 -0.00000000000E+00 -0.00000000000E+00 -0.17889475584E+03  0.17889475584E+03  0.00000000000E+00 0. -1.
         21    1    1    2  503  505 -0.14259390093E+02 -0.35585408285E+02 -0.24751675522E+02  0.45632191815E+02  0.00000000000E+00 0. -1.
         21    1    1    2  504  502  0.23734555162E+02  0.10710272260E+03 -0.17522682150E+02  0.11109170395E+03  0.00000000000E+00 0. -1.
         21    1    1    2  505  506  0.10890883633E+03 -0.15182339882E+03  0.14259170294E+03  0.23504015148E+03  0.00000000000E+00 0.  1.
         21    1    1    2  506  501 -0.11838400140E+03  0.80306084507E+02  0.12105660483E+03  0.18739941454E+03  0.00000000000E+00 0. -1.
<scales pt_clust_3="38.33603" pt_clust_4="92.81491" pt_clust_5="158.85241" pt_clust_6="14000.00000"></scales>
<clustering>
<clus scale="   38.336">  2  3  1 -1</clus>
<clus scale="   92.815">  2  4  1 -1</clus>
<clus scale="  158.852">  2  5  1 -1</clus>
<clus scale="  158.852">  1  3  2 -1</clus>
</clustering>
</event>
<event>
 6    0  0.8520634E+002  0.1848786E+03  0.7546771E-02  0.1163163E+00
         21   -1    0    0  506  501  0.00000000000E+00  0.00000000000E+00  0.39698638470E+03  0.39698638470E+03  0.00000000000E+00 0.  1.
         21   -1    0    0  504  502 -0.00000000000E+00 -0.00000000000E+00 -0.15054732875E+03  0.15054732875E+03  0.00000000000E+00 0.  1.
         21    1    1    2  503  502  0.99516410855E+02 -0.15089933406E+03  0.50524982927E+02  0.18768830264E+03  0.00000000000E+00 0.  1.
         21    1    1    2  504  505 -0.80592624410E+02  0.74537978136E+02  0.45692804073E+02  0.11890716395E+03  0.00000000000E+00 0.  1.
         21    1    1    2  505  501 -0.25291969962E+02  0.43120801150E+02 -0.29507983603E+02  0.58050050238E+02  0.00000000000E+00 0.  1.
         21    1    1    2  506  503  0.63681835169E+01  0.33240554773E+02  0.17972925255E+03  0.18288819662E+03  0.00000000000E+00 0.  1.
<scales pt_clust_3="167.87894" pt_clust_4="51.44836" pt_clust_5="51.44836" pt_clust_6="33.84506"></scales>
<clustering>
<clus scale="   33.845">  1  6  2 -1</clus>
<clus scale="   51.448">  4  5 -1 -1</clus>
<clus scale="  167.879">  1  3  2 -1</clus>
<clus scale="   33.845">  1  3  2 -1</clus>
</clustering>
</event>
<event>
 6    0  0.8520634E+002  0.1670261E+03  0.7546771E-02  0.1180985E+00
         21   -1    0    0  504  501  0.00000000000E+00  0.00000000000E+00  0.36976229457E+03  0.36976229457E+03  0.00000000000E+00 0.  1.
         21   -1    0    0  503  502 -0.00000000000E+00 -0.00000000000E+00 -0.35945271865E+03  0.35945271865E+03  0.00000000000E+00 0.  1.
         21    1    1    2  503  505  0.30020712629E+02 -0.16439821713E+03 -0.22776305539E+03  0.28249606437E+03  0.00000000000E+00 0.  1.
         21    1    1    2  504  506  0.16695176916E+02  0.77526252950E+02  0.81752693287E+02  0.11389711010E+03  0.00000000000E+00 0.  1.
         21    1    1    2  505  501  0.73844570859E+02 -0.55698436116E+02  0.10344763525E+03  0.13876869125E+03  0.00000000000E+00 0.  1.
         21    1    1    2  506  502 -0.12056046040E+03  0.14257040030E+03  0.52872302774E+02  0.19405314750E+03  0.00000000000E+00 0.  1.
<scales pt_clust_3="14000.00000" pt_clust_4="79.30352" pt_clust_5="83.99201" pt_clust_6="167.02611"></scales>
<clustering>
<clus scale="   79.304">  1  4  2 -1</clus>
<clus scale="   83.992">  1  5  2 -1</clus>
<clus scale="  167.026">  1  6  2 -1</clus>
<clus scale="   79.304">  1  3  2 -1</clus>
</clustering>
</event>
<event>
 6    0  0.8520634E+002  0.6549035E+02  0.7546771E-02  0.1376136E+00
         21   -1    0    0  506  501  0.00000000000E+00  0.00000000000E+00  0.71225935203E+03  0.71225935203E+03  0.00000000000E+00 0. -1.
         21   -1    0    0  503  502 -0.00000000000E+00 -0.00000000000E+00 -0.55302553546E+02  0.55302553546E+02  0.00000000000E+00 0.  1.
         21    1    1    2  503  504  0.38164472463E+02  0.51660781375E+01  0.15255436943E+02  0.41423950536E+02  0.00000000000E+00 0. -1.
         21    1    1    2  504  501  0.37063427333E+02  0.94084206477E+02  0.14053035840E+03  0.17313092498E+03  0.00000000000E+00 0.  1.
         21    1    1    2  505  502 -0.26961907441E+02 -0.59685017729E+02  0.20970333067E+02  0.68767729810E+02  0.00000000000E+00 0. -1.
         21    1    1    2  506  505 -0.48265992354E+02 -0.39565266885E+02  0.48020067008E+03  0.48423930025E+03  0.00000000000E+00 0. -1.
<scales pt_clust_3="38.51253" pt_clust_4="14000.00000" pt_clust_5="57.01296" pt_clust_6="65.49035"></scales>
<clustering>
<clus scale="   38.513">  2  3  1 -1</clus>
<clus scale="   57.013">  2  5  1 -1</clus>
<clus scale="   65.490">  1  6  2 -1</clus>
<clus scale="   65.490">  1  3  2 -1</clus>
</clustering>
</event>
<event>
 6    0  0.8520634E+002  0.5986851E+02  0.7546771E-02  0.1398384E+00
         21   -1    0    0  505  501  0.00000000000E+00  0.00000000000E+00  0.27072774800E+03  0.27072774800E+03  0.00000000000E+00 0. -1.
         21   -1    0    0  503  502 -0.00000000000E+00 -0.00000000000E+00 -0.33234609694E+03  0.33234609694E+03  0.00000000000E+00 0. -1.
         21    1    1    2  503  506 -0.39506433719E+02 -0.32278468332E+02 -0.12102189286E+03  0.13133528230E+03  0.00000000000E+00 0. -1.
         21    1    1    2  504  501  0.48070453702E+02 -0.34061444651E+02  0.22694123788E+03  0.23446380527E+03  0.00000000000E+00 0. -1.
         21    1    1    2  505  502 -0.79407090222E+02  0.47871077950E+02 -0.11189203444E+03  0.14531673494E+03  0.00000000000E+00 0. -1.
         21    1    1    2  506  504  0.70843070239E+02  0.18468835032E+02 -0.55645659511E+02  0.91958022438E+02  0.00000000000E+00 0. -1.
<scales pt_clust_3="51.01625" pt_clust_4="14000.00000" pt_clust_5="59.86851" pt_clust_6="57.12094"></scales>
<clustering>
<clus scale="   51.016">  2  3  1 -1</clus>
<clus scale="   57.121">  2  6  1 -1</clus>
<clus scale="   59.869">  2  5  1 -1</clus>
<clus scale="   59.869">  1  3  2 -1</clus>
</clustering>
</event>
<event>
 6    0  0.8520634E+002  0.9619633E+02  0.7546771E-02  0.1288504E+00
         21   -1    0    0  503  501  0.00000000000E+00  0.00000000000E+00  0.10834447889E+04  0.10834447889E+04  0.00000000000E+00 0. -1.
         21   -1    0    0  505  502 -0.00000000000E+00 -0.00000000000E+00 -0.12424671443E+03  0.12424671443E+03  0.00000000000E+00 0. -1.
         21    1    1    2  503  506 -0.86081585563E+02 -0.44842858442E+02  0.11347014713E+03  0.14931977638E+03  0.00000000000E+00 0. -1.
         21    1    1    2  504  501  0.27082328955E+02 -0.28449749747E+02  0.89847898762E+03  0.89933716258E+03  0.00000000000E+00 0. -1.
         21    1    1    2  505  504  0.91193334130E+02  0.64882488902E+02 -0.56812038828E+02  0.12551322365E+03  0.00000000000E+00 0. -1.
         21    1    1    2  506  502 -0.32194077522E+02  0.84101192862E+01  0.40609784984E+01  0.33521340669E+02  0.00000000000E+00 0. -1.
<scales pt_clust_3="96.19633" pt_clust_4="39.16824" pt_clust_5="14000.00000" pt_clust_6="33.27445"></scales>
<clustering>
<clus scale="   33.274">  2  6  1 -1</clus>
<clus scale="   39.168">  1  4  2 -1</clus>
<clus scale="   96.196">  1  3  2 -1</clus>
<clus scale="   39.168">  1  3  2 -1</clus>
</clustering>
</event>
<event>
 6    0  0.8520634E+002  0.1021535E+03  0.7546771E-02  0.1275832E+00
         21   -1    0    0  505  501  0.00000000000E+00  0.00000000000E+00  0.87074210454E+03  0.87074210454E+03  0.00000000000E+00 0.  1.
         21   -1    0    0  506  502 -0.00000000000E+00 -0.00000000000E+00 -0.10443952825E+03  0.10443952825E+03  0.00000000000E+00 0. -1.
         21    1    1    2  503  502  0.85205118964E+01 -0.40874072376E+02 -0.10696770227E+02  0.43101157860E+02  0.00000000000E+00 0.  1.
         21    1    1    2  504  503  0.82600206944E+02  0.97300372975E+02 -0.11148488617E+02  0.12811887280E+03  0.00000000000E+00 0. -1.
         21    1    1    2  505  504 -0.80427167817E+02  0.18810135593E+02  0.39745736072E+03  0.40594913981E+03  0.00000000000E+00 0.  1.
         21    1    1    2  506  501 -0.10693551024E+02 -0.75236436193E+02  0.39069047442E+03  0.39801246232E+03  0.00000000000E+00 0.  1.
<scales pt_clust_3="41.75271" pt_clust_4="102.15345" pt_clust_5="14000.00000" pt_clust_6="77.84948"></scales>
<clustering>
<clus scale="   41.753">  2  3  1 -1</clus>
<clus scale="   77.849">  1  6  2 -1</clus>
<clus scale="  102.153">  2  4  1 -1</clus>
<clus scale="   77.849">  1  3  2 -1</clus>
</clustering>
</event>
<event>
 6    0  0.8520634E+002  0.8086921E+02  0.7546771E-02  0.1326603E+00
         21   -1    0    0  506  501  0.00000000000E+00  0.00000000000E+00  0.90204643224E+02  0.90204643224E+02  0.00000000000E+00 0.  1.
         21   -1    0    0  504  502 -0.00000000000E+00 -0.00000000000E+00 -0.14137854552E+04  0.14137854552E+04  0.00000000000E+00 0. -1.
         21    1    1    2  503  502 -0.37414193377E+02  0.24682346053E+02 -0.11435647580E+04  0.11444428320E+04  0.00000000000E+00 0. -1.
         21    1    1    2  504  505  0.49837300520E+02  0.46654108664E+02 -0.75847655212E+02  0.10204523105E+03  0.00000000000E+00 0. -1.
         21    1    1    2  505  501  0.57513727577E+02 -0.73485513636E+01  0.49973514031E+02  0.76545294901E+02  0.00000000000E+00 0.  1.
         21    1    1    2  506  503 -0.69936834719E+02 -0.63987903354E+02 -0.15414191276E+03  0.18095674040E+03  0.00000000000E+00 0. -1.
<scales pt_clust_3="44.82232" pt_clust_4="80.86921" pt_clust_5="56.00800" pt_clust_6="14000.00000"></scales>
<clustering>
<clus scale="   44.822">  2  3  1 -1</clus>
<clus scale="   56.008">  1  5  2 -1</clus>
<clus scale="   80.869">  2  4  1 -1</clus>
<clus scale="   56.008">  1  3  2 -1</clus>
</clustering>
</event>
<event>
 6    0  0.8520634E+002  0.1330446E+03  0.7546771E-02  0.1223007E+00
         21   -1    0    0  502  501  0.00000000000E+00  0.00000000000E+00  0.50759388523E+03  0.50759388523E+03  0.00000000000E+00 0. -1.
         21   -1    0    0  506  502 -0.00000000000E+00 -0.00000000000E+00 -0.46808084773E+03  0.46808084773E+03  0.00000000000E+00 0. -1.
         21    1    1    2  503  505 -0.78369340066E+01  0.12361122138E+03  0.18742933396E+03  0.22465730973E+03  0.00000000000E+00 0. -1.
         21    1    1    2  504  503  0.63924574673E+02 -0.51617214421E+02 -0.27019006910E+03  0.28240637654E+03  0.00000000000E+00 0. -1.
         21    1    1    2  505  501 -0.65321552686E+02 -0.21080290440E+02  0.28744388232E+03  0.29552541240E+03  0.00000000000E+00 0. -1.
         21    1    1    2  506  504  0.92339120196E+01 -0.50913716516E+02 -0.16517010969E+03  0.17308563428E+03  0.00000000000E+00 0. -1.
<scales pt_clust_3="125.02459" pt_clust_4="36.10365" pt_clust_5="68.63879" pt_clust_6="36.10365"></scales>
<clustering>
<clus scale="   36.104">  4  6 -1 -1</clus>
<clus scale="   68.639">  1  5  2 -1</clus>
<clus scale="  125.025">  1  3  2 -1</clus>
<clus scale="   68.639">  1  3  2 -1</clus>
</clustering>
</event>
<event>
 6    0  0.8520634E+002  0.1748701E+03  0.7546771E-02  0.1172862E+00
         21   -1    0    0  506  501  0.00000000000E+00  0.00000000000E+00  0.26950136973E+03  0.26950136973E+03  0.00000000000E+00 0.  1.
         21   -1    0    0  505  502 -0.00000000000E+00 -0.00000000000E+00 -0.66188274956E+03  0.66188274956E+03  0.00000000000E+00 0.  1.
         21    1    1    2  503  501 -0.18293128329E+02  0.14149613460E+03  0.15729816560E+03  0.21236409196E+03  0.00000000000E+00 0.  1.
         21    1    1    2  504  502 -0.87378472237E+02 -0.19106912166E+03 -0.33539111069E+03  0.39576458128E+03  0.00000000000E+00 0.  1.
         21    1    1    2  505  503 -0.55950223757E+02  0.22138076952E+02 -0.11974561124E+03  0.13401318368E+03  0.00000000000E+00 0.  1.
         21    1    1    2  506  504  0.16162182432E+03  0.27434910105E+02 -0.94542823499E+02  0.18924226237E+03  0.00000000000E+00 0.  1.
<scales pt_clust_3="144.19827" pt_clust_4="174.87009" pt_clust_5="60.17077" pt_clust_6="14000.00000"></scales>
<clustering>
<clus scale="   60.171">  2  5  1 -1</clus>
<clus scale="  144.198">  1  3  2 -1</clus>
<clus scale="  174.870">  2  4  1 -1</clus>
<clus scale="  144.198">  1  3  2 -1</clus>
</clustering>
</event>
<event>
 6    0  0.8520634E+002  0.1143655E+03  0.7546771E-02  0.1252693E+00
         21   -1    0    0  505  501  0.00000000000E+00  0.00000000000E+00  0.13420430292E+03  0.13420430292E+03  0.00000000000E+00 0. -1.
         21   -1    0    0  503  502 -0.00000000000E+00 -0.00000000000E+00 -0.73728938731E+03  0.73728938731E+03  0.00000000000E+00 0. -1.
         21    1    1    2  503  504 -0.90360271987E+02  0.88276943152E+02 -0.61324289176E+03  0.62611871218E+03  0.00000000000E+00 0. -1.
         21    1    1    2  504  501 -0.21540481397E+02 -0.22106764241E+02 -0.61091361325E+01  0.31464629480E+02  0.00000000000E+00 0. -1.
         21    1    1    2  505  506  0.38575841352E+02 -0.27545126765E+02  0.90813636320E+02  0.10243996333E+03  0.00000000000E+00 0. -1.
         21    1    1    2  506  502  0.73324912032E+02 -0.38625052146E+02 -0.74546692820E+02  0.11147038525E+03  0.00000000000E+00 0. -1.
<scales pt_clust_3="114.36553" pt_clust_4="30.86586" pt_clust_5="49.96082" pt_clust_6="14000.00000"></scales>
<clustering>
<clus scale="   30.866">  1  4  2 -1</clus>
<clus scale="   49.961">  1  5  2 -1</clus>
<clus scale="  114.366">  2  3  1 -1</clus>
<clus scale="   30.866">  1  3  2 -1</clus>
</clustering>
</event>
<event>
 6    0  0.8520634E+002  0.7560590E+02  0.7546771E-02  0.1342005E+00
         21   -1    0    0  506  501  0.00000000000E+00  0.00000000000E+00  0.93619513120E+02  0.93619513120E+02  0.00000000000E+00 0.  1.
         21   -1    0    0  505  502 -0.00000000000E+00 -0.00000000000E+00 -0.57490023475E+03  0.57490023475E+03  0.00000000000E+00 0.  1.
         21    1    1    2  503  501 -0.55450300021E+02 -0.24644291007E+02  0.33726089613E+02  0.69422805851E+02  0.00000000000E+00 0.  1.
         21    1    1    2  504  502 -0.32190550030E+02  0.31904177585E+02 -0.27615213846E+03  0.27984658589E+03  0.00000000000E+00 0.  1.
         21    1    1    2  505  503  0.46839739223E+02 -0.63175174154E+02 -0.89514150500E+01  0.79152963503E+02  0.00000000000E+00 0.  1.
         21    1    1    2  506  504  0.40801110828E+02  0.55915287576E+02 -0.22990325774E+03  0.24009739263E+03  0.00000000000E+00 0.  1.
<scales pt_clust_3="61.72177" pt_clust_4="45.32227" pt_clust_5="75.60590" pt_clust_6="14000.00000"></scales>
<clustering>
<clus scale="   45.322">  2  4  1 -1</clus>
<clus scale="   61.722">  1  3  2 -1</clus>
<clus scale="   75.606">  1  5  2 -1</clus>
<clus scale="   61.722">  1  3  2 -1</clus>
</clustering>
</event>
<event>
 6    0  0.8520634E+002  0.7824964E+02  0.7546771E-02  0.1334093E+00
         21   -1    0    0  504  501  0.00000000000E+00  0.00000000000E+00  0.35429721898E+03  0.35429721898E+03  0.00000000000E+00 0.  1.
         21   -1    0    0  505  502 -0.00000000000E+00 -0.00000000000E+00 -0.18963995177E+03  0.18963995177E+03  0.00000000000E+00 0.  1.
         21    1    1    2  503  502  0.78633515072E+02  0.74736478021E+02 -0.49294273519E+02  0.11915828230E+03  0.00000000000E+00 0.  1.
         21    1    1    2  504  503 -0.61814190515E+02 -0.19224696146E+02  0.26107551709E+03  0.26898142819E+03  0.00000000000E+00 0.  1.
         21    1    1    2  505  506 -0.34226904593E+02 -0.13284835595E+02 -0.87465239078E+02  0.94858504636E+02  0.00000000000E+00 0.  1.
         21    1    1    2  506  501  0.17407580035E+02 -0.42226946280E+02  0.40341262713E+02  0.60938955620E+02  0.00000000000E+00 0.  1.
<scales pt_clust_3="14000.00000" pt_clust_4="78.24964" pt_clust_5="36.71468" pt_clust_6="45.75584"></scales>
<clustering>
<clus scale="   36.715">  2  5  1 -1</clus>
<clus scale="   45.756">  1  6  2 -1</clus>
<clus scale="   78.250">  1  4  2 -1</clus>
<clus scale="   45.756">  1  3  2 -1</clus>
</clustering>
</event>
<event>
 6    0  0.8520634E+002  0.1160340E+03  0.7546771E-02  0.1249787E+00
         21   -1    0    0  506  501  0.00000000000E+00  0.00000000000E+00  0.12196314636E+03  0.12196314636E+03  0.00000000000E+00 0. -1.
         21   -1    0    0  503  502 -0.00000000000E+00 -0.00000000000E+00 -0.22502302261E+04  0.22502302261E+04  0.00000000000E+00 0. -1.
         21    1    1    2  503  505 -0.82382184674E+02  0.77332573660E+01 -0.28285894288E+03  0.29471309640E+03  0.00000000000E+00 0. -1.
         21    1    1    2  504  502  0.12784837540E+03 -0.60399042572E+01 -0.19258005147E+04  0.19300490434E+04  0.00000000000E+00 0. -1.
         21    1    1    2  505  501 -0.78743440419E+02  0.22984272009E+01  0.82216835966E+02  0.11386579949E+03  0.00000000000E+00 0. -1.
         21    1    1    2  506  504  0.33277249693E+02 -0.39917803097E+01 -0.18244581379E+01  0.33565433182E+02  0.00000000000E+00 0. -1.
<scales pt_clust_3="14000.00000" pt_clust_4="116.03404" pt_clust_5="48.01173" pt_clust_6="33.51581"></scales>
<clustering>
<clus scale="   33.516">  1  6  2 -1</clus>
<clus scale="   48.012">  1  5  2 -1</clus>
<clus scale="  116.034">  2  4  1 -1</clus>
<clus scale="   33.516">  1  3  2 -1</clus>
</clustering>
</event>
<event>
 6    0  0.8520634E+002  0.8701113E+02  0.7546771E-02  0.1310255E+00
         21   -1    0    0  506  501  0.00000000000E+00  0.00000000000E+00  0.50073075510E+02  0.50073075510E+02  0.00000000000E+00 0.  1.
         21   -1    0    0  504  502 -0.00000000000E+00 -0.00000000000E+00 -0.77966303590E+03  0.77966303590E+03  0.00000000000E+00 0.  1.
         21    1    1    2  503  505  0.71145805029E+02 -0.43469288007E+02 -0.20171335541E+03  0.21826493608E+03  0.00000000000E+00 0.  1.
         21    1    1    2  504  501 -0.65160444237E+02  0.26273200231E+02 -0.78675827156E+01  0.70696982972E+02  0.00000000000E+00 0.  1.
         21    1    1    2  505  502  0.41954125325E+02  0.50381564136E+02 -0.41938361650E+03  0.42447740626E+03  0.00000000000E+00 0.  1.
         21    1    1    2  506  503 -0.47939486117E+02 -0.33185476359E+02 -0.10062540577E+03  0.11629678609E+03  0.00000000000E+00 0.  1.
<scales pt_clust_3="14000.00000" pt_clust_4="87.01113" pt_clust_5="62.18216" pt_clust_6="58.30498"></scales>
<clustering>
<clus scale="   58.305">  1  6  2 -1</clus>
<clus scale="   62.182">  2  5  1 -1</clus>
<clus scale="   87.011">  1  4  2 -1</clus>
<clus scale="   58.305">  1  3  2 -1</clus>
</clustering>
</event>
<event>
 6    0  0.8520634E+002  0.1585156E+03  0.7546771E-02  0.1190383E+00
         21   -1    0    0  504  501  0.00000000000E+00  0.00000000000E+00  0.73233706463E+03  0.73233706463E+03  0.00000000000E+00 0.  1.
         21   -1    0    0  505  502 -0.00000000000E+00 -0.00000000000E+00 -0.21821040003E+03  0.21821040003E+03  0.00000000000E+00 0.  1.
         21    1    1    2  503  501  0.10273277779E+03 -0.12147697249E+03  0.62016008620E+03  0.64024152551E+03  0.00000000000E+00 0.  1.
         21    1    1    2  504  502 -0.93787524570E+02  0.11833678415E+03 -0.88720942472E+02  0.17513166442E+03  0.00000000000E+00 0.  1.
         21    1    1    2  505  506  0.57715240234E+02  0.73528605215E+01 -0.32545542710E+02  0.66665777303E+02  0.00000000000E+00 0.  1.
         21    1    1    2  506  503 -0.66660493449E+02 -0.42126721870E+01  0.15233063579E+02  0.68508497428E+02  0.00000000000E+00 0.  1.
<scales pt_clust_3="158.51555" pt_clust_4="14000.00000" pt_clust_5="58.18173" pt_clust_6="57.62294"></scales>
<clustering>
<clus scale="   58.182">  2  5  1 -1</clus>
<clus scale="   57.623">  2  6  1 -1</clus>
<clus scale="  158.516">  1  3  2 -1</clus>
<clus scale="  158.516">  1  3  2 -1</clus>
</clustering>
</event>
<event>
 6    0  0.8520634E+002  0.9535114E+02  0.7546771E-02  0.1290387E+00
         21   -1    0    0  503  501  0.00000000000E+00  0.00000000000E+00  0.17718860036E+04  0.17718860036E+04  0.00000000000E+00 0. -1.
         21   -1    0    0  504  502 -0.00000000000E+00 -0.00000000000E+00 -0.23349144910E+03  0.23349144910E+03  0.00000000000E+00 0.  1.
         21    1    1    2  503  502 -0.42643305081E+02  0.12290252255E+02  0.13727269059E+02  0.46453629401E+02  0.00000000000E+00 0.  1.
         21    1    1    2  504  506  0.96022650442E+02  0.36934687982E+01 -0.20103752181E+03  0.22282297073E+03  0.00000000000E+00 0.  1.
         21    1    1    2  505  501  0.22063810592E+02 -0.31750781675E+02  0.14298187957E+04  0.14303414670E+04  0.00000000000E+00 0. -1.
         21    1    1    2  506  505 -0.75443155953E+02  0.15767060622E+02  0.29588601156E+03  0.30575938550E+03  0.00000000000E+00 0.  1.
<scales pt_clust_3="41.79383" pt_clust_4="14000.00000" pt_clust_5="38.66425" pt_clust_6="95.35114"></scales>
<clustering>
<clus scale="   38.664">  1  5  2 -1</clus>
<clus scale="   41.794">  1  3  2 -1</clus>
<clus scale="   95.351">  1  6  2 -1</clus>
<clus scale="   38.664">  1  3  2 -1</clus>
</clustering>
</event>
<event>
 6    0  0.8520634E+002  0.8078971E+02  0.7546771E-02  0.1326825E+00
         21   -1    0    0  506  501  0.00000000000E+00  0.00000000000E+00  0.10141600767E+04  0.10141600767E+04  0.00000000000E+00 0.  1.
         21   -1    0    0  504  502 -0.00000000000E+00 -0.00000000000E+00 -0.77359919134E+02  0.77359919134E+02  0.00000000000E+00 0.  1.
         21    1    1    2  503  501  0.46773270770E+02 -0.76448930385E+02  0.67475966270E+03  0.68068552226E+03  0.00000000000E+00 0.  1.
         21    1    1    2  504  503  0.64584131622E+02 -0.77316516991E+01 -0.30665025339E+02  0.71911280579E+02  0.00000000000E+00 0.  1.
         21    1    1    2  505  502 -0.65030677152E+02  0.34885277271E+02  0.55715048832E+02  0.92466957381E+02  0.00000000000E+00 0.  1.
         21    1    1    2  506  505 -0.46326725240E+02  0.49295304813E+02  0.23699047136E+03  0.24645623560E+03  0.00000000000E+00 0.  1.
<scales pt_clust_3="80.78971" pt_clust_4="65.04528" pt_clust_5="35.31463" pt_clust_6="14000.00000"></scales>
<clustering>
<clus scale="   65.045">  2  4  1 -1</clus>
<clus scale="   35.315">  2  5  1 -1</clus>
<clus scale="   80.790">  1  3  2 -1</clus>
<clus scale="   80.790">  1  3  2 -1</clus>
</clustering>
</event>
<event>
 6    0  0.8520634E+002  0.1836577E+03  0.7546771E-02  0.1164309E+00
         21   -1    0    0  506  501  0.00000000000E+00  0.00000000000E+00  0.12220345632E+03  0.12220345632E+03  0.00000000000E+00 0.  1.
         21   -1    0    0  503  502 -0.00000000000E+00 -0.00000000000E+00 -0.23087762003E+04  0.23087762003E+04  0.00000000000E+00 0.  1.
         21    1    1    2  503  501 -0.29559550880E+02  0.10705043784E+02 -0.15616194310E+03  0.15929506422E+03  0.00000000000E+00 0.  1.
         21    1    1    2  504  502 -0.97665573652E+02 -0.14414917701E+03 -0.19907240274E+04  0.19983242236E+04  0.00000000000E+00 0.  1.
         21    1    1    2  505  504  0.96812812401E+02  0.16613058790E+03  0.25902014199E+02  0.19401805901E+03  0.00000000000E+00 0.  1.
         21    1    1    2  506  505  0.30412312131E+02 -0.32686454677E+02 -0.65588787692E+02  0.79342309769E+02  0.00000000000E+00 0. -1.
<scales pt_clust_3="31.43827" pt_clust_4="183.65775" pt_clust_5="14000.00000" pt_clust_6="43.70685"></scales>
<clustering>
<clus scale="   31.438">  2  3  1 -1</clus>
<clus scale="   43.707">  1  6  2 -1</clus>
<clus scale="  183.658">  2  4  1 -1</clus>
<clus scale="   43.707">  1  3  2 -1</clus>
</clustering>
</event>
<event>
 6    0  0.8520634E+002  0.8228412E+02  0.7546771E-02  0.1322692E+00
         21   -1    0    0  506  501  0.00000000000E+00  0.00000000000E+00  0.19665449495E+03  0.19665449495E+03  0.00000000000E+00 0.  1.
         21   -1    0    0  503  502 -0.00000000000E+00 -0.00000000000E+00 -0.56353564447E+03  0.56353564447E+03  0.00000000000E+00 0. -1.
         21    1    1    2  503  504  0.23114558329E+02  0.67280744391E+02 -0.42903903647E+03  0.43489708689E+03  0.00000000000E+00 0. -1.
         21    1    1    2  504  505 -0.77363799976E+02 -0.40927142601E+02 -0.72557741822E+02  0.11368735394E+03  0.00000000000E+00 0.  1.
         21    1    1    2  505  501  0.59533588259E+02 -0.56681998518E+02  0.15450315728E+03  0.17500949316E+03  0.00000000000E+00 0.  1.
         21    1    1    2  506  502 -0.52843466109E+01  0.30328396728E+02 -0.19787528507E+02  0.36596205427E+02  0.00000000000E+00 0.  1.
<scales pt_clust_3="14000.00000" pt_clust_4="82.28412" pt_clust_5="81.72848" pt_clust_6="30.78532"></scales>
<clustering>
<clus scale="   30.785">  2  6  1 -1</clus>
<clus scale="   81.728">  1  5  2 -1</clus>
<clus scale="   82.284">  1  4  2 -1</clus>
<clus scale="   81.728">  1  3  2 -1</clus>
</clustering>
</event>
<event>
 6    0  0.8520634E+002  0.9859994E+02  0.7546771E-02  0.1283268E+00
         21   -1    0    0  505  501  0.00000000000E+00  0.00000000000E+00  0.31225883197E+02  0.31225883197E+02  0.00000000000E+00 0.  1.
         21   -1    0    0  503  502 -0.00000000000E+00 -0.00000000000E+00 -0.10471526657E+04  0.10471526657E+04  0.00000000000E+00 0.  1.
         21    1    1    2  503  506  0.29297295167E+02 -0.98056284396E+01 -0.34191843300E+03  0.34331136986E+03  0.00000000000E+00 0.  1.
         21    1    1    2  504  501  0.25577532981E+02 -0.32742229621E+02 -0.39863944884E+02  0.57579491971E+02  0.00000000000E+00 0.  1.
         21    1    1    2  505  502 -0.10087835731E+03 -0.50003945310E+02 -0.47169857001E+03  0.48494987212E+03  0.00000000000E+00 0.  1.
         21    1    1    2  506  504  0.46003529163E+02  0.92551803370E+02 -0.16244583465E+03  0.19253781498E+03  0.00000000000E+00 0.  1.
<scales pt_clust_3="30.89469" pt_clust_4="43.34599" pt_clust_5="98.59994" pt_clust_6="14000.00000"></scales>
<clustering>
<clus scale="   30.895">  2  3  1 -1</clus>
<clus scale="   43.346">  1  4  2 -1</clus>
<clus scale="   98.600">  2  5  1 -1</clus>
<clus scale="   43.346">  1  3  2 -1</clus>
</clustering>
</event>
<event>
 6    0  0.8520634E+002  0.1175504E+03  0.7546771E-02  0.1247194E+00
         21   -1    0    0  505  501  0.00000000000E+00  0.00000000000E+00  0.80013398908E+03  0.80013398908E+03  0.00000000000E+00 0.  1.
         21   -1    0    0  503  502 -0.00000000000E+00 -0.00000000000E+00 -0.10713791908E+03  0.10713791908E+03  0.00000000000E+00 0.  1.
         21    1    1    2  503  501  0.45459152364E+02  0.40236654218E+02  0.17482491345E+03  0.18506559172E+03  0.00000000000E+00 0.  1.
         21    1    1    2  504  506  0.88610892369E+02 -0.10831392562E+03  0.44059820334E+02  0.14671422732E+03  0.00000000000E+00 0.  1.
         21    1    1    2  505  504 -0.14072580710E+03  0.15332061726E+02  0.49761984681E+03  0.51736286767E+03  0.00000000000E+00 0.  1.
         21    1    1    2  506  502  0.66557623706E+01  0.52745209675E+02 -0.23508510597E+02  0.58129221454E+02  0.00000000000E+00 0.  1.
<scales pt_clust_3="63.84987" pt_clust_4="117.55043" pt_clust_5="14000.00000" pt_clust_6="53.16349"></scales>
<clustering>
<clus scale="   53.163">  2  6  1 -1</clus>
<clus scale="   63.850">  1  3  2 -1</clus>
<clus scale="  117.550">  2  4  1 -1</clus>
<clus scale="   63.850">  1  3  2 -1</clus>
</clustering>
</event>
<event>
 6    0  0.8520634E+002  0.7933859E+02  0.7546771E-02  0.1330939E+00
         21   -1    0    0  506  501  0.00000000000E+00  0.00000000000E+00  0.16863120553E+03  0.16863120553E+03  0.00000000000E+00 0. -1.
         21   -1    0    0  503  502 -0.00000000000E+00 -0.00000000000E+00 -0.22452528002E+03  0.22452528002E+03  0.00000000000E+00 0. -1.
         21    1    1    2  503  505  0.42120705639E+02 -0.40814318752E+02 -0.33227598494E+02  0.67409463434E+02  0.00000000000E+00 0. -1.
         21    1    1    2  504  502 -0.23483708037E+02  0.26294382168E+02 -0.12821722042E+03  0.13297569210E+03  0.00000000000E+00 0. -1.
         21    1    1    2  505  501 -0.41993037872E+02 -0.64708424376E+02  0.37610933112E+02  0.85820613517E+02  0.00000000000E+00 0. -1.
         21    1    1    2  506  504  0.23356040269E+02  0.79228360960E+02  0.67939811312E+02  0.10695071649E+03  0.00000000000E+00 0. -1.
<scales pt_clust_3="39.83746" pt_clust_4="35.25449" pt_clust_5="79.33859" pt_clust_6="14000.00000"></scales>
<clustering>
<clus scale="   35.254">  2  4  1 -1</clus>
<clus scale="   39.837">  2  3  1 -1</clus>
<clus scale="   79.339">  2  5  1 -1</clus>
<clus scale="   79.339">  1  3  2 -1</clus>
</clustering>
</event>
<event>
 6    0  0.8520634E+002  0.1010579E+03  0.7546771E-02  0.1278087E+00
         21   -1    0    0  506  501  0.00000000000E+00  0.00000000000E+00  0.10756058574E+04  0.10756058574E+04  0.00000000000E+00 0.  1.
         21   -1    0    0  501  502 -0.00000000000E+00 -0.00000000000E+00 -0.12255717976E+03  0.12255717976E+03  0.00000000000E+00 0. -1.
         21    1    1    2  503  502  0.25816717237E+02  0.38656649035E+02 -0.67409869748E+02  0.81883636601E+02  0.00000000000E+00 0. -1.
         21    1    1    2  504  503  0.79077843236E+02 -0.82006759507E+02  0.37989968512E+02  0.12009018113E+03  0.00000000000E+00 0. -1.
         21    1    1    2  505  504 -0.55141510884E+02  0.49338394458E+02  0.22068082058E+03  0.23275499557E+03  0.00000000000E+00 0.  1.
         21    1    1    2  506  505 -0.49753049589E+02 -0.59882839860E+01  0.76178775825E+03  0.76343422383E+03  0.00000000000E+00 0.  1.
<scales pt_clust_3="46.48483" pt_clust_4="14000.00000" pt_clust_5="101.05794" pt_clust_6="49.59604"></scales>
<clustering>
<clus scale="   46.485">  2  3  1 -1</clus>
<clus scale="   49.596">  1  6  2 -1</clus>
<clus scale="  101.058">  1  5  2 -1</clus>
<clus scale="   49.596">  1  3  2 -1</clus>
</clustering>
</event>
<event>
 6    0  0.8520634E+002  0.1947107E+03  0.7546771E-02  0.1154280E+00
         21   -1    0    0  504  501  0.00000000000E+00  0.00000000000E+00  0.88816734299E+02  0.88816734299E+02  0.00000000000E+00 0. -1.
         21   -1    0    0  505  502 -0.00000000000E+00 -0.00000000000E+00 -0.79229460745E+03  0.79229460745E+03  0.00000000000E+00 0. -1.
         21    1    1    2  503  502 -0.71042827542E+01 -0.42766336726E+02 -0.32657097686E+03  0.32943593204E+03  0.00000000000E+00 0. -1.
         21    1    1    2  504  506  0.18426758280E+02  0.32098274748E+02 -0.12251235747E+02  0.38986375054E+02  0.00000000000E+00 0.  1.
         21    1    1    2  505  501 -0.70319099798E+02 -0.15043478834E+03 -0.90073729908E+02  0.18891447314E+03  0.00000000000E+00 0. -1.
         21    1    1    2  506  503  0.58996624273E+02  0.16110285032E+03 -0.27458193064E+03  0.32377456152E+03  0.00000000000E+00 0. -1.
<scales pt_clust_3="43.35240" pt_clust_4="35.98082" pt_clust_5="178.63677" pt_clust_6="35.98082"></scales>
<clustering>
<clus scale="   35.981">  4  6 -1 -1</clus>
<clus scale="   43.352">  2  3  1 -1</clus>
<clus scale="  178.637">  1  5  2 -1</clus>
<clus scale="  178.637">  1  3  2 -1</clus>
</clustering>
</event>
<event>
 6    0  0.8520634E+002  0.1474818E+03  0.7546771E-02  0.1203602E+00
         21   -1    0    0  504  501  0.00000000000E+00  0.00000000000E+00  0.20200935075E+04  0.20200935075E+04  0.00000000000E+00 0.  1.
         21   -1    0    0  503  502 -0.00000000000E+00 -0.00000000000E+00 -0.57958254983E+02  0.57958254983E+02  0.00000000000E+00 0.  1.
         21    1    1    2  503  505 -0.91405010791E+02  0.10419360494E+03  0.58915248889E+02  0.15060607511E+03  0.00000000000E+00 0.  1.
         21    1    1    2  504  506  0.97783242294E+01 -0.11116996744E+03  0.77290311017E+03  0.78091843044E+03  0.00000000000E+00 0.  1.
         21    1    1    2  505  501  0.60978457674E+02  0.73580175569E+02  0.34104086138E+03  0.35417691013E+03  0.00000000000E+00 0.  1.
         21    1    1    2  506  502  0.20648228888E+02 -0.66603813069E+02  0.78927603209E+03  0.79235034682E+03  0.00000000000E+00 0.  1.
<scales pt_clust_3="139.67533" pt_clust_4="37.42566" pt_clust_5="95.56367" pt_clust_6="37.42566"></scales>
<clustering>
<clus scale="   37.426">  4  6 -1 -1</clus>
<clus scale="   95.564">  1  5  2 -1</clus>
<clus scale="  139.675">  2  3  1 -1</clus>
<clus scale="   95.564">  1  3  2 -1</clus>
</clustering>
</event>
<event>
 6    0  0.8520634E+002  0.1151270E+03  0.7546771E-02  0.1251360E+00
         21   -1    0    0  506  501  0.00000000000E+00  0.00000000000E+00  0.52524491467E+02  0.52524491467E+02  0.00000000000E+00 0.  1.
         21   -1    0    0  504  502 -0.00000000000E+00 -0.00000000000E+00 -0.83015362354E+03  0.83015362354E+03  0.00000000000E+00 0.  1.
         21    1    1    2  503  505  0.70964430453E+02 -0.74938304978E+02 -0.52433577598E+03  0.53439658112E+03  0.00000000000E+00 0.  1.
         21    1    1    2  504  503  0.29898965154E+02 -0.41661059030E+01 -0.63996539226E+02  0.70759180243E+02  0.00000000000E+00 0.  1.
         21    1    1    2  505  501 -0.32940020162E+02 -0.14783950767E+02  0.17765028934E+02  0.40239363583E+02  0.00000000000E+00 0.  1.
         21    1    1    2  506  502 -0.67923375445E+02  0.93888361648E+02 -0.20706184580E+03  0.23728299005E+03  0.00000000000E+00 0.  1.
<scales pt_clust_3="115.12701" pt_clust_4="30.18782" pt_clust_5="35.72960" pt_clust_6="14000.00000"></scales>
<clustering>
<clus scale="   30.188">  2  4  1 -1</clus>
<clus scale="   35.730">  1  5  2 -1</clus>
<clus scale="  115.127">  2  3  1 -1</clus>
<clus scale="   35.730">  1  3  2 -1</clus>
</clustering>
</event>
<event>
 6    0  0.8520634E+002  0.1894295E+03  0.7546771E-02  0.1158977E+00
         21   -1    0    0  502  501  0.00000000000E+00  0.00000000000E+00  0.24142912181E+03  0.24142912181E+03  0.00000000000E+00 0. -1.
         21   -1    0    0  503  502 -0.00000000000E+00 -0.00000000000E+00 -0.22332819981E+03  0.22332819981E+03  0.00000000000E+00 0. -1.
         21    1    1    2  503  505 -0.17223452197E+03 -0.31723602726E+02 -0.10906029902E+03  0.20631351471E+03  0.00000000000E+00 0. -1.
         21    1    1    2  504  506  0.10465029048E+03  0.32969456308E+02  0.67997343638E+02  0.12908255919E+03  0.00000000000E+00 0. -1.
         21    1    1    2  505  504  0.63611936041E+02 -0.35138214472E+02  0.16131105584E+02  0.74440480188E+02  0.00000000000E+00 0.  1.
         21    1    1    2  506  501  0.39722954496E+01  0.33892360890E+02  0.43032771794E+02  0.54920767531E+02  0.00000000000E+00 0. -1.
<scales pt_clust_3="172.79003" pt_clust_4="59.81821" pt_clust_5="59.81821" pt_clust_6="34.12435"></scales>
<clustering>
<clus scale="   34.124">  1  6  2 -1</clus>
<clus scale="   59.818">  4  5 -1 -1</clus>
<clus scale="  172.790">  2  3  1 -1</clus>
<clus scale="   34.124">  1  3  2 -1</clus>
</clustering>
</event>
<event>
 6    0  0.8520634E+002  0.1086134E+03  0.7546771E-02  0.1263159E+00
         21   -1    0    0  504  501  0.00000000000E+00  0.00000000000E+00  0.40258922524E+03  0.40258922524E+03  0.00000000000E+00 0. -1.
         21   -1    0    0  503  502 -0.00000000000E+00 -0.00000000000E+00 -0.29402136880E+03  0.29402136880E+03  0.00000000000E+00 0. -1.
         21    1    1    2  503  501  0.26360798004E+02 -0.22752672553E+02  0.29588820539E+03  0.29793020302E+03  0.00000000000E+00 0. -1.
         21    1    1    2  504  506  0.26244128524E+02  0.18568642993E+02  0.26723536499E+02  0.41805456433E+02  0.00000000000E+00 0. -1.
         21    1    1    2  505  502  0.13574823180E+02  0.10686894878E+03 -0.20838086424E+03  0.23458011983E+03  0.00000000000E+00 0. -1.
         21    1    1    2  506  505 -0.66179749708E+02 -0.10268491922E+03 -0.56630212102E+01  0.12229481475E+03  0.00000000000E+00 0. -1.
<scales pt_clust_3="48.14979" pt_clust_4="32.14885" pt_clust_5="14000.00000" pt_clust_6="108.61345"></scales>
<clustering>
<clus scale="   32.149">  1  4  2 -1</clus>
<clus scale="   48.150">  1  3  2 -1</clus>
<clus scale="  108.613">  1  6  2 -1</clus>
<clus scale="   32.149">  1  3  2 -1</clus>
</clustering>
</event>
<event>
 6    0  0.8520634E+002  0.7403780E+02  0.7546771E-02  0.1346877E+00
         21   -1    0    0  503  501  0.00000000000E+00  0.00000000000E+00  0.96740105215E+03  0.96740105215E+03  0.00000000000E+00 0. -1.
         21   -1    0    0  506  502 -0.00000000000E+00 -0.00000000000E+00 -0.12247578142E+04  0.12247578142E+04  0.00000000000E+00 0.  1.
         21    1    1    2  503  504  0.11339043405E+02  0.34510094758E+02  0.62073994389E+03  0.62180189649E+03  0.00000000000E+00 0. -1.
         21    1    1    2  504  502 -0.38879912301E+02  0.99354289441E+01 -0.46816258643E+01  0.40401459745E+02  0.00000000000E+00 0. -1.
         21    1    1    2  505  501  0.80791488962E+00 -0.11337053714E+03  0.31730069604E+03  0.33694697376E+03  0.00000000000E+00 0. -1.
         21    1    1    2  506  505  0.26732954006E+02  0.68925013436E+02 -0.11907157761E+04  0.11930085364E+04  0.00000000000E+00 0.  1.
<scales pt_clust_3="36.32521" pt_clust_4="40.04699" pt_clust_5="74.03780" pt_clust_6="14000.00000"></scales>
<clustering>
<clus scale="   36.325">  1  3  2 -1</clus>
<clus scale="   40.047">  1  4  2 -1</clus>
<clus scale="   74.038">  1  5  2 -1</clus>
<clus scale="   36.325">  1  3  2 -1</clus>
</clustering>
</event>
<event>
 6    0  0.8520634E+002  0.1776813E+03  0.7546771E-02  0.1170066E+00
         21   -1    0    0  504  501  0.00000000000E+00  0.00000000000E+00  0.23469781543E+04  0.23469781543E+04  0.00000000000E+00 0.  1.
         21   -1    0    0  506  502 -0.00000000000E+00 -0.00000000000E+00 -0.11920838581E+03  0.11920838581E+03  0.00000000000E+00 0.  1.
         21    1    1    2  503  505 -0.20399527826E+03  0.42097285317E+02  0.15515689085E+04  0.15654878897E+04  0.00000000000E+00 0.  1.
         21    1    1    2  504  503  0.24335494552E+02 -0.19282958695E+02  0.64943504820E+03  0.65017684565E+03  0.00000000000E+00 0.  1.
         21    1    1    2  505  502  0.13348547134E+03  0.57744814027E+02  0.51737931753E+02  0.15436854663E+03  0.00000000000E+00 0.  1.
         21    1    1    2  506  501  0.46174312368E+02 -0.80559140649E+02 -0.24972120003E+02  0.96153258095E+02  0.00000000000E+00 0.  1.
<scales pt_clust_3="14000.00000" pt_clust_4="31.04914" pt_clust_5="177.68125" pt_clust_6="93.45879"></scales>
<clustering>
<clus scale="   31.049">  1  4  2 -1</clus>
<clus scale="   93.459">  2  6  1 -1</clus>
<clus scale="  177.681">  2  5  1 -1</clus>
<clus scale="   31.049">  1  3  2 -1</clus>
</clustering>
</event>
<event>
 6    0  0.8520634E+002  0.1285416E+03  0.7546771E-02  0.1229636E+00
         21   -1    0    0  505  501  0.00000000000E+00  0.00000000000E+00  0.11959374940E+03  0.11959374940E+03  0.00000000000E+00 0. -1.
         21   -1    0    0  506  502 -0.00000000000E+00 -0.00000000000E+00 -0.37308663193E+03  0.37308663193E+03  0.00000000000E+00 0.  1.
         21    1    1    2  503  502  0.26328462553E+02  0.75159605368E+02 -0.11705294269E+03  0.14157522951E+03  0.00000000000E+00 0.  1.
         21    1    1    2  504  503  0.73729685828E+02  0.35621420799E+02 -0.14018951127E+03  0.16235162845E+03  0.00000000000E+00 0. -1.
         21    1    1    2  505  504 -0.44035495453E+02 -0.99014571466E+02  0.45878902189E+02  0.11767703212E+03  0.00000000000E+00 0. -1.
         21    1    1    2  506  501 -0.56022652928E+02 -0.11766454701E+02 -0.42129330766E+02  0.71076491248E+02  0.00000000000E+00 0.  1.
<scales pt_clust_3="55.64102" pt_clust_4="55.64102" pt_clust_5="112.29045" pt_clust_6="57.24497"></scales>
<clustering>
<clus scale="   57.245">  2  6  1 -1</clus>
<clus scale="   55.641">  3  4 -1 -1</clus>
<clus scale="  112.290">  1  5  2 -1</clus>
<clus scale="  112.290">  1  3  2 -1</clus>
</clustering>
</event>
<event>
 6    0  0.8520634E+002  0.9635596E+02  0.7546771E-02  0.1288151E+00
         21   -1    0    0  503  501  0.00000000000E+00  0.00000000000E+00  0.21786656573E+03  0.21786656573E+03  0.00000000000E+00 0. -1.
         21   -1    0    0  504  502 -0.00000000000E+00 -0.00000000000E+00 -0.73005112486E+03  0.73005112486E+03  0.00000000000E+00 0. -1.
         21    1    1    2  503  506 -0.49665923541E+02 -0.77059708490E+02  0.13552074157E+03  0.16361776807E+03  0.00000000000E+00 0. -1.
         21    1    1    2  504  501  0.28436822334E+02 -0.97706141477E+01  0.47096133931E+01  0.30435147832E+02  0.00000000000E+00 0.  1.
         21    1    1    2  505  502  0.17459149342E+02 -0.36267589284E+02 -0.62677793279E+03  0.62806905430E+03  0.00000000000E+00 0. -1.
         21    1    1    2  506  505  0.37699518650E+01  0.12309791192E+03 -0.25636981294E+02  0.12579572038E+03  0.00000000000E+00 0. -1.
<scales pt_clust_3="96.35596" pt_clust_4="30.06855" pt_clust_5="40.31940" pt_clust_6="14000.00000"></scales>
<clustering>
<clus scale="   30.069">  1  4  2 -1</clus>
<clus scale="   40.319">  2  5  1 -1</clus>
<clus scale="   96.356">  1  3  2 -1</clus>
<clus scale="   30.069">  1  3  2 -1</clus>
</clustering>
</event>
<event>
 6    0  0.8520634E+002  0.8880787E+02  0.7546771E-02  0.1305765E+00
         21   -1    0    0  506  501  0.00000000000E+00  0.00000000000E+00  0.73648148862E+03  0.73648148862E+03  0.00000000000E+00 0. -1.
         21   -1    0    0  503  502 -0.00000000000E+00 -0.00000000000E+00 -0.14954203075E+03  0.14954203075E+03  0.00000000000E+00 0.  1.
         21    1    1    2  503  504 -0.86487805193E+02 -0.21492958071E+01  0.23108592231E+03  0.24674979920E+03  0.00000000000E+00 0. -1.
         21    1    1    2  504  501  0.85761040203E+02  0.38302557819E+02  0.32839774552E+03  0.34156569092E+03  0.00000000000E+00 0. -1.
         21    1    1    2  505  502 -0.67289013217E+02  0.19990699740E+02 -0.11230996229E+03  0.13244231576E+03  0.00000000000E+00 0.  1.
         21    1    1    2  506  505  0.68015778207E+02 -0.56143961751E+02  0.13976575233E+03  0.16526571348E+03  0.00000000000E+00 0. -1.
<scales pt_clust_3="88.80787" pt_clust_4="14000.00000" pt_clust_5="70.19572" pt_clust_6="59.27999"></scales>
<clustering>
<clus scale="   70.196">  2  5  1 -1</clus>
<clus scale="   59.280">  2  6  1 -1</clus>
<clus scale="   88.808">  2  3  1 -1</clus>
<clus scale="   88.808">  1  3  2 -1</clus>
</clustering>
</event>
<event>
 6    0  0.8520634E+002  0.1711372E+03  0.7546771E-02  0.1176667E+00
         21   -1    0    0  505  501  0.00000000000E+00  0.00000000000E+00  0.53118541018E+03  0.53118541018E+03  0.00000000000E+00 0. -1.
         21   -1    0    0  506  502 -0.00000000000E+00 -0.00000000000E+00 -0.76483961948E+03  0.76483961948E+03  0.00000000000E+00 0.  1.
         21    1    1    2  503  501 -0.32943438148E+02  0.11952424101E+02  0.30678422028E+03  0.30877935224E+03  0.00000000000E+00 0. -1.
         21    1    1    2  504  502 -0.17259304999E+03  0.54122399172E+01 -0.63684300544E+03  0.65983836417E+03  0.00000000000E+00 0.  1.
         21    1    1    2  505  504  0.44366943424E+02 -0.82604897983E+02  0.11962121431E+03  0.15199088707E+03  0.00000000000E+00 0. -1.
         21    1    1    2  506  503  0.16116954471E+03  0.65240233965E+02 -0.23216638453E+02  0.17541642618E+03  0.00000000000E+00 0. -1.
<scales pt_clust_3="35.04469" pt_clust_4="14000.00000" pt_clust_5="79.17354" pt_clust_6="171.13722"></scales>
<clustering>
<clus scale="   35.045">  1  3  2 -1</clus>
<clus scale="   79.174">  1  5  2 -1</clus>
<clus scale="  171.137">  1  6  2 -1</clus>
<clus scale="   35.045">  1  3  2 -1</clus>
</clustering>
</event>
<event>
 6    0  0.8520634E+002  0.9222379E+02  0.7546771E-02  0.1297554E+00
         21   -1    0    0  504  501  0.00000000000E+00  0.00000000000E+00  0.25424097933E+03  0.25424097933E+03  0.00000000000E+00 0.  1.
         21   -1    0    0  506  502 -0.00000000000E+00 -0.00000000000E+00 -0.43195408922E+03  0.43195408922E+03  0.00000000000E+00 0.  1.
         21    1    1    2  503  501 -0.35047109442E+02  0.38961292429E+01  0.16858221466E+03  0.17223078355E+03  0.00000000000E+00 0.  1.
         21    1    1    2  504  505 -0.62742219311E+02 -0.17504374767E+02 -0.13994179738E+02  0.66624517158E+02  0.00000000000E+00 0.  1.
         21    1    1    2  505  502  0.77702312896E+02  0.63452941867E+02 -0.36891549792E+03  0.38231213669E+03  0.00000000000E+00 0.  1.
         21    1    1    2  506  503  0.20087015857E+02 -0.49844696343E+02  0.36614353104E+02  0.65027631148E+02  0.00000000000E+00 0.  1.
<scales pt_clust_3="35.26301" pt_clust_4="92.22379" pt_clust_5="14000.00000" pt_clust_6="47.49698"></scales>
<clustering>
<clus scale="   35.263">  1  3  2 -1</clus>
<clus scale="   47.497">  1  6  2 -1</clus>
<clus scale="   92.224">  1  4  2 -1</clus>
<clus scale="   35.263">  1  3  2 -1</clus>
</clustering>
</event>
<event>
 6    0  0.8520634E+002  0.1063252E+03  0.7546771E-02  0.1267530E+00
         21   -1    0    0  503  501  0.00000000000E+00  0.00000000000E+00  0.31272642320E+02  0.31272642320E+02  0.00000000000E+00 0.  1.
         21   -1    0    0  505  502 -0.00000000000E+00 -0.00000000000E+00 -0.24005057631E+04  0.24005057631E+04  0.00000000000E+00 0.  1.
         21    1    1    2  503  502  0.63450976480E+02  0.66667705656E+02 -0.74964425547E+03  0.75527287728E+03  0.00000000000E+00 0.  1.
         21    1    1    2  504  501 -0.70405122566E+02 -0.11160388061E+02 -0.45412970402E+02  0.84520846103E+02  0.00000000000E+00 0.  1.
         21    1    1    2  505  506  0.74976784856E+02 -0.99089754989E+02 -0.13061757512E+04  0.13120729365E+04  0.00000000000E+00 0.  1.
         21    1    1    2  506  504 -0.68022638769E+02  0.43582437394E+02 -0.26800014377E+03  0.27991174554E+03  0.00000000000E+00 0.  1.
<scales pt_clust_3="79.12414" pt_clust_4="71.28419" pt_clust_5="14000.00000" pt_clust_6="106.32522"></scales>
<clustering>
<clus scale="   71.284">  1  4  2 -1</clus>
<clus scale="   79.124">  2  3  1 -1</clus>
<clus scale="  106.325">  1  6  2 -1</clus>
<clus scale="   71.284">  1  3  2 -1</clus>
</clustering>
</event>
<event>
 6    0  0.8520634E+002  0.7389252E+02  0.7546771E-02  0.1347335E+00
         21   -1    0    0  505  501  0.00000000000E+00  0.00000000000E+00  0.28495231592E+03  0.28495231592E+03  0.00000000000E+00 0. -1.
         21   -1    0    0  506  502 -0.00000000000E+00 -0.00000000000E+00 -0.19919855123E+03  0.19919855123E+03  0.00000000000E+00 0. -1.
         21    1    1    2  503  504  0.25045282813E+02 -0.11531419432E+03 -0.38459510083E+02  0.12411189918E+03  0.00000000000E+00 0.  1.
         21    1    1    2  504  501 -0.23890277056E+02  0.43926948431E+02  0.21011298825E+03  0.21598099446E+03  0.00000000000E+00 0. -1.
         21    1    1    2  505  502  0.20638447522E+02  0.25937380474E+02  0.10923746742E+02  0.34900164253E+02  0.00000000000E+00 0. -1.
         21    1    1    2  506  503 -0.21793453279E+02  0.45449865416E+02 -0.96823460221E+02  0.10915780925E+03  0.00000000000E+00 0. -1.
<scales pt_clust_3="14000.00000" pt_clust_4="73.89252" pt_clust_5="33.14654" pt_clust_6="50.75008"></scales>
<clustering>
<clus scale="   33.147">  1  5  2 -1</clus>
<clus scale="   50.750">  2  6  1 -1</clus>
<clus scale="   73.893">  1  4  2 -1</clus>
<clus scale="   33.147">  1  3  2 -1</clus>
</clustering>
</event>
<event>
 6    0  0.8520634E+002  0.1610608E+03  0.7546771E-02  0.1187504E+00
         21   -1    0    0  506  501  0.00000000000E+00  0.00000000000E+00  0.14054909191E+02  0.14054909191E+02  0.00000000000E+00 0.  1.
         21   -1    0    0  505  502 -0.00000000000E+00 -0.00000000000E+00 -0.27507997491E+04  0.27507997491E+04  0.00000000000E+00 0.  1.
         21    1    1    2  503  502 -0.45094098818E+02  0.32295652062E+02 -0.43337405327E+03  0.43690909459E+03  0.00000000000E+00 0.  1.
         21    1    1    2  504  503 -0.86939753226E+02 -0.12276954938E+02 -0.40086353843E+03  0.41036669061E+03  0.00000000000E+00 0.  1.
         21    1    1    2  505  501  0.15587485490E+03  0.82438418184E+01 -0.18254304831E+04  0.18320920773E+04  0.00000000000E+00 0.  1.
         21    1    1    2  506  504 -0.23841002855E+02 -0.28262538942E+02 -0.77076765125E+02  0.85486795745E+02  0.00000000000E+00 0. -1.
<scales pt_clust_3="47.59677" pt_clust_4="47.59677" pt_clust_5="147.81872" pt_clust_6="36.97519"></scales>
<clustering>
<clus scale="   36.975">  1  6  2 -1</clus>
<clus scale="   47.597">  3  4 -1 -1</clus>
<clus scale="  147.819">  2  5  1 -1</clus>
<clus scale="   36.975">  1  3  2 -1</clus>
</clustering>
</event>
<event>
 6    0  0.8520634E+002  0.8581686E+02  0.7546771E-02  0.1313310E+00
         21   -1    0    0  506  501  0.00000000000E+00  0.00000000000E+00  0.34159401299E+02  0.34159401299E+02  0.00000000000E+00 0. -1.
         21   -1    0    0  503  502 -0.00000000000E+00 -0.00000000000E+00 -0.12139453035E+04  0.12139453035E+04  0.00000000000E+00 0. -1.
         21    1    1    2  503  504  0.39249107812E+02 -0.31813761538E+02 -0.44538564612E+03  0.44824210161E+03  0.00000000000E+00 0. -1.
         21    1    1    2  504  505  0.64531468903E+02  0.27576398293E+02 -0.61080590488E+03  0.61482405748E+03  0.00000000000E+00 0. -1.
         21    1    1    2  505  501 -0.38627228822E+02 -0.40163853040E+02 -0.32292522122E+02  0.64405006657E+02  0.00000000000E+00 0. -1.
         21    1    1    2  506  502 -0.65153347893E+02  0.44401216285E+02 -0.91301829063E+02  0.12063353903E+03  0.00000000000E+00 0.  1.
<scales pt_clust_3="50.52334" pt_clust_4="14000.00000" pt_clust_5="55.54545" pt_clust_6="85.81686"></scales>
<clustering>
<clus scale="   50.523">  2  3  1 -1</clus>
<clus scale="   55.545">  1  5  2 -1</clus>
<clus scale="   85.817">  1  6  2 -1</clus>
<clus scale="   55.545">  1  3  2 -1</clus>
</clustering>
</event>
<event>
 6    0  0.8520634E+002  0.8006144E+02  0.7546771E-02  0.1328877E+00
         21   -1    0    0  506  501  0.00000000000E+00  0.00000000000E+00  0.13454234516E+03  0.13454234516E+03  0.00000000000E+00 0.  1.
         21   -1    0    0  505  502 -0.00000000000E+00 -0.00000000000E+00 -0.31999962880E+03  0.31999962880E+03  0.00000000000E+00 0.  1.
         21    1    1    2  503  501 -0.68144826526E+02  0.73013669840E+01 -0.13781732568E+03  0.15391764876E+03  0.00000000000E+00 0.  1.
         21    1    1    2  504  502  0.34300886513E+02 -0.10934030873E+03 -0.42559700980E+02  0.12224230887E+03  0.00000000000E+00 0.  1.
         21    1    1    2  505  503 -0.11623495515E+01  0.49741094477E+02 -0.71354505936E+02  0.86988465060E+02  0.00000000000E+00 0.  1.
         21    1    1    2  506  504  0.35006289565E+02  0.52297847272E+02  0.66274248960E+02  0.91393551270E+02  0.00000000000E+00 0.  1.
<scales pt_clust_3="14000.00000" pt_clust_4="80.06144" pt_clust_5="49.75467" pt_clust_6="65.07169"></scales>
<clustering>
<clus scale="   49.755">  2  5  1 -1</clus>
<clus scale="   65.072">  1  6  2 -1</clus>
<clus scale="   80.061">  1  4  2 -1</clus>
<clus scale="   65.072">  1  3  2 -1</clus>
</clustering>
</event>
<event>
 6    0  0.8520634E+002  0.1829726E+03  0.7546771E-02  0.1164957E+00
         21   -1    0    0  504  501  0.00000000000E+00  0.00000000000E+00  0.21235266894E+04  0.21235266894E+04  0.00000000000E+00 0.  1.
         21   -1    0    0  503  502 -0.00000000000E+00 -0.00000000000E+00 -0.62733584441E+03  0.62733584441E+03  0.00000000000E+00 0. -1.
         21    1    1    2  503  501  0.24591078598E+02 -0.29490531696E+02  0.18503907559E+04  0.18507891188E+04  0.00000000000E+00 0.  1.
         21    1    1    2  504  506  0.95299450805E+02 -0.11576100067E+03  0.23106688906E+03  0.27545326612E+03  0.00000000000E+00 0.  1.
         21    1    1    2  505  502 -0.32085510928E+02  0.96145135004E+01 -0.25237064281E+03  0.25458369986E+03  0.00000000000E+00 0.  1.
         21    1    1    2  506  505 -0.87805018474E+02  0.13563701886E+03 -0.33289615718E+03  0.37003644905E+03  0.00000000000E+00 0. -1.
<scales pt_clust_3="38.38320" pt_clust_4="182.97259" pt_clust_5="33.49506" pt_clust_6="14000.00000"></scales>
<clustering>
<clus scale="   33.495">  2  5  1 -1</clus>
<clus scale="   38.383">  1  3  2 -1</clus>
<clus scale="  182.973">  1  4  2 -1</clus>
<clus scale="   38.383">  1  3  2 -1</clus>
</clustering>
</event>
<event>
 6    0  0.8520634E+002  0.7680801E+02  0.7546771E-02  0.1338362E+00
         21   -1    0    0  502  501  0.00000000000E+00  0.00000000000E+00  0.51039506885E+02  0.51039506885E+02  0.00000000000E+00 0.  1.
         21   -1    0    0  504  502 -0.00000000000E+00 -0.00000000000E+00 -0.12401813663E+04  0.12401813663E+04  0.00000000000E+00 0. -1.
         21    1    1    2  503  506  0.75063996999E+02 -0.15149522929E+01 -0.27922265061E+03  0.28914042840E+03  0.00000000000E+00 0. -1.
         21    1    1    2  504  505 -0.59866645123E+01  0.29825907328E+02 -0.77309560265E+03  0.77369389020E+03  0.00000000000E+00 0. -1.
         21    1    1    2  505  503 -0.80885671469E+01 -0.79214754547E+02 -0.12480351955E+03  0.14804161830E+03  0.00000000000E+00 0. -1.
         21    1    1    2  506  501 -0.60988765340E+02  0.50903799511E+02 -0.12020086598E+02  0.80344936270E+02  0.00000000000E+00 0.  1.
<scales pt_clust_3="14000.00000" pt_clust_4="30.42080" pt_clust_5="71.18104" pt_clust_6="76.80801"></scales>
<clustering>
<clus scale="   30.421">  2  4  1 -1</clus>
<clus scale="   71.181">  2  5  1 -1</clus>
<clus scale="   76.808">  1  6  2 -1</clus>
<clus scale="   76.808">  1  3  2 -1</clus>
</clustering>
</event>
<event>
 6    0  0.8520634E+002  0.9252702E+02  0.7546771E-02  0.1296845E+00
         21   -1    0    0  504  501  0.00000000000E+00  0.00000000000E+00  0.49121059568E+03  0.49121059568E+03  0.00000000000E+00 0. -1.
         21   -1    0    0  505  502 -0.00000000000E+00 -0.00000000000E+00 -0.13228792737E+04  0.13228792737E+04  0.00000000000E+00 0. -1.
         21    1    1    2  503  501  0.50224118227E+02 -0.36805934806E+02  0.38382227861E+03  0.38884017340E+03  0.00000000000E+00 0. -1.
         21    1    1    2  504  502 -0.16598300645E+02  0.99529696253E+02  0.71121445425E+02  0.12345008716E+03  0.00000000000E+00 0. -1.
         21    1    1    2  505  506  0.20861122409E+02 -0.11575765652E+03 -0.91156069831E+03  0.91911801646E+03  0.00000000000E+00 0. -1.
         21    1    1    2  506  503 -0.54486939991E+02  0.53033895076E+02 -0.37505170372E+03  0.38268159235E+03  0.00000000000E+00 0.  1.
<scales pt_clust_3="62.26668" pt_clust_4="71.93774" pt_clust_5="92.52702" pt_clust_6="14000.00000"></scales>
<clustering>
<clus scale="   62.267">  1  3  2 -1</clus>
<clus scale="   71.938">  1  4  2 -1</clus>
<clus scale="   92.527">  2  5  1 -1</clus>
<clus scale="   62.267">  1  3  2 -1</clus>
</clustering>
</event>
<event>
 6    0  0.8520634E+002  0.2319459E+03  0.7546771E-02  0.1125278E+00
         21   -1    0    0  506  501  0.00000000000E+00  0.00000000000E+00  0.86541639852E+02  0.86541639852E+02  0.00000000000E+00 0. -1.
         21   -1    0    0  504  502 -0.00000000000E+00 -0.00000000000E+00 -0.20062377479E+04  0.20062377479E+04  0.00000000000E+00 0.  1.
         21    1    1    2  503  501 -0.14061163762E+02 -0.39713874164E+02 -0.59871026984E+02  0.73208250898E+02  0.00000000000E+00 0. -1.
         21    1    1    2  504  505  0.33173943245E+02  0.13526876601E+03 -0.10575978796E+04  0.10667293117E+04  0.00000000000E+00 0.  1.
         21    1    1    2  505  503  0.21380338287E+03 -0.71737508644E+02 -0.60852999880E+03  0.64897374069E+03  0.00000000000E+00 0.  1.
         21    1    1    2  506  502 -0.23291616235E+03 -0.23817383201E+02 -0.19369720272E+03  0.30386808449E+03  0.00000000000E+00 0. -1.
<scales pt_clust_3="42.12966" pt_clust_4="136.88121" pt_clust_5="14000.00000" pt_clust_6="231.94594"></scales>
<clustering>
<clus scale="   42.130">  1  3  2 -1</clus>
<clus scale="  136.881">  2  4  1 -1</clus>
<clus scale="  231.946">  1  6  2 -1</clus>
<clus scale="   42.130">  1  3  2 -1</clus>
</clustering>
</event>
<event>
 6    0  0.8520634E+002  0.1084292E+03  0.7546771E-02  0.1263507E+00
         21   -1    0    0  504  501  0.00000000000E+00  0.00000000000E+00  0.55791955560E+02  0.55791955560E+02  0.00000000000E+00 0.  1.
         21   -1    0    0  506  502 -0.00000000000E+00 -0.00000000000E+00 -0.98376938018E+03  0.98376938018E+03  0.00000000000E+00 0.  1.
         21    1    1    2  503  505 -0.61963524187E+02 -0.41230720515E+02 -0.33957485843E+02  0.81808077160E+02  0.00000000000E+00 0.  1.
         21    1    1    2  504  503 -0.49168755751E+02  0.61622031812E+01 -0.12653345212E+02  0.51143390924E+02  0.00000000000E+00 0.  1.
         21    1    1    2  505  502  0.51953341738E+02 -0.16042337948E+02 -0.76183773416E+03  0.76377564737E+03  0.00000000000E+00 0.  1.
         21    1    1    2  506  501  0.59178938200E+02  0.51110855281E+02 -0.11952885940E+03  0.14283422028E+03  0.00000000000E+00 0.  1.
<scales pt_clust_3="35.78475" pt_clust_4="35.78475" pt_clust_5="54.37377" pt_clust_6="99.16425"></scales>
<clustering>
<clus scale="   35.785">  3  4 -1 -1</clus>
<clus scale="   54.374">  2  5  1 -1</clus>
<clus scale="   99.164">  2  6  1 -1</clus>
<clus scale="  108.429">  1  3  2 -1</clus>
</clustering>
</event>
<event>
 6    0  0.8520634E+002  0.8671598E+02  0.7546771E-02  0.1311005E+00
         21   -1    0    0  504  501  0.00000000000E+00  0.00000000000E+00  0.12501363324E+04  0.12501363324E+04  0.00000000000E+00 0.  1.
         21   -1    0    0  503  502 -0.00000000000E+00 -0.00000000000E+00 -0.60682105208E+02  0.60682105208E+02  0.00000000000E+00 0.  1.
         21    1    1    2  503  505  0.33326135074E+02  0.26755647891E+02 -0.16801820776E+02  0.45921641460E+02  0.00000000000E+00 0.  1.
         21    1    1    2  504  502 -0.23227954572E+02 -0.66058689988E+02  0.26348297648E+03  0.27262899203E+03  0.00000000000E+00 0.  1.
         21    1    1    2  505  506 -0.53997314367E+02  0.77609343141E+02  0.70215624551E+02  0.11776737253E+03  0.00000000000E+00 0.  1.
         21    1    1    2  506  501  0.43899133865E+02 -0.38306301043E+02  0.87255744694E+03  0.87450043160E+03  0.00000000000E+00 0.  1.
<scales pt_clust_3="42.73752" pt_clust_4="14000.00000" pt_clust_5="86.71598" pt_clust_6="58.52813"></scales>
<clustering>
<clus scale="   42.738">  2  3  1 -1</clus>
<clus scale="   58.528">  1  6  2 -1</clus>
<clus scale="   86.716">  2  5  1 -1</clus>
<clus scale="   58.528">  1  3  2 -1</clus>
</clustering>
</event>
<event>
 6    0  0.8520634E+002  0.1448344E+03  0.7546771E-02  0.1206968E+00
         21   -1    0    0  506  501  0.00000000000E+00  0.00000000000E+00  0.25823354887E+03  0.25823354887E+03  0.00000000000E+00 0.  1.
         21   -1    0    0  505  502 -0.00000000000E+00 -0.00000000000E+00 -0.64143039973E+03  0.64143039973E+03  0.00000000000E+00 0.  1.
         21    1    1    2  503  504 -0.57407620981E+02 -0.53123084520E+02  0.60899036756E+02  0.99128148038E+02  0.00000000000E+00 0.  1.
         21    1    1    2  504  501  0.25024109115E+02  0.16985702289E+02  0.11004434090E+03  0.11412483114E+03  0.00000000000E+00 0.  1.
         21    1    1    2  505  503  0.53833550121E+02  0.17300887408E+03 -0.90540600245E+02  0.20255301015E+03  0.00000000000E+00 0.  1.
         21    1    1    2  506  502 -0.21450038255E+02 -0.13687149185E+03 -0.46359962826E+03  0.48385795927E+03  0.00000000000E+00 0.  1.
<scales pt_clust_3="61.89395" pt_clust_4="30.24434" pt_clust_5="144.83443" pt_clust_6="14000.00000"></scales>
<clustering>
<clus scale="   30.244">  1  4  2 -1</clus>
<clus scale="   61.894">  1  3  2 -1</clus>
<clus scale="  144.834">  1  5  2 -1</clus>
<clus scale="   30.244">  1  3  2 -1</clus>
</clustering>
</event>
<event>
 6    0  0.8520634E+002  0.1235135E+03  0.7546771E-02  0.1237411E+00
         21   -1    0    0  504  501  0.00000000000E+00  0.00000000000E+00  0.44731257662E+02  0.44731257662E+02  0.00000000000E+00 0. -1.
         21   -1    0    0  501  502 -0.00000000000E+00 -0.00000000000E+00 -0.87734195909E+03  0.87734195909E+03  0.00000000000E+00 0. -1.
         21    1    1    2  503  506 -0.89837470439E+02 -0.14266919185E+03 -0.28754168781E+03  0.33332490400E+03  0.00000000000E+00 0. -1.
         21    1    1    2  504  503  0.83137715488E+01  0.41461207599E+02 -0.44457801670E+02  0.61356716521E+02  0.00000000000E+00 0. -1.
         21    1    1    2  505  502  0.71271984154E+02  0.81219213178E+01 -0.19627209118E+03  0.20896984258E+03  0.00000000000E+00 0. -1.
         21    1    1    2  506  505  0.10251714736E+02  0.93086062938E+02 -0.30433912077E+03  0.31842175365E+03  0.00000000000E+00 0. -1.
<scales pt_clust_3="123.51348" pt_clust_4="42.28653" pt_clust_5="74.33467" pt_clust_6="14000.00000"></scales>
<clustering>
<clus scale="   42.287">  1  4  2 -1</clus>
<clus scale="   74.335">  2  5  1 -1</clus>
<clus scale="  123.513">  1  3  2 -1</clus>
<clus scale="   42.287">  1  3  2 -1</clus>
</clustering>
</event>
<event>
 6    0  0.8520634E+002  0.1060253E+03  0.7546771E-02  0.1268113E+00
         21   -1    0    0  505  501  0.00000000000E+00  0.00000000000E+00  0.32196577745E+03  0.32196577745E+03  0.00000000000E+00 0.  1.
         21   -1    0    0  506  502 -0.00000000000E+00 -0.00000000000E+00 -0.17514315075E+04  0.17514315075E+04  0.00000000000E+00 0. -1.
         21    1    1    2  503  502 -0.27146587158E+02  0.13936483655E+02 -0.12879447106E+04  0.12883061516E+04  0.00000000000E+00 0. -1.
         21    1    1    2  504  503 -0.57160349012E+02  0.52492113543E+02 -0.14252986704E+03  0.16228829435E+03  0.00000000000E+00 0. -1.
         21    1    1    2  505  504 -0.49122574520E+02 -0.24626877812E+01  0.29212649990E+03  0.29623805310E+03  0.00000000000E+00 0.  1.
         21    1    1    2  506  501  0.13342951069E+03 -0.63965909417E+02 -0.29111765234E+03  0.32656478591E+03  0.00000000000E+00 0. -1.
<scales pt_clust_3="30.51496" pt_clust_4="106.02533" pt_clust_5="49.30152" pt_clust_6="14000.00000"></scales>
<clustering>
<clus scale="   30.515">  2  3  1 -1</clus>
<clus scale="   49.302">  1  5  2 -1</clus>
<clus scale="  106.025">  2  4  1 -1</clus>
<clus scale="   49.302">  1  3  2 -1</clus>
</clustering>
</event>
<event>
 6    0  0.8520634E+002  0.8708723E+02  0.7546771E-02  0.1310063E+00
         21   -1    0    0  506  501  0.00000000000E+00  0.00000000000E+00  0.10167114658E+04  0.10167114658E+04  0.00000000000E+00 0.  1.
         21   -1    0    0  503  502 -0.00000000000E+00 -0.00000000000E+00 -0.11494747349E+03  0.11494747349E+03  0.00000000000E+00 0. -1.
         21    1    1    2  503  501 -0.19555084579E+02 -0.71436177207E+02  0.34934445597E+03  0.35710933573E+03  0.00000000000E+00 0. -1.
         21    1    1    2  504  502 -0.16586641536E+02 -0.25326691170E+02 -0.80953972635E+02  0.86429761359E+02  0.00000000000E+00 0. -1.
         21    1    1    2  505  504 -0.72824085306E+02  0.17545162562E+02  0.51619865515E+02  0.90971372672E+02  0.00000000000E+00 0. -1.
         21    1    1    2  506  505  0.10896581142E+03  0.79217705815E+02  0.58175364342E+03  0.59714846949E+03  0.00000000000E+00 0.  1.
<scales pt_clust_3="77.65129" pt_clust_4="30.27471" pt_clust_5="14000.00000" pt_clust_6="87.08723"></scales>
<clustering>
<clus scale="   30.275">  2  4  1 -1</clus>
<clus scale="   77.651">  1  3  2 -1</clus>
<clus scale="   87.087">  1  6  2 -1</clus>
<clus scale="   77.651">  1  3  2 -1</clus>
</clustering>
</event>
<event>
 6    0  0.8520634E+002  0.1294362E+03  0.7546771E-02  0.1228295E+00
         21   -1    0    0  504  501  0.00000000000E+00  0.00000000000E+00  0.12866015120E+04  0.12866015120E+04  0.00000000000E+00 0.  1.
         21   -1    0    0  505  502 -0.00000000000E+00 -0.00000000000E+00 -0.37499416648E+03  0.37499416648E+03  0.00000000000E+00 0.  1.
         21    1    1    2  503  502  0.69183864227E+02  0.67035512582E+02 -0.31642858128E+03  0.33076761339E+03  0.00000000000E+00 0.  1.
         21    1    1    2  504  503  0.12970625874E+03  0.72243752537E+02  0.36498180230E+03  0.39402358984E+03  0.00000000000E+00 0.  1.
         21    1    1    2  505  506 -0.15984133072E+03 -0.82376680040E+02  0.19523024596E+03  0.26542422150E+03  0.00000000000E+00 0.  1.
         21    1    1    2  506  501 -0.39048792247E+02 -0.56902585079E+02  0.66782387856E+03  0.67138025376E+03  0.00000000000E+00 0.  1.
<scales pt_clust_3="95.54778" pt_clust_4="14000.00000" pt_clust_5="129.43616" pt_clust_6="69.01241"></scales>
<clustering>
<clus scale="   69.012">  1  6  2 -1</clus>
<clus scale="   95.548">  2  3  1 -1</clus>
<clus scale="  129.436">  2  5  1 -1</clus>
<clus scale="   69.012">  1  3  2 -1</clus>
</clustering>
</event>
<event>
 6    0  0.8520634E+002  0.1086880E+03  0.7546771E-02  0.1263019E+00
         21   -1    0    0  504  501  0.00000000000E+00  0.00000000000E+00  0.12501256130E+03  0.12501256130E+03  0.00000000000E+00 0.  1.
         21   -1    0    0  506  502 -0.00000000000E+00 -0.00000000000E+00 -0.48173457369E+03  0.48173457369E+03  0.00000000000E+00 0.  1.
         21    1    1    2  503  501 -0.87189421479E+02 -0.77831395417E+02 -0.58267258963E+02  0.13059400751E+03  0.00000000000E+00 0.  1.
         21    1    1    2  504  502 -0.13568375693E+02  0.12349421430E+03  0.13820123126E+01  0.12424504716E+03  0.00000000000E+00 0.  1.
         21    1    1    2  505  503  0.81320715515E+02 -0.49428684542E+01 -0.44930024312E+02  0.93038689829E+02  0.00000000000E+00 0.  1.
         21    1    1    2  506  505  0.19437081656E+02 -0.40719950430E+02 -0.25490674143E+03  0.25886939049E+03  0.00000000000E+00 0.  1.
<scales pt_clust_3="108.68796" pt_clust_4="14000.00000" pt_clust_5="89.00862" pt_clust_6="45.12111"></scales>
<clustering>
<clus scale="   45.121">  2  6  1 -1</clus>
<clus scale="   89.009">  2  5  1 -1</clus>
<clus scale="  108.688">  2  3  1 -1</clus>
<clus scale="  108.688">  1  3  2 -1</clus>
</clustering>
</event>
<event>
 6    0  0.8520634E+002  0.1373580E+03  0.7546771E-02  0.1216929E+00
         21   -1    0    0  503  501  0.00000000000E+00  0.00000000000E+00  0.14878185670E+03  0.14878185670E+03  0.00000000000E+00 0. -1.
         21   -1    0    0  505  502 -0.00000000000E+00 -0.00000000000E+00 -0.10175555494E+04  0.10175555494E+04  0.00000000000E+00 0. -1.
         21    1    1    2  503  502 -0.15068647151E+02 -0.41095122987E+02 -0.72552926839E+02  0.84733703171E+02  0.00000000000E+00 0.  1.
         21    1    1    2  504  501 -0.47273326335E+02 -0.12433537787E+03  0.83864965980E+02  0.15724943908E+03  0.00000000000E+00 0. -1.
         21    1    1    2  505  506 -0.46850112004E+02  0.20896637931E+01 -0.43887972721E+03  0.44137819911E+03  0.00000000000E+00 0. -1.
         21    1    1    2  506  504  0.10919208549E+03  0.16334083706E+03 -0.44120600466E+03  0.48297606476E+03  0.00000000000E+00 0. -1.
<scales pt_clust_3="43.77069" pt_clust_4="14000.00000" pt_clust_5="56.58312" pt_clust_6="137.35800"></scales>
<clustering>
<clus scale="   43.771">  2  3  1 -1</clus>
<clus scale="   56.583">  2  5  1 -1</clus>
<clus scale="  137.358">  2  6  1 -1</clus>
<clus scale="  137.358">  1  3  2 -1</clus>
</clustering>
</event>
<event>
 6    0  0.8520634E+002  0.8337235E+02  0.7546771E-02  0.1319745E+00
         21   -1    0    0  504  501  0.00000000000E+00  0.00000000000E+00  0.19783038435E+03  0.19783038435E+03  0.00000000000E+00 0. -1.
         21   -1    0    0  506  502 -0.00000000000E+00 -0.00000000000E+00 -0.32327072339E+04  0.32327072339E+04  0.00000000000E+00 0. -1.
         21    1    1    2  503  502  0.35899572540E+02 -0.86452433910E+02  0.75476513302E+01  0.93913628820E+02  0.00000000000E+00 0. -1.
         21    1    1    2  504  503  0.48329420156E+02  0.71226054065E+02  0.11129618077E+03  0.14069727604E+03  0.00000000000E+00 0. -1.
         21    1    1    2  505  501 -0.34771542182E+02  0.19449728072E+02  0.19274801372E+01  0.39888184309E+02  0.00000000000E+00 0. -1.
         21    1    1    2  506  505 -0.49457450514E+02 -0.42233482278E+01 -0.31556481618E+04  0.31560385291E+04  0.00000000000E+00 0. -1.
<scales pt_clust_3="14000.00000" pt_clust_4="83.37235" pt_clust_5="39.84159" pt_clust_6="49.67385"></scales>
<clustering>
<clus scale="   39.842">  1  5  2 -1</clus>
<clus scale="   49.674">  2  6  1 -1</clus>
<clus scale="   83.372">  1  4  2 -1</clus>
<clus scale="   39.842">  1  3  2 -1</clus>
</clustering>
</event>
<event>
 6    0  0.8520634E+002  0.9246353E+02  0.7546771E-02  0.1296993E+00
         21   -1    0    0  506  501  0.00000000000E+00  0.00000000000E+00  0.70521806214E+02  0.70521806214E+02  0.00000000000E+00 0. -1.
         21   -1    0    0  504  502 -0.00000000000E+00 -0.00000000000E+00 -0.46893903246E+03  0.46893903246E+03  0.00000000000E+00 0. -1.
         21    1    1    2  503  505  0.38373293118E+02 -0.49303005512E+02 -0.86615385471E+02  0.10679663374E+03  0.00000000000E+00 0. -1.
         21    1    1    2  504  501  0.10188472316E+02 -0.42776394490E+02 -0.16185317614E+03  0.16772022991E+03  0.00000000000E+00 0. -1.
         21    1    1    2  505  502 -0.37706444120E+02 -0.24342298894E+02 -0.14066250203E+03  0.14764912097E+03  0.00000000000E+00 0. -1.
         21    1    1    2  506  503 -0.10855321314E+02  0.11642169889E+03 -0.92861626041E+01  0.11729485407E+03  0.00000000000E+00 0. -1.
<scales pt_clust_3="92.46353" pt_clust_4="43.97300" pt_clust_5="55.42174" pt_clust_6="14000.00000"></scales>
<clustering>
<clus scale="   43.973">  2  4  1 -1</clus>
<clus scale="   55.422">  2  5  1 -1</clus>
<clus scale="   92.464">  2  3  1 -1</clus>
<clus scale="   92.464">  1  3  2 -1</clus>
</clustering>
</event>
<event>
 6    0  0.8520634E+002  0.6563787E+02  0.7546771E-02  0.1375588E+00
         21   -1    0    0  506  501  0.00000000000E+00  0.00000000000E+00  0.16751854215E+03  0.16751854215E+03  0.00000000000E+00 0.  1.
         21   -1    0    0  504  502 -0.00000000000E+00 -0.00000000000E+00 -0.25978728508E+03  0.25978728508E+03  0.00000000000E+00 0.  1.
         21    1    1    2  503  502  0.46070475306E+02  0.19517194193E+02 -0.13928989671E+03  0.14800366513E+03  0.00000000000E+00 0.  1.
         21    1    1    2  504  505 -0.93062840430E+02  0.13365969508E+02 -0.63663003326E+02  0.11354434994E+03  0.00000000000E+00 0.  1.
         21    1    1    2  505  501  0.75600270596E+02  0.19204414341E+01  0.85493348675E+02  0.11414114805E+03  0.00000000000E+00 0.  1.
         21    1    1    2  506  503 -0.28607905472E+02 -0.34803605135E+02  0.25190808435E+02  0.51616664126E+02  0.00000000000E+00 0.  1.
<scales pt_clust_3="48.69219" pt_clust_4="14000.00000" pt_clust_5="65.63787" pt_clust_6="45.05223"></scales>
<clustering>
<clus scale="   45.052">  1  6  2 -1</clus>
<clus scale="   48.692">  2  3  1 -1</clus>
<clus scale="   65.638">  1  5  2 -1</clus>
<clus scale="   45.052">  1  3  2 -1</clus>
</clustering>
</event>
<event>
 6    0  0.8520634E+002  0.8501537E+02  0.7546771E-02  0.1315392E+00
         21   -1    0    0  503  501  0.00000000000E+00  0.00000000000E+00  0.62015725734E+02  0.62015725734E+02  0.00000000000E+00 0. -1.
         21   -1    0    0  506  502 -0.00000000000E+00 -0.00000000000E+00 -0.12539922161E+04  0.12539922161E+04  0.00000000000E+00 0.  1.
         21    1    1    2  503  505  0.30858048975E+02 -0.11219003124E+02 -0.65190715172E+02  0.72992565116E+02  0.00000000000E+00 0.  1.
         21    1    1    2  504  501 -0.10149941263E+02 -0.38141974872E+02  0.42194958882E+02  0.57777557147E+02  0.00000000000E+00 0. -1.
         21    1    1    2  505  502  0.42538231504E+02  0.98031308110E+02 -0.48597646996E+03  0.49758694503E+03  0.00000000000E+00 0.  1.
         21    1    1    2  506  504 -0.63246339216E+02 -0.48670330114E+02 -0.68300426408E+03  0.68765087451E+03  0.00000000000E+00 0.  1.
<scales pt_clust_3="32.83421" pt_clust_4="50.52475" pt_clust_5="14000.00000" pt_clust_6="85.01537"></scales>
<clustering>
<clus scale="   32.834">  1  3  2 -1</clus>
<clus scale="   50.525">  1  4  2 -1</clus>
<clus scale="   85.015">  2  6  1 -1</clus>
<clus scale="   32.834">  1  3  2 -1</clus>
</clustering>
</event>
<event>
 6    0  0.8520634E+002  0.9135988E+02  0.7546771E-02  0.1299592E+00
         21   -1    0    0  505  501  0.00000000000E+00  0.00000000000E+00  0.36624555030E+03  0.36624555030E+03  0.00000000000E+00 0.  1.
         21   -1    0    0  506  502 -0.00000000000E+00 -0.00000000000E+00 -0.38784348611E+03  0.38784348611E+03  0.00000000000E+00 0.  1.
         21    1    1    2  503  502  0.15503216347E+01  0.53721711836E+02 -0.12362544796E+03  0.13480236349E+03  0.00000000000E+00 0.  1.
         21    1    1    2  504  501 -0.27331969219E+02 -0.87263827923E+02  0.30807958091E+03  0.32136434211E+03  0.00000000000E+00 0.  1.
         21    1    1    2  505  503  0.52784542994E+02 -0.68197289036E+02 -0.16258139904E+03  0.18403746772E+03  0.00000000000E+00 0.  1.
         21    1    1    2  506  504 -0.27002895410E+02  0.10173940512E+03 -0.43470669721E+02  0.11388486309E+03  0.00000000000E+00 0.  1.
<scales pt_clust_3="53.74408" pt_clust_4="91.35988" pt_clust_5="62.71900" pt_clust_6="14000.00000"></scales>
<clustering>
<clus scale="   53.744">  2  3  1 -1</clus>
<clus scale="   62.719">  2  5  1 -1</clus>
<clus scale="   91.360">  1  4  2 -1</clus>
<clus scale="   91.360">  1  3  2 -1</clus>
</clustering>
</event>
<event>
 6    0  0.8520634E+002  0.9981193E+02  0.7546771E-02  0.1280692E+00
         21   -1    0    0  505  501  0.00000000000E+00  0.00000000000E+00  0.13481813678E+04  0.13481813678E+04  0.00000000000E+00 0. -1.
         21   -1    0    0  503  502 -0.00000000000E+00 -0.00000000000E+00 -0.25401433566E+02  0.25401433566E+02  0.00000000000E+00 0. -1.
         21    1    1    2  503  501 -0.60897466765E+02  0.10205447380E+03  0.51607271125E+03  0.52957970163E+03  0.00000000000E+00 0. -1.
         21    1    1    2  504  506  0.42019351798E+02 -0.15666624945E+02  0.38050449585E+02  0.58812462764E+02  0.00000000000E+00 0.  1.
         21    1    1    2  505  504 -0.10752922723E+01 -0.42648555716E+02  0.70042497590E+03  0.70172302401E+03  0.00000000000E+00 0. -1.
         21    1    1    2  506  502  0.19953407239E+02 -0.43739293140E+02  0.68231797520E+02  0.83467612986E+02  0.00000000000E+00 0.  1.
<scales pt_clust_3="91.56638" pt_clust_4="38.36634" pt_clust_5="42.66211" pt_clust_6="38.36634"></scales>
<clustering>
<clus scale="   38.366">  4  6 -1 -1</clus>
<clus scale="   42.662">  1  5  2 -1</clus>
<clus scale="   91.566">  1  3  2 -1</clus>
<clus scale="   42.662">  1  3  2 -1</clus>
</clustering>
</event>
<event>
 6    0  0.8520634E+002  0.1254606E+03  0.7546771E-02  0.1234351E+00
         21   -1    0    0  504  501  0.00000000000E+00  0.00000000000E+00  0.63928237289E+03  0.63928237289E+03  0.00000000000E+00 0. -1.
         21   -1    0    0  505  502 -0.00000000000E+00 -0.00000000000E+00 -0.55834289401E+03  0.55834289401E+03  0.00000000000E+00 0.  1.
         21    1    1    2  503  506  0.18892187467E+02 -0.92669494593E+02  0.32407695439E+03  0.33759505675E+03  0.00000000000E+00 0. -1.
         21    1    1    2  504  502  0.44356417857E+02  0.72333672549E+01 -0.28288431813E+03  0.28643210513E+03  0.00000000000E+00 0.  1.
         21    1    1    2  505  503  0.25665808563E+02  0.10256016607E+03 -0.24925157640E+03  0.27074650456E+03  0.00000000000E+00 0.  1.
         21    1    1    2  506  501 -0.88914413886E+02 -0.17124038736E+02  0.28899841903E+03  0.30285160046E+03  0.00000000000E+00 0. -1.
<scales pt_clust_3="125.46058" pt_clust_4="44.94233" pt_clust_5="14000.00000" pt_clust_6="89.41140"></scales>
<clustering>
<clus scale="   44.942">  2  4  1 -1</clus>
<clus scale="   89.411">  1  6  2 -1</clus>
<clus scale="  125.461">  1  3  2 -1</clus>
<clus scale="   89.411">  1  3  2 -1</clus>
</clustering>
</event>
<event>
 6    0  0.8520634E+002  0.7357418E+02  0.7546771E-02  0.1348344E+00
         21   -1    0    0  505  501  0.00000000000E+00  0.00000000000E+00  0.44447132626E+03  0.44447132626E+03  0.00000000000E+00 0.  1.
         21   -1    0    0  506  502 -0.00000000000E+00 -0.00000000000E+00 -0.26984209709E+03  0.26984209709E+03  0.00000000000E+00 0. -1.
         21    1    1    2  503  504 -0.57315385932E+02  0.44670386276E+02 -0.20675872522E+02  0.75551231487E+02  0.00000000000E+00 0. -1.
         21    1    1    2  504  502 -0.12106978147E+02 -0.68092862131E+02 -0.85389021414E+02  0.10988403784E+03  0.00000000000E+00 0. -1.
         21    1    1    2  505  503 -0.63749449651E+02 -0.32394040604E+02  0.35801288415E+03  0.36508436205E+03  0.00000000000E+00 0.  1.
         21    1    1    2  506  501  0.13317181373E+03  0.55816516459E+02 -0.77318761044E+02  0.16379379198E+03  0.00000000000E+00 0. -1.
<scales pt_clust_3="65.89342" pt_clust_4="69.16080" pt_clust_5="73.57418" pt_clust_6="14000.00000"></scales>
<clustering>
<clus scale="   69.161">  2  4  1 -1</clus>
<clus scale="   65.893">  2  3  1 -1</clus>
<clus scale="   73.574">  1  5  2 -1</clus>
<clus scale="   73.574">  1  3  2 -1</clus>
</clustering>
</event>
<event>
 6    0  0.8520634E+002  0.2249552E+03  0.7546771E-02  0.1130242E+00
         21   -1    0    0  503  501  0.00000000000E+00  0.00000000000E+00  0.13628673826E+03  0.13628673826E+03  0.00000000000E+00 0. -1.
         21   -1    0    0  506  502 -0.00000000000E+00 -0.00000000000E+00 -0.86172493851E+03  0.86172493851E+03  0.00000000000E+00 0.  1.
         21    1    1    2  503  504 -0.46448783243E+02  0.43244224051E+02 -0.43947283004E+02  0.77194015714E+02  0.00000000000E+00 0. -1.
         21    1    1    2  504  505 -0.20556621606E+03 -0.91288035119E+02 -0.48689675412E+03  0.53633890751E+03  0.00000000000E+00 0.  1.
         21    1    1    2  505  502 -0.28756539606E+01  0.35717525355E+02 -0.10991349814E+03  0.11560704164E+03  0.00000000000E+00 0. -1.
         21    1    1    2  506  501  0.25489065326E+03  0.12326285712E+02 -0.84680664975E+02  0.26887171190E+03  0.00000000000E+00 0. -1.
<scales pt_clust_3="65.63065" pt_clust_4="224.95516" pt_clust_5="35.83310" pt_clust_6="14000.00000"></scales>
<clustering>
<clus scale="   35.833">  2  5  1 -1</clus>
<clus scale="   65.631">  1  3  2 -1</clus>
<clus scale="  224.955">  2  4  1 -1</clus>
<clus scale="   65.631">  1  3  2 -1</clus>
</clustering>
</event>
<event>
 6    0  0.8520634E+002  0.2726623E+03  0.7546771E-02  0.1099765E+00
         21   -1    0    0  503  501  0.00000000000E+00  0.00000000000E+00  0.19752500942E+04  0.19752500942E+04  0.00000000000E+00 0.  1.
         21   -1    0    0  506  502 -0.00000000000E+00 -0.00000000000E+00 -0.13636016053E+03  0.13636016053E+03  0.00000000000E+00 0.  1.
         21    1    1    2  503  505 -0.14153539363E+03 -0.67358919616E+02  0.68730156940E+03  0.70494889106E+03  0.00000000000E+00 0.  1.
         21    1    1    2  504  501  0.45666624271E+02 -0.33118347834E+02  0.13346013105E+03  0.14489262270E+03  0.00000000000E+00 0.  1.
         21    1    1    2  505  502 -0.45429984908E+02  0.32590487625E+03  0.92187497096E+03  0.97884183297E+03  0.00000000000E+00 0.  1.
         21    1    1    2  506  504  0.14129875426E+03 -0.22542760880E+03  0.96253262239E+02  0.28292690798E+03  0.00000000000E+00 0.  1.
<scales pt_clust_3="147.70724" pt_clust_4="56.41157" pt_clust_5="14000.00000" pt_clust_6="272.66233"></scales>
<clustering>
<clus scale="   56.412">  1  4  2 -1</clus>
<clus scale="  147.707">  1  3  2 -1</clus>
<clus scale="  272.662">  2  6  1 -1</clus>
<clus scale="   56.412">  1  3  2 -1</clus>
</clustering>
</event>
<event>
 6    0  0.8520634E+002  0.1594909E+03  0.7546771E-02  0.1189273E+00
         21   -1    0    0  505  501  0.00000000000E+00  0.00000000000E+00  0.67416938774E+02  0.67416938774E+02  0.00000000000E+00 0. -1.
         21   -1    0    0  506  502 -0.00000000000E+00 -0.00000000000E+00 -0.16055812129E+04  0.16055812129E+04  0.00000000000E+00 0. -1.
         21    1    1    2  503  504  0.36722375511E+02 -0.13537603584E+03 -0.51894232015E+03  0.53756519194E+03  0.00000000000E+00 0. -1.
         21    1    1    2  504  501 -0.25965129512E+02  0.16228586932E+03 -0.76842036918E+02  0.18142654153E+03  0.00000000000E+00 0. -1.
         21    1    1    2  505  502  0.26645605291E+01  0.55421595961E+02 -0.22269702697E+03  0.22950516117E+03  0.00000000000E+00 0.  1.
         21    1    1    2  506  503 -0.13421806528E+02 -0.82331429443E+02 -0.71968289013E+03  0.72450125708E+03  0.00000000000E+00 0. -1.
<scales pt_clust_3="159.49085" pt_clust_4="14000.00000" pt_clust_5="55.48561" pt_clust_6="54.66045"></scales>
<clustering>
<clus scale="   55.486">  2  5  1 -1</clus>
<clus scale="   54.660">  2  6  1 -1</clus>
<clus scale="  159.491">  2  3  1 -1</clus>
<clus scale="  159.491">  1  3  2 -1</clus>
</clustering>
</event>
<event>
 6    0  0.8520634E+002  0.9936944E+02  0.7546771E-02  0.1281628E+00
         21   -1    0    0  503  501  0.00000000000E+00  0.00000000000E+00  0.25810574842E+03  0.25810574842E+03  0.00000000000E+00 0. -1.
         21   -1    0    0  505  502 -0.00000000000E+00 -0.00000000000E+00 -0.71449952275E+03  0.71449952275E+03  0.00000000000E+00 0. -1.
         21    1    1    2  503  506  0.22507387296E+02  0.29212378864E+02  0.17832593218E+03  0.18209910392E+03  0.00000000000E+00 0. -1.
         21    1    1    2  504  501  0.14026616533E+01  0.35193991639E+02  0.57248159393E+02  0.67215595371E+02  0.00000000000E+00 0. -1.
         21    1    1    2  505  504 -0.11192401252E+03 -0.36675144332E+02 -0.41219872766E+03  0.42869551184E+03  0.00000000000E+00 0. -1.
         21    1    1    2  506  502  0.88013963568E+02 -0.27731226170E+02 -0.27976913824E+03  0.29459506003E+03  0.00000000000E+00 0. -1.
<scales pt_clust_3="66.03001" pt_clust_4="35.22193" pt_clust_5="14000.00000" pt_clust_6="99.36944"></scales>
<clustering>
<clus scale="   35.222">  1  4  2 -1</clus>
<clus scale="   66.030">  1  3  2 -1</clus>
<clus scale="   99.369">  2  6  1 -1</clus>
<clus scale="   35.222">  1  3  2 -1</clus>
</clustering>
</event>
<event>
 6    0  0.8520634E+002  0.9237181E+02  0.7546771E-02  0.1297208E+00
         21   -1    0    0  506  501  0.00000000000E+00  0.00000000000E+00  0.12631984394E+04  0.12631984394E+04  0.00000000000E+00 0.  1.
         21   -1    0    0  504  502 -0.00000000000E+00 -0.00000000000E+00 -0.53544080325E+03  0.53544080325E+03  0.00000000000E+00 0.  1.
         21    1    1    2  503  502 -0.32929617022E+02 -0.45844794032E+02 -0.43092111129E+03  0.43460224225E+03  0.00000000000E+00 0.  1.
         21    1    1    2  504  505  0.53297712446E+02 -0.31707063857E+02  0.25537145073E+03  0.26279376305E+03  0.00000000000E+00 0.  1.
         21    1    1    2  505  501  0.45364423665E+02  0.31147320474E+02  0.98502530249E+03  0.98656116538E+03  0.00000000000E+00 0.  1.
         21    1    1    2  506  503 -0.65732519089E+02  0.46404537415E+02 -0.81718005784E+02  0.11468207195E+03  0.00000000000E+00 0. -1.
<scales pt_clust_3="56.10229" pt_clust_4="14000.00000" pt_clust_5="55.02805" pt_clust_6="92.37181"></scales>
<clustering>
<clus scale="   55.028">  1  5  2 -1</clus>
<clus scale="   56.102">  2  3  1 -1</clus>
<clus scale="   92.372">  2  6  1 -1</clus>
<clus scale="   55.028">  1  3  2 -1</clus>
</clustering>
</event>
<event>
 6    0  0.8520634E+002  0.9668998E+02  0.7546771E-02  0.1287415E+00
         21   -1    0    0  504  501  0.00000000000E+00  0.00000000000E+00  0.22397160069E+03  0.22397160069E+03  0.00000000000E+00 0.  1.
         21   -1    0    0  503  502 -0.00000000000E+00 -0.00000000000E+00 -0.20150280820E+03  0.20150280820E+03  0.00000000000E+00 0.  1.
         21    1    1    2  503  505 -0.47637464783E+02 -0.10486455982E+03 -0.10675815439E+03  0.15704524025E+03  0.00000000000E+00 0.  1.
         21    1    1    2  504  506  0.35264182522E+02 -0.47867850770E+01  0.11898366632E+03  0.12419174180E+03  0.00000000000E+00 0.  1.
         21    1    1    2  505  501  0.19761399638E+02  0.27205761228E+02  0.43542504513E+02  0.55014689483E+02  0.00000000000E+00 0.  1.
         21    1    1    2  506  502 -0.73881173773E+01  0.82445583665E+02 -0.33299223956E+02  0.89222737350E+02  0.00000000000E+00 0.  1.
<scales pt_clust_3="14000.00000" pt_clust_4="51.01936" pt_clust_5="33.62538" pt_clust_6="96.68998"></scales>
<clustering>
<clus scale="   33.625">  1  5  2 -1</clus>
<clus scale="   51.019">  1  4  2 -1</clus>
<clus scale="   96.690">  1  6  2 -1</clus>
<clus scale="   33.625">  1  3  2 -1</clus>
</clustering>
</event>
<event>
 6    0  0.8520634E+002  0.1490206E+03  0.7546771E-02  0.1201682E+00
         21   -1    0    0  505  501  0.00000000000E+00  0.00000000000E+00  0.27393343557E+03  0.27393343557E+03  0.00000000000E+00 0. -1.
         21   -1    0    0  504  502 -0.00000000000E+00 -0.00000000000E+00 -0.64546249323E+03  0.64546249323E+03  0.00000000000E+00 0. -1.
         21    1    1    2  503  502 -0.81191280590E+02  0.43415006246E+02 -0.30995587619E+03  0.32334120059E+03  0.00000000000E+00 0. -1.
         21    1    1    2  504  501 -0.10374025491E+01  0.30417900731E+02  0.10713581039E+03  0.11137507243E+03  0.00000000000E+00 0. -1.
         21    1    1    2  505  506 -0.10217031674E+02  0.11913089295E+03  0.89488834465E+02  0.14934794570E+03  0.00000000000E+00 0. -1.
         21    1    1    2  506  503  0.92445714814E+02 -0.19296379992E+03 -0.25819782633E+03  0.33533171009E+03  0.00000000000E+00 0. -1.
<scales pt_clust_3="92.69630" pt_clust_4="30.43559" pt_clust_5="149.02058" pt_clust_6="14000.00000"></scales>
<clustering>
<clus scale="   30.436">  1  4  2 -1</clus>
<clus scale="   92.696">  2  3  1 -1</clus>
<clus scale="  149.021">  1  5  2 -1</clus>
<clus scale="   30.436">  1  3  2 -1</clus>
</clustering>
</event>
<event>
 6    0  0.8520634E+002  0.8626710E+02  0.7546771E-02  0.1312152E+00
         21   -1    0    0  504  501  0.00000000000E+00  0.00000000000E+00  0.14987237850E+04  0.14987237850E+04  0.00000000000E+00 0.  1.
         21   -1    0    0  503  502 -0.00000000000E+00 -0.00000000000E+00 -0.21525164633E+03  0.21525164633E+03  0.00000000000E+00 0. -1.
         21    1    1    2  503  501  0.94131808614E+02 -0.20187482742E+02  0.27196936895E+03  0.28850592628E+03  0.00000000000E+00 0.  1.
         21    1    1    2  504  505  0.35251729765E+02  0.31036453680E+01  0.11715025313E+04  0.11720369013E+04  0.00000000000E+00 0.  1.
         21    1    1    2  505  506 -0.50424731311E+02 -0.16939982297E+02  0.17670790144E+02  0.56052416115E+02  0.00000000000E+00 0. -1.
         21    1    1    2  506  502 -0.78958807068E+02  0.34023819672E+02 -0.17767055175E+03  0.19738018765E+03  0.00000000000E+00 0. -1.
<scales pt_clust_3="86.26710" pt_clust_4="35.38809" pt_clust_5="49.32410" pt_clust_6="14000.00000"></scales>
<clustering>
<clus scale="   35.388">  1  4  2 -1</clus>
<clus scale="   49.324">  1  5  2 -1</clus>
<clus scale="   86.267">  1  3  2 -1</clus>
<clus scale="   35.388">  1  3  2 -1</clus>
</clustering>
</event>
<event>
 6    0  0.8520634E+002  0.7832184E+02  0.7546771E-02  0.1333882E+00
         21   -1    0    0  506  501  0.00000000000E+00  0.00000000000E+00  0.29566997892E+03  0.29566997892E+03  0.00000000000E+00 0.  1.
         21   -1    0    0  503  502 -0.00000000000E+00 -0.00000000000E+00 -0.49389510437E+03  0.49389510437E+03  0.00000000000E+00 0.  1.
         21    1    1    2  503  505  0.40763116361E+01 -0.87188711156E+02  0.11882307843E+02  0.88089028313E+02  0.00000000000E+00 0. -1.
         21    1    1    2  504  502  0.51742178484E+02  0.22888182767E+02 -0.41506471854E+03  0.41890314217E+03  0.00000000000E+00 0.  1.
         21    1    1    2  505  501 -0.26215512141E+01  0.66166003510E+02  0.21794440322E+03  0.22778185935E+03  0.00000000000E+00 0.  1.
         21    1    1    2  506  504 -0.53196938906E+02 -0.18654751217E+01 -0.12987117970E+02  0.54791053463E+02  0.00000000000E+00 0. -1.
<scales pt_clust_3="78.32184" pt_clust_4="56.23355" pt_clust_5="14000.00000" pt_clust_6="53.22964"></scales>
<clustering>
<clus scale="   53.230">  1  6  2 -1</clus>
<clus scale="   56.234">  2  4  1 -1</clus>
<clus scale="   78.322">  2  3  1 -1</clus>
<clus scale="   53.230">  1  3  2 -1</clus>
</clustering>
</event>
<event>
 6    0  0.8520634E+002  0.8540967E+02  0.7546771E-02  0.1314365E+00
         21   -1    0    0  504  501  0.00000000000E+00  0.00000000000E+00  0.55406536474E+03  0.55406536474E+03  0.00000000000E+00 0.  1.
         21   -1    0    0  503  502 -0.00000000000E+00 -0.00000000000E+00 -0.97154500316E+02  0.97154500316E+02  0.00000000000E+00 0.  1.
         21    1    1    2  503  506 -0.73461571908E+02 -0.48168331056E+02 -0.13993501560E+02  0.88952845653E+02  0.00000000000E+00 0.  1.
         21    1    1    2  504  502  0.10881328715E+02  0.68467538006E+02  0.21815373730E+02  0.72678178336E+02  0.00000000000E+00 0.  1.
         21    1    1    2  505  501 -0.10752173900E+02 -0.53255762537E+02  0.37916503034E+03  0.38303773407E+03  0.00000000000E+00 0.  1.
         21    1    1    2  506  505  0.73332417092E+02  0.32956555587E+02  0.69923961908E+02  0.10655110699E+03  0.00000000000E+00 0.  1.
<scales pt_clust_3="14000.00000" pt_clust_4="54.50230" pt_clust_5="54.33034" pt_clust_6="85.40967"></scales>
<clustering>
<clus scale="   54.330">  1  5  2 -1</clus>
<clus scale="   54.502">  1  4  2 -1</clus>
<clus scale="   85.410">  1  6  2 -1</clus>
<clus scale="   54.330">  1  3  2 -1</clus>
</clustering>
</event>
<event>
 6    0  0.8520634E+002  0.9388334E+02  0.7546771E-02  0.1293711E+00
         21   -1    0    0  504  501  0.00000000000E+00  0.00000000000E+00  0.16170942594E+03  0.16170942594E+03  0.00000000000E+00 0. -1.
         21   -1    0    0  505  502 -0.00000000000E+00 -0.00000000000E+00 -0.60496340556E+03  0.60496340556E+03  0.00000000000E+00 0. -1.
         21    1    1    2  503  501  0.63990249037E+02 -0.27582918838E+02  0.13742364522E+02  0.71024094265E+02  0.00000000000E+00 0. -1.
         21    1    1    2  504  506 -0.97254009770E+02  0.74536120494E+02  0.84450517971E+02  0.14881487043E+03  0.00000000000E+00 0. -1.
         21    1    1    2  505  503 -0.50515493810E+01 -0.36313457141E+02 -0.24331190204E+03  0.24605866576E+03  0.00000000000E+00 0. -1.
         21    1    1    2  506  502  0.38315310114E+02 -0.10639744515E+02 -0.29813496007E+03  0.30077520105E+03  0.00000000000E+00 0. -1.
<scales pt_clust_3="93.88334" pt_clust_4="14000.00000" pt_clust_5="36.66313" pt_clust_6="53.20180"></scales>
<clustering>
<clus scale="   36.663">  2  5  1 -1</clus>
<clus scale="   53.202">  2  6  1 -1</clus>
<clus scale="   93.883">  1  3  2 -1</clus>
<clus scale="   93.883">  1  3  2 -1</clus>
</clustering>
</event>
<event>
 6    0  0.8520634E+002  0.1104461E+03  0.7546771E-02  0.1259746E+00
         21   -1    0    0  506  501  0.00000000000E+00  0.00000000000E+00  0.82951114700E+03  0.82951114700E+03  0.00000000000E+00 0.  1.
         21   -1    0    0  503  502 -0.00000000000E+00 -0.00000000000E+00 -0.60313691691E+03  0.60313691691E+03  0.00000000000E+00 0. -1.
         21    1    1    2  503  504 -0.11193296713E+03  0.74400524545E+02 -0.25411070560E+03  0.28746595952E+03  0.00000000000E+00 0. -1.
         21    1    1    2  504  501  0.25345777260E+02 -0.84299783340E+02  0.66685095343E+02  0.11043443230E+03  0.00000000000E+00 0. -1.
         21    1    1    2  505  502  0.32970796744E+02  0.76030765761E+01 -0.30855370286E+03  0.31040339521E+03  0.00000000000E+00 0. -1.
         21    1    1    2  506  505  0.53616393126E+02  0.22961822184E+01  0.72235354321E+03  0.72434427688E+03  0.00000000000E+00 0.  1.
<scales pt_clust_3="14000.00000" pt_clust_4="110.44614" pt_clust_5="33.83608" pt_clust_6="53.77830"></scales>
<clustering>
<clus scale="   33.836">  2  5  1 -1</clus>
<clus scale="   53.778">  1  6  2 -1</clus>
<clus scale="  110.446">  1  4  2 -1</clus>
<clus scale="   53.778">  1  3  2 -1</clus>
</clustering>
</event>
<event>
 6    0  0.8520634E+002  0.1202473E+03  0.7546771E-02  0.1242690E+00
         21   -1    0    0  503  501  0.00000000000E+00  0.00000000000E+00  0.10665800736E+04  0.10665800736E+04  0.00000000000E+00 0. -1.
         21   -1    0    0  506  502 -0.00000000000E+00 -0.00000000000E+00 -0.11085910793E+04  0.11085910793E+04  0.00000000000E+00 0.  1.
         21    1    1    2  503  505  0.52842611470E+02  0.10783318747E+03  0.10296003534E+04  0.10365795800E+04  0.00000000000E+00 0. -1.
         21    1    1    2  504  502 -0.49292538180E+02  0.20065049877E+02 -0.80649304626E+02  0.96626450227E+02  0.00000000000E+00 0. -1.
         21    1    1    2  505  504 -0.16831379025E+02  0.61795639978E+02 -0.48044802417E+02  0.80064345870E+02  0.00000000000E+00 0.  1.
         21    1    1    2  506  501  0.13281305736E+02 -0.18969387732E+03 -0.94291725208E+03  0.96190077682E+03  0.00000000000E+00 0.  1.
<scales pt_clust_3="120.24734" pt_clust_4="53.21993" pt_clust_5="66.12953" pt_clust_6="14000.00000"></scales>
<clustering>
<clus scale="   53.220">  2  4  1 -1</clus>
<clus scale="   66.130">  2  5  1 -1</clus>
<clus scale="  120.247">  1  3  2 -1</clus>
<clus scale="  120.247">  1  3  2 -1</clus>
</clustering>
</event>
<event>
 6    0  0.8520634E+002  0.9547344E+02  0.7546771E-02  0.1290113E+00
         21   -1    0    0  504  501  0.00000000000E+00  0.00000000000E+00  0.28463656527E+04  0.28463656527E+04  0.00000000000E+00 0. -1.
         21   -1    0    0  503  502 -0.00000000000E+00 -0.00000000000E+00 -0.31640223630E+02  0.31640223630E+02  0.00000000000E+00 0. -1.
         21    1    1    2  503  506 -0.34009770988E+02 -0.15493599073E+02 -0.12713573583E+02  0.39475955823E+02  0.00000000000E+00 0. -1.
         21    1    1    2  504  502 -0.24366635811E+02  0.22971165136E+02  0.19140001715E+03  0.19430742120E+03  0.00000000000E+00 0.  1.
         21    1    1    2  505  501 -0.58780448212E+02  0.34259300807E+02  0.14691451863E+04  0.14707196943E+04  0.00000000000E+00 0. -1.
         21    1    1    2  506  505  0.11715685501E+03 -0.41736866870E+02  0.11668937992E+04  0.11735028050E+04  0.00000000000E+00 0. -1.
<scales pt_clust_3="37.43679" pt_clust_4="33.48742" pt_clust_5="95.47344" pt_clust_6="14000.00000"></scales>
<clustering>
<clus scale="   33.487">  1  4  2 -1</clus>
<clus scale="   37.437">  2  3  1 -1</clus>
<clus scale="   95.473">  1  5  2 -1</clus>
<clus scale="   33.487">  1  3  2 -1</clus>
</clustering>
</event>
<event>
 6    0  0.8520634E+002  0.7523576E+02  0.7546771E-02  0.1343143E+00
         21   -1    0    0  503  501  0.00000000000E+00  0.00000000000E+00  0.35418153083E+03  0.35418153083E+03  0.00000000000E+00 0.  1.
         21   -1    0    0  504  502 -0.00000000000E+00 -0.00000000000E+00 -0.14386980669E+04  0.14386980669E+04  0.00000000000E+00 0. -1.
         21    1    1    2  503  502  0.46904846304E+02  0.45171092682E+02  0.35989574838E+02  0.74402565265E+02  0.00000000000E+00 0.  1.
         21    1    1    2  504  505  0.29588590851E+01  0.66984937397E+02 -0.11176565371E+04  0.11196659643E+04  0.00000000000E+00 0. -1.
         21    1    1    2  505  506  0.67617779194E+02 -0.84566214785E+02 -0.27801004209E+03  0.29835078725E+03  0.00000000000E+00 0. -1.
         21    1    1    2  506  501 -0.11748148458E+03 -0.27589815294E+02  0.27516046826E+03  0.30046028094E+03  0.00000000000E+00 0.  1.
<scales pt_clust_3="65.11906" pt_clust_4="67.20903" pt_clust_5="14000.00000" pt_clust_6="75.23576"></scales>
<clustering>
<clus scale="   65.119">  1  3  2 -1</clus>
<clus scale="   67.209">  2  4  1 -1</clus>
<clus scale="   75.236">  1  6  2 -1</clus>
<clus scale="   65.119">  1  3  2 -1</clus>
</clustering>
</event>
<event>
 6    0  0.8520634E+002  0.1326637E+03  0.7546771E-02  0.1223556E+00
         21   -1    0    0  503  501  0.00000000000E+00  0.00000000000E+00  0.30518687595E+03  0.30518687595E+03  0.00000000000E+00 0.  1.
         21   -1    0    0  504  502 -0.00000000000E+00 -0.00000000000E+00 -0.45138145247E+03  0.45138145247E+03  0.00000000000E+00 0. -1.
         21    1    1    2  503  506 -0.37871924623E+02 -0.89329360703E+02  0.19577982979E+03  0.21850345332E+03  0.00000000000E+00 0.  1.
         21    1    1    2  504  505  0.10977984175E+03  0.65786950242E+02 -0.17343104145E+03  0.21554086067E+03  0.00000000000E+00 0. -1.
         21    1    1    2  505  501 -0.63459731437E+02 -0.76164655994E+01  0.62406118143E+02  0.89329007853E+02  0.00000000000E+00 0. -1.
         21    1    1    2  506  502 -0.84481856899E+01  0.31158876060E+02 -0.23094948299E+03  0.23319500658E+03  0.00000000000E+00 0. -1.
<scales pt_clust_3="132.66372" pt_clust_4="14000.00000" pt_clust_5="64.23205" pt_clust_6="32.28386"></scales>
<clustering>
<clus scale="   32.284">  2  6  1 -1</clus>
<clus scale="   64.232">  1  5  2 -1</clus>
<clus scale="  132.664">  1  3  2 -1</clus>
<clus scale="   64.232">  1  3  2 -1</clus>
</clustering>
</event>
<event>
 6    0  0.8520634E+002  0.1028140E+03  0.7546771E-02  0.1274487E+00
         21   -1    0    0  504  501  0.00000000000E+00  0.00000000000E+00  0.29053571869E+03  0.29053571869E+03  0.00000000000E+00 0.  1.
         21   -1    0    0  505  502 -0.00000000000E+00 -0.00000000000E+00 -0.61124291793E+03  0.61124291793E+03  0.00000000000E+00 0.  1.
         21    1    1    2  503  506  0.36225390046E+02 -0.12525971940E+03  0.81455998995E+02  0.15374445018E+03  0.00000000000E+00 0.  1.
         21    1    1    2  504  503 -0.34701335349E+02 -0.59352383889E+01  0.10811687829E+03  0.11370430555E+03  0.00000000000E+00 0.  1.
         21    1    1    2  505  501 -0.11334056233E+02  0.29586972379E+02  0.53068650286E+02  0.61807211622E+02  0.00000000000E+00 0.  1.
         21    1    1    2  506  502  0.98100015368E+01  0.10160798541E+03 -0.56334872681E+03  0.57252266927E+03  0.00000000000E+00 0.  1.
<scales pt_clust_3="14000.00000" pt_clust_4="40.91268" pt_clust_5="31.68359" pt_clust_6="102.81402"></scales>
<clustering>
<clus scale="   31.684">  1  5  2 -1</clus>
<clus scale="   40.913">  1  4  2 -1</clus>
<clus scale="  102.814">  2  6  1 -1</clus>
<clus scale="   31.684">  1  3  2 -1</clus>
</clustering>
</event>
<event>
 6    0  0.8520634E+002  0.7302996E+02  0.7546771E-02  0.1350082E+00
         21   -1    0    0  504  501  0.00000000000E+00  0.00000000000E+00  0.45863867338E+03  0.45863867338E+03  0.00000000000E+00 0. -1.
         21   -1    0    0  503  502 -0.00000000000E+00 -0.00000000000E+00 -0.90728575936E+03  0.90728575936E+03  0.00000000000E+00 0. -1.
         21    1    1    2  503  505 -0.56408555006E+02 -0.81962547787E+02 -0.54233425690E+03  0.55138573660E+03  0.00000000000E+00 0. -1.
         21    1    1    2  504  506  0.65850296347E+01  0.60688686620E+02  0.41046958498E+03  0.41498404727E+03  0.00000000000E+00 0. -1.
         21    1    1    2  505  501  0.68288507070E+02 -0.44113788958E+02 -0.60966993232E+01  0.81526169521E+02  0.00000000000E+00 0.  1.
         21    1    1    2  506  502 -0.18464981699E+02  0.65387650125E+02 -0.31068571473E+03  0.31802847935E+03  0.00000000000E+00 0.  1.
<scales pt_clust_3="73.02996" pt_clust_4="61.04490" pt_clust_5="14000.00000" pt_clust_6="72.49509"></scales>
<clustering>
<clus scale="   61.045">  1  4  2 -1</clus>
<clus scale="   72.495">  2  6  1 -1</clus>
<clus scale="   73.030">  2  3  1 -1</clus>
<clus scale="   61.045">  1  3  2 -1</clus>
</clustering>
</event>
<event>
 6    0  0.8520634E+002  0.1721690E+03  0.7546771E-02  0.1175605E+00
         21   -1    0    0  505  501  0.00000000000E+00  0.00000000000E+00  0.73516949340E+03  0.73516949340E+03  0.00000000000E+00 0. -1.
         21   -1    0    0  504  502 -0.00000000000E+00 -0.00000000000E+00 -0.46730959774E+03  0.46730959774E+03  0.00000000000E+00 0. -1.
         21    1    1    2  503  502  0.25590305656E+02 -0.28942954409E+02 -0.37814887186E+03  0.38011725512E+03  0.00000000000E+00 0. -1.
         21    1    1    2  504  501  0.16139348016E+03 -0.20479229938E+02  0.38825908261E+03  0.42096599568E+03  0.00000000000E+00 0. -1.
         21    1    1    2  505  506  0.59178718233E+01  0.51516621419E+02  0.18997287946E+03  0.19692302663E+03  0.00000000000E+00 0. -1.
         21    1    1    2  506  503 -0.19290165764E+03 -0.20944370717E+01  0.67776805464E+02  0.20447281371E+03  0.00000000000E+00 0.  1.
<scales pt_clust_3="38.63364" pt_clust_4="14000.00000" pt_clust_5="50.84991" pt_clust_6="172.16903"></scales>
<clustering>
<clus scale="   38.634">  2  3  1 -1</clus>
<clus scale="   50.850">  1  5  2 -1</clus>
<clus scale="  172.169">  2  6  1 -1</clus>
<clus scale="   50.850">  1  3  2 -1</clus>
</clustering>
</event>
<event>
 6    0  0.8520634E+002  0.7236850E+02  0.7546771E-02  0.1352219E+00
         21   -1    0    0  506  501  0.00000000000E+00  0.00000000000E+00  0.12855195046E+03  0.12855195046E+03  0.00000000000E+00 0. -1.
         21   -1    0    0  503  502 -0.00000000000E+00 -0.00000000000E+00 -0.31890369337E+03  0.31890369337E+03  0.00000000000E+00 0. -1.
         21    1    1    2  503  504 -0.33720211889E+02  0.22672410938E+01 -0.41444315969E+02  0.53477326019E+02  0.00000000000E+00 0. -1.
         21    1    1    2  504  501 -0.97323209681E+02 -0.94038600282E+01  0.15943085079E+02  0.99067763111E+02  0.00000000000E+00 0. -1.
         21    1    1    2  505  502  0.73321750907E+02 -0.18554367167E+02 -0.20604406703E+03  0.21948690452E+03  0.00000000000E+00 0. -1.
         21    1    1    2  506  505  0.57721670663E+02  0.25690986101E+02  0.41193555012E+02  0.75423650174E+02  0.00000000000E+00 0. -1.
<scales pt_clust_3="33.79635" pt_clust_4="14000.00000" pt_clust_5="49.80182" pt_clust_6="72.36850"></scales>
<clustering>
<clus scale="   33.796">  2  3  1 -1</clus>
<clus scale="   49.802">  2  5  1 -1</clus>
<clus scale="   72.369">  1  6  2 -1</clus>
<clus scale="   72.369">  1  3  2 -1</clus>
</clustering>
</event>
<event>
 6    0  0.8520634E+002  0.1047171E+03  0.7546771E-02  0.1270678E+00
         21   -1    0    0  503  501  0.00000000000E+00  0.00000000000E+00  0.15507420596E+04  0.15507420596E+04  0.00000000000E+00 0. -1.
         21   -1    0    0  505  502 -0.00000000000E+00 -0.00000000000E+00 -0.54521682783E+03  0.54521682783E+03  0.00000000000E+00 0.  1.
         21    1    1    2  503  506 -0.32900538973E+02 -0.82220381755E+02  0.17433966926E+03  0.19554272402E+03  0.00000000000E+00 0. -1.
         21    1    1    2  504  501 -0.71521151662E+02  0.62735545566E+02  0.13360447022E+04  0.13394276651E+04  0.00000000000E+00 0. -1.
         21    1    1    2  505  504 -0.69713971041E-02  0.10257069880E+03 -0.14865809194E+03  0.18061001246E+03  0.00000000000E+00 0.  1.
         21    1    1    2  506  502  0.10442866203E+03 -0.83085862612E+02 -0.35620104778E+03  0.38037848580E+03  0.00000000000E+00 0.  1.
<scales pt_clust_3="88.55866" pt_clust_4="14000.00000" pt_clust_5="101.60971" pt_clust_6="104.71713"></scales>
<clustering>
<clus scale="   88.559">  1  3  2 -1</clus>
<clus scale="  101.610">  2  5  1 -1</clus>
<clus scale="  104.717">  2  6  1 -1</clus>
<clus scale="   88.559">  1  3  2 -1</clus>
</clustering>
</event>
<event>
 6    0  0.8520634E+002  0.9622962E+02  0.7546771E-02  0.1288430E+00
         21   -1    0    0  505  501  0.00000000000E+00  0.00000000000E+00  0.12430021607E+04  0.12430021607E+04  0.00000000000E+00 0. -1.
         21   -1    0    0  506  502 -0.00000000000E+00 -0.00000000000E+00 -0.88327603742E+02  0.88327603742E+02  0.00000000000E+00 0. -1.
         21    1    1    2  503  501  0.25605268167E+02 -0.46955808585E+02  0.36814801426E+02  0.64929248585E+02  0.00000000000E+00 0.  1.
         21    1    1    2  504  502 -0.57515205171E+02 -0.16294081446E+02  0.11342843913E+03  0.12821663979E+03  0.00000000000E+00 0. -1.
         21    1    1    2  505  504  0.90883191463E+01  0.10537643016E+03  0.10597424401E+04  0.10650074314E+04  0.00000000000E+00 0. -1.
         21    1    1    2  506  503  0.22821617858E+02 -0.42126540126E+02 -0.55311123796E+02  0.73176444572E+02  0.00000000000E+00 0. -1.
<scales pt_clust_3="14000.00000" pt_clust_4="58.35556" pt_clust_5="96.22962" pt_clust_6="47.91108"></scales>
<clustering>
<clus scale="   47.911">  2  6  1 -1</clus>
<clus scale="   58.356">  2  4  1 -1</clus>
<clus scale="   96.230">  1  5  2 -1</clus>
<clus scale="   96.230">  1  3  2 -1</clus>
</clustering>
</event>
<event>
 6    0  0.8520634E+002  0.1548237E+03  0.7546771E-02  0.1194668E+00
         21   -1    0    0  506  501  0.00000000000E+00  0.00000000000E+00  0.18329118197E+03  0.18329118197E+03  0.00000000000E+00 0.  1.
         21   -1    0    0  505  502 -0.00000000000E+00 -0.00000000000E+00 -0.39731899622E+03  0.39731899622E+03  0.00000000000E+00 0.  1.
         21    1    1    2  503  501 -0.17113800560E+03  0.11113981008E+02  0.40859932136E+02  0.17629881335E+03  0.00000000000E+00 0.  1.
         21    1    1    2  504  502  0.42287435322E+02  0.25869602032E+01 -0.26114651955E+02  0.49768409618E+02  0.00000000000E+00 0. -1.
         21    1    1    2  505  503  0.11013399841E+03 -0.58851040184E+02 -0.26550451058E+03  0.29340345546E+03  0.00000000000E+00 0.  1.
         21    1    1    2  506  504  0.18716571862E+02  0.45150098973E+02  0.36731416142E+02  0.61139499763E+02  0.00000000000E+00 0.  1.
<scales pt_clust_3="14000.00000" pt_clust_4="42.36649" pt_clust_5="154.82365" pt_clust_6="49.52373"></scales>
<clustering>
<clus scale="   42.366">  2  4  1 -1</clus>
<clus scale="   49.524">  1  6  2 -1</clus>
<clus scale="  154.824">  2  5  1 -1</clus>
<clus scale="   49.524">  1  3  2 -1</clus>
</clustering>
</event>
<event>
 6    0  0.8520634E+002  0.1162509E+03  0.7546771E-02  0.1249413E+00
         21   -1    0    0  505  501  0.00000000000E+00  0.00000000000E+00  0.61321916758E+03  0.61321916758E+03  0.00000000000E+00 0.  1.
         21   -1    0    0  506  502 -0.00000000000E+00 -0.00000000000E+00 -0.12980273164E+03  0.12980273164E+03  0.00000000000E+00 0. -1.
         21    1    1    2  503  502  0.30052063485E+02 -0.51181235022E+02 -0.12779479638E+02  0.60712111130E+02  0.00000000000E+00 0. -1.
         21    1    1    2  504  503  0.12336728309E+03 -0.35382817637E+02 -0.12750272323E+01  0.12834740362E+03  0.00000000000E+00 0. -1.
         21    1    1    2  505  504 -0.67143498216E+02  0.61829086411E+02  0.43533568382E+03  0.44480135216E+03  0.00000000000E+00 0.  1.
         21    1    1    2  506  501 -0.86275848359E+02  0.24734966248E+02  0.62135258992E+02  0.10916103231E+03  0.00000000000E+00 0. -1.
<scales pt_clust_3="45.69514" pt_clust_4="45.69514" pt_clust_5="94.86378" pt_clust_6="89.75155"></scales>
<clustering>
<clus scale="   45.695">  3  4 -1 -1</clus>
<clus scale="   89.752">  2  6  1 -1</clus>
<clus scale="   94.864">  1  5  2 -1</clus>
<clus scale="   94.864">  1  3  2 -1</clus>
</clustering>
</event>
<event>
 6    0  0.8520634E+002  0.1188510E+03  0.7546771E-02  0.1245005E+00
         21   -1    0    0  506  501  0.00000000000E+00  0.00000000000E+00  0.41465474502E+02  0.41465474502E+02  0.00000000000E+00 0.  1.
         21   -1    0    0  505  502 -0.00000000000E+00 -0.00000000000E+00 -0.10714551263E+04  0.10714551263E+04  0.00000000000E+00 0.  1.
         21    1    1    2  503  504  0.13499148640E+03  0.26402503793E+02 -0.59684455371E+03  0.61248935901E+03  0.00000000000E+00 0.  1.
         21    1    1    2  504  501 -0.62831218527E+02 -0.49144199535E+02 -0.32966880764E+02  0.86311816091E+02  0.00000000000E+00 0.  1.
         21    1    1    2  505  503 -0.16130247504E+02  0.26031436475E+02 -0.27781726308E+03  0.27950000400E+03  0.00000000000E+00 0.  1.
         21    1    1    2  506  502 -0.56030020370E+02 -0.32897407332E+01 -0.12236095427E+03  0.13461942173E+03  0.00000000000E+00 0.  1.
<scales pt_clust_3="118.85101" pt_clust_4="14000.00000" pt_clust_5="30.62386" pt_clust_6="58.65164"></scales>
<clustering>
<clus scale="   30.624">  2  5  1 -1</clus>
<clus scale="   58.652">  1  6  2 -1</clus>
<clus scale="  118.851">  2  3  1 -1</clus>
<clus scale="   58.652">  1  3  2 -1</clus>
</clustering>
</event>
<event>
 6    0  0.8520634E+002  0.1336088E+03  0.7546771E-02  0.1222197E+00
         21   -1    0    0  506  501  0.00000000000E+00  0.00000000000E+00  0.18330001914E+04  0.18330001914E+04  0.00000000000E+00 0. -1.
         21   -1    0    0  504  502 -0.00000000000E+00 -0.00000000000E+00 -0.69017646903E+02  0.69017646903E+02  0.00000000000E+00 0.  1.
         21    1    1    2  503  501  0.56740544715E+02  0.12168360826E+03  0.16141127443E+04  0.16196871122E+04  0.00000000000E+00 0. -1.
         21    1    1    2  504  505 -0.38366791005E+01 -0.32531612566E+02  0.69365223954E+02  0.76710887212E+02  0.00000000000E+00 0.  1.
         21    1    1    2  505  503 -0.37335529670E+02  0.37277685979E+02  0.54022666314E+02  0.75511695275E+02  0.00000000000E+00 0. -1.
         21    1    1    2  506  502 -0.15568335945E+02 -0.12642968167E+03  0.26481909908E+02  0.13010814365E+03  0.00000000000E+00 0.  1.
<scales pt_clust_3="14000.00000" pt_clust_4="32.75707" pt_clust_5="49.60726" pt_clust_6="133.60884"></scales>
<clustering>
<clus scale="   32.757">  2  4  1 -1</clus>
<clus scale="   49.607">  2  5  1 -1</clus>
<clus scale="  133.609">  2  6  1 -1</clus>
<clus scale="  133.609">  1  3  2 -1</clus>
</clustering>
</event>
<event>
 6    0  0.8520634E+002  0.1031810E+03  0.7546771E-02  0.1273745E+00
         21   -1    0    0  504  501  0.00000000000E+00  0.00000000000E+00  0.42038969714E+03  0.42038969714E+03  0.00000000000E+00 0.  1.
         21   -1    0    0  503  502 -0.00000000000E+00 -0.00000000000E+00 -0.44155072971E+03  0.44155072971E+03  0.00000000000E+00 0.  1.
         21    1    1    2  503  501  0.17107750536E+03 -0.22361325492E+02 -0.19695148098E+03  0.26183473333E+03  0.00000000000E+00 0.  1.
         21    1    1    2  504  506 -0.55719720932E+02 -0.26790192392E+02  0.27800992519E+03  0.28480154532E+03  0.00000000000E+00 0.  1.
         21    1    1    2  505  502 -0.65556933076E+02  0.18147598835E+01 -0.19163070964E+03  0.20254217760E+03  0.00000000000E+00 0.  1.
         21    1    1    2  506  505 -0.49800851355E+02  0.47336758000E+02  0.89411232859E+02  0.11276197061E+03  0.00000000000E+00 0.  1.
<scales pt_clust_3="14000.00000" pt_clust_4="61.82557" pt_clust_5="67.74848" pt_clust_6="103.18104"></scales>
<clustering>
<clus scale="   61.826">  1  4  2 -1</clus>
<clus scale="   67.748">  2  5  1 -1</clus>
<clus scale="  103.181">  1  6  2 -1</clus>
<clus scale="   61.826">  1  3  2 -1</clus>
</clustering>
</event>
<event>
 6    0  0.8520634E+002  0.1086770E+03  0.7546771E-02  0.1263040E+00
         21   -1    0    0  504  501  0.00000000000E+00  0.00000000000E+00  0.47802985670E+03  0.47802985670E+03  0.00000000000E+00 0.  1.
         21   -1    0    0  505  502 -0.00000000000E+00 -0.00000000000E+00 -0.14851473038E+03  0.14851473038E+03  0.00000000000E+00 0. -1.
         21    1    1    2  503  502  0.65280622568E+01  0.92729196641E+02 -0.84604147715E+01  0.93342906130E+02  0.00000000000E+00 0. -1.
         21    1    1    2  504  506 -0.28260023949E+02 -0.11677622085E+02  0.10301609795E+03  0.10745842102E+03  0.00000000000E+00 0.  1.
         21    1    1    2  505  501  0.26877120499E+02  0.18046207033E+02 -0.84890510747E+02  0.90853970797E+02  0.00000000000E+00 0. -1.
         21    1    1    2  506  503 -0.51451588071E+01 -0.99097781590E+02  0.31984995389E+03  0.33488928913E+03  0.00000000000E+00 0.  1.
<scales pt_clust_3="14000.00000" pt_clust_4="30.57770" pt_clust_5="32.13384" pt_clust_6="108.67705"></scales>
<clustering>
<clus scale="   30.578">  1  4  2 -1</clus>
<clus scale="   32.134">  2  5  1 -1</clus>
<clus scale="  108.677">  1  6  2 -1</clus>
<clus scale="   30.578">  1  3  2 -1</clus>
</clustering>
</event>
<event>
 6    0  0.8520634E+002  0.1230154E+03  0.7546771E-02  0.1238204E+00
         21   -1    0    0  503  501  0.00000000000E+00  0.00000000000E+00  0.10164535904E+03  0.10164535904E+03  0.00000000000E+00 0. -1.
         21   -1    0    0  506  502 -0.00000000000E+00 -0.00000000000E+00 -0.57617673418E+03  0.57617673418E+03  0.00000000000E+00 0.  1.
         21    1    1    2  503  502 -0.32745816085E+02  0.28472208118E+01  0.11819490483E+02  0.34929865341E+02  0.00000000000E+00 0.  1.
         21    1    1    2  504  505 -0.13646532242E+02 -0.99734759772E+02 -0.80810486682E+02  0.12908750872E+03  0.00000000000E+00 0. -1.
         21    1    1    2  505  501  0.11001805651E+03  0.11901749474E+03 -0.78847650799E+02  0.18023897705E+03  0.00000000000E+00 0.  1.
         21    1    1    2  506  504 -0.63625708178E+02 -0.22129955780E+02 -0.32669272815E+03  0.33356574211E+03  0.00000000000E+00 0.  1.
<scales pt_clust_3="32.86936" pt_clust_4="14000.00000" pt_clust_5="123.01542" pt_clust_6="68.68382"></scales>
<clustering>
<clus scale="   32.869">  1  3  2 -1</clus>
<clus scale="   68.684">  2  6  1 -1</clus>
<clus scale="  123.015">  1  5  2 -1</clus>
<clus scale="   32.869">  1  3  2 -1</clus>
</clustering>
</event>
<event>
 6    0  0.8520634E+002  0.8566479E+02  0.7546771E-02  0.1313703E+00
         21   -1    0    0  504  501  0.00000000000E+00  0.00000000000E+00  0.38378894013E+03  0.38378894013E+03  0.00000000000E+00 0.  1.
         21   -1    0    0  503  502 -0.00000000000E+00 -0.00000000000E+00 -0.13365698915E+03  0.13365698915E+03  0.00000000000E+00 0.  1.
         21    1    1    2  503  506 -0.33848334341E+02  0.24616964806E+02 -0.33188892293E+02  0.53415421608E+02  0.00000000000E+00 0.  1.
         21    1    1    2  504  505  0.23830691585E+02 -0.21935047066E+02  0.89529023046E+02  0.95207636872E+02  0.00000000000E+00 0.  1.
         21    1    1    2  505  502  0.10881791643E+03 -0.38863701006E+02 -0.31846962238E+02  0.11985806271E+03  0.00000000000E+00 0.  1.
         21    1    1    2  506  501 -0.98800273676E+02  0.36181783266E+02  0.22563878246E+03  0.24896480810E+03  0.00000000000E+00 0.  1.
<scales pt_clust_3="40.73702" pt_clust_4="32.38901" pt_clust_5="14000.00000" pt_clust_6="85.66479"></scales>
<clustering>
<clus scale="   32.389">  1  4  2 -1</clus>
<clus scale="   40.737">  2  3  1 -1</clus>
<clus scale="   85.665">  1  6  2 -1</clus>
<clus scale="   32.389">  1  3  2 -1</clus>
</clustering>
</event>
<event>
 6    0  0.8520634E+002  0.9157160E+02  0.7546771E-02  0.1299090E+00
         21   -1    0    0  506  501  0.00000000000E+00  0.00000000000E+00  0.80581293602E+03  0.80581293602E+03  0.00000000000E+00 0.  1.
         21   -1    0    0  505  502 -0.00000000000E+00 -0.00000000000E+00 -0.17408696660E+03  0.17408696660E+03  0.00000000000E+00 0.  1.
         21    1    1    2  503  504 -0.55101743330E+02 -0.99696335003E+02  0.59491210204E+03  0.60571938262E+03  0.00000000000E+00 0.  1.
         21    1    1    2  504  501  0.30195284090E+02  0.13748677204E+02  0.16364484828E+03  0.16697430244E+03  0.00000000000E+00 0.  1.
         21    1    1    2  505  503  0.71868430257E+02  0.90333191921E+02 -0.10126285251E+03  0.15355559947E+03  0.00000000000E+00 0.  1.
         21    1    1    2  506  502 -0.46961971018E+02 -0.43855341228E+01 -0.25568128403E+02  0.53650618090E+02  0.00000000000E+00 0. -1.
<scales pt_clust_3="91.57160" pt_clust_4="33.17802" pt_clust_5="14000.00000" pt_clust_6="46.47981"></scales>
<clustering>
<clus scale="   33.178">  1  4  2 -1</clus>
<clus scale="   46.480">  2  6  1 -1</clus>
<clus scale="   91.572">  1  3  2 -1</clus>
<clus scale="   33.178">  1  3  2 -1</clus>
</clustering>
</event>
<event>
 6    0  0.8520634E+002  0.1059592E+03  0.7546771E-02  0.1268241E+00
         21   -1    0    0  505  501  0.00000000000E+00  0.00000000000E+00  0.99849640530E+03  0.99849640530E+03  0.00000000000E+00 0.  1.
         21   -1    0    0  504  502 -0.00000000000E+00 -0.00000000000E+00 -0.41499642517E+02  0.41499642517E+02  0.00000000000E+00 0.  1.
         21    1    1    2  503  501 -0.40048511910E+02 -0.11417260746E+03  0.67829829188E+03  0.68900496397E+03  0.00000000000E+00 0.  1.
         21    1    1    2  504  506  0.32509772383E+02  0.54657612842E+02  0.71204355634E+02  0.95469367879E+02  0.00000000000E+00 0.  1.
         21    1    1    2  505  502  0.49634780075E+02 -0.22512942435E+02  0.55759467915E+02  0.77971547582E+02  0.00000000000E+00 0.  1.
         21    1    1    2  506  503 -0.42096040548E+02  0.82027937057E+02  0.15173464735E+03  0.17755016839E+03  0.00000000000E+00 0.  1.
<scales pt_clust_3="105.95923" pt_clust_4="69.45160" pt_clust_5="54.50178" pt_clust_6="14000.00000"></scales>
<clustering>
<clus scale="   54.502">  2  5  1 -1</clus>
<clus scale="   69.452">  2  4  1 -1</clus>
<clus scale="  105.959">  1  3  2 -1</clus>
<clus scale="  105.959">  1  3  2 -1</clus>
</clustering>
</event>
<event>
 6    0  0.8520634E+002  0.1223747E+03  0.7546771E-02  0.1239230E+00
         21   -1    0    0  505  501  0.00000000000E+00  0.00000000000E+00  0.99904657032E+03  0.99904657032E+03  0.00000000000E+00 0.  1.
         21   -1    0    0  504  502 -0.00000000000E+00 -0.00000000000E+00 -0.63166692753E+02  0.63166692753E+02  0.00000000000E+00 0.  1.
         21    1    1    2  503  501  0.21513442201E+02 -0.88645333772E+02  0.55611536884E+03  0.56354691629E+03  0.00000000000E+00 0.  1.
         21    1    1    2  504  506  0.49252033194E+01  0.41189648325E+02 -0.10107857491E+01  0.41495378595E+02  0.00000000000E+00 0.  1.
         21    1    1    2  505  502 -0.11607201122E+03  0.75825517239E+02  0.13285339582E+03  0.19202147181E+03  0.00000000000E+00 0.  1.
         21    1    1    2  506  503  0.89633365699E+02 -0.28369831792E+02  0.24792189865E+03  0.26514949638E+03  0.00000000000E+00 0.  1.
<scales pt_clust_3="87.78236" pt_clust_4="41.48307" pt_clust_5="14000.00000" pt_clust_6="122.37467"></scales>
<clustering>
<clus scale="   41.483">  2  4  1 -1</clus>
<clus scale="   87.782">  1  3  2 -1</clus>
<clus scale="  122.375">  1  6  2 -1</clus>
<clus scale="   87.782">  1  3  2 -1</clus>
</clustering>
</event>
<event>
 6    0  0.8520634E+002  0.1183506E+03  0.7546771E-02  0.1245843E+00
         21   -1    0    0  506  501  0.00000000000E+00  0.00000000000E+00  0.11545295275E+03  0.11545295275E+03  0.00000000000E+00 0.  1.
         21   -1    0    0  505  502 -0.00000000000E+00 -0.00000000000E+00 -0.11515413338E+04  0.11515413338E+04  0.00000000000E+00 0. -1.
         21    1    1    2  503  502  0.31685541831E+02  0.91382582801E+01 -0.18396991603E+03  0.18690214372E+03  0.00000000000E+00 0.  1.
         21    1    1    2  504  501  0.20657804897E+02  0.25989996163E+02  0.73324459772E+02  0.80490379578E+02  0.00000000000E+00 0.  1.
         21    1    1    2  505  504 -0.14235384396E+03  0.29217920764E+02 -0.85757459966E+03  0.86980026315E+03  0.00000000000E+00 0. -1.
         21    1    1    2  506  503  0.90010497230E+02 -0.64346175208E+02 -0.67868325141E+02  0.12980150012E+03  0.00000000000E+00 0.  1.
<scales pt_clust_3="32.97698" pt_clust_4="33.29950" pt_clust_5="14000.00000" pt_clust_6="118.35059"></scales>
<clustering>
<clus scale="   32.977">  2  3  1 -1</clus>
<clus scale="   33.299">  1  4  2 -1</clus>
<clus scale="  118.351">  1  6  2 -1</clus>
<clus scale="   33.299">  1  3  2 -1</clus>
</clustering>
</event>
<event>
 6    0  0.8520634E+002  0.1202097E+03  0.7546771E-02  0.1242752E+00
         21   -1    0    0  506  501  0.00000000000E+00  0.00000000000E+00  0.15698020027E+04  0.15698020027E+04  0.00000000000E+00 0. -1.
         21   -1    0    0  504  502 -0.00000000000E+00 -0.00000000000E+00 -0.11681239922E+03  0.11681239922E+03  0.00000000000E+00 0.  1.
         21    1    1    2  503  501  0.77966403380E+02 -0.11327998272E+03  0.22561570986E+03  0.26422256353E+03  0.00000000000E+00 0.  1.
         21    1    1    2  504  503 -0.14906351619E+01 -0.33733108639E+02 -0.16279671281E+01  0.33805249424E+02  0.00000000000E+00 0. -1.
         21    1    1    2  505  502 -0.96803002904E+02  0.91419170002E+02 -0.23057019288E+02  0.13512924241E+03  0.00000000000E+00 0.  1.
         21    1    1    2  506  505  0.20327234686E+02  0.55593921353E+02  0.12520588800E+04  0.12534573465E+04  0.00000000000E+00 0. -1.
<scales pt_clust_3="14000.00000" pt_clust_4="33.76603" pt_clust_5="120.20969" pt_clust_6="58.96647"></scales>
<clustering>
<clus scale="   33.766">  2  4  1 -1</clus>
<clus scale="   58.966">  1  6  2 -1</clus>
<clus scale="  120.210">  2  5  1 -1</clus>
<clus scale="   58.966">  1  3  2 -1</clus>
</clustering>
</event>
<event>
 6    0  0.8520634E+002  0.7468696E+02  0.7546771E-02  0.1344843E+00
         21   -1    0    0  504  501  0.00000000000E+00  0.00000000000E+00  0.19014781106E+03  0.19014781106E+03  0.00000000000E+00 0. -1.
         21   -1    0    0  505  502 -0.00000000000E+00 -0.00000000000E+00 -0.14195481715E+03  0.14195481715E+03  0.00000000000E+00 0. -1.
         21    1    1    2  503  502  0.55233128950E+02  0.41624519077E+02 -0.50039522120E+01  0.69342185283E+02  0.00000000000E+00 0. -1.
         21    1    1    2  504  503 -0.77552853452E+02  0.43409047489E+02  0.10246255785E+03  0.13563689116E+03  0.00000000000E+00 0. -1.
         21    1    1    2  505  506 -0.16141692923E+02 -0.46402516433E+02 -0.53266424047E+02  0.72464196073E+02  0.00000000000E+00 0. -1.
         21    1    1    2  506  501  0.38461417425E+02 -0.38631050133E+02  0.40008123195E+01  0.54659355685E+02  0.00000000000E+00 0. -1.
<scales pt_clust_3="51.60230" pt_clust_4="74.68696" pt_clust_5="49.12991" pt_clust_6="14000.00000"></scales>
<clustering>
<clus scale="   49.130">  2  5  1 -1</clus>
<clus scale="   51.602">  2  3  1 -1</clus>
<clus scale="   74.687">  1  4  2 -1</clus>
<clus scale="   74.687">  1  3  2 -1</clus>
</clustering>
</event>
<event>
 6    0  0.8520634E+002  0.1989466E+03  0.7546771E-02  0.1150631E+00
         21   -1    0    0  502  501  0.00000000000E+00  0.00000000000E+00  0.25932816331E+03  0.25932816331E+03  0.00000000000E+00 0. -1.
         21   -1    0    0  503  502 -0.00000000000E+00 -0.00000000000E+00 -0.77485102430E+03  0.77485102430E+03  0.00000000000E+00 0. -1.
         21    1    1    2  503  506  0.68665866971E+01  0.38674827669E+02 -0.33677389590E+02  0.51740302257E+02  0.00000000000E+00 0. -1.
         21    1    1    2  504  505  0.18213871062E+03 -0.16745114838E+03 -0.38081942125E+03  0.45413415265E+03  0.00000000000E+00 0. -1.
         21    1    1    2  505  501 -0.53809590205E+02  0.18947522897E+03  0.14258366336E+03  0.24315927999E+03  0.00000000000E+00 0. -1.
         21    1    1    2  506  504 -0.13519570712E+03 -0.60698908257E+02 -0.24360971350E+03  0.28514545271E+03  0.00000000000E+00 0. -1.
<scales pt_clust_3="39.27967" pt_clust_4="14000.00000" pt_clust_5="198.94663" pt_clust_6="140.70391"></scales>
<clustering>
<clus scale="   39.280">  2  3  1 -1</clus>
<clus scale="  140.704">  2  6  1 -1</clus>
<clus scale="  198.947">  1  5  2 -1</clus>
<clus scale="  198.947">  1  3  2 -1</clus>
</clustering>
</event>
<event>
 6    0  0.8520634E+002  0.1690626E+03  0.7546771E-02  0.1178829E+00
         21   -1    0    0  503  501  0.00000000000E+00  0.00000000000E+00  0.15685518644E+04  0.15685518644E+04  0.00000000000E+00 0. -1.
         21   -1    0    0  504  502 -0.00000000000E+00 -0.00000000000E+00 -0.11951219026E+03  0.11951219026E+03  0.00000000000E+00 0. -1.
         21    1    1    2  503  502 -0.27976579954E+02 -0.10064371943E+03  0.36544579122E+02  0.11066776201E+03  0.00000000000E+00 0. -1.
         21    1    1    2  504  505 -0.44273571567E+02 -0.46451483029E+02 -0.63887976530E+02  0.90551438199E+02  0.00000000000E+00 0. -1.
         21    1    1    2  505  506  0.58548844277E+02  0.10237449487E+03  0.77696037890E+03  0.78585999691E+03  0.00000000000E+00 0. -1.
         21    1    1    2  506  501  0.13701307244E+02  0.44720707590E+02  0.69942269259E+03  0.70098485748E+03  0.00000000000E+00 0. -1.
<scales pt_clust_3="156.32848" pt_clust_4="64.17078" pt_clust_5="40.53799" pt_clust_6="40.53799"></scales>
<clustering>
<clus scale="   40.538">  5  6 -1 -1</clus>
<clus scale="   64.171">  2  4  1 -1</clus>
<clus scale="  156.328">  2  3  1 -1</clus>
<clus scale="  169.063">  1  3  2 -1</clus>
</clustering>
</event>
<event>
 6    0  0.8520634E+002  0.6675727E+02  0.7546771E-02  0.1371481E+00
         21   -1    0    0  506  501  0.00000000000E+00  0.00000000000E+00  0.32567766658E+03  0.32567766658E+03  0.00000000000E+00 0.  1.
         21   -1    0    0  503  502 -0.00000000000E+00 -0.00000000000E+00 -0.13997315235E+03  0.13997315235E+03  0.00000000000E+00 0.  1.
         21    1    1    2  503  504  0.12473238371E+02 -0.36549664282E+02  0.12531174292E+03  0.13112777184E+03  0.00000000000E+00 0.  1.
         21    1    1    2  504  501  0.67888386921E+01 -0.36326501695E+02  0.35288777950E+02  0.51097954024E+02  0.00000000000E+00 0.  1.
         21    1    1    2  505  502  0.21954933994E+02 -0.57908748115E+02 -0.86664954582E+02  0.10651880861E+03  0.00000000000E+00 0.  1.
         21    1    1    2  506  505 -0.41217011058E+02  0.13078491409E+03  0.11176894795E+03  0.17690628445E+03  0.00000000000E+00 0.  1.
<scales pt_clust_3="55.27212" pt_clust_4="36.95542" pt_clust_5="14000.00000" pt_clust_6="66.75727"></scales>
<clustering>
<clus scale="   36.955">  1  4  2 -1</clus>
<clus scale="   55.272">  1  3  2 -1</clus>
<clus scale="   66.757">  1  6  2 -1</clus>
<clus scale="   36.955">  1  3  2 -1</clus>
</clustering>
</event>
<event>
 6    0  0.8520634E+002  0.1496394E+03  0.7546771E-02  0.1200917E+00
         21   -1    0    0  503  501  0.00000000000E+00  0.00000000000E+00  0.53444976897E+03  0.53444976897E+03  0.00000000000E+00 0. -1.
         21   -1    0    0  504  502 -0.00000000000E+00 -0.00000000000E+00 -0.10168595324E+04  0.10168595324E+04  0.00000000000E+00 0.  1.
         21    1    1    2  503  502 -0.99618053089E+02 -0.14977504940E+03  0.20157427615E+02  0.18100454086E+03  0.00000000000E+00 0. -1.
         21    1    1    2  504  506  0.12898239201E+03  0.74353928240E+02 -0.91243874970E+03  0.92450496810E+03  0.00000000000E+00 0.  1.
         21    1    1    2  505  501  0.22609314751E+02  0.30687792654E+02  0.35747009249E+03  0.35949657684E+03  0.00000000000E+00 0. -1.
         21    1    1    2  506  505 -0.51973653669E+02  0.44733328508E+02  0.52401466184E+02  0.86303215545E+02  0.00000000000E+00 0. -1.
<scales pt_clust_3="14000.00000" pt_clust_4="149.63945" pt_clust_5="38.11721" pt_clust_6="71.30103"></scales>
<clustering>
<clus scale="   38.117">  1  5  2 -1</clus>
<clus scale="   71.301">  1  6  2 -1</clus>
<clus scale="  149.639">  2  4  1 -1</clus>
<clus scale="   38.117">  1  3  2 -1</clus>
</clustering>
</event>
<event>
 6    0  0.8520634E+002  0.1276248E+03  0.7546771E-02  0.1231023E+00
         21   -1    0    0  506  501  0.00000000000E+00  0.00000000000E+00  0.69159072332E+03  0.69159072332E+03  0.00000000000E+00 0.  1.
         21   -1    0    0  505  502 -0.00000000000E+00 -0.00000000000E+00 -0.20205814359E+03  0.20205814359E+03  0.00000000000E+00 0. -1.
         21    1    1    2  503  502 -0.23316005449E+02  0.25248477516E+02 -0.12479346200E+02  0.36563038831E+02  0.00000000000E+00 0.  1.
         21    1    1    2  504  503 -0.58548089803E+02 -0.27336874431E+02  0.30123904045E+02  0.71292588100E+02  0.00000000000E+00 0.  1.
         21    1    1    2  505  501 -0.41843351524E+02  0.45133335746E+02 -0.14375232526E+03  0.15637331959E+03  0.00000000000E+00 0. -1.
         21    1    1    2  506  504  0.12370744678E+03 -0.43044938832E+02  0.61564034715E+03  0.62941992039E+03  0.00000000000E+00 0.  1.
<scales pt_clust_3="34.36745" pt_clust_4="65.93604" pt_clust_5="127.62485" pt_clust_6="14000.00000"></scales>
<clustering>
<clus scale="   34.367">  2  3  1 -1</clus>
<clus scale="   65.936">  2  4  1 -1</clus>
<clus scale="  127.625">  2  5  1 -1</clus>
<clus scale="  127.625">  1  3  2 -1</clus>
</clustering>
</event>
<event>
 6    0  0.8520634E+002  0.1084804E+03  0.7546771E-02  0.1263410E+00
         21   -1    0    0  502  501  0.00000000000E+00  0.00000000000E+00  0.27493715305E+03  0.27493715305E+03  0.00000000000E+00 0.  1.
         21   -1    0    0  506  502 -0.00000000000E+00 -0.00000000000E+00 -0.50888175752E+03  0.50888175752E+03  0.00000000000E+00 0. -1.
         21    1    1    2  503  505  0.75245412998E+02  0.53579546314E+02  0.31029014268E+02  0.97444546727E+02  0.00000000000E+00 0.  1.
         21    1    1    2  504  503  0.35519028088E+02  0.43896314405E+02 -0.44345690309E+02  0.71798523826E+02  0.00000000000E+00 0.  1.
         21    1    1    2  505  501 -0.10278757667E+03 -0.56358564708E+02  0.17833925585E+03  0.21341617538E+03  0.00000000000E+00 0.  1.
         21    1    1    2  506  504 -0.79768644146E+01 -0.41117296011E+02 -0.39896718429E+03  0.40115966464E+03  0.00000000000E+00 0. -1.
<scales pt_clust_3="14000.00000" pt_clust_4="38.20051" pt_clust_5="108.48041" pt_clust_6="41.88392"></scales>
<clustering>
<clus scale="   41.884">  2  6  1 -1</clus>
<clus scale="   38.201">  2  4  1 -1</clus>
<clus scale="  108.480">  1  5  2 -1</clus>
<clus scale="  108.480">  1  3  2 -1</clus>
</clustering>
</event>
<event>
 6    0  0.8520634E+002  0.1084861E+03  0.7546771E-02  0.1263399E+00
         21   -1    0    0  505  501  0.00000000000E+00  0.00000000000E+00  0.60220980565E+03  0.60220980565E+03  0.00000000000E+00 0. -1.
         21   -1    0    0  506  502 -0.00000000000E+00 -0.00000000000E+00 -0.66812826029E+03  0.66812826029E+03  0.00000000000E+00 0. -1.
         21    1    1    2  503  501  0.38191307194E+02  0.10164706418E+03  0.49257825343E+03  0.50440463653E+03  0.00000000000E+00 0. -1.
         21    1    1    2  504  502 -0.74197993116E+02  0.56948166238E+02 -0.57199343560E+03  0.57959030892E+03  0.00000000000E+00 0. -1.
         21    1    1    2  505  504  0.27596867556E+02 -0.12265220574E+03  0.49185898303E+02  0.13499778985E+03  0.00000000000E+00 0. -1.
         21    1    1    2  506  503  0.84098183663E+01 -0.35943024684E+02 -0.35689170768E+02  0.51345330639E+02  0.00000000000E+00 0. -1.
<scales pt_clust_3="108.48614" pt_clust_4="70.58419" pt_clust_5="14000.00000" pt_clust_6="36.91377"></scales>
<clustering>
<clus scale="   36.914">  2  6  1 -1</clus>
<clus scale="   70.584">  2  4  1 -1</clus>
<clus scale="  108.486">  1  3  2 -1</clus>
<clus scale="  108.486">  1  3  2 -1</clus>
</clustering>
</event>
<event>
 6    0  0.8520634E+002  0.7749495E+02  0.7546771E-02  0.1336315E+00
         21   -1    0    0  505  501  0.00000000000E+00  0.00000000000E+00  0.17632007784E+04  0.17632007784E+04  0.00000000000E+00 0. -1.
         21   -1    0    0  506  502 -0.00000000000E+00 -0.00000000000E+00 -0.13520128238E+03  0.13520128238E+03  0.00000000000E+00 0.  1.
         21    1    1    2  503  501  0.62172747204E+01 -0.47781912518E+02  0.15671840801E+04  0.15679246495E+04  0.00000000000E+00 0. -1.
         21    1    1    2  504  502 -0.55623979451E+02  0.33316629598E+02 -0.64138497593E+02  0.91201818903E+02  0.00000000000E+00 0.  1.
         21    1    1    2  505  504  0.73668176076E+02  0.67019636032E+02  0.14680969824E+03  0.17740270369E+03  0.00000000000E+00 0. -1.
         21    1    1    2  506  503 -0.24261471345E+02 -0.52554353112E+02 -0.21855784745E+02  0.61872888648E+02  0.00000000000E+00 0. -1.
<scales pt_clust_3="48.18470" pt_clust_4="14000.00000" pt_clust_5="77.49495" pt_clust_6="62.10986"></scales>
<clustering>
<clus scale="   48.185">  1  3  2 -1</clus>
<clus scale="   62.110">  2  6  1 -1</clus>
<clus scale="   77.495">  1  5  2 -1</clus>
<clus scale="   48.185">  1  3  2 -1</clus>
</clustering>
</event>
<event>
 6    0  0.8520634E+002  0.1305826E+03  0.7546771E-02  0.1226594E+00
         21   -1    0    0  504  501  0.00000000000E+00  0.00000000000E+00  0.11247155437E+03  0.11247155437E+03  0.00000000000E+00 0. -1.
         21   -1    0    0  505  502 -0.00000000000E+00 -0.00000000000E+00 -0.95932580424E+03  0.95932580424E+03  0.00000000000E+00 0. -1.
         21    1    1    2  503  501 -0.15045164580E+01  0.31730505968E+02  0.69637357794E+02  0.76540513320E+02  0.00000000000E+00 0. -1.
         21    1    1    2  504  502  0.11088117882E+02  0.12648632791E+03 -0.26739850569E+03  0.29601300368E+03  0.00000000000E+00 0. -1.
         21    1    1    2  505  506  0.63330929917E+02 -0.12514869816E+03 -0.56886402153E+03  0.58590039966E+03  0.00000000000E+00 0. -1.
         21    1    1    2  506  503 -0.72914531340E+02 -0.33068135721E+02 -0.80229080450E+02  0.11334344194E+03  0.00000000000E+00 0. -1.
<scales pt_clust_3="31.76615" pt_clust_4="130.58256" pt_clust_5="14000.00000" pt_clust_6="76.14700"></scales>
<clustering>
<clus scale="   31.766">  1  3  2 -1</clus>
<clus scale="   76.147">  1  6  2 -1</clus>
<clus scale="  130.583">  1  4  2 -1</clus>
<clus scale="   31.766">  1  3  2 -1</clus>
</clustering>
</event>
<event>
 6    0  0.8520634E+002  0.7941024E+02  0.7546771E-02  0.1330733E+00
         21   -1    0    0  506  501  0.00000000000E+00  0.00000000000E+00  0.23729510325E+04  0.23729510325E+04  0.00000000000E+00 0. -1.
         21   -1    0    0  504  502 -0.00000000000E+00 -0.00000000000E+00 -0.44348966230E+02  0.44348966230E+02  0.00000000000E+00 0.  1.
         21    1    1    2  503  502 -0.26486062234E+02  0.78102819089E+02  0.76523911987E+02  0.11250542631E+03  0.00000000000E+00 0.  1.
         21    1    1    2  504  505 -0.39877896345E+02 -0.54576571421E+02  0.90799942673E+02  0.11319663579E+03  0.00000000000E+00 0.  1.
         21    1    1    2  505  501  0.74437636043E+01  0.32115968129E+02  0.20670528904E+04  0.20673157709E+04  0.00000000000E+00 0. -1.
         21    1    1    2  506  503  0.58920194975E+02 -0.55642215797E+02  0.94225321204E+02  0.12428216570E+03  0.00000000000E+00 0.  1.
<scales pt_clust_3="79.41024" pt_clust_4="57.63988" pt_clust_5="32.96733" pt_clust_6="14000.00000"></scales>
<clustering>
<clus scale="   32.967">  1  5  2 -1</clus>
<clus scale="   57.640">  1  4  2 -1</clus>
<clus scale="   79.410">  2  3  1 -1</clus>
<clus scale="   32.967">  1  3  2 -1</clus>
</clustering>
</event>
<event>
 6    0  0.8520634E+002  0.8358935E+02  0.7546771E-02  0.1319163E+00
         21   -1    0    0  505  501  0.00000000000E+00  0.00000000000E+00  0.93147490603E+03  0.93147490603E+03  0.00000000000E+00 0.  1.
         21   -1    0    0  506  502 -0.00000000000E+00 -0.00000000000E+00 -0.27281646516E+03  0.27281646516E+03  0.00000000000E+00 0.  1.
         21    1    1    2  503  501 -0.38182939489E+02  0.96558652873E+01  0.87161632776E+03  0.87250569936E+03  0.00000000000E+00 0.  1.
         21    1    1    2  504  503  0.55334552087E+02 -0.75819332354E+02 -0.25186616075E+02  0.97184615257E+02  0.00000000000E+00 0.  1.
         21    1    1    2  505  502 -0.18841469534E+02  0.10251856949E+03 -0.14039832437E+03  0.17486208151E+03  0.00000000000E+00 0.  1.
         21    1    1    2  506  504  0.16898569360E+01 -0.36355102421E+02 -0.47372946436E+02  0.59738975072E+02  0.00000000000E+00 0.  1.
<scales pt_clust_3="39.36359" pt_clust_4="14000.00000" pt_clust_5="83.58935" pt_clust_6="36.39436"></scales>
<clustering>
<clus scale="   36.394">  2  6  1 -1</clus>
<clus scale="   39.364">  1  3  2 -1</clus>
<clus scale="   83.589">  2  5  1 -1</clus>
<clus scale="   39.364">  1  3  2 -1</clus>
</clustering>
</event>
<event>
 6    0  0.8520634E+002  0.1217083E+03  0.7546771E-02  0.1240305E+00
         21   -1    0    0  503  501  0.00000000000E+00  0.00000000000E+00  0.19803300009E+03  0.19803300009E+03  0.00000000000E+00 0.  1.
         21   -1    0    0  506  502 -0.00000000000E+00 -0.00000000000E+00 -0.33716997780E+03  0.33716997780E+03  0.00000000000E+00 0.  1.
         21    1    1    2  503  502  0.14194013734E+03 -0.35676048105E+02 -0.55336161854E+02  0.15646684570E+03  0.00000000000E+00 0.  1.
         21    1    1    2  504  505 -0.26364433447E+01  0.76965746601E+02 -0.14789080272E+02  0.78418071123E+02  0.00000000000E+00 0.  1.
         21    1    1    2  505  501 -0.24913894685E+02 -0.29655112552E+02  0.93522661362E+02  0.10122557008E+03  0.00000000000E+00 0.  1.
         21    1    1    2  506  504 -0.11438979930E+03 -0.11634585944E+02 -0.16253439695E+03  0.19909249098E+03  0.00000000000E+00 0.  1.
<scales pt_clust_3="121.70829" pt_clust_4="68.40522" pt_clust_5="38.73148" pt_clust_6="14000.00000"></scales>
<clustering>
<clus scale="   38.731">  1  5  2 -1</clus>
<clus scale="   68.405">  1  4  2 -1</clus>
<clus scale="  121.708">  1  3  2 -1</clus>
<clus scale="   38.731">  1  3  2 -1</clus>
</clustering>
</event>
<event>
 6    0  0.8520634E+002  0.1235021E+03  0.7546771E-02  0.1237429E+00
         21   -1    0    0  503  501  0.00000000000E+00  0.00000000000E+00  0.23892801418E+03  0.23892801418E+03  0.00000000000E+00 0.  1.
         21   -1    0    0  504  502 -0.00000000000E+00 -0.00000000000E+00 -0.25716784025E+03  0.25716784025E+03  0.00000000000E+00 0.  1.
         21    1    1    2  503  506  0.47278604908E+02  0.33051477626E+02 -0.10553492865E+00  0.57686027710E+02  0.00000000000E+00 0.  1.
         21    1    1    2  504  501 -0.72971001270E+02 -0.84396579616E+02 -0.14375156547E+03  0.18196720103E+03  0.00000000000E+00 0.  1.
         21    1    1    2  505  502  0.32388032774E+02 -0.49221401611E+02 -0.33731970928E+02  0.67893865012E+02  0.00000000000E+00 0.  1.
         21    1    1    2  506  505 -0.66956364130E+01  0.10056650360E+03  0.15934924525E+03  0.18854876069E+03  0.00000000000E+00 0.  1.
<scales pt_clust_3="57.68593" pt_clust_4="123.50211" pt_clust_5="58.97609" pt_clust_6="14000.00000"></scales>
<clustering>
<clus scale="   57.686">  1  3  2 -1</clus>
<clus scale="   58.976">  2  5  1 -1</clus>
<clus scale="  123.502">  2  4  1 -1</clus>
<clus scale="   57.686">  1  3  2 -1</clus>
</clustering>
</event>
<event>
 6    0  0.8520634E+002  0.1001085E+03  0.7546771E-02  0.1280068E+00
         21   -1    0    0  503  501  0.00000000000E+00  0.00000000000E+00  0.24947802930E+03  0.24947802930E+03  0.00000000000E+00 0.  1.
         21   -1    0    0  505  502 -0.00000000000E+00 -0.00000000000E+00 -0.94995018454E+02  0.94995018454E+02  0.00000000000E+00 0.  1.
         21    1    1    2  503  502  0.26829613154E+01 -0.52500098619E+02  0.43045380182E+01  0.52744551226E+02  0.00000000000E+00 0.  1.
         21    1    1    2  504  506 -0.38797063917E+02  0.59031850035E+02  0.31670739412E+02  0.77414515577E+02  0.00000000000E+00 0.  1.
         21    1    1    2  505  504 -0.31552671376E+02  0.36107010482E+02 -0.21907137561E+02  0.52718212726E+02  0.00000000000E+00 0.  1.
         21    1    1    2  506  501  0.67666773978E+02 -0.42638761898E+02  0.14041487097E+03  0.16159576822E+03  0.00000000000E+00 0.  1.
<scales pt_clust_3="52.56861" pt_clust_4="43.89695" pt_clust_5="43.89695" pt_clust_6="84.75254"></scales>
<clustering>
<clus scale="   43.897">  4  5 -1 -1</clus>
<clus scale="   52.569">  2  3  1 -1</clus>
<clus scale="   84.753">  1  6  2 -1</clus>
<clus scale="   84.753">  1  3  2 -1</clus>
</clustering>
</event>
<event>
 6    0  0.8520634E+002  0.7481355E+02  0.7546771E-02  0.1344449E+00
         21   -1    0    0  505  501  0.00000000000E+00  0.00000000000E+00  0.66937268411E+02  0.66937268411E+02  0.00000000000E+00 0. -1.
         21   -1    0    0  504  502 -0.00000000000E+00 -0.00000000000E+00 -0.13517281431E+04  0.13517281431E+04  0.00000000000E+00 0.  1.
         21    1    1    2  503  502  0.19715692336E+02  0.28145315749E+02 -0.96282656961E+03  0.96343960396E+03  0.00000000000E+00 0.  1.
         21    1    1    2  504  506 -0.31110542230E+02  0.31730368349E+02 -0.26704354350E+03  0.27071560029E+03  0.00000000000E+00 0.  1.
         21    1    1    2  505  503 -0.11332337682E+02 -0.11489128910E+03 -0.46199351148E+02  0.12434954860E+03  0.00000000000E+00 0. -1.
         21    1    1    2  506  501  0.22727187576E+02  0.55015605006E+02 -0.87214104039E+01  0.60160658646E+02  0.00000000000E+00 0. -1.
<scales pt_clust_3="34.36375" pt_clust_4="54.10264" pt_clust_5="14000.00000" pt_clust_6="74.81355"></scales>
<clustering>
<clus scale="   34.364">  2  3  1 -1</clus>
<clus scale="   54.103">  2  4  1 -1</clus>
<clus scale="   74.814">  1  6  2 -1</clus>
<clus scale="   74.814">  1  3  2 -1</clus>
</clustering>
</event>
<event>
 6    0  0.8520634E+002  0.8577600E+02  0.7546771E-02  0.1313416E+00
         21   -1    0    0  502  501  0.00000000000E+00  0.00000000000E+00  0.89385688664E+03  0.89385688664E+03  0.00000000000E+00 0. -1.
         21   -1    0    0  504  502 -0.00000000000E+00 -0.00000000000E+00 -0.44312486580E+02  0.44312486580E+02  0.00000000000E+00 0. -1.
         21    1    1    2  503  506  0.72807731666E+02 -0.52493043742E+02  0.30475917076E+02  0.94790648026E+02  0.00000000000E+00 0. -1.
         21    1    1    2  504  503 -0.16937267856E+02 -0.30390095627E+02  0.48934972516E+02  0.60042155938E+02  0.00000000000E+00 0. -1.
         21    1    1    2  505  501  0.87877647178E+01  0.57473372119E+02  0.53513617479E+03  0.53828536937E+03  0.00000000000E+00 0. -1.
         21    1    1    2  506  505 -0.64658228528E+02  0.25409767249E+02  0.23499733569E+03  0.24505119989E+03  0.00000000000E+00 0. -1.
<scales pt_clust_3="14000.00000" pt_clust_4="34.79122" pt_clust_5="56.81904" pt_clust_6="85.77600"></scales>
<clustering>
<clus scale="   34.791">  2  4  1 -1</clus>
<clus scale="   56.819">  1  5  2 -1</clus>
<clus scale="   85.776">  1  6  2 -1</clus>
<clus scale="   56.819">  1  3  2 -1</clus>
</clustering>
</event>
<event>
 6    0  0.8520634E+002  0.2086706E+03  0.7546771E-02  0.1142623E+00
         21   -1    0    0  505  501  0.00000000000E+00  0.00000000000E+00  0.41277720303E+03  0.41277720303E+03  0.00000000000E+00 0. -1.
         21   -1    0    0  503  502 -0.00000000000E+00 -0.00000000000E+00 -0.21618043603E+03  0.21618043603E+03  0.00000000000E+00 0. -1.
         21    1    1    2  503  506  0.28146367751E+02 -0.17107509653E+02 -0.57633388659E+02  0.66381416017E+02  0.00000000000E+00 0.  1.
         21    1    1    2  504  501 -0.19756010448E+03 -0.73021860998E+02  0.22115995213E+03  0.30540777903E+03  0.00000000000E+00 0. -1.
         21    1    1    2  505  502 -0.29520857396E+02  0.39816312295E+02  0.11129042974E+02  0.50800347870E+02  0.00000000000E+00 0. -1.
         21    1    1    2  506  504  0.19893459413E+03  0.50313058356E+02  0.21941160558E+02  0.20636809615E+03  0.00000000000E+00 0. -1.
<scales pt_clust_3="32.93759" pt_clust_4="208.67063" pt_clust_5="45.66945" pt_clust_6="14000.00000"></scales>
<clustering>
<clus scale="   32.938">  2  3  1 -1</clus>
<clus scale="   45.669">  2  5  1 -1</clus>
<clus scale="  208.671">  1  4  2 -1</clus>
<clus scale="  208.671">  1  3  2 -1</clus>
</clustering>
</event>
<event>
 6    0  0.8520634E+002  0.1663911E+03  0.7546771E-02  0.1181664E+00
         21   -1    0    0  504  501  0.00000000000E+00  0.00000000000E+00  0.16861195343E+04  0.16861195343E+04  0.00000000000E+00 0.  1.
         21   -1    0    0  503  502 -0.00000000000E+00 -0.00000000000E+00 -0.17394516256E+03  0.17394516256E+03  0.00000000000E+00 0. -1.
         21    1    1    2  503  505 -0.84342895002E+01  0.62047248049E+02  0.60375716214E+01  0.62908270529E+02  0.00000000000E+00 0.  1.
         21    1    1    2  504  506 -0.98805301995E+01 -0.34381072703E+02  0.70658599575E+02  0.79197984388E+02  0.00000000000E+00 0.  1.
         21    1    1    2  505  501  0.61077238848E+02  0.18635612435E+03  0.14819030633E+04  0.14948229738E+04  0.00000000000E+00 0.  1.
         21    1    1    2  506  502 -0.42762419148E+02 -0.21402229969E+03 -0.46424862707E+02  0.22313546812E+03  0.00000000000E+00 0. -1.
<scales pt_clust_3="61.91821" pt_clust_4="35.77266" pt_clust_5="14000.00000" pt_clust_6="166.39110"></scales>
<clustering>
<clus scale="   35.773">  1  4  2 -1</clus>
<clus scale="   61.918">  2  3  1 -1</clus>
<clus scale="  166.391">  2  6  1 -1</clus>
<clus scale="   35.773">  1  3  2 -1</clus>
</clustering>
</event>
<event>
 6    0  0.8520634E+002  0.1821442E+03  0.7546771E-02  0.1165744E+00
         21   -1    0    0  505  501  0.00000000000E+00  0.00000000000E+00  0.30460716297E+03  0.30460716297E+03  0.00000000000E+00 0. -1.
         21   -1    0    0  506  502 -0.00000000000E+00 -0.00000000000E+00 -0.36256853754E+03  0.36256853754E+03  0.00000000000E+00 0. -1.
         21    1    1    2  503  501  0.12332318953E+03 -0.11734448842E+03  0.98271971429E+02  0.19655970698E+03  0.00000000000E+00 0. -1.
         21    1    1    2  504  502  0.11775505178E+02  0.22443720647E+03 -0.16570514797E+03  0.27922915005E+03  0.00000000000E+00 0. -1.
         21    1    1    2  505  504 -0.12467049018E+03 -0.69958857937E+02  0.32307901462E+02  0.14656320624E+03  0.00000000000E+00 0. -1.
         21    1    1    2  506  503 -0.10428204526E+02 -0.37133860110E+02 -0.22836099486E+02  0.44823637247E+02  0.00000000000E+00 0. -1.
<scales pt_clust_3="14000.00000" pt_clust_4="182.14423" pt_clust_5="147.77229" pt_clust_6="38.57034"></scales>
<clustering>
<clus scale="   38.570">  2  6  1 -1</clus>
<clus scale="  147.772">  1  5  2 -1</clus>
<clus scale="  182.144">  2  4  1 -1</clus>
<clus scale="  147.772">  1  3  2 -1</clus>
</clustering>
</event>
<event>
 6    0  0.1570302E+003  0.1401956E+03  0.7546771E-02  0.1213066E+00
         21   -1    0    0  503  501  0.00000000000E+00  0.00000000000E+00  0.16937761920E+04  0.16937761920E+04  0.00000000000E+00 0.  1.
         21   -1    0    0  501  502 -0.00000000000E+00 -0.00000000000E+00 -0.21291813043E+03  0.21291813043E+03  0.00000000000E+00 0.  1.
         21    1    1    2  503  504  0.77284367231E+00 -0.44312290336E+02  0.13921539254E+04  0.13928591918E+04  0.00000000000E+00 0.  1.
         21    1    1    2  504  506  0.19978794530E+02 -0.86316161999E+02  0.26908980005E+03  0.28330011038E+03  0.00000000000E+00 0.  1.
         21    1    1    2  505  502  0.76825364367E+01  0.10337755911E+03 -0.13908203527E+03  0.17346398367E+03  0.00000000000E+00 0.  1.
         21    1    1    2  506  505 -0.28434174639E+02  0.27250893227E+02 -0.41303628619E+02  0.57071036491E+02  0.00000000000E+00 0.  1.
<scales pt_clust_3="44.31903" pt_clust_4="128.61499" pt_clust_5="34.39048" pt_clust_6="34.39048"></scales>
<clustering>
<clus scale="   34.390">  5  6 -1 -1</clus>
<clus scale="   44.319">  1  3  2 -1</clus>
<clus scale="  128.615">  1  4  2 -1</clus>
<clus scale="   44.319">  1  3  2 -1</clus>
</clustering>
</event>
<event>
 6    0  0.8520634E+002  0.1198926E+03  0.7546771E-02  0.1243274E+00
         21   -1    0    0  505  501  0.00000000000E+00  0.00000000000E+00  0.24342997664E+02  0.24342997664E+02  0.00000000000E+00 0.  1.
         21   -1    0    0  506  502 -0.00000000000E+00 -0.00000000000E+00 -0.83888443712E+03  0.83888443712E+03  0.00000000000E+00 0. -1.
         21    1    1    2  503  504  0.62792216350E+02  0.98757210108E+01 -0.18519019226E+03  0.19579530027E+03  0.00000000000E+00 0.  1.
         21    1    1    2  504  502  0.28110752797E+02  0.19013633905E+02 -0.24813473101E+03  0.25044475924E+03  0.00000000000E+00 0. -1.
         21    1    1    2  505  503  0.31900441734E+02 -0.25725175149E+02 -0.56392714001E+02  0.69710551652E+02  0.00000000000E+00 0.  1.
         21    1    1    2  506  501 -0.12280341088E+03 -0.31641797662E+01 -0.32482380218E+03  0.34727682362E+03  0.00000000000E+00 0. -1.
<scales pt_clust_3="40.85281" pt_clust_4="33.93719" pt_clust_5="40.85281" pt_clust_6="107.05650"></scales>
<clustering>
<clus scale="   33.937">  2  4  1 -1</clus>
<clus scale="   40.853">  3  5 -1 -1</clus>
<clus scale="  107.056">  2  6  1 -1</clus>
<clus scale="  119.893">  1  3  2 -1</clus>
</clustering>
</event>
<event>
 6    0  0.8520634E+002  0.8013514E+02  0.7546771E-02  0.1328668E+00
         21   -1    0    0  505  501  0.00000000000E+00  0.00000000000E+00  0.15410897801E+03  0.15410897801E+03  0.00000000000E+00 0. -1.
         21   -1    0    0  504  502 -0.00000000000E+00 -0.00000000000E+00 -0.27137277563E+04  0.27137277563E+04  0.00000000000E+00 0. -1.
         21    1    1    2  503  502  0.37707842939E+01  0.53984819011E+02 -0.13668246932E+04  0.13678955813E+04  0.00000000000E+00 0. -1.
         21    1    1    2  504  506 -0.77182797817E+02 -0.23756823316E+02 -0.12657996530E+04  0.12683731046E+04  0.00000000000E+00 0. -1.
         21    1    1    2  505  503 -0.33198087749E+02  0.49423142247E+02  0.78322611843E+02  0.98382882382E+02  0.00000000000E+00 0. -1.
         21    1    1    2  506  501  0.10661010127E+03 -0.79651137942E+02 -0.53170438758E+01  0.13318516593E+03  0.00000000000E+00 0. -1.
<scales pt_clust_3="54.11635" pt_clust_4="80.13514" pt_clust_5="59.85659" pt_clust_6="14000.00000"></scales>
<clustering>
<clus scale="   54.116">  2  3  1 -1</clus>
<clus scale="   59.857">  1  5  2 -1</clus>
<clus scale="   80.135">  2  4  1 -1</clus>
<clus scale="   59.857">  1  3  2 -1</clus>
</clustering>
</event>
<event>
 6    0  0.8520634E+002  0.9989852E+02  0.7546771E-02  0.1280509E+00
         21   -1    0    0  506  501  0.00000000000E+00  0.00000000000E+00  0.86731578061E+02  0.86731578061E+02  0.00000000000E+00 0.  1.
         21   -1    0    0  503  502 -0.00000000000E+00 -0.00000000000E+00 -0.29567728514E+04  0.29567728514E+04  0.00000000000E+00 0.  1.
         21    1    1    2  503  504  0.11349377173E+03  0.12306396445E+03 -0.51109035429E+03  0.53780937684E+03  0.00000000000E+00 0. -1.
         21    1    1    2  504  501 -0.57550314674E+02 -0.76489313581E+02  0.36996180705E+02  0.10262246926E+03  0.00000000000E+00 0.  1.
         21    1    1    2  505  502 -0.10287258489E+02 -0.36632018558E+02 -0.22388597988E+04  0.22391830946E+04  0.00000000000E+00 0.  1.
         21    1    1    2  506  505 -0.45656198564E+02 -0.99426323064E+01 -0.15708730098E+03  0.16388948878E+03  0.00000000000E+00 0. -1.
<scales pt_clust_3="99.89852" pt_clust_4="14000.00000" pt_clust_5="38.04908" pt_clust_6="51.27029"></scales>
<clustering>
<clus scale="   38.049">  2  5  1 -1</clus>
<clus scale="   51.270">  2  6  1 -1</clus>
<clus scale="   99.899">  2  3  1 -1</clus>
<clus scale="   99.899">  1  3  2 -1</clus>
</clustering>
</event>
<event>
 6    0  0.8520634E+002  0.1886865E+03  0.7546771E-02  0.1159651E+00
         21   -1    0    0  503  501  0.00000000000E+00  0.00000000000E+00  0.20284654203E+03  0.20284654203E+03  0.00000000000E+00 0.  1.
         21   -1    0    0  506  502 -0.00000000000E+00 -0.00000000000E+00 -0.15977730945E+04  0.15977730945E+04  0.00000000000E+00 0.  1.
         21    1    1    2  503  505  0.66210716327E+02  0.20897825297E+03 -0.34420914310E+03  0.40808786231E+03  0.00000000000E+00 0.  1.
         21    1    1    2  504  501 -0.45880518077E+02  0.48209483734E+01  0.13758841252E+03  0.14511662462E+03  0.00000000000E+00 0.  1.
         21    1    1    2  505  502  0.30574294662E+02 -0.55913310501E+02 -0.97555165704E+03  0.97763087172E+03  0.00000000000E+00 0.  1.
         21    1    1    2  506  504 -0.50904492912E+02 -0.15788589084E+03 -0.21275416481E+03  0.26978427783E+03  0.00000000000E+00 0. -1.
<scales pt_clust_3="14000.00000" pt_clust_4="46.13311" pt_clust_5="63.28626" pt_clust_6="188.68647"></scales>
<clustering>
<clus scale="   46.133">  1  4  2 -1</clus>
<clus scale="   63.286">  2  5  1 -1</clus>
<clus scale="  188.686">  1  6  2 -1</clus>
<clus scale="   46.133">  1  3  2 -1</clus>
</clustering>
</event>
<event>
 6    0  0.8520634E+002  0.6399207E+02  0.7546771E-02  0.1381804E+00
         21   -1    0    0  506  501  0.00000000000E+00  0.00000000000E+00  0.66136297307E+03  0.66136297307E+03  0.00000000000E+00 0.  1.
         21   -1    0    0  505  502 -0.00000000000E+00 -0.00000000000E+00 -0.84916769018E+02  0.84916769018E+02  0.00000000000E+00 0.  1.
         21    1    1    2  503  502  0.38487797317E+02  0.86740534538E+02 -0.26463940836E+02  0.98516856622E+02  0.00000000000E+00 0.  1.
         21    1    1    2  504  501 -0.71886156898E+01 -0.79819565020E+02  0.41986280474E+03  0.42744311196E+03  0.00000000000E+00 0.  1.
         21    1    1    2  505  504 -0.59841717834E+01 -0.36086294242E+02  0.35909964658E+01  0.36754947962E+02  0.00000000000E+00 0.  1.
         21    1    1    2  506  503 -0.25315009844E+02  0.29165324725E+02  0.17945634368E+03  0.18356482554E+03  0.00000000000E+00 0.  1.
<scales pt_clust_3="63.99207" pt_clust_4="14000.00000" pt_clust_5="36.57911" pt_clust_6="37.92764"></scales>
<clustering>
<clus scale="   36.579">  2  5  1 -1</clus>
<clus scale="   37.928">  1  6  2 -1</clus>
<clus scale="   63.992">  2  3  1 -1</clus>
<clus scale="   37.928">  1  3  2 -1</clus>
</clustering>
</event>
<event>
 6    0  0.8520634E+002  0.1640250E+03  0.7546771E-02  0.1184226E+00
         21   -1    0    0  504  501  0.00000000000E+00  0.00000000000E+00  0.30859911233E+04  0.30859911233E+04  0.00000000000E+00 0.  1.
         21   -1    0    0  506  502 -0.00000000000E+00 -0.00000000000E+00 -0.40919557231E+02  0.40919557231E+02  0.00000000000E+00 0.  1.
         21    1    1    2  503  505 -0.10813002733E+03  0.11571702781E+03  0.32648884115E+03  0.36287394055E+03  0.00000000000E+00 0.  1.
         21    1    1    2  504  503 -0.31137225369E+02 -0.22856162268E+02  0.20675545733E+03  0.21033247513E+03  0.00000000000E+00 0.  1.
         21    1    1    2  505  502 -0.36975098753E+02 -0.38081113616E+02  0.22674613767E+02  0.57718863914E+02  0.00000000000E+00 0.  1.
         21    1    1    2  506  501  0.17624235145E+03 -0.54779751929E+02  0.24891526538E+04  0.24959854009E+04  0.00000000000E+00 0.  1.
<scales pt_clust_3="164.02499" pt_clust_4="38.62552" pt_clust_5="53.61068" pt_clust_6="14000.00000"></scales>
<clustering>
<clus scale="   38.626">  1  4  2 -1</clus>
<clus scale="   53.611">  2  5  1 -1</clus>
<clus scale="  164.025">  2  3  1 -1</clus>
<clus scale="   38.626">  1  3  2 -1</clus>
</clustering>
</event>
<event>
 6    0  0.8520634E+002  0.9455886E+02  0.7546771E-02  0.1292173E+00
         21   -1    0    0  505  501  0.00000000000E+00  0.00000000000E+00  0.87992391574E+03  0.87992391574E+03  0.00000000000E+00 0. -1.
         21   -1    0    0  506  502 -0.00000000000E+00 -0.00000000000E+00 -0.59071447856E+02  0.59071447856E+02  0.00000000000E+00 0.  1.
         21    1    1    2  503  502 -0.85169030854E+02 -0.41063169168E+02  0.10899660788E+03  0.14429209336E+03  0.00000000000E+00 0.  1.
         21    1    1    2  504  503  0.44408735093E+02 -0.32389818672E+02  0.43203144119E+03  0.43551395188E+03  0.00000000000E+00 0. -1.
         21    1    1    2  505  504  0.39265721547E+02  0.11444470250E+02  0.29294829857E+03  0.29578958471E+03  0.00000000000E+00 0. -1.
         21    1    1    2  506  501  0.14945742146E+01  0.62008517590E+02 -0.13123879754E+02  0.63399733640E+02  0.00000000000E+00 0.  1.
<scales pt_clust_3="84.68921" pt_clust_4="36.28201" pt_clust_5="36.28201" pt_clust_6="62.02653"></scales>
<clustering>
<clus scale="   36.282">  4  5 -1 -1</clus>
<clus scale="   62.027">  2  6  1 -1</clus>
<clus scale="   84.689">  2  3  1 -1</clus>
<clus scale="   94.559">  1  3  2 -1</clus>
</clustering>
</event>
<event>
 6    0  0.8520634E+002  0.2485259E+03  0.7546771E-02  0.1114240E+00
         21   -1    0    0  503  501  0.00000000000E+00  0.00000000000E+00  0.95005505686E+03  0.95005505686E+03  0.00000000000E+00 0. -1.
         21   -1    0    0  504  502 -0.00000000000E+00 -0.00000000000E+00 -0.21424701219E+03  0.21424701219E+03  0.00000000000E+00 0.  1.
         21    1    1    2  503  502 -0.17337080980E+03  0.10198451109E+03  0.12596532343E+03  0.23733002528E+03  0.00000000000E+00 0. -1.
         21    1    1    2  504  505  0.22881247869E+03 -0.16811684264E+03 -0.16831725777E+02  0.28443229454E+03  0.00000000000E+00 0.  1.
         21    1    1    2  505  506 -0.32836176983E+02  0.94515620620E+02  0.36907909442E+03  0.38240135329E+03  0.00000000000E+00 0. -1.
         21    1    1    2  506  501 -0.22605491906E+02 -0.28383289063E+02  0.25759535260E+03  0.26013839594E+03  0.00000000000E+00 0. -1.
<scales pt_clust_3="248.52592" pt_clust_4="14000.00000" pt_clust_5="91.05413" pt_clust_6="36.28525"></scales>
<clustering>
<clus scale="   36.285">  1  6  2 -1</clus>
<clus scale="   91.054">  1  5  2 -1</clus>
<clus scale="  248.526">  1  3  2 -1</clus>
<clus scale="   36.285">  1  3  2 -1</clus>
</clustering>
</event>
<event>
 6    0  0.8520634E+002  0.1879763E+03  0.7546771E-02  0.1160299E+00
         21   -1    0    0  505  501  0.00000000000E+00  0.00000000000E+00  0.64614033162E+03  0.64614033162E+03  0.00000000000E+00 0.  1.
         21   -1    0    0  506  502 -0.00000000000E+00 -0.00000000000E+00 -0.31503598483E+03  0.31503598483E+03  0.00000000000E+00 0.  1.
         21    1    1    2  503  502 -0.15392986470E+02 -0.18035280766E+03 -0.20663740741E+03  0.27470547393E+03  0.00000000000E+00 0.  1.
         21    1    1    2  504  503 -0.48121447083E+02  0.23984626154E+03  0.17356631354E+03  0.29994527508E+03  0.00000000000E+00 0.  1.
         21    1    1    2  505  504  0.21782350824E+02  0.21392534372E+02  0.43230464173E+02  0.52924326797E+02  0.00000000000E+00 0.  1.
         21    1    1    2  506  501  0.41732082729E+02 -0.80885988251E+02  0.32094497649E+03  0.33360124064E+03  0.00000000000E+00 0.  1.
<scales pt_clust_3="14000.00000" pt_clust_4="187.97632" pt_clust_5="30.53050" pt_clust_6="87.54615"></scales>
<clustering>
<clus scale="   30.530">  1  5  2 -1</clus>
<clus scale="   87.546">  1  6  2 -1</clus>
<clus scale="  187.976">  1  4  2 -1</clus>
<clus scale="   30.530">  1  3  2 -1</clus>
</clustering>
</event>
<event>
 6    0  0.8520634E+002  0.1260882E+03  0.7546771E-02  0.1233378E+00
         21   -1    0    0  504  501  0.00000000000E+00  0.00000000000E+00  0.14731249538E+03  0.14731249538E+03  0.00000000000E+00 0. -1.
         21   -1    0    0  501  502 -0.00000000000E+00 -0.00000000000E+00 -0.74403707283E+03  0.74403707283E+03  0.00000000000E+00 0. -1.
         21    1    1    2  503  505 -0.59487493500E+02  0.17121820330E+02 -0.67151401664E+02  0.91330330996E+02  0.00000000000E+00 0. -1.
         21    1    1    2  504  506 -0.32680394052E+02 -0.30847346101E+01  0.11738575851E+03  0.12188904809E+03  0.00000000000E+00 0. -1.
         21    1    1    2  505  502  0.12626142645E+03  0.80537120372E+01 -0.61073187667E+03  0.62369883379E+03  0.00000000000E+00 0. -1.
         21    1    1    2  506  503 -0.34093538895E+02 -0.22090797757E+02 -0.36227057626E+02  0.54431355340E+02  0.00000000000E+00 0. -1.
<scales pt_clust_3="34.47524" pt_clust_4="32.82566" pt_clust_5="118.83170" pt_clust_6="34.47524"></scales>
<clustering>
<clus scale="   32.826">  1  4  2 -1</clus>
<clus scale="   34.475">  3  6 -1 -1</clus>
<clus scale="  118.832">  2  5  1 -1</clus>
<clus scale="   32.826">  1  3  2 -1</clus>
</clustering>
</event>
<event>
 6    0  0.8520634E+002  0.8187169E+02  0.7546771E-02  0.1323822E+00
         21   -1    0    0  503  501  0.00000000000E+00  0.00000000000E+00  0.38336302808E+03  0.38336302808E+03  0.00000000000E+00 0.  1.
         21   -1    0    0  504  502 -0.00000000000E+00 -0.00000000000E+00 -0.59092747437E+03  0.59092747437E+03  0.00000000000E+00 0. -1.
         21    1    1    2  503  506  0.31931404370E+02  0.56945821817E+02  0.34693662595E+03  0.35302615149E+03  0.00000000000E+00 0.  1.
         21    1    1    2  504  501  0.69553627148E+02 -0.72868855634E+02 -0.38086779734E+03  0.39396428292E+03  0.00000000000E+00 0. -1.
         21    1    1    2  505  502 -0.35868454605E+02 -0.89510536698E+01 -0.14807102893E+03  0.15261617544E+03  0.00000000000E+00 0. -1.
         21    1    1    2  506  505 -0.65616576912E+02  0.24874087486E+02 -0.25562245989E+02  0.74683892601E+02  0.00000000000E+00 0. -1.
<scales pt_clust_3="65.11245" pt_clust_4="81.87169" pt_clust_5="36.96846" pt_clust_6="14000.00000"></scales>
<clustering>
<clus scale="   36.968">  2  5  1 -1</clus>
<clus scale="   65.112">  1  3  2 -1</clus>
<clus scale="   81.872">  2  4  1 -1</clus>
<clus scale="   65.112">  1  3  2 -1</clus>
</clustering>
</event>
<event>
 6    0  0.8520634E+002  0.7107470E+02  0.7546771E-02  0.1356476E+00
         21   -1    0    0  505  501  0.00000000000E+00  0.00000000000E+00  0.44529835672E+03  0.44529835672E+03  0.00000000000E+00 0.  1.
         21   -1    0    0  506  502 -0.00000000000E+00 -0.00000000000E+00 -0.23403264681E+04  0.23403264681E+04  0.00000000000E+00 0. -1.
         21    1    1    2  503  501 -0.10144273219E+02 -0.49211756481E+02  0.41434125307E+03  0.41737678092E+03  0.00000000000E+00 0.  1.
         21    1    1    2  504  503  0.31456981500E+02  0.11549433011E+03 -0.10049602818E+03  0.15629438139E+03  0.00000000000E+00 0.  1.
         21    1    1    2  505  502  0.21253522150E+02 -0.21350012406E+02 -0.15218077540E+04  0.15221059015E+04  0.00000000000E+00 0. -1.
         21    1    1    2  506  504 -0.42566230431E+02 -0.44932561222E+02 -0.68706558227E+03  0.68984776101E+03  0.00000000000E+00 0. -1.
<scales pt_clust_3="50.27727" pt_clust_4="71.07470" pt_clust_5="30.12533" pt_clust_6="14000.00000"></scales>
<clustering>
<clus scale="   30.125">  2  5  1 -1</clus>
<clus scale="   50.277">  1  3  2 -1</clus>
<clus scale="   71.075">  1  4  2 -1</clus>
<clus scale="   50.277">  1  3  2 -1</clus>
</clustering>
</event>
<event>
 6    0  0.8520634E+002  0.9066685E+02  0.7546771E-02  0.1301245E+00
         21   -1    0    0  506  501  0.00000000000E+00  0.00000000000E+00  0.78797720814E+03  0.78797720814E+03  0.00000000000E+00 0.  1.
         21   -1    0    0  505  502 -0.00000000000E+00 -0.00000000000E+00 -0.35914172657E+03  0.35914172657E+03  0.00000000000E+00 0. -1.
         21    1    1    2  503  502  0.67211423227E+02 -0.10120672101E+02 -0.26752217405E+03  0.27602158796E+03  0.00000000000E+00 0. -1.
         21    1    1    2  504  501  0.21500243221E+02 -0.23036907970E+02  0.65452796530E+03  0.65528605734E+03  0.00000000000E+00 0.  1.
         21    1    1    2  505  504 -0.27216844656E+02  0.10246254821E+03 -0.15068706007E+02  0.10708126035E+03  0.00000000000E+00 0. -1.
         21    1    1    2  506  503 -0.61494821791E+02 -0.69304968135E+02  0.56898396325E+02  0.10873002906E+03  0.00000000000E+00 0.  1.
<scales pt_clust_3="68.76050" pt_clust_4="31.51126" pt_clust_5="14000.00000" pt_clust_6="90.66685"></scales>
<clustering>
<clus scale="   31.511">  1  4  2 -1</clus>
<clus scale="   68.760">  2  3  1 -1</clus>
<clus scale="   90.667">  1  6  2 -1</clus>
<clus scale="   31.511">  1  3  2 -1</clus>
</clustering>
</event>
<event>
 6    0  0.8520634E+002  0.5463806E+02  0.7546771E-02  0.1421818E+00
         21   -1    0    0  506  501  0.00000000000E+00  0.00000000000E+00  0.17236196427E+03  0.17236196427E+03  0.00000000000E+00 0.  1.
         21   -1    0    0  504  502 -0.00000000000E+00 -0.00000000000E+00 -0.11730273567E+04  0.11730273567E+04  0.00000000000E+00 0. -1.
         21    1    1    2  503  502 -0.18875883079E+02  0.49720824676E+02 -0.10016707044E+04  0.10030815817E+04  0.00000000000E+00 0. -1.
         21    1    1    2  504  501  0.31604598166E+02  0.68403106972E+02  0.86304609127E+02  0.11457015853E+03  0.00000000000E+00 0.  1.
         21    1    1    2  505  503  0.70362838299E+01 -0.78644263499E+02 -0.13799689817E+03  0.15898922409E+03  0.00000000000E+00 0. -1.
         21    1    1    2  506  505 -0.19764998916E+02 -0.39479668149E+02  0.52697601093E+02  0.68748356637E+02  0.00000000000E+00 0.  1.
<scales pt_clust_3="14000.00000" pt_clust_4="35.67177" pt_clust_5="54.63806" pt_clust_6="44.15087"></scales>
<clustering>
<clus scale="   44.151">  1  6  2 -1</clus>
<clus scale="   35.672">  1  4  2 -1</clus>
<clus scale="   54.638">  1  5  2 -1</clus>
<clus scale="   44.151">  1  3  2 -1</clus>
</clustering>
</event>
<event>
 6    0  0.8520634E+002  0.1826106E+03  0.7546771E-02  0.1165300E+00
         21   -1    0    0  505  501  0.00000000000E+00  0.00000000000E+00  0.64347447138E+03  0.64347447138E+03  0.00000000000E+00 0.  1.
         21   -1    0    0  504  502 -0.00000000000E+00 -0.00000000000E+00 -0.20163225111E+04  0.20163225111E+04  0.00000000000E+00 0. -1.
         21    1    1    2  503  502 -0.58965362791E+02  0.41184595379E+02 -0.17911600378E+04  0.17926035161E+04  0.00000000000E+00 0. -1.
         21    1    1    2  504  506 -0.12703479960E+03 -0.10437781851E+03 -0.15598453245E+03  0.22663570697E+03  0.00000000000E+00 0.  1.
         21    1    1    2  505  503  0.24268735681E+02  0.39369767309E+02  0.39587890820E+03  0.39857127351E+03  0.00000000000E+00 0.  1.
         21    1    1    2  506  501  0.16173142671E+03  0.23823455824E+02  0.17841762229E+03  0.24198648594E+03  0.00000000000E+00 0.  1.
<scales pt_clust_3="71.93205" pt_clust_4="182.61060" pt_clust_5="46.24878" pt_clust_6="14000.00000"></scales>
<clustering>
<clus scale="   46.249">  1  5  2 -1</clus>
<clus scale="   71.932">  2  3  1 -1</clus>
<clus scale="  182.611">  2  4  1 -1</clus>
<clus scale="   46.249">  1  3  2 -1</clus>
</clustering>
</event>
<event>
 6    0  0.8520634E+002  0.7062250E+02  0.7546771E-02  0.1357989E+00
         21   -1    0    0  504  501  0.00000000000E+00  0.00000000000E+00  0.45282502557E+03  0.45282502557E+03  0.00000000000E+00 0.  1.
         21   -1    0    0  503  502 -0.00000000000E+00 -0.00000000000E+00 -0.18846960262E+03  0.18846960262E+03  0.00000000000E+00 0.  1.
         21    1    1    2  503  506  0.23952841873E+02 -0.35456293009E+02 -0.67832535496E+02  0.80200624807E+02  0.00000000000E+00 0.  1.
         21    1    1    2  504  502 -0.70301454840E+02  0.63149655968E+02 -0.60446961386E+02  0.11217846826E+03  0.00000000000E+00 0.  1.
         21    1    1    2  505  501 -0.33468285005E+02  0.37809134773E+02  0.31681615545E+03  0.32081479568E+03  0.00000000000E+00 0.  1.
         21    1    1    2  506  505  0.79816897972E+02 -0.65502497732E+02  0.75818764379E+02  0.12810073943E+03  0.00000000000E+00 0.  1.
<scales pt_clust_3="42.78887" pt_clust_4="70.62250" pt_clust_5="49.75311" pt_clust_6="14000.00000"></scales>
<clustering>
<clus scale="   42.789">  2  3  1 -1</clus>
<clus scale="   49.753">  1  5  2 -1</clus>
<clus scale="   70.623">  2  4  1 -1</clus>
<clus scale="   49.753">  1  3  2 -1</clus>
</clustering>
</event>
<event>
 6    0  0.8520634E+002  0.6883809E+02  0.7546771E-02  0.1364089E+00
         21   -1    0    0  503  501  0.00000000000E+00  0.00000000000E+00  0.18146352046E+03  0.18146352046E+03  0.00000000000E+00 0.  1.
         21   -1    0    0  506  502 -0.00000000000E+00 -0.00000000000E+00 -0.27155574525E+03  0.27155574525E+03  0.00000000000E+00 0.  1.
         21    1    1    2  503  504  0.46071464221E+02  0.72495161222E+02  0.30123594526E+02  0.91025046901E+02  0.00000000000E+00 0.  1.
         21    1    1    2  504  502 -0.32420697642E+02 -0.39068258509E+02 -0.15380515253E+02  0.53047061257E+02  0.00000000000E+00 0.  1.
         21    1    1    2  505  501 -0.62429963789E+02 -0.23928188391E+02  0.87599786078E+02  0.11019882531E+03  0.00000000000E+00 0.  1.
         21    1    1    2  506  505  0.48779197210E+02 -0.94987143213E+01 -0.19243509014E+03  0.19874833225E+03  0.00000000000E+00 0.  1.
<scales pt_clust_3="68.83809" pt_clust_4="44.58848" pt_clust_5="14000.00000" pt_clust_6="49.69543"></scales>
<clustering>
<clus scale="   49.695">  2  6  1 -1</clus>
<clus scale="   44.588">  2  4  1 -1</clus>
<clus scale="   68.838">  2  3  1 -1</clus>
<clus scale="   68.838">  1  3  2 -1</clus>
</clustering>
</event>
<event>
 6    0  0.1591929E+003  0.1095585E+03  0.7546771E-02  0.1261390E+00
         21   -1    0    0  505  501  0.00000000000E+00  0.00000000000E+00  0.77639515547E+03  0.77639515547E+03  0.00000000000E+00 0.  1.
         21   -1    0    0  504  502 -0.00000000000E+00 -0.00000000000E+00 -0.21199028560E+03  0.21199028560E+03  0.00000000000E+00 0.  1.
         21    1    1    2  503  502  0.54262254480E+02 -0.16567373285E+02 -0.17487132294E+03  0.18384463470E+03  0.00000000000E+00 0.  1.
         21    1    1    2  504  501 -0.78401504836E+02  0.60440979899E+02  0.65417616872E+03  0.66162403806E+03  0.00000000000E+00 0.  1.
         21    1    1    2  505  506 -0.34009805109E+02  0.71283894782E+01  0.41502998853E+02  0.54129286841E+02  0.00000000000E+00 0. -1.
         21    1    1    2  506  503  0.58149055465E+02 -0.51001996093E+02  0.43597025238E+02  0.88787481474E+02  0.00000000000E+00 0. -1.
<scales pt_clust_3="56.52196" pt_clust_4="109.55854" pt_clust_5="34.74882" pt_clust_6="14000.00000"></scales>
<clustering>
<clus scale="   34.749">  1  5  2 -1</clus>
<clus scale="   56.522">  2  3  1 -1</clus>
<clus scale="  109.559">  1  4  2 -1</clus>
<clus scale="   34.749">  1  3  2 -1</clus>
</clustering>
</event>
<event>
 6    0  0.8520634E+002  0.1733262E+03  0.7546771E-02  0.1174423E+00
         21   -1    0    0  503  501  0.00000000000E+00  0.00000000000E+00  0.50308655653E+03  0.50308655653E+03  0.00000000000E+00 0. -1.
         21   -1    0    0  506  502 -0.00000000000E+00 -0.00000000000E+00 -0.44587410263E+03  0.44587410263E+03  0.00000000000E+00 0.  1.
         21    1    1    2  503  502 -0.46396372865E+02  0.89402657680E+02  0.15343488731E+03  0.18354215663E+03  0.00000000000E+00 0. -1.
         21    1    1    2  504  505 -0.53189131217E+01  0.93165483618E+02 -0.13782734019E+02  0.94329539019E+02  0.00000000000E+00 0. -1.
         21    1    1    2  505  501 -0.41575691425E+02 -0.25163498018E+02  0.26980992025E+03  0.27415166024E+03  0.00000000000E+00 0.  1.
         21    1    1    2  506  504  0.93290977413E+02 -0.15740464328E+03 -0.35224961963E+03  0.39693730327E+03  0.00000000000E+00 0.  1.
<scales pt_clust_3="173.32617" pt_clust_4="89.66501" pt_clust_5="48.59773" pt_clust_6="14000.00000"></scales>
<clustering>
<clus scale="   48.598">  1  5  2 -1</clus>
<clus scale="   89.665">  1  4  2 -1</clus>
<clus scale="  173.326">  1  3  2 -1</clus>
<clus scale="   48.598">  1  3  2 -1</clus>
</clustering>
</event>
<event>
 6    0  0.8520634E+002  0.8157552E+02  0.7546771E-02  0.1324639E+00
         21   -1    0    0  504  501  0.00000000000E+00  0.00000000000E+00  0.26919130135E+04  0.26919130135E+04  0.00000000000E+00 0.  1.
         21   -1    0    0  503  502 -0.00000000000E+00 -0.00000000000E+00 -0.30152971617E+03  0.30152971617E+03  0.00000000000E+00 0. -1.
         21    1    1    2  503  506  0.50424681119E+02  0.50879448547E+02 -0.28196075132E+03  0.29091791289E+03  0.00000000000E+00 0. -1.
         21    1    1    2  504  505 -0.26307359500E+02 -0.68108723403E+02  0.64438799975E+03  0.64851119465E+03  0.00000000000E+00 0.  1.
         21    1    1    2  505  502 -0.74381396193E+02  0.46151915612E+02  0.13964941029E+03  0.16481671398E+03  0.00000000000E+00 0.  1.
         21    1    1    2  506  501  0.50264074575E+02 -0.28922640756E+02  0.18883066386E+04  0.18891969081E+04  0.00000000000E+00 0.  1.
<scales pt_clust_3="71.71699" pt_clust_4="14000.00000" pt_clust_5="81.57552" pt_clust_6="57.99135"></scales>
<clustering>
<clus scale="   57.991">  1  6  2 -1</clus>
<clus scale="   71.717">  2  3  1 -1</clus>
<clus scale="   81.576">  2  5  1 -1</clus>
<clus scale="   57.991">  1  3  2 -1</clus>
</clustering>
</event>
<event>
 6    0  0.8520634E+002  0.1483801E+03  0.7546771E-02  0.1202478E+00
         21   -1    0    0  503  501  0.00000000000E+00  0.00000000000E+00  0.20854840640E+03  0.20854840640E+03  0.00000000000E+00 0. -1.
         21   -1    0    0  504  502 -0.00000000000E+00 -0.00000000000E+00 -0.41781854596E+03  0.41781854596E+03  0.00000000000E+00 0. -1.
         21    1    1    2  503  502 -0.70617893264E+02 -0.16109669120E+02  0.14157108160E+03  0.15902446174E+03  0.00000000000E+00 0. -1.
         21    1    1    2  504  506  0.16465708146E+03 -0.20108992731E+01 -0.31261646431E+03  0.35333419301E+03  0.00000000000E+00 0. -1.
         21    1    1    2  505  501 -0.55975933952E+02  0.26186328833E+02 -0.35649971318E+01  0.61901035566E+02  0.00000000000E+00 0. -1.
         21    1    1    2  506  505 -0.38063254240E+02 -0.80657604401E+01 -0.34659759713E+02  0.52107262049E+02  0.00000000000E+00 0. -1.
<scales pt_clust_3="72.43209" pt_clust_4="140.18422" pt_clust_5="38.58803" pt_clust_6="38.58803"></scales>
<clustering>
<clus scale="   38.588">  5  6 -1 -1</clus>
<clus scale="   72.432">  1  3  2 -1</clus>
<clus scale="  140.184">  2  4  1 -1</clus>
<clus scale="   72.432">  1  3  2 -1</clus>
</clustering>
</event>
<event>
 6    0  0.8934963E+002  0.1864312E+03  0.7546771E-02  0.1161720E+00
         21   -1    0    0  504  501  0.00000000000E+00  0.00000000000E+00  0.49770571189E+03  0.49770571189E+03  0.00000000000E+00 0.  1.
         21   -1    0    0  506  502 -0.00000000000E+00 -0.00000000000E+00 -0.28450604843E+04  0.28450604843E+04  0.00000000000E+00 0.  1.
         21    1    1    2  503  505  0.47561150652E+02  0.44054996979E+02  0.11053141367E+03  0.12814093498E+03  0.00000000000E+00 0.  1.
         21    1    1    2  504  503  0.96988558518E+02  0.66085417049E+02  0.35621503978E+03  0.37505095306E+03  0.00000000000E+00 0.  1.
         21    1    1    2  505  502 -0.13280763460E+03 -0.59524021815E+02 -0.41267745466E+03  0.43758845798E+03  0.00000000000E+00 0.  1.
         21    1    1    2  506  501 -0.11742074575E+02 -0.50616392212E+02 -0.24014237712E+04  0.24019858502E+04  0.00000000000E+00 0.  1.
<scales pt_clust_3="35.83171" pt_clust_4="35.83171" pt_clust_5="180.08966" pt_clust_6="51.96052"></scales>
<clustering>
<clus scale="   35.832">  3  4 -1 -1</clus>
<clus scale="   51.961">  2  6  1 -1</clus>
<clus scale="  180.090">  2  5  1 -1</clus>
<clus scale="  186.431">  1  3  2 -1</clus>
</clustering>
</event>
<event>
 6    0  0.8520634E+002  0.9417345E+02  0.7546771E-02  0.1293049E+00
         21   -1    0    0  505  501  0.00000000000E+00  0.00000000000E+00  0.91443220244E+03  0.91443220244E+03  0.00000000000E+00 0. -1.
         21   -1    0    0  504  502 -0.00000000000E+00 -0.00000000000E+00 -0.12117723001E+03  0.12117723001E+03  0.00000000000E+00 0. -1.
         21    1    1    2  503  501  0.24135628605E+02 -0.42729723328E+02  0.41191537880E+03  0.41482844300E+03  0.00000000000E+00 0. -1.
         21    1    1    2  504  506 -0.85141381252E+02  0.64620033680E+02  0.91492021447E+01  0.10727773047E+03  0.00000000000E+00 0. -1.
         21    1    1    2  505  502 -0.11334738167E+02 -0.44103092787E+02 -0.59671385970E+02  0.75061530668E+02  0.00000000000E+00 0. -1.
         21    1    1    2  506  503  0.72340490814E+02  0.22212782435E+02  0.43186177745E+03  0.43844172832E+03  0.00000000000E+00 0. -1.
<scales pt_clust_3="49.97085" pt_clust_4="94.17345" pt_clust_5="45.53635" pt_clust_6="14000.00000"></scales>
<clustering>
<clus scale="   45.536">  2  5  1 -1</clus>
<clus scale="   49.971">  1  3  2 -1</clus>
<clus scale="   94.173">  2  4  1 -1</clus>
<clus scale="   49.971">  1  3  2 -1</clus>
</clustering>
</event>
<event>
 6    0  0.8520634E+002  0.1129566E+03  0.7546771E-02  0.1255191E+00
         21   -1    0    0  503  501  0.00000000000E+00  0.00000000000E+00  0.69601620720E+03  0.69601620720E+03  0.00000000000E+00 0. -1.
         21   -1    0    0  505  502 -0.00000000000E+00 -0.00000000000E+00 -0.12736299016E+03  0.12736299016E+03  0.00000000000E+00 0. -1.
         21    1    1    2  503  506 -0.11242584406E+03  0.37153592929E+01  0.42437066297E+03  0.43902600594E+03  0.00000000000E+00 0. -1.
         21    1    1    2  504  501  0.48769819428E+02 -0.93321311035E+02  0.99317164369E+02  0.14474550604E+03  0.00000000000E+00 0. -1.
         21    1    1    2  505  504 -0.47294080863E+01 -0.32040409521E+02 -0.57831180403E+02  0.66282732065E+02  0.00000000000E+00 0. -1.
         21    1    1    2  506  502  0.68385432715E+02  0.12164636126E+03  0.10279657011E+03  0.17332495332E+03  0.00000000000E+00 0. -1.
<scales pt_clust_3="112.95657" pt_clust_4="105.80107" pt_clust_5="32.38758" pt_clust_6="14000.00000"></scales>
<clustering>
<clus scale="   32.388">  2  5  1 -1</clus>
<clus scale="  112.957">  1  3  2 -1</clus>
<clus scale="  105.801">  1  4  2 -1</clus>
<clus scale="  112.957">  1  3  2 -1</clus>
</clustering>
</event>
<event>
 6    0  0.8520634E+002  0.1914374E+03  0.7546771E-02  0.1157171E+00
         21   -1    0    0  506  501  0.00000000000E+00  0.00000000000E+00  0.74296592365E+03  0.74296592365E+03  0.00000000000E+00 0.  1.
         21   -1    0    0  503  502 -0.00000000000E+00 -0.00000000000E+00 -0.45066291901E+03  0.45066291901E+03  0.00000000000E+00 0.  1.
         21    1    1    2  503  501  0.59502453211E+02  0.16195616767E+03 -0.38045024870E+03  0.41774721294E+03  0.00000000000E+00 0.  1.
         21    1    1    2  504  505 -0.12673062078E+03 -0.12558939976E+03  0.53802918034E+03  0.56684102399E+03  0.00000000000E+00 0.  1.
         21    1    1    2  505  502  0.51220496987E+02 -0.28540757075E+01 -0.16055972214E+02  0.53753877101E+02  0.00000000000E+00 0. -1.
         21    1    1    2  506  504  0.16007670581E+02 -0.33512692201E+02  0.15078004521E+03  0.15528672863E+03  0.00000000000E+00 0.  1.
<scales pt_clust_3="14000.00000" pt_clust_4="191.43744" pt_clust_5="51.88063" pt_clust_6="37.13955"></scales>
<clustering>
<clus scale="   37.140">  1  6  2 -1</clus>
<clus scale="   51.881">  2  5  1 -1</clus>
<clus scale="  191.437">  1  4  2 -1</clus>
<clus scale="   37.140">  1  3  2 -1</clus>
</clustering>
</event>
<event>
 6    0  0.8520634E+002  0.1013218E+03  0.7546771E-02  0.1277541E+00
         21   -1    0    0  506  501  0.00000000000E+00  0.00000000000E+00  0.22656484427E+03  0.22656484427E+03  0.00000000000E+00 0.  1.
         21   -1    0    0  505  502 -0.00000000000E+00 -0.00000000000E+00 -0.77904175868E+03  0.77904175868E+03  0.00000000000E+00 0.  1.
         21    1    1    2  503  502  0.12715142520E+02 -0.37043867592E+02 -0.24256153049E+03  0.24570311159E+03  0.00000000000E+00 0.  1.
         21    1    1    2  504  501  0.21250034655E+02 -0.99059906054E+02  0.19596939840E+03  0.22060923387E+03  0.00000000000E+00 0.  1.
         21    1    1    2  505  504  0.14146903142E+02  0.10678736000E+03 -0.43811717160E+03  0.45116552525E+03  0.00000000000E+00 0.  1.
         21    1    1    2  506  503 -0.48112080317E+02  0.29316413645E+02 -0.67767610724E+02  0.88128732231E+02  0.00000000000E+00 0.  1.
<scales pt_clust_3="39.16533" pt_clust_4="101.32176" pt_clust_5="14000.00000" pt_clust_6="52.07686"></scales>
<clustering>
<clus scale="   39.165">  2  3  1 -1</clus>
<clus scale="   52.077">  2  6  1 -1</clus>
<clus scale="  101.322">  1  4  2 -1</clus>
<clus scale="  101.322">  1  3  2 -1</clus>
</clustering>
</event>
<event>
 6    0  0.8520634E+002  0.1049005E+03  0.7546771E-02  0.1270316E+00
         21   -1    0    0  503  501  0.00000000000E+00  0.00000000000E+00  0.37818462316E+03  0.37818462316E+03  0.00000000000E+00 0.  1.
         21   -1    0    0  506  502 -0.00000000000E+00 -0.00000000000E+00 -0.71720354194E+02  0.71720354194E+02  0.00000000000E+00 0.  1.
         21    1    1    2  503  505  0.69861618083E+02  0.51776794884E+02  0.16600222195E+03  0.18739855886E+03  0.00000000000E+00 0.  1.
         21    1    1    2  504  502 -0.58239097124E+02  0.46784900702E+02  0.31361631699E+02  0.81019573625E+02  0.00000000000E+00 0.  1.
         21    1    1    2  505  504 -0.42355268363E+02 -0.46567057131E+01  0.15376139249E+02  0.45299882167E+02  0.00000000000E+00 0. -1.
         21    1    1    2  506  501  0.30732747404E+02 -0.93904989874E+02  0.93724276069E+02  0.13618696271E+03  0.00000000000E+00 0.  1.
<scales pt_clust_3="86.95678" pt_clust_4="32.73072" pt_clust_5="32.73072" pt_clust_6="95.52981"></scales>
<clustering>
<clus scale="   32.731">  4  5 -1 -1</clus>
<clus scale="   86.957">  1  3  2 -1</clus>
<clus scale="   95.530">  1  6  2 -1</clus>
<clus scale="   86.957">  1  3  2 -1</clus>
</clustering>
</event>
<event>
 6    0  0.8520634E+002  0.9225165E+02  0.7546771E-02  0.1297489E+00
         21   -1    0    0  505  501  0.00000000000E+00  0.00000000000E+00  0.92154277013E+02  0.92154277013E+02  0.00000000000E+00 0.  1.
         21   -1    0    0  503  502 -0.00000000000E+00 -0.00000000000E+00 -0.56978402184E+03  0.56978402184E+03  0.00000000000E+00 0. -1.
         21    1    1    2  503  504 -0.44206149653E+02  0.33984764402E+02 -0.16416235032E+03  0.17337365758E+03  0.00000000000E+00 0. -1.
         21    1    1    2  504  501 -0.44311809435E+02 -0.82684039885E+02  0.47637407454E+02  0.10521173649E+03  0.00000000000E+00 0.  1.
         21    1    1    2  505  506  0.50719632105E+02  0.58137961953E+02 -0.30783987559E+03  0.31736082415E+03  0.00000000000E+00 0. -1.
         21    1    1    2  506  502  0.37798326983E+02 -0.94386864705E+01 -0.53264926370E+02  0.65992080633E+02  0.00000000000E+00 0.  1.
<scales pt_clust_3="44.24349" pt_clust_4="14000.00000" pt_clust_5="92.25165" pt_clust_6="38.95898"></scales>
<clustering>
<clus scale="   38.959">  2  6  1 -1</clus>
<clus scale="   44.243">  2  3  1 -1</clus>
<clus scale="   92.252">  2  5  1 -1</clus>
<clus scale="   92.252">  1  3  2 -1</clus>
</clustering>
</event>
<event>
 6    0  0.8520634E+002  0.6631337E+02  0.7546771E-02  0.1373098E+00
         21   -1    0    0  504  501  0.00000000000E+00  0.00000000000E+00  0.17891342406E+03  0.17891342406E+03  0.00000000000E+00 0.  1.
         21   -1    0    0  505  502 -0.00000000000E+00 -0.00000000000E+00 -0.39958824317E+03  0.39958824317E+03  0.00000000000E+00 0.  1.
         21    1    1    2  503  502 -0.51374717898E+02 -0.65696626295E+02 -0.22316349683E+03  0.23823802103E+03  0.00000000000E+00 0.  1.
         21    1    1    2  504  506 -0.26175950975E+02  0.60821772049E+02  0.10588303032E+03  0.12488268284E+03  0.00000000000E+00 0.  1.
         21    1    1    2  505  501  0.23335720934E+02  0.51860999876E+02 -0.12757241267E+03  0.13967404789E+03  0.00000000000E+00 0.  1.
         21    1    1    2  506  503  0.54214947939E+02 -0.46986145630E+02  0.24178060069E+02  0.75706915470E+02  0.00000000000E+00 0. -1.
<scales pt_clust_3="37.39318" pt_clust_4="14000.00000" pt_clust_5="56.86932" pt_clust_6="66.31337"></scales>
<clustering>
<clus scale="   56.869">  2  5  1 -1</clus>
<clus scale="   37.393">  2  3  1 -1</clus>
<clus scale="   66.313">  2  6  1 -1</clus>
<clus scale="   66.313">  1  3  2 -1</clus>
</clustering>
</event>
<event>
 6    0  0.8520634E+002  0.1837997E+03  0.7546771E-02  0.1164176E+00
         21   -1    0    0  503  501  0.00000000000E+00  0.00000000000E+00  0.65400681090E+03  0.65400681090E+03  0.00000000000E+00 0.  1.
         21   -1    0    0  504  502 -0.00000000000E+00 -0.00000000000E+00 -0.41199155043E+03  0.41199155043E+03  0.00000000000E+00 0.  1.
         21    1    1    2  503  505  0.19685857871E+02  0.32352086476E+02  0.28887429758E+03  0.29134610055E+03  0.00000000000E+00 0.  1.
         21    1    1    2  504  506  0.28357485138E+02  0.23293622070E+02 -0.12004718933E+03  0.12553114139E+03  0.00000000000E+00 0.  1.
         21    1    1    2  505  502 -0.19849552170E+03 -0.94373341252E+02 -0.22397256437E+03  0.31380011036E+03  0.00000000000E+00 0.  1.
         21    1    1    2  506  501  0.15045217869E+03  0.38727632706E+02  0.29716071659E+03  0.33532100902E+03  0.00000000000E+00 0.  1.
<scales pt_clust_3="38.01878" pt_clust_4="36.69795" pt_clust_5="183.79967" pt_clust_6="14000.00000"></scales>
<clustering>
<clus scale="   36.698">  2  4  1 -1</clus>
<clus scale="   38.019">  1  3  2 -1</clus>
<clus scale="  183.800">  2  5  1 -1</clus>
<clus scale="   38.019">  1  3  2 -1</clus>
</clustering>
</event>
<event>
 6    0  0.8520634E+002  0.1552221E+03  0.7546771E-02  0.1194199E+00
         21   -1    0    0  506  501  0.00000000000E+00  0.00000000000E+00  0.21771025648E+03  0.21771025648E+03  0.00000000000E+00 0.  1.
         21   -1    0    0  503  502 -0.00000000000E+00 -0.00000000000E+00 -0.35925144075E+03  0.35925144075E+03  0.00000000000E+00 0.  1.
         21    1    1    2  503  504 -0.14628078692E+03 -0.23821350248E+02 -0.80136527431E+02  0.16848557321E+03  0.00000000000E+00 0.  1.
         21    1    1    2  504  505  0.14687521899E+03  0.10288182471E+03  0.21065041298E+02  0.18055673838E+03  0.00000000000E+00 0.  1.
         21    1    1    2  505  501 -0.43203465989E+02  0.12184670903E+02  0.46273571545E+02  0.64468977827E+02  0.00000000000E+00 0.  1.
         21    1    1    2  506  502  0.42609033918E+02 -0.91245145362E+02 -0.12874326969E+03  0.16345040781E+03  0.00000000000E+00 0.  1.
<scales pt_clust_3="14000.00000" pt_clust_4="155.22211" pt_clust_5="44.88881" pt_clust_6="97.63694"></scales>
<clustering>
<clus scale="   44.889">  1  5  2 -1</clus>
<clus scale="   97.637">  2  6  1 -1</clus>
<clus scale="  155.222">  1  4  2 -1</clus>
<clus scale="   44.889">  1  3  2 -1</clus>
</clustering>
</event>
<event>
 6    0  0.8520634E+002  0.1151321E+03  0.7546771E-02  0.1251351E+00
         21   -1    0    0  505  501  0.00000000000E+00  0.00000000000E+00  0.17223685496E+03  0.17223685496E+03  0.00000000000E+00 0.  1.
         21   -1    0    0  504  502 -0.00000000000E+00 -0.00000000000E+00 -0.15313755471E+04  0.15313755471E+04  0.00000000000E+00 0.  1.
         21    1    1    2  503  501 -0.53982216625E+02  0.56484682237E+02  0.19842981094E+01  0.78157126854E+02  0.00000000000E+00 0. -1.
         21    1    1    2  504  503  0.10020448991E+02 -0.11804663716E+03 -0.14050715464E+04  0.14100572572E+04  0.00000000000E+00 0.  1.
         21    1    1    2  505  506 -0.58151662779E+01  0.43998945300E+02  0.11707852673E+03  0.12520824561E+03  0.00000000000E+00 0.  1.
         21    1    1    2  506  502  0.49776933912E+02  0.17563009625E+02 -0.73129970562E+02  0.90189772431E+02  0.00000000000E+00 0.  1.
<scales pt_clust_3="14000.00000" pt_clust_4="115.13210" pt_clust_5="44.38157" pt_clust_6="54.79480"></scales>
<clustering>
<clus scale="   44.382">  1  5  2 -1</clus>
<clus scale="   54.795">  1  6  2 -1</clus>
<clus scale="  115.132">  2  4  1 -1</clus>
<clus scale="   44.382">  1  3  2 -1</clus>
</clustering>
</event>
<event>
 6    0  0.8520634E+002  0.1484533E+03  0.7546771E-02  0.1202387E+00
         21   -1    0    0  502  501  0.00000000000E+00  0.00000000000E+00  0.21301407979E+03  0.21301407979E+03  0.00000000000E+00 0.  1.
         21   -1    0    0  506  502 -0.00000000000E+00 -0.00000000000E+00 -0.83328459817E+03  0.83328459817E+03  0.00000000000E+00 0.  1.
         21    1    1    2  503  501 -0.22030210091E+02 -0.28525209240E+02  0.91127833837E+02  0.97996427581E+02  0.00000000000E+00 0. -1.
         21    1    1    2  504  503 -0.96630689307E+02 -0.63620494252E+02  0.60332228519E+02  0.13048001840E+03  0.00000000000E+00 0.  1.
         21    1    1    2  505  504  0.12961964384E+03  0.15685049706E+03 -0.54338240503E+03  0.58023078908E+03  0.00000000000E+00 0.  1.
         21    1    1    2  506  505 -0.10958744438E+02 -0.64704793569E+02 -0.22834817571E+03  0.23759144290E+03  0.00000000000E+00 0. -1.
<scales pt_clust_3="36.04189" pt_clust_4="148.45332" pt_clust_5="14000.00000" pt_clust_6="66.87039"></scales>
<clustering>
<clus scale="   36.042">  1  3  2 -1</clus>
<clus scale="   66.870">  2  6  1 -1</clus>
<clus scale="  148.453">  1  4  2 -1</clus>
<clus scale="   36.042">  1  3  2 -1</clus>
</clustering>
</event>
<event>
 6    0  0.8520634E+002  0.1272089E+03  0.7546771E-02  0.1231657E+00
         21   -1    0    0  502  501  0.00000000000E+00  0.00000000000E+00  0.47837671833E+03  0.47837671833E+03  0.00000000000E+00 0.  1.
         21   -1    0    0  506  502 -0.00000000000E+00 -0.00000000000E+00 -0.10397283866E+03  0.10397283866E+03  0.00000000000E+00 0.  1.
         21    1    1    2  503  504  0.52386490608E+02 -0.46252926484E+01  0.22095861534E+02  0.57043534491E+02  0.00000000000E+00 0.  1.
         21    1    1    2  504  501 -0.22713868529E+02 -0.27173524363E+02  0.26915800743E+03  0.27147808974E+03  0.00000000000E+00 0.  1.
         21    1    1    2  505  503  0.80723534758E+02  0.29921743583E+02  0.11050080037E+03  0.14007864465E+03  0.00000000000E+00 0.  1.
         21    1    1    2  506  505 -0.11039615684E+03  0.18770734282E+01 -0.27350789668E+02  0.11374928811E+03  0.00000000000E+00 0.  1.
<scales pt_clust_3="45.73788" pt_clust_4="35.41638" pt_clust_5="45.73788" pt_clust_6="115.17379"></scales>
<clustering>
<clus scale="   35.416">  1  4  2 -1</clus>
<clus scale="   45.738">  3  5 -1 -1</clus>
<clus scale="  115.174">  2  6  1 -1</clus>
<clus scale="   35.416">  1  3  2 -1</clus>
</clustering>
</event>
<event>
 6    0  0.8520634E+002  0.9821898E+02  0.7546771E-02  0.1284086E+00
         21   -1    0    0  505  501  0.00000000000E+00  0.00000000000E+00  0.23281855336E+03  0.23281855336E+03  0.00000000000E+00 0. -1.
         21   -1    0    0  506  502 -0.00000000000E+00 -0.00000000000E+00 -0.13112385053E+03  0.13112385053E+03  0.00000000000E+00 0. -1.
         21    1    1    2  503  504  0.12006692342E+03 -0.15376886704E+02  0.38497096618E+02  0.12702181384E+03  0.00000000000E+00 0. -1.
         21    1    1    2  504  502 -0.90193209971E+02  0.71453370998E+01 -0.44402554048E+02  0.10078421391E+03  0.00000000000E+00 0. -1.
         21    1    1    2  505  503 -0.22715105975E+02  0.37896321433E+02  0.91556367248E+02  0.10165960654E+03  0.00000000000E+00 0. -1.
         21    1    1    2  506  501 -0.71586074714E+01 -0.29664771829E+02  0.16043793013E+02  0.34476769611E+02  0.00000000000E+00 0. -1.
<scales pt_clust_3="98.21898" pt_clust_4="14000.00000" pt_clust_5="35.47849" pt_clust_6="30.51630"></scales>
<clustering>
<clus scale="   30.516">  1  6  2 -1</clus>
<clus scale="   35.478">  1  5  2 -1</clus>
<clus scale="   98.219">  1  3  2 -1</clus>
<clus scale="   30.516">  1  3  2 -1</clus>
</clustering>
</event>
<event>
 6    0  0.8520634E+002  0.1093718E+03  0.7546771E-02  0.1261738E+00
         21   -1    0    0  503  501  0.00000000000E+00  0.00000000000E+00  0.60470716830E+03  0.60470716830E+03  0.00000000000E+00 0.  1.
         21   -1    0    0  504  502 -0.00000000000E+00 -0.00000000000E+00 -0.14173517941E+03  0.14173517941E+03  0.00000000000E+00 0.  1.
         21    1    1    2  503  506  0.61383689848E+02 -0.16687483518E+02  0.17826749281E+03  0.18927685669E+03  0.00000000000E+00 0. -1.
         21    1    1    2  504  505 -0.10613934672E+03  0.32226644851E+02 -0.77558673138E+02  0.13534941943E+03  0.00000000000E+00 0.  1.
         21    1    1    2  505  501  0.23439963758E+02 -0.67318833211E+02  0.35869241891E+03  0.36570686156E+03  0.00000000000E+00 0.  1.
         21    1    1    2  506  502  0.21315693117E+02  0.51779671878E+02  0.35707503059E+01  0.56109210034E+02  0.00000000000E+00 0.  1.
<scales pt_clust_3="63.99941" pt_clust_4="109.37176" pt_clust_5="14000.00000" pt_clust_6="55.99547"></scales>
<clustering>
<clus scale="   55.995">  2  6  1 -1</clus>
<clus scale="   63.999">  1  3  2 -1</clus>
<clus scale="  109.372">  2  4  1 -1</clus>
<clus scale="   63.999">  1  3  2 -1</clus>
</clustering>
</event>
<event>
 6    0  0.8520634E+002  0.1065029E+03  0.7546771E-02  0.1267187E+00
         21   -1    0    0  503  501  0.00000000000E+00  0.00000000000E+00  0.27961856202E+03  0.27961856202E+03  0.00000000000E+00 0. -1.
         21   -1    0    0  505  502 -0.00000000000E+00 -0.00000000000E+00 -0.30539167135E+03  0.30539167135E+03  0.00000000000E+00 0.  1.
         21    1    1    2  503  504  0.79580416923E+02 -0.45868810262E+02  0.10217686581E+03  0.13739396792E+03  0.00000000000E+00 0. -1.
         21    1    1    2  504  502 -0.59461758508E+01 -0.38149788453E+02 -0.11389638291E+02  0.40255275761E+02  0.00000000000E+00 0.  1.
         21    1    1    2  505  506  0.60384149081E+02  0.50483175263E+02 -0.22072707159E+03  0.23434000208E+03  0.00000000000E+00 0.  1.
         21    1    1    2  506  501 -0.13401839015E+03  0.33535423452E+02  0.10416673474E+03  0.17302098761E+03  0.00000000000E+00 0.  1.
<scales pt_clust_3="106.50289" pt_clust_4="38.61040" pt_clust_5="58.84643" pt_clust_6="14000.00000"></scales>
<clustering>
<clus scale="   38.610">  2  4  1 -1</clus>
<clus scale="   58.846">  2  5  1 -1</clus>
<clus scale="  106.503">  1  3  2 -1</clus>
<clus scale="  106.503">  1  3  2 -1</clus>
</clustering>
</event>
<event>
 6    0  0.8520634E+002  0.1127339E+03  0.7546771E-02  0.1255589E+00
         21   -1    0    0  505  501  0.00000000000E+00  0.00000000000E+00  0.18295520481E+04  0.18295520481E+04  0.00000000000E+00 0.  1.
         21   -1    0    0  504  502 -0.00000000000E+00 -0.00000000000E+00 -0.44392287552E+02  0.44392287552E+02  0.00000000000E+00 0.  1.
         21    1    1    2  503  502  0.65002162010E+02 -0.69910610553E+02  0.39200555515E+02  0.10319621159E+03  0.00000000000E+00 0.  1.
         21    1    1    2  504  501  0.51405149039E+02  0.38045538085E+02  0.10491868493E+03  0.12287344206E+03  0.00000000000E+00 0.  1.
         21    1    1    2  505  506 -0.29769040653E+02 -0.22627494125E+02  0.75811926287E+03  0.75904085266E+03  0.00000000000E+00 0.  1.
         21    1    1    2  506  503 -0.86638270396E+02  0.54492566594E+02  0.88292125719E+03  0.88883382930E+03  0.00000000000E+00 0.  1.
<scales pt_clust_3="112.73387" pt_clust_4="59.97645" pt_clust_5="37.39250" pt_clust_6="14000.00000"></scales>
<clustering>
<clus scale="   37.393">  1  5  2 -1</clus>
<clus scale="   59.976">  2  4  1 -1</clus>
<clus scale="  112.734">  2  3  1 -1</clus>
<clus scale="   37.393">  1  3  2 -1</clus>
</clustering>
</event>
<event>
 6    0  0.8520634E+002  0.1228853E+03  0.7546771E-02  0.1238412E+00
         21   -1    0    0  505  501  0.00000000000E+00  0.00000000000E+00  0.11387602102E+03  0.11387602102E+03  0.00000000000E+00 0. -1.
         21   -1    0    0  504  502 -0.00000000000E+00 -0.00000000000E+00 -0.51574967748E+03  0.51574967748E+03  0.00000000000E+00 0. -1.
         21    1    1    2  503  506 -0.29009122580E+02 -0.43272125064E+02 -0.25885173551E+00  0.52096765779E+02  0.00000000000E+00 0. -1.
         21    1    1    2  504  501 -0.13503943497E+02  0.11688427771E+03  0.85519660512E+01  0.11797214497E+03  0.00000000000E+00 0. -1.
         21    1    1    2  505  503 -0.91693885141E+01 -0.71676317057E+02 -0.34014888782E+02  0.79866042668E+02  0.00000000000E+00 0. -1.
         21    1    1    2  506  502  0.51682454591E+02 -0.19358355895E+01 -0.37615188199E+03  0.37969074508E+03  0.00000000000E+00 0. -1.
<scales pt_clust_3="33.63019" pt_clust_4="116.32733" pt_clust_5="33.63019" pt_clust_6="51.71870"></scales>
<clustering>
<clus scale="   33.630">  3  5 -1 -1</clus>
<clus scale="   51.719">  2  6  1 -1</clus>
<clus scale="  116.327">  1  4  2 -1</clus>
<clus scale="  116.327">  1  3  2 -1</clus>
</clustering>
</event>
<event>
 6    0  0.8520634E+002  0.6829759E+02  0.7546771E-02  0.1365980E+00
         21   -1    0    0  506  501  0.00000000000E+00  0.00000000000E+00  0.26898061612E+03  0.26898061612E+03  0.00000000000E+00 0.  1.
         21   -1    0    0  505  502 -0.00000000000E+00 -0.00000000000E+00 -0.19363541346E+03  0.19363541346E+03  0.00000000000E+00 0.  1.
         21    1    1    2  503  504  0.72989912736E+01 -0.10628085010E+03 -0.13409740839E+03  0.17126298290E+03  0.00000000000E+00 0.  1.
         21    1    1    2  504  501 -0.25059308236E+02  0.36954125478E+02  0.57153530073E+02  0.72526562851E+02  0.00000000000E+00 0.  1.
         21    1    1    2  505  503 -0.34499533661E+02  0.40765614027E+02 -0.20001874867E+01  0.53442060775E+02  0.00000000000E+00 0.  1.
         21    1    1    2  506  502  0.52259850624E+02  0.28561110598E+02  0.15428926847E+03  0.16538442306E+03  0.00000000000E+00 0.  1.
<scales pt_clust_3="14000.00000" pt_clust_4="44.64948" pt_clust_5="59.00147" pt_clust_6="68.29759"></scales>
<clustering>
<clus scale="   44.649">  1  4  2 -1</clus>
<clus scale="   59.001">  2  5  1 -1</clus>
<clus scale="   68.298">  1  6  2 -1</clus>
<clus scale="   44.649">  1  3  2 -1</clus>
</clustering>
</event>
<event>
 6    0  0.8520634E+002  0.7852856E+02  0.7546771E-02  0.1333280E+00
         21   -1    0    0  506  501  0.00000000000E+00  0.00000000000E+00  0.16875039518E+04  0.16875039518E+04  0.00000000000E+00 0. -1.
         21   -1    0    0  505  502 -0.00000000000E+00 -0.00000000000E+00 -0.17799257990E+03  0.17799257990E+03  0.00000000000E+00 0. -1.
         21    1    1    2  503  502 -0.89240832457E+02 -0.61412079668E+02  0.80678700933E+03  0.81402742468E+03  0.00000000000E+00 0. -1.
         21    1    1    2  504  501  0.39065297139E+02  0.54923502611E+01  0.76591766085E+02  0.86154291732E+02  0.00000000000E+00 0. -1.
         21    1    1    2  505  504  0.58539882826E+02 -0.18256806707E+02 -0.16222674159E+03  0.17342936476E+03  0.00000000000E+00 0. -1.
         21    1    1    2  506  503 -0.83643475083E+01  0.74176536114E+02  0.78835933805E+03  0.79188545050E+03  0.00000000000E+00 0. -1.
<scales pt_clust_3="78.52856" pt_clust_4="39.44950" pt_clust_5="61.44509" pt_clust_6="14000.00000"></scales>
<clustering>
<clus scale="   39.450">  1  4  2 -1</clus>
<clus scale="   61.445">  2  5  1 -1</clus>
<clus scale="   78.529">  2  3  1 -1</clus>
<clus scale="   39.450">  1  3  2 -1</clus>
</clustering>
</event>
<event>
 6    0  0.8520634E+002  0.6972580E+02  0.7546771E-02  0.1361028E+00
         21   -1    0    0  503  501  0.00000000000E+00  0.00000000000E+00  0.44451777989E+02  0.44451777989E+02  0.00000000000E+00 0. -1.
         21   -1    0    0  504  502 -0.00000000000E+00 -0.00000000000E+00 -0.64386578320E+03  0.64386578320E+03  0.00000000000E+00 0.  1.
         21    1    1    2  503  505  0.11464998291E+02  0.58349198118E+02 -0.18528858161E+02  0.62284778972E+02  0.00000000000E+00 0.  1.
         21    1    1    2  504  501 -0.39380751880E+02 -0.12449826460E+03 -0.21930742389E+03  0.25523794326E+03  0.00000000000E+00 0. -1.
         21    1    1    2  505  506  0.67048703970E+01  0.44334699558E+02 -0.13664798381E+03  0.14381652322E+03  0.00000000000E+00 0.  1.
         21    1    1    2  506  502  0.21210883192E+02  0.21814366923E+02 -0.22492973935E+03  0.22697831573E+03  0.00000000000E+00 0.  1.
<scales pt_clust_3="14000.00000" pt_clust_4="69.72580" pt_clust_5="53.47200" pt_clust_6="30.42644"></scales>
<clustering>
<clus scale="   30.426">  2  6  1 -1</clus>
<clus scale="   53.472">  2  5  1 -1</clus>
<clus scale="   69.726">  2  4  1 -1</clus>
<clus scale="   69.726">  1  3  2 -1</clus>
</clustering>
</event>
<event>
 6    0  0.8520634E+002  0.8617957E+02  0.7546771E-02  0.1312376E+00
         21   -1    0    0  506  501  0.00000000000E+00  0.00000000000E+00  0.10368469378E+04  0.10368469378E+04  0.00000000000E+00 0. -1.
         21   -1    0    0  503  502 -0.00000000000E+00 -0.00000000000E+00 -0.88996862235E+02  0.88996862235E+02  0.00000000000E+00 0. -1.
         21    1    1    2  503  505 -0.21892082562E+02 -0.81854910887E+02 -0.28709727620E+02  0.89463613694E+02  0.00000000000E+00 0. -1.
         21    1    1    2  504  502 -0.77770346458E+02  0.73342073305E+02  0.10562749750E+03  0.15028125210E+03  0.00000000000E+00 0. -1.
         21    1    1    2  505  501  0.48393758093E+02 -0.23740196269E+02  0.10739933179E+03  0.12016725515E+03  0.00000000000E+00 0.  1.
         21    1    1    2  506  504  0.51268670928E+02  0.32253033850E+02  0.76353297385E+03  0.76593167905E+03  0.00000000000E+00 0. -1.
<scales pt_clust_3="85.09293" pt_clust_4="86.17957" pt_clust_5="53.90318" pt_clust_6="14000.00000"></scales>
<clustering>
<clus scale="   53.903">  1  5  2 -1</clus>
<clus scale="   85.093">  2  3  1 -1</clus>
<clus scale="   86.180">  2  4  1 -1</clus>
<clus scale="   53.903">  1  3  2 -1</clus>
</clustering>
</event>
<event>
 6    0  0.8520634E+002  0.1230766E+03  0.7546771E-02  0.1238106E+00
         21   -1    0    0  505  501  0.00000000000E+00  0.00000000000E+00  0.19911496099E+04  0.19911496099E+04  0.00000000000E+00 0. -1.
         21   -1    0    0  501  502 -0.00000000000E+00 -0.00000000000E+00 -0.36965522546E+02  0.36965522546E+02  0.00000000000E+00 0. -1.
         21    1    1    2  503  504 -0.27748344878E+02 -0.93878543502E+02  0.44930018646E+03  0.45984106942E+03  0.00000000000E+00 0. -1.
         21    1    1    2  504  506 -0.33431168704E+02 -0.32551370268E+02  0.12462479752E+03  0.13307356952E+03  0.00000000000E+00 0. -1.
         21    1    1    2  505  503  0.55889088148E-01  0.37476625994E+02  0.13003967050E+04  0.13009366206E+04  0.00000000000E+00 0. -1.
         21    1    1    2  506  502  0.61123624494E+02  0.88953287776E+02  0.79862398387E+02  0.13426387285E+03  0.00000000000E+00 0. -1.
<scales pt_clust_3="34.03615" pt_clust_4="34.03615" pt_clust_5="37.47667" pt_clust_6="112.77153"></scales>
<clustering>
<clus scale="   34.036">  3  4 -1 -1</clus>
<clus scale="   37.477">  1  5  2 -1</clus>
<clus scale="  112.772">  2  6  1 -1</clus>
<clus scale="   37.477">  1  3  2 -1</clus>
</clustering>
</event>
<event>
 6    0  0.8520634E+002  0.1040644E+03  0.7546771E-02  0.1271974E+00
         21   -1    0    0  504  501  0.00000000000E+00  0.00000000000E+00  0.96688048337E+02  0.96688048337E+02  0.00000000000E+00 0.  1.
         21   -1    0    0  506  502 -0.00000000000E+00 -0.00000000000E+00 -0.76769437985E+03  0.76769437985E+03  0.00000000000E+00 0.  1.
         21    1    1    2  503  502  0.38292755782E+02 -0.86390694084E+02 -0.63670728384E+03  0.64368148371E+03  0.00000000000E+00 0.  1.
         21    1    1    2  504  505  0.38170302136E+02  0.37335087880E+02  0.12875106920E+02  0.54924030537E+02  0.00000000000E+00 0.  1.
         21    1    1    2  505  503  0.27061198548E+02  0.43329505204E+02 -0.33753332455E+02  0.61229420542E+02  0.00000000000E+00 0.  1.
         21    1    1    2  506  501 -0.10352425647E+03  0.57261010006E+01 -0.13420822136E+02  0.10454749340E+03  0.00000000000E+00 0.  1.
<scales pt_clust_3="94.49702" pt_clust_4="46.84711" pt_clust_5="46.84711" pt_clust_6="92.38833"></scales>
<clustering>
<clus scale="   46.847">  4  5 -1 -1</clus>
<clus scale="   94.497">  2  3  1 -1</clus>
<clus scale="   92.388">  1  6  2 -1</clus>
<clus scale="   92.388">  1  3  2 -1</clus>
</clustering>
</event>
<event>
 6    0  0.8520634E+002  0.8446235E+02  0.7546771E-02  0.1316845E+00
         21   -1    0    0  505  501  0.00000000000E+00  0.00000000000E+00  0.16017841491E+02  0.16017841491E+02  0.00000000000E+00 0. -1.
         21   -1    0    0  504  502 -0.00000000000E+00 -0.00000000000E+00 -0.22207047090E+04  0.22207047090E+04  0.00000000000E+00 0. -1.
         21    1    1    2  503  501  0.24942543172E+02  0.65289963786E+02 -0.19651352878E+03  0.20857247379E+03  0.00000000000E+00 0. -1.
         21    1    1    2  504  503 -0.52437530327E+02 -0.88771966457E+02 -0.57764860000E+03  0.58677769359E+03  0.00000000000E+00 0. -1.
         21    1    1    2  505  506  0.76871583814E+02 -0.44998579578E+02 -0.60142604406E+03  0.60798634773E+03  0.00000000000E+00 0. -1.
         21    1    1    2  506  502 -0.49376596659E+02  0.68480582250E+02 -0.82909869463E+03  0.83338603533E+03  0.00000000000E+00 0. -1.
<scales pt_clust_3="69.89213" pt_clust_4="71.81634" pt_clust_5="84.46235" pt_clust_6="14000.00000"></scales>
<clustering>
<clus scale="   69.892">  1  3  2 -1</clus>
<clus scale="   71.816">  1  4  2 -1</clus>
<clus scale="   84.462">  1  5  2 -1</clus>
<clus scale="   69.892">  1  3  2 -1</clus>
</clustering>
</event>
<event>
 6    0  0.8520634E+002  0.9297163E+02  0.7546771E-02  0.1295811E+00
         21   -1    0    0  502  501  0.00000000000E+00  0.00000000000E+00  0.29717992433E+03  0.29717992433E+03  0.00000000000E+00 0.  1.
         21   -1    0    0  506  502 -0.00000000000E+00 -0.00000000000E+00 -0.25171151829E+03  0.25171151829E+03  0.00000000000E+00 0. -1.
         21    1    1    2  503  505  0.38692980077E+02  0.62335596761E+02 -0.20285536369E+02  0.76120800814E+02  0.00000000000E+00 0. -1.
         21    1    1    2  504  501  0.40071705057E+02  0.21340945731E+02  0.41090808701E+02  0.61234239365E+02  0.00000000000E+00 0.  1.
         21    1    1    2  505  504 -0.35515713338E+02 -0.12123939096E+03  0.19470774254E+03  0.23210226372E+03  0.00000000000E+00 0.  1.
         21    1    1    2  506  503 -0.43248971796E+02  0.37562848470E+02 -0.17004460884E+03  0.17943413873E+03  0.00000000000E+00 0. -1.
<scales pt_clust_3="14000.00000" pt_clust_4="45.40019" pt_clust_5="92.97163" pt_clust_6="56.97932"></scales>
<clustering>
<clus scale="   45.400">  1  4  2 -1</clus>
<clus scale="   56.979">  2  6  1 -1</clus>
<clus scale="   92.972">  1  5  2 -1</clus>
<clus scale="   45.400">  1  3  2 -1</clus>
</clustering>
</event>
<event>
 6    0  0.8520634E+002  0.1112225E+03  0.7546771E-02  0.1258323E+00
         21   -1    0    0  506  501  0.00000000000E+00  0.00000000000E+00  0.12856516708E+03  0.12856516708E+03  0.00000000000E+00 0.  1.
         21   -1    0    0  504  502 -0.00000000000E+00 -0.00000000000E+00 -0.95366773478E+03  0.95366773478E+03  0.00000000000E+00 0.  1.
         21    1    1    2  503  501 -0.57530732146E+02 -0.29959934059E+02  0.20644288122E+02  0.68070327032E+02  0.00000000000E+00 0.  1.
         21    1    1    2  504  505  0.15959225836E+01  0.11125766060E+03 -0.82007090894E+03  0.82758510722E+03  0.00000000000E+00 0.  1.
         21    1    1    2  505  503  0.15883592823E+02 -0.11051821870E+03  0.26340720596E+02  0.11471878115E+03  0.00000000000E+00 0.  1.
         21    1    1    2  506  502  0.40051216739E+02  0.29220492162E+02 -0.52016667484E+02  0.71858686466E+02  0.00000000000E+00 0.  1.
<scales pt_clust_3="46.62004" pt_clust_4="111.22254" pt_clust_5="14000.00000" pt_clust_6="49.57759"></scales>
<clustering>
<clus scale="   49.578">  1  6  2 -1</clus>
<clus scale="   46.620">  1  3  2 -1</clus>
<clus scale="  111.223">  2  4  1 -1</clus>
<clus scale="   49.578">  1  3  2 -1</clus>
</clustering>
</event>
<event>
 6    0  0.8520634E+002  0.7630028E+02  0.7546771E-02  0.1339891E+00
         21   -1    0    0  506  501  0.00000000000E+00  0.00000000000E+00  0.70093979318E+03  0.70093979318E+03  0.00000000000E+00 0.  1.
         21   -1    0    0  504  502 -0.00000000000E+00 -0.00000000000E+00 -0.68244587443E+03  0.68244587443E+03  0.00000000000E+00 0.  1.
         21    1    1    2  503  501  0.73317911235E+02  0.72842881553E+02  0.43424041379E+03  0.44637018098E+03  0.00000000000E+00 0.  1.
         21    1    1    2  504  503 -0.56426115979E+02 -0.36434700449E+02 -0.19855579997E+03  0.20960868222E+03  0.00000000000E+00 0.  1.
         21    1    1    2  505  502  0.28551271924E+02 -0.35011331606E+02 -0.46917945130E+03  0.47134947331E+03  0.00000000000E+00 0.  1.
         21    1    1    2  506  505 -0.45443067180E+02 -0.13968494977E+01  0.25198875622E+03  0.25605733109E+03  0.00000000000E+00 0.  1.
<scales pt_clust_3="76.30028" pt_clust_4="14000.00000" pt_clust_5="45.17708" pt_clust_6="45.20255"></scales>
<clustering>
<clus scale="   45.177">  2  5  1 -1</clus>
<clus scale="   45.203">  1  6  2 -1</clus>
<clus scale="   76.300">  1  3  2 -1</clus>
<clus scale="   45.203">  1  3  2 -1</clus>
</clustering>
</event>
<event>
 6    0  0.8520634E+002  0.1083548E+03  0.7546771E-02  0.1263647E+00
         21   -1    0    0  503  501  0.00000000000E+00  0.00000000000E+00  0.20563312025E+03  0.20563312025E+03  0.00000000000E+00 0.  1.
         21   -1    0    0  506  502 -0.00000000000E+00 -0.00000000000E+00 -0.11430789866E+04  0.11430789866E+04  0.00000000000E+00 0. -1.
         21    1    1    2  503  505  0.25858549472E+02 -0.37379705615E+02  0.15837754695E+03  0.16477061131E+03  0.00000000000E+00 0.  1.
         21    1    1    2  504  501  0.35019860235E+02 -0.60603374065E+02  0.79159483224E+01  0.70440200147E+02  0.00000000000E+00 0.  1.
         21    1    1    2  505  502 -0.20082218662E+02  0.94769520419E+02 -0.92884665179E+03  0.93388471454E+03  0.00000000000E+00 0. -1.
         21    1    1    2  506  504 -0.40796191044E+02  0.32135592615E+01 -0.17489270980E+03  0.17961658083E+03  0.00000000000E+00 0. -1.
<scales pt_clust_3="45.36681" pt_clust_4="14000.00000" pt_clust_5="108.35483" pt_clust_6="40.92256"></scales>
<clustering>
<clus scale="   40.923">  2  6  1 -1</clus>
<clus scale="   45.367">  1  3  2 -1</clus>
<clus scale="  108.355">  2  5  1 -1</clus>
<clus scale="   45.367">  1  3  2 -1</clus>
</clustering>
</event>
<event>
 6    0  0.8520634E+002  0.7272719E+02  0.7546771E-02  0.1351057E+00
         21   -1    0    0  503  501  0.00000000000E+00  0.00000000000E+00  0.79042209363E+03  0.79042209363E+03  0.00000000000E+00 0.  1.
         21   -1    0    0  504  502 -0.00000000000E+00 -0.00000000000E+00 -0.13871075828E+03  0.13871075828E+03  0.00000000000E+00 0. -1.
         21    1    1    2  503  506 -0.10721187939E+03  0.31248371094E+02  0.29786718490E+03  0.31811272785E+03  0.00000000000E+00 0.  1.
         21    1    1    2  504  505  0.23626050766E+02 -0.59032484803E+02 -0.10959272938E+03  0.12670276583E+03  0.00000000000E+00 0. -1.
         21    1    1    2  505  501  0.34862830478E+02 -0.12223605922E+02  0.36854405311E+03  0.37039108058E+03  0.00000000000E+00 0.  1.
         21    1    1    2  506  502  0.48722998145E+02  0.40007719632E+02  0.94892826717E+02  0.11392627766E+03  0.00000000000E+00 0.  1.
<scales pt_clust_3="72.72719" pt_clust_4="64.08117" pt_clust_5="36.94365" pt_clust_6="14000.00000"></scales>
<clustering>
<clus scale="   36.944">  1  5  2 -1</clus>
<clus scale="   64.081">  2  4  1 -1</clus>
<clus scale="   72.727">  1  3  2 -1</clus>
<clus scale="   36.944">  1  3  2 -1</clus>
</clustering>
</event>
<event>
 6    0  0.8520634E+002  0.9676905E+02  0.7546771E-02  0.1287241E+00
         21   -1    0    0  503  501  0.00000000000E+00  0.00000000000E+00  0.31731141597E+03  0.31731141597E+03  0.00000000000E+00 0. -1.
         21   -1    0    0  504  502 -0.00000000000E+00 -0.00000000000E+00 -0.33665155922E+03  0.33665155922E+03  0.00000000000E+00 0.  1.
         21    1    1    2  503  505 -0.30800118379E+02 -0.20267886173E+02 -0.81249763354E+00  0.36879461147E+02  0.00000000000E+00 0.  1.
         21    1    1    2  504  506 -0.36153507775E+02 -0.68877292839E+02  0.22151371111E+03  0.23477538585E+03  0.00000000000E+00 0. -1.
         21    1    1    2  505  502  0.13753946157E+02  0.96608239780E+02 -0.29181579690E+03  0.30769917508E+03  0.00000000000E+00 0.  1.
         21    1    1    2  506  501  0.53199679997E+02 -0.74630607684E+01  0.51774440174E+02  0.74608953103E+02  0.00000000000E+00 0. -1.
<scales pt_clust_3="36.87051" pt_clust_4="14000.00000" pt_clust_5="96.76905" pt_clust_6="48.15012"></scales>
<clustering>
<clus scale="   36.871">  1  3  2 -1</clus>
<clus scale="   48.150">  1  6  2 -1</clus>
<clus scale="   96.769">  2  5  1 -1</clus>
<clus scale="   36.871">  1  3  2 -1</clus>
</clustering>
</event>
<event>
 6    0  0.8520634E+002  0.9021491E+02  0.7546771E-02  0.1302332E+00
         21   -1    0    0  504  501  0.00000000000E+00  0.00000000000E+00  0.62759101764E+02  0.62759101764E+02  0.00000000000E+00 0.  1.
         21   -1    0    0  505  502 -0.00000000000E+00 -0.00000000000E+00 -0.56875986332E+03  0.56875986332E+03  0.00000000000E+00 0.  1.
         21    1    1    2  503  501 -0.72952875370E+02 -0.79946299692E+02 -0.12557403454E+02  0.10895513407E+03  0.00000000000E+00 0.  1.
         21    1    1    2  504  506  0.24362120916E+02  0.52152323978E+02 -0.10999616589E+03  0.12414722849E+03  0.00000000000E+00 0.  1.
         21    1    1    2  505  503  0.65511194824E+02 -0.56447024308E+01 -0.18201414659E+03  0.19352707529E+03  0.00000000000E+00 0.  1.
         21    1    1    2  506  502 -0.16920440370E+02  0.33438678145E+02 -0.20143304563E+03  0.20488952723E+03  0.00000000000E+00 0.  1.
<scales pt_clust_3="90.21491" pt_clust_4="14000.00000" pt_clust_5="57.97878" pt_clust_6="37.47595"></scales>
<clustering>
<clus scale="   37.476">  2  6  1 -1</clus>
<clus scale="   57.979">  2  5  1 -1</clus>
<clus scale="   90.215">  1  3  2 -1</clus>
<clus scale="   90.215">  1  3  2 -1</clus>
</clustering>
</event>
<event>
 6    0  0.8520634E+002  0.6899009E+02  0.7546771E-02  0.1363561E+00
         21   -1    0    0  503  501  0.00000000000E+00  0.00000000000E+00  0.10914595238E+04  0.10914595238E+04  0.00000000000E+00 0. -1.
         21   -1    0    0  505  502 -0.00000000000E+00 -0.00000000000E+00 -0.41526558049E+02  0.41526558049E+02  0.00000000000E+00 0. -1.
         21    1    1    2  503  504 -0.41849619039E+02 -0.14793607607E+02  0.16068150532E+03  0.16669969283E+03  0.00000000000E+00 0. -1.
         21    1    1    2  504  502  0.60299027721E+02  0.33314944379E+02  0.85920576000E+02  0.11012812376E+03  0.00000000000E+00 0. -1.
         21    1    1    2  505  506 -0.43732851064E+02 -0.94446124733E+02  0.87801911553E+02  0.13616830913E+03  0.00000000000E+00 0. -1.
         21    1    1    2  506  501  0.25283442383E+02  0.75924787961E+02  0.71552897293E+03  0.71998995617E+03  0.00000000000E+00 0. -1.
<scales pt_clust_3="44.38740" pt_clust_4="64.26868" pt_clust_5="14000.00000" pt_clust_6="68.99009"></scales>
<clustering>
<clus scale="   44.387">  1  3  2 -1</clus>
<clus scale="   64.269">  2  4  1 -1</clus>
<clus scale="   68.990">  1  6  2 -1</clus>
<clus scale="   44.387">  1  3  2 -1</clus>
</clustering>
</event>
<event>
 6    0  0.8520634E+002  0.1650471E+03  0.7546771E-02  0.1183114E+00
         21   -1    0    0  504  501  0.00000000000E+00  0.00000000000E+00  0.13801140953E+03  0.13801140953E+03  0.00000000000E+00 0. -1.
         21   -1    0    0  503  502 -0.00000000000E+00 -0.00000000000E+00 -0.36532024313E+03  0.36532024313E+03  0.00000000000E+00 0.  1.
         21    1    1    2  503  506 -0.68430642298E+02  0.96826741754E+01 -0.74995880335E+02  0.10198474911E+03  0.00000000000E+00 0. -1.
         21    1    1    2  504  505  0.27336536576E+02 -0.13918211239E+02  0.35771354968E+01  0.30883632144E+02  0.00000000000E+00 0.  1.
         21    1    1    2  505  502  0.53745067204E+00 -0.16229376561E+03 -0.97828123594E+02  0.18949906853E+03  0.00000000000E+00 0.  1.
         21    1    1    2  506  501  0.40556655050E+02  0.16652930267E+03 -0.58061965170E+02  0.18096420286E+03  0.00000000000E+00 0. -1.
<scales pt_clust_3="65.87971" pt_clust_4="30.67577" pt_clust_5="165.04706" pt_clust_6="14000.00000"></scales>
<clustering>
<clus scale="   30.676">  1  4  2 -1</clus>
<clus scale="   65.880">  2  3  1 -1</clus>
<clus scale="  165.047">  2  5  1 -1</clus>
<clus scale="   30.676">  1  3  2 -1</clus>
</clustering>
</event>
<event>
 6    0  0.8520634E+002  0.7133217E+02  0.7546771E-02  0.1355621E+00
         21   -1    0    0  504  501  0.00000000000E+00  0.00000000000E+00  0.36947295088E+03  0.36947295088E+03  0.00000000000E+00 0. -1.
         21   -1    0    0  505  502 -0.00000000000E+00 -0.00000000000E+00 -0.19163479852E+03  0.19163479852E+03  0.00000000000E+00 0. -1.
         21    1    1    2  503  501  0.14808684501E+02  0.47068640813E+02  0.11606629157E+03  0.12611953902E+03  0.00000000000E+00 0. -1.
         21    1    1    2  504  506 -0.63512712964E+02  0.32837229149E+01  0.21048759927E+03  0.21988559978E+03  0.00000000000E+00 0. -1.
         21    1    1    2  505  503 -0.32031498716E+02  0.15476446717E+02 -0.87071798553E+02  0.94058680706E+02  0.00000000000E+00 0. -1.
         21    1    1    2  506  502  0.80735527178E+02 -0.65828810445E+02 -0.61643939931E+02  0.12104392989E+03  0.00000000000E+00 0. -1.
<scales pt_clust_3="49.63024" pt_clust_4="71.33217" pt_clust_5="35.57439" pt_clust_6="14000.00000"></scales>
<clustering>
<clus scale="   35.574">  2  5  1 -1</clus>
<clus scale="   49.630">  1  3  2 -1</clus>
<clus scale="   71.332">  1  4  2 -1</clus>
<clus scale="   49.630">  1  3  2 -1</clus>
</clustering>
</event>
<event>
 6    0  0.8520634E+002  0.8311093E+02  0.7546771E-02  0.1320448E+00
         21   -1    0    0  503  501  0.00000000000E+00  0.00000000000E+00  0.11956042651E+04  0.11956042651E+04  0.00000000000E+00 0. -1.
         21   -1    0    0  504  502 -0.00000000000E+00 -0.00000000000E+00 -0.35033009278E+03  0.35033009278E+03  0.00000000000E+00 0. -1.
         21    1    1    2  503  506  0.11425383652E+03  0.63319363982E+02  0.16520354416E+03  0.21060743581E+03  0.00000000000E+00 0. -1.
         21    1    1    2  504  505 -0.22021784555E+02  0.23912984572E+02 -0.18368889926E+02  0.37339067252E+02  0.00000000000E+00 0.  1.
         21    1    1    2  505  501 -0.31903286661E+02 -0.69812060801E+02  0.99342861325E+03  0.99638945858E+03  0.00000000000E+00 0. -1.
         21    1    1    2  506  502 -0.60328765308E+02 -0.17420287754E+02 -0.29498909517E+03  0.30159839625E+03  0.00000000000E+00 0. -1.
<scales pt_clust_3="14000.00000" pt_clust_4="32.50830" pt_clust_5="76.69869" pt_clust_6="83.11093"></scales>
<clustering>
<clus scale="   32.508">  2  4  1 -1</clus>
<clus scale="   76.699">  1  5  2 -1</clus>
<clus scale="   83.111">  2  6  1 -1</clus>
<clus scale="   76.699">  1  3  2 -1</clus>
</clustering>
</event>
<event>
 6    0  0.8520634E+002  0.6410931E+02  0.7546771E-02  0.1381354E+00
         21   -1    0    0  506  501  0.00000000000E+00  0.00000000000E+00  0.31664624016E+03  0.31664624016E+03  0.00000000000E+00 0.  1.
         21   -1    0    0  503  502 -0.00000000000E+00 -0.00000000000E+00 -0.22905866374E+03  0.22905866374E+03  0.00000000000E+00 0.  1.
         21    1    1    2  503  505  0.14030444058E+02 -0.97020402922E+02  0.91235242596E+01  0.98453291659E+02  0.00000000000E+00 0.  1.
         21    1    1    2  504  502 -0.41757394402E+02  0.45614361318E+02 -0.14587530437E+03  0.15844227457E+03  0.00000000000E+00 0.  1.
         21    1    1    2  505  501  0.57406757427E+02 -0.83737917660E+01  0.21343901515E+03  0.22118288671E+03  0.00000000000E+00 0.  1.
         21    1    1    2  506  504 -0.29679807083E+02  0.59779833370E+02  0.10900341384E+02  0.67626450953E+02  0.00000000000E+00 0.  1.
<scales pt_clust_3="14000.00000" pt_clust_4="64.10931" pt_clust_5="58.01428" pt_clust_6="56.90087"></scales>
<clustering>
<clus scale="   58.014">  1  5  2 -1</clus>
<clus scale="   56.901">  1  6  2 -1</clus>
<clus scale="   64.109">  2  4  1 -1</clus>
<clus scale="   58.014">  1  3  2 -1</clus>
</clustering>
</event>
<event>
 6    0  0.8520634E+002  0.8983910E+02  0.7546771E-02  0.1303242E+00
         21   -1    0    0  504  501  0.00000000000E+00  0.00000000000E+00  0.23650832142E+04  0.23650832142E+04  0.00000000000E+00 0. -1.
         21   -1    0    0  506  502 -0.00000000000E+00 -0.00000000000E+00 -0.18728057908E+03  0.18728057908E+03  0.00000000000E+00 0.  1.
         21    1    1    2  503  505 -0.57809754062E+02 -0.32612204072E+01  0.10751234889E+03  0.12211268725E+03  0.00000000000E+00 0.  1.
         21    1    1    2  504  502 -0.44360352311E+02 -0.36911079853E+02 -0.74794077292E+02  0.94469162540E+02  0.00000000000E+00 0.  1.
         21    1    1    2  505  501 -0.37205564276E+02 -0.30024100411E+01  0.21843597957E+04  0.21846786916E+04  0.00000000000E+00 0. -1.
         21    1    1    2  506  503  0.13937567065E+03  0.43174710302E+02 -0.39275432124E+02  0.15110325194E+03  0.00000000000E+00 0.  1.
<scales pt_clust_3="14000.00000" pt_clust_4="59.38283" pt_clust_5="37.32651" pt_clust_6="89.83910"></scales>
<clustering>
<clus scale="   37.327">  1  5  2 -1</clus>
<clus scale="   59.383">  2  4  1 -1</clus>
<clus scale="   89.839">  2  6  1 -1</clus>
<clus scale="   37.327">  1  3  2 -1</clus>
</clustering>
</event>
<event>
 6    0  0.8520634E+002  0.9837003E+02  0.7546771E-02  0.1283761E+00
         21   -1    0    0  506  501  0.00000000000E+00  0.00000000000E+00  0.50543651398E+03  0.50543651398E+03  0.00000000000E+00 0. -1.
         21   -1    0    0  505  502 -0.00000000000E+00 -0.00000000000E+00 -0.24280915602E+03  0.24280915602E+03  0.00000000000E+00 0. -1.
         21    1    1    2  503  502 -0.30652432625E+02 -0.13371427221E+03 -0.11143658036E+03  0.17674045848E+03  0.00000000000E+00 0. -1.
         21    1    1    2  504  501  0.97797599785E+01  0.10655342648E+03  0.32836810981E+03  0.34536197234E+03  0.00000000000E+00 0. -1.
         21    1    1    2  505  504 -0.42578698238E+01  0.45224290723E+02 -0.82546456851E+02  0.94219337004E+02  0.00000000000E+00 0. -1.
         21    1    1    2  506  503  0.25130542470E+02 -0.18063444986E+02  0.12824228537E+03  0.13192390218E+03  0.00000000000E+00 0. -1.
<scales pt_clust_3="98.37003" pt_clust_4="14000.00000" pt_clust_5="45.10948" pt_clust_6="30.94886"></scales>
<clustering>
<clus scale="   30.949">  1  6  2 -1</clus>
<clus scale="   45.109">  2  5  1 -1</clus>
<clus scale="   98.370">  2  3  1 -1</clus>
<clus scale="   30.949">  1  3  2 -1</clus>
</clustering>
</event>
<event>
 6    0  0.8520634E+002  0.1109931E+03  0.7546771E-02  0.1258742E+00
         21   -1    0    0  503  501  0.00000000000E+00  0.00000000000E+00  0.84154962267E+02  0.84154962267E+02  0.00000000000E+00 0.  1.
         21   -1    0    0  506  502 -0.00000000000E+00 -0.00000000000E+00 -0.10400142274E+04  0.10400142274E+04  0.00000000000E+00 0.  1.
         21    1    1    2  503  504 -0.46732363746E+02  0.97355458747E+02 -0.41814156489E+02  0.11580338014E+03  0.00000000000E+00 0.  1.
         21    1    1    2  504  502  0.10345234198E+03 -0.17256563373E+02 -0.66132080091E+03  0.66958597488E+03  0.00000000000E+00 0.  1.
         21    1    1    2  505  501  0.23031040191E+02  0.28160454502E+02  0.14870835082E+02  0.39301167236E+02  0.00000000000E+00 0.  1.
         21    1    1    2  506  505 -0.79751018429E+02 -0.10825934988E+03 -0.26759514284E+03  0.29947866743E+03  0.00000000000E+00 0.  1.
<scales pt_clust_3="14000.00000" pt_clust_4="106.21584" pt_clust_5="36.37912" pt_clust_6="110.99308"></scales>
<clustering>
<clus scale="   36.379">  1  5  2 -1</clus>
<clus scale="  106.216">  2  4  1 -1</clus>
<clus scale="  110.993">  2  6  1 -1</clus>
<clus scale="   36.379">  1  3  2 -1</clus>
</clustering>
</event>
<event>
 6    0  0.8520634E+002  0.1744914E+03  0.7546771E-02  0.1173243E+00
         21   -1    0    0  505  501  0.00000000000E+00  0.00000000000E+00  0.34325291820E+03  0.34325291820E+03  0.00000000000E+00 0. -1.
         21   -1    0    0  503  502 -0.00000000000E+00 -0.00000000000E+00 -0.18259223547E+03  0.18259223547E+03  0.00000000000E+00 0.  1.
         21    1    1    2  503  506  0.10318404572E+02  0.35313636223E+02 -0.31831124904E+02  0.48649181790E+02  0.00000000000E+00 0.  1.
         21    1    1    2  504  501  0.36727967215E+02  0.43126531112E+02  0.13462521817E+03  0.14605749083E+03  0.00000000000E+00 0. -1.
         21    1    1    2  505  502 -0.95346343197E+02 -0.16638297406E+03 -0.34403689033E+02  0.19482770089E+03  0.00000000000E+00 0.  1.
         21    1    1    2  506  504  0.48299971410E+02  0.87942806721E+02  0.92270278504E+02  0.13631078016E+03  0.00000000000E+00 0. -1.
<scales pt_clust_3="36.79025" pt_clust_4="45.86765" pt_clust_5="163.11309" pt_clust_6="45.86765"></scales>
<clustering>
<clus scale="   36.790">  2  3  1 -1</clus>
<clus scale="   45.868">  4  6 -1 -1</clus>
<clus scale="  163.113">  2  5  1 -1</clus>
<clus scale="  174.491">  1  3  2 -1</clus>
</clustering>
</event>
<event>
 6    0  0.8520634E+002  0.1637603E+03  0.7546771E-02  0.1184516E+00
         21   -1    0    0  504  501  0.00000000000E+00  0.00000000000E+00  0.95775666203E+02  0.95775666203E+02  0.00000000000E+00 0.  1.
         21   -1    0    0  505  502 -0.00000000000E+00 -0.00000000000E+00 -0.23278226247E+04  0.23278226247E+04  0.00000000000E+00 0. -1.
         21    1    1    2  503  506 -0.12196433521E+03 -0.73234459962E+02 -0.18996155240E+03  0.23732672959E+03  0.00000000000E+00 0. -1.
         21    1    1    2  504  502 -0.16232690186E+02  0.80527533012E+02 -0.21089720257E+03  0.22633120389E+03  0.00000000000E+00 0. -1.
         21    1    1    2  505  503  0.16916195160E+03  0.10467324618E+02 -0.18865064139E+04  0.18941044798E+04  0.00000000000E+00 0. -1.
         21    1    1    2  506  501 -0.30964926202E+02 -0.17760397668E+02  0.55318210377E+02  0.65835877600E+02  0.00000000000E+00 0.  1.
<scales pt_clust_3="14000.00000" pt_clust_4="80.01697" pt_clust_5="163.76026" pt_clust_6="35.69676"></scales>
<clustering>
<clus scale="   35.697">  1  6  2 -1</clus>
<clus scale="   80.017">  1  4  2 -1</clus>
<clus scale="  163.760">  2  5  1 -1</clus>
<clus scale="   35.697">  1  3  2 -1</clus>
</clustering>
</event>
<event>
 6    0  0.8520634E+002  0.1134757E+03  0.7546771E-02  0.1254266E+00
         21   -1    0    0  506  501  0.00000000000E+00  0.00000000000E+00  0.45364544548E+03  0.45364544548E+03  0.00000000000E+00 0. -1.
         21   -1    0    0  505  502 -0.00000000000E+00 -0.00000000000E+00 -0.25739690407E+03  0.25739690407E+03  0.00000000000E+00 0.  1.
         21    1    1    2  503  501 -0.15041123042E+03  0.85246667368E+02  0.34884348571E+03  0.38933572923E+03  0.00000000000E+00 0. -1.
         21    1    1    2  504  503  0.67591497342E+02 -0.55307414400E+02 -0.15436661246E+03  0.17736000576E+03  0.00000000000E+00 0.  1.
         21    1    1    2  505  504  0.40261356683E+02  0.15856314644E+02 -0.47861619049E+02  0.64522353755E+02  0.00000000000E+00 0.  1.
         21    1    1    2  506  502  0.42558376395E+02 -0.45795567612E+02  0.49633287204E+02  0.79824260805E+02  0.00000000000E+00 0. -1.
<scales pt_clust_3="14000.00000" pt_clust_4="113.47565" pt_clust_5="43.27123" pt_clust_6="63.77410"></scales>
<clustering>
<clus scale="   43.271">  2  5  1 -1</clus>
<clus scale="   63.774">  1  6  2 -1</clus>
<clus scale="  113.476">  2  4  1 -1</clus>
<clus scale="   63.774">  1  3  2 -1</clus>
</clustering>
</event>
<event>
 6    0  0.8520634E+002  0.1020288E+03  0.7546771E-02  0.1276087E+00
         21   -1    0    0  503  501  0.00000000000E+00  0.00000000000E+00  0.32399064741E+03  0.32399064741E+03  0.00000000000E+00 0. -1.
         21   -1    0    0  506  502 -0.00000000000E+00 -0.00000000000E+00 -0.24603070369E+04  0.24603070369E+04  0.00000000000E+00 0. -1.
         21    1    1    2  503  502 -0.16204448963E+02 -0.43695037485E+02  0.10493736428E+03  0.11482025470E+03  0.00000000000E+00 0. -1.
         21    1    1    2  504  505  0.59965720057E+02  0.75266004448E+02 -0.78449122827E+03  0.79037165070E+03  0.00000000000E+00 0. -1.
         21    1    1    2  505  501  0.49558680380E+02  0.22871820260E+02  0.20586182666E+03  0.21297482161E+03  0.00000000000E+00 0. -1.
         21    1    1    2  506  504 -0.93319951474E+02 -0.54442787223E+02 -0.16626243522E+04  0.16661309573E+04  0.00000000000E+00 0. -1.
<scales pt_clust_3="46.60301" pt_clust_4="14000.00000" pt_clust_5="39.12749" pt_clust_6="102.02883"></scales>
<clustering>
<clus scale="   46.603">  1  3  2 -1</clus>
<clus scale="   39.127">  1  5  2 -1</clus>
<clus scale="  102.029">  2  6  1 -1</clus>
<clus scale="   46.603">  1  3  2 -1</clus>
</clustering>
</event>
<event>
 6    0  0.8520634E+002  0.1521753E+03  0.7546771E-02  0.1197825E+00
         21   -1    0    0  506  501  0.00000000000E+00  0.00000000000E+00  0.18690837602E+03  0.18690837602E+03  0.00000000000E+00 0. -1.
         21   -1    0    0  504  502 -0.00000000000E+00 -0.00000000000E+00 -0.70966124407E+03  0.70966124407E+03  0.00000000000E+00 0. -1.
         21    1    1    2  503  501 -0.70885616142E+02 -0.54373431895E+02  0.99319332890E+02  0.13358731436E+03  0.00000000000E+00 0. -1.
         21    1    1    2  504  505 -0.12659184388E+02  0.30621789846E+02 -0.85049276073E+02  0.91276110365E+02  0.00000000000E+00 0.  1.
         21    1    1    2  505  503 -0.95330650300E+02  0.44219932555E+02  0.23058757955E+00  0.10508752777E+03  0.00000000000E+00 0. -1.
         21    1    1    2  506  502  0.17887545083E+03 -0.20468290506E+02 -0.53725351245E+03  0.56661866760E+03  0.00000000000E+00 0. -1.
<scales pt_clust_3="89.10527" pt_clust_4="33.13531" pt_clust_5="152.17532" pt_clust_6="14000.00000"></scales>
<clustering>
<clus scale="   33.135">  2  4  1 -1</clus>
<clus scale="   89.105">  1  3  2 -1</clus>
<clus scale="  152.175">  1  5  2 -1</clus>
<clus scale="   89.105">  1  3  2 -1</clus>
</clustering>
</event>
<event>
 6    0  0.8520634E+002  0.2009871E+03  0.7546771E-02  0.1148909E+00
         21   -1    0    0  505  501  0.00000000000E+00  0.00000000000E+00  0.18049551436E+04  0.18049551436E+04  0.00000000000E+00 0.  1.
         21   -1    0    0  506  502 -0.00000000000E+00 -0.00000000000E+00 -0.13236943868E+03  0.13236943868E+03  0.00000000000E+00 0.  1.
         21    1    1    2  503  501  0.11816055769E+03 -0.19692451623E+03  0.16218019832E+04  0.16379813355E+04  0.00000000000E+00 0.  1.
         21    1    1    2  504  503 -0.73257175310E+02  0.13181919799E+03 -0.36945545834E+01  0.15085279058E+03  0.00000000000E+00 0.  1.
         21    1    1    2  505  502 -0.84839853230E+01  0.46463415252E+02  0.85139560352E+02  0.97363092088E+02  0.00000000000E+00 0. -1.
         21    1    1    2  506  504 -0.36419397061E+02  0.18641902994E+02 -0.30661284047E+02  0.51127364189E+02  0.00000000000E+00 0.  1.
<scales pt_clust_3="188.27548" pt_clust_4="36.63891" pt_clust_5="47.23163" pt_clust_6="36.63891"></scales>
<clustering>
<clus scale="   36.639">  4  6 -1 -1</clus>
<clus scale="   47.232">  1  5  2 -1</clus>
<clus scale="  188.275">  1  3  2 -1</clus>
<clus scale="   47.232">  1  3  2 -1</clus>
</clustering>
</event>
<event>
 6    0  0.8520634E+002  0.1212276E+03  0.7546771E-02  0.1241086E+00
         21   -1    0    0  506  501  0.00000000000E+00  0.00000000000E+00  0.19486916345E+04  0.19486916345E+04  0.00000000000E+00 0. -1.
         21   -1    0    0  504  502 -0.00000000000E+00 -0.00000000000E+00 -0.17345831859E+03  0.17345831859E+03  0.00000000000E+00 0. -1.
         21    1    1    2  503  501  0.38830295073E+02  0.52404963482E+02  0.17061318248E+04  0.17073780705E+04  0.00000000000E+00 0. -1.
         21    1    1    2  504  503  0.12943449446E+02  0.77957246885E+02  0.58713556291E+02  0.98448701961E+02  0.00000000000E+00 0.  1.
         21    1    1    2  505  502 -0.81980271805E+02 -0.11581529589E+03 -0.11742831827E+03  0.18418294616E+03  0.00000000000E+00 0. -1.
         21    1    1    2  506  505  0.30206527285E+02 -0.14546914478E+02  0.12781625308E+03  0.13214023446E+03  0.00000000000E+00 0.  1.
<scales pt_clust_3="77.55406" pt_clust_4="121.22757" pt_clust_5="14000.00000" pt_clust_6="33.52681"></scales>
<clustering>
<clus scale="   33.527">  1  6  2 -1</clus>
<clus scale="   77.554">  1  3  2 -1</clus>
<clus scale="  121.228">  1  4  2 -1</clus>
<clus scale="   33.527">  1  3  2 -1</clus>
</clustering>
</event>
<event>
 6    0  0.8520634E+002  0.1341134E+03  0.7546771E-02  0.1221477E+00
         21   -1    0    0  504  501  0.00000000000E+00  0.00000000000E+00  0.73320285017E+03  0.73320285017E+03  0.00000000000E+00 0. -1.
         21   -1    0    0  506  502 -0.00000000000E+00 -0.00000000000E+00 -0.15396492060E+03  0.15396492060E+03  0.00000000000E+00 0.  1.
         21    1    1    2  503  505  0.11416307466E+03  0.35537303668E+02 -0.16129354840E+02  0.12064934171E+03  0.00000000000E+00 0.  1.
         21    1    1    2  504  502 -0.15108935678E+03  0.10086627452E+03  0.16963898198E+03  0.24855458812E+03  0.00000000000E+00 0.  1.
         21    1    1    2  505  501  0.94537122446E+01 -0.11099775898E+03  0.45626398158E+03  0.46966657967E+03  0.00000000000E+00 0. -1.
         21    1    1    2  506  503  0.27472569883E+02 -0.25405819203E+02 -0.30535679151E+02  0.48297261274E+02  0.00000000000E+00 0.  1.
<scales pt_clust_3="134.11341" pt_clust_4="14000.00000" pt_clust_5="113.02657" pt_clust_6="37.41922"></scales>
<clustering>
<clus scale="   37.419">  2  6  1 -1</clus>
<clus scale="  113.027">  1  5  2 -1</clus>
<clus scale="  134.113">  2  3  1 -1</clus>
<clus scale="  113.027">  1  3  2 -1</clus>
</clustering>
</event>
<event>
 6    0  0.8520634E+002  0.1430726E+03  0.7546771E-02  0.1209253E+00
         21   -1    0    0  505  501  0.00000000000E+00  0.00000000000E+00  0.76628681080E+03  0.76628681080E+03  0.00000000000E+00 0. -1.
         21   -1    0    0  504  502 -0.00000000000E+00 -0.00000000000E+00 -0.25727670565E+03  0.25727670565E+03  0.00000000000E+00 0. -1.
         21    1    1    2  503  506 -0.55382912632E+02  0.11347195444E+03  0.30471445234E+02  0.12989095592E+03  0.00000000000E+00 0. -1.
         21    1    1    2  504  501 -0.49571486140E+02  0.15738464436E+02  0.61579663417E+03  0.61798909874E+03  0.00000000000E+00 0. -1.
         21    1    1    2  505  503 -0.19790286446E+02 -0.39171399726E+02  0.26281293199E+02  0.51154280039E+02  0.00000000000E+00 0. -1.
         21    1    1    2  506  502  0.12474468522E+03 -0.90039019146E+02 -0.16353926745E+03  0.22452918175E+03  0.00000000000E+00 0. -1.
<scales pt_clust_3="143.07261" pt_clust_4="68.61376" pt_clust_5="43.88683" pt_clust_6="14000.00000"></scales>
<clustering>
<clus scale="   43.887">  1  5  2 -1</clus>
<clus scale="   68.614">  1  4  2 -1</clus>
<clus scale="  143.073">  1  3  2 -1</clus>
<clus scale="   43.887">  1  3  2 -1</clus>
</clustering>
</event>
<event>
 6    0  0.8520634E+002  0.2817933E+03  0.7546771E-02  0.1094714E+00
         21   -1    0    0  502  501  0.00000000000E+00  0.00000000000E+00  0.28708733945E+03  0.28708733945E+03  0.00000000000E+00 0.  1.
         21   -1    0    0  504  502 -0.00000000000E+00 -0.00000000000E+00 -0.47320403265E+03  0.47320403265E+03  0.00000000000E+00 0. -1.
         21    1    1    2  503  501 -0.73380267507E+02 -0.16031363635E+03  0.10134218440E+03  0.20336018292E+03  0.00000000000E+00 0.  1.
         21    1    1    2  504  506  0.48688135081E+02 -0.14049432132E-01 -0.49835066838E+02  0.69671145977E+02  0.00000000000E+00 0.  1.
         21    1    1    2  505  503 -0.59024587810E+02 -0.90145515564E+02  0.29408791659E+02  0.11169150804E+03  0.00000000000E+00 0.  1.
         21    1    1    2  506  505  0.83716720236E+02  0.25047320135E+03 -0.26703260243E+03  0.37556853516E+03  0.00000000000E+00 0. -1.
<scales pt_clust_3="34.08416" pt_clust_4="48.68814" pt_clust_5="34.08416" pt_clust_6="278.39995"></scales>
<clustering>
<clus scale="   34.084">  3  5 -1 -1</clus>
<clus scale="   48.688">  2  4  1 -1</clus>
<clus scale="  278.400">  2  6  1 -1</clus>
<clus scale="  281.793">  1  3  2 -1</clus>
</clustering>
</event>
<event>
 6    0  0.8520634E+002  0.1088316E+03  0.7546771E-02  0.1262749E+00
         21   -1    0    0  503  501  0.00000000000E+00  0.00000000000E+00  0.18905437920E+04  0.18905437920E+04  0.00000000000E+00 0.  1.
         21   -1    0    0  506  502 -0.00000000000E+00 -0.00000000000E+00 -0.88158836469E+02  0.88158836469E+02  0.00000000000E+00 0.  1.
         21    1    1    2  503  504 -0.32790373396E+02  0.24404771127E+02  0.53049468800E+03  0.53206711553E+03  0.00000000000E+00 0.  1.
         21    1    1    2  504  505 -0.48205059474E+02  0.62085989457E+02  0.24211079011E+03  0.25455064827E+03  0.00000000000E+00 0.  1.
         21    1    1    2  505  502  0.10771773680E+03  0.26110960540E+02 -0.38667508377E+02  0.11738853984E+03  0.00000000000E+00 0.  1.
         21    1    1    2  506  501 -0.26722303931E+02 -0.11260172112E+03  0.10684469858E+04  0.10746963248E+04  0.00000000000E+00 0.  1.
<scales pt_clust_3="40.87544" pt_clust_4="85.82168" pt_clust_5="14000.00000" pt_clust_6="108.83159"></scales>
<clustering>
<clus scale="   40.875">  1  3  2 -1</clus>
<clus scale="   85.822">  1  4  2 -1</clus>
<clus scale="  108.832">  1  6  2 -1</clus>
<clus scale="   40.875">  1  3  2 -1</clus>
</clustering>
</event>
<event>
 6    0  0.8520634E+002  0.1939204E+03  0.7546771E-02  0.1154972E+00
         21   -1    0    0  506  501  0.00000000000E+00  0.00000000000E+00  0.96506677137E+03  0.96506677137E+03  0.00000000000E+00 0. -1.
         21   -1    0    0  503  502 -0.00000000000E+00 -0.00000000000E+00 -0.94604681465E+02  0.94604681465E+02  0.00000000000E+00 0.  1.
         21    1    1    2  503  505  0.50110398482E+02  0.19912366593E+02 -0.22254950861E+02  0.58333842812E+02  0.00000000000E+00 0.  1.
         21    1    1    2  504  501  0.39582668852E+02 -0.39469021625E+02  0.91038282996E+02  0.10682958538E+03  0.00000000000E+00 0.  1.
         21    1    1    2  505  504  0.84012623110E+02 -0.50317815338E+02  0.32975909393E+02  0.10333157302E+03  0.00000000000E+00 0.  1.
         21    1    1    2  506  502 -0.17370569044E+03  0.69874470370E+02  0.76870284838E+03  0.79117645162E+03  0.00000000000E+00 0. -1.
<scales pt_clust_3="53.92174" pt_clust_4="51.46692" pt_clust_5="51.46692" pt_clust_6="179.31652"></scales>
<clustering>
<clus scale="   53.922">  2  3  1 -1</clus>
<clus scale="   51.467">  4  5 -1 -1</clus>
<clus scale="  179.317">  1  6  2 -1</clus>
<clus scale="  179.317">  1  3  2 -1</clus>
</clustering>
</event>
<event>
 6    0  0.8520634E+002  0.1242690E+03  0.7546771E-02  0.1236216E+00
         21   -1    0    0  505  501  0.00000000000E+00  0.00000000000E+00  0.14012702340E+04  0.14012702340E+04  0.00000000000E+00 0.  1.
         21   -1    0    0  503  502 -0.00000000000E+00 -0.00000000000E+00 -0.66330881562E+02  0.66330881562E+02  0.00000000000E+00 0.  1.
         21    1    1    2  503  506  0.15545011143E+02  0.47435114267E+02 -0.36209286549E+02  0.61667251190E+02  0.00000000000E+00 0.  1.
         21    1    1    2  504  501 -0.66545587525E+01 -0.29885458945E+02  0.36266777392E+03  0.36395787950E+03  0.00000000000E+00 0.  1.
         21    1    1    2  505  502 -0.95099088311E+02  0.66915175531E+02  0.27412272545E+03  0.29776626055E+03  0.00000000000E+00 0.  1.
         21    1    1    2  506  504  0.86208635921E+02 -0.84464830853E+02  0.73435813964E+03  0.74420972435E+03  0.00000000000E+00 0.  1.
<scales pt_clust_3="49.54363" pt_clust_4="30.61738" pt_clust_5="124.26896" pt_clust_6="14000.00000"></scales>
<clustering>
<clus scale="   30.617">  1  4  2 -1</clus>
<clus scale="   49.544">  2  3  1 -1</clus>
<clus scale="  124.269">  2  5  1 -1</clus>
<clus scale="   30.617">  1  3  2 -1</clus>
</clustering>
</event>
<event>
 6    0  0.8520634E+002  0.7909421E+02  0.7546771E-02  0.1331642E+00
         21   -1    0    0  506  501  0.00000000000E+00  0.00000000000E+00  0.36581062299E+03  0.36581062299E+03  0.00000000000E+00 0.  1.
         21   -1    0    0  503  502 -0.00000000000E+00 -0.00000000000E+00 -0.77398965711E+03  0.77398965711E+03  0.00000000000E+00 0.  1.
         21    1    1    2  503  505  0.37656954776E+01 -0.31732173151E+02 -0.31814411717E+03  0.31974488356E+03  0.00000000000E+00 0. -1.
         21    1    1    2  504  502 -0.12017968473E+03  0.73092944428E+02 -0.26250376550E+03  0.29781531533E+03  0.00000000000E+00 0.  1.
         21    1    1    2  505  501  0.49077129975E+02 -0.17581168161E+01 -0.16691098676E+03  0.17398543951E+03  0.00000000000E+00 0. -1.
         21    1    1    2  506  504  0.67336859274E+02 -0.39602654461E+02  0.33937983530E+03  0.34825464170E+03  0.00000000000E+00 0.  1.
<scales pt_clust_3="31.95483" pt_clust_4="79.09421" pt_clust_5="52.29883" pt_clust_6="14000.00000"></scales>
<clustering>
<clus scale="   31.955">  2  3  1 -1</clus>
<clus scale="   52.299">  2  5  1 -1</clus>
<clus scale="   79.094">  2  4  1 -1</clus>
<clus scale="   79.094">  1  3  2 -1</clus>
</clustering>
</event>
<event>
 6    0  0.8520634E+002  0.9374250E+02  0.7546771E-02  0.1294034E+00
         21   -1    0    0  505  501  0.00000000000E+00  0.00000000000E+00  0.40428885226E+03  0.40428885226E+03  0.00000000000E+00 0. -1.
         21   -1    0    0  504  502 -0.00000000000E+00 -0.00000000000E+00 -0.26262245401E+03  0.26262245401E+03  0.00000000000E+00 0. -1.
         21    1    1    2  503  501 -0.34858142839E+02  0.59945709410E+01  0.22776789538E+02  0.42069075871E+02  0.00000000000E+00 0.  1.
         21    1    1    2  504  503 -0.10242084453E+03 -0.77905982669E+02 -0.75199554330E+02  0.14904477348E+03  0.00000000000E+00 0. -1.
         21    1    1    2  505  506  0.81631589820E+02  0.68454578868E+02  0.32044345502E+03  0.33768884152E+03  0.00000000000E+00 0. -1.
         21    1    1    2  506  502  0.55647397546E+02  0.34568328598E+01 -0.12635429198E+03  0.13810861541E+03  0.00000000000E+00 0. -1.
<scales pt_clust_3="35.36983" pt_clust_4="14000.00000" pt_clust_5="93.74250" pt_clust_6="55.21083"></scales>
<clustering>
<clus scale="   35.370">  1  3  2 -1</clus>
<clus scale="   55.211">  2  6  1 -1</clus>
<clus scale="   93.742">  1  5  2 -1</clus>
<clus scale="   35.370">  1  3  2 -1</clus>
</clustering>
</event>
<event>
 6    0  0.8520634E+002  0.6705663E+02  0.7546771E-02  0.1370398E+00
         21   -1    0    0  503  501  0.00000000000E+00  0.00000000000E+00  0.90058897490E+02  0.90058897490E+02  0.00000000000E+00 0.  1.
         21   -1    0    0  504  502 -0.00000000000E+00 -0.00000000000E+00 -0.53554477301E+03  0.53554477301E+03  0.00000000000E+00 0. -1.
         21    1    1    2  503  502 -0.83555207835E+02  0.77574813481E+01 -0.10433597730E+03  0.13389416504E+03  0.00000000000E+00 0. -1.
         21    1    1    2  504  506  0.38622913743E+02  0.16563931603E+02 -0.25846352869E+03  0.26185776475E+03  0.00000000000E+00 0. -1.
         21    1    1    2  505  501  0.24040039097E+02  0.49180818189E+02  0.51676204065E+02  0.75280186132E+02  0.00000000000E+00 0.  1.
         21    1    1    2  506  505  0.20892254994E+02 -0.73502231140E+02 -0.13436257360E+03  0.15457155458E+03  0.00000000000E+00 0. -1.
<scales pt_clust_3="14000.00000" pt_clust_4="42.02491" pt_clust_5="56.11888" pt_clust_6="67.05663"></scales>
<clustering>
<clus scale="   42.025">  2  4  1 -1</clus>
<clus scale="   56.119">  1  5  2 -1</clus>
<clus scale="   67.057">  1  6  2 -1</clus>
<clus scale="   56.119">  1  3  2 -1</clus>
</clustering>
</event>
<event>
 6    0  0.1225088E+003  0.1103021E+03  0.7546771E-02  0.1260011E+00
         21   -1    0    0  505  501  0.00000000000E+00  0.00000000000E+00  0.91268365744E+03  0.91268365744E+03  0.00000000000E+00 0.  1.
         21   -1    0    0  504  502 -0.00000000000E+00 -0.00000000000E+00 -0.53362062276E+03  0.53362062276E+03  0.00000000000E+00 0.  1.
         21    1    1    2  503  501  0.19446758960E+02 -0.25377212418E+02  0.66628144999E+03  0.66704808668E+03  0.00000000000E+00 0.  1.
         21    1    1    2  504  506  0.44017949507E+02  0.39499810203E+02 -0.36534878849E+03  0.37010478534E+03  0.00000000000E+00 0.  1.
         21    1    1    2  505  502 -0.43613423824E+02 -0.87726513238E+02  0.22404160038E+03  0.24452548040E+03  0.00000000000E+00 0.  1.
         21    1    1    2  506  503 -0.19851284643E+02  0.73603915454E+02 -0.14591122720E+03  0.16462592777E+03  0.00000000000E+00 0. -1.
<scales pt_clust_3="31.97154" pt_clust_4="59.11921" pt_clust_5="110.30212" pt_clust_6="14000.00000"></scales>
<clustering>
<clus scale="   31.972">  1  3  2 -1</clus>
<clus scale="   59.119">  2  4  1 -1</clus>
<clus scale="  110.302">  1  5  2 -1</clus>
<clus scale="   31.972">  1  3  2 -1</clus>
</clustering>
</event>
<event>
 6    0  0.8520634E+002  0.1039894E+03  0.7546771E-02  0.1272124E+00
         21   -1    0    0  505  501  0.00000000000E+00  0.00000000000E+00  0.20897892127E+04  0.20897892127E+04  0.00000000000E+00 0. -1.
         21   -1    0    0  506  502 -0.00000000000E+00 -0.00000000000E+00 -0.22532710818E+04  0.22532710818E+04  0.00000000000E+00 0. -1.
         21    1    1    2  503  501  0.59436917800E+02 -0.20153253457E+02  0.13207771054E+04  0.13222673946E+04  0.00000000000E+00 0. -1.
         21    1    1    2  504  502 -0.15755997775E+02 -0.49674165132E+02 -0.19122068936E+04  0.19129168770E+04  0.00000000000E+00 0. -1.
         21    1    1    2  505  504 -0.10515975253E+03  0.11393772060E+03  0.75573119664E+03  0.77147263030E+03  0.00000000000E+00 0. -1.
         21    1    1    2  506  503  0.61478832504E+02 -0.44110302008E+02 -0.32778327752E+03  0.33640339268E+03  0.00000000000E+00 0.  1.
<scales pt_clust_3="62.76302" pt_clust_4="52.11309" pt_clust_5="14000.00000" pt_clust_6="103.98939"></scales>
<clustering>
<clus scale="   52.113">  2  4  1 -1</clus>
<clus scale="   62.763">  1  3  2 -1</clus>
<clus scale="  103.989">  2  6  1 -1</clus>
<clus scale="   62.763">  1  3  2 -1</clus>
</clustering>
</event>
<event>
 6    0  0.8520634E+002  0.1405748E+03  0.7546771E-02  0.1212558E+00
         21   -1    0    0  506  501  0.00000000000E+00  0.00000000000E+00  0.22355558584E+04  0.22355558584E+04  0.00000000000E+00 0.  1.
         21   -1    0    0  501  502 -0.00000000000E+00 -0.00000000000E+00 -0.13445364233E+03  0.13445364233E+03  0.00000000000E+00 0. -1.
         21    1    1    2  503  504 -0.13700391052E+02  0.75706718287E+02  0.96945059471E+03  0.97249867017E+03  0.00000000000E+00 0.  1.
         21    1    1    2  504  505 -0.65448328705E+01 -0.63530288140E+02 -0.50652263329E+02  0.81514318551E+02  0.00000000000E+00 0. -1.
         21    1    1    2  505  502  0.47502861158E+02 -0.59558249484E+02 -0.44332759541E+02  0.88142500920E+02  0.00000000000E+00 0. -1.
         21    1    1    2  506  503 -0.27257637235E+02  0.47381819338E+02  0.12266366442E+04  0.12278540111E+04  0.00000000000E+00 0.  1.
<scales pt_clust_3="136.94072" pt_clust_4="49.58626" pt_clust_5="49.58626" pt_clust_6="36.97677"></scales>
<clustering>
<clus scale="   36.977">  3  6 -1 -1</clus>
<clus scale="   49.586">  4  5 -1 -1</clus>
<clus scale="  136.941">  1  3  2 -1</clus>
<clus scale="  136.941">  1  3  2 -1</clus>
</clustering>
</event>
<event>
 6    0  0.8520634E+002  0.6229175E+02  0.7546771E-02  0.1388458E+00
         21   -1    0    0  505  501  0.00000000000E+00  0.00000000000E+00  0.18972023236E+03  0.18972023236E+03  0.00000000000E+00 0. -1.
         21   -1    0    0  504  502 -0.00000000000E+00 -0.00000000000E+00 -0.12124355027E+03  0.12124355027E+03  0.00000000000E+00 0. -1.
         21    1    1    2  503  506 -0.80302067705E+02 -0.53190032089E+01 -0.50089284077E+01  0.80633759906E+02  0.00000000000E+00 0. -1.
         21    1    1    2  504  501  0.85316426055E+01 -0.60314044574E+02  0.32492824691E+02  0.69038804703E+02  0.00000000000E+00 0. -1.
         21    1    1    2  505  503  0.28427989621E+02  0.61176152989E+02  0.78710231802E+02  0.10366278444E+03  0.00000000000E+00 0. -1.
         21    1    1    2  506  502  0.43342435478E+02  0.44568947940E+01 -0.37717445996E+02  0.57628433580E+02  0.00000000000E+00 0. -1.
<scales pt_clust_3="55.14222" pt_clust_4="14000.00000" pt_clust_5="62.29175" pt_clust_6="43.57098"></scales>
<clustering>
<clus scale="   43.571">  2  6  1 -1</clus>
<clus scale="   55.142">  2  3  1 -1</clus>
<clus scale="   62.292">  1  5  2 -1</clus>
<clus scale="   62.292">  1  3  2 -1</clus>
</clustering>
</event>
<event>
 6    0  0.8520634E+002  0.8377452E+02  0.7546771E-02  0.1318669E+00
         21   -1    0    0  503  501  0.00000000000E+00  0.00000000000E+00  0.59644752955E+03  0.59644752955E+03  0.00000000000E+00 0. -1.
         21   -1    0    0  504  502 -0.00000000000E+00 -0.00000000000E+00 -0.31591274013E+03  0.31591274013E+03  0.00000000000E+00 0.  1.
         21    1    1    2  503  505  0.42678484486E+02  0.44225002277E+02  0.52199810940E+03  0.52560377670E+03  0.00000000000E+00 0. -1.
         21    1    1    2  504  506  0.73074229909E+02 -0.13618733261E+02 -0.49410802040E+02  0.89256598248E+02  0.00000000000E+00 0.  1.
         21    1    1    2  505  502 -0.87397895411E+02 -0.20238738628E+02 -0.23123952993E+03  0.24803168924E+03  0.00000000000E+00 0.  1.
         21    1    1    2  506  501 -0.28354818984E+02 -0.10367530388E+02  0.39187011988E+02  0.49468205492E+02  0.00000000000E+00 0.  1.
<scales pt_clust_3="37.83604" pt_clust_4="14000.00000" pt_clust_5="83.77452" pt_clust_6="30.19075"></scales>
<clustering>
<clus scale="   30.191">  1  6  2 -1</clus>
<clus scale="   37.836">  1  3  2 -1</clus>
<clus scale="   83.775">  2  5  1 -1</clus>
<clus scale="   30.191">  1  3  2 -1</clus>
</clustering>
</event>
<event>
 6    0  0.8520634E+002  0.1068953E+03  0.7546771E-02  0.1266430E+00
         21   -1    0    0  504  501  0.00000000000E+00  0.00000000000E+00  0.10856053474E+04  0.10856053474E+04  0.00000000000E+00 0.  1.
         21   -1    0    0  506  502 -0.00000000000E+00 -0.00000000000E+00 -0.73398762088E+02  0.73398762088E+02  0.00000000000E+00 0. -1.
         21    1    1    2  503  501 -0.21181806000E+02  0.45065971015E+02  0.51909753527E+03  0.52148045195E+03  0.00000000000E+00 0.  1.
         21    1    1    2  504  505  0.42011787861E+02 -0.62759410574E+01  0.29555184544E+03  0.29858879935E+03  0.00000000000E+00 0. -1.
         21    1    1    2  505  502 -0.49429653733E+02 -0.13318495228E+03  0.19372129008E+03  0.24022793429E+03  0.00000000000E+00 0. -1.
         21    1    1    2  506  503  0.28599671872E+02  0.94394922324E+02  0.38359145621E+01  0.98706923932E+02  0.00000000000E+00 0. -1.
<scales pt_clust_3="41.44399" pt_clust_4="42.47797" pt_clust_5="14000.00000" pt_clust_6="106.89534"></scales>
<clustering>
<clus scale="   42.478">  1  4  2 -1</clus>
<clus scale="   41.444">  1  3  2 -1</clus>
<clus scale="  106.895">  2  6  1 -1</clus>
<clus scale="   42.478">  1  3  2 -1</clus>
</clustering>
</event>
<event>
 6    0  0.8520634E+002  0.1158773E+03  0.7546771E-02  0.1250057E+00
         21   -1    0    0  504  501  0.00000000000E+00  0.00000000000E+00  0.42704908476E+03  0.42704908476E+03  0.00000000000E+00 0. -1.
         21   -1    0    0  503  502 -0.00000000000E+00 -0.00000000000E+00 -0.38007508525E+03  0.38007508525E+03  0.00000000000E+00 0.  1.
         21    1    1    2  503  505 -0.56458678082E+02  0.21630059172E+02 -0.44267217971E+02  0.74933493028E+02  0.00000000000E+00 0.  1.
         21    1    1    2  504  506  0.61858760362E+02  0.27443764861E+02  0.95328544845E+02  0.11690679161E+03  0.00000000000E+00 0. -1.
         21    1    1    2  505  501  0.61794740324E+02 -0.31523860561E+02  0.29766560003E+03  0.30564219794E+03  0.00000000000E+00 0. -1.
         21    1    1    2  506  502 -0.67194822605E+02 -0.17549963472E+02 -0.30175292740E+03  0.30964168743E+03  0.00000000000E+00 0.  1.
<scales pt_clust_3="60.46025" pt_clust_4="66.24669" pt_clust_5="115.87728" pt_clust_6="14000.00000"></scales>
<clustering>
<clus scale="   60.460">  2  3  1 -1</clus>
<clus scale="   66.247">  1  4  2 -1</clus>
<clus scale="  115.877">  1  5  2 -1</clus>
<clus scale="   66.247">  1  3  2 -1</clus>
</clustering>
</event>
<event>
 6    0  0.8520634E+002  0.1044149E+03  0.7546771E-02  0.1271277E+00
         21   -1    0    0  503  501  0.00000000000E+00  0.00000000000E+00  0.24475456718E+03  0.24475456718E+03  0.00000000000E+00 0.  1.
         21   -1    0    0  505  502 -0.00000000000E+00 -0.00000000000E+00 -0.10972273343E+04  0.10972273343E+04  0.00000000000E+00 0.  1.
         21    1    1    2  503  506 -0.65841615625E+02  0.57578181002E+02  0.52585229862E+01  0.87624296514E+02  0.00000000000E+00 0.  1.
         21    1    1    2  504  501  0.50599309422E+02 -0.10125235916E+03  0.17825281061E+03  0.21115490722E+03  0.00000000000E+00 0.  1.
         21    1    1    2  505  504  0.29996599568E+02  0.12627836900E+02 -0.95063051841E+03  0.95118748981E+03  0.00000000000E+00 0.  1.
         21    1    1    2  506  502 -0.14754293364E+02  0.31046341263E+02 -0.85353582342E+02  0.92015207966E+02  0.00000000000E+00 0.  1.
<scales pt_clust_3="14000.00000" pt_clust_4="104.41486" pt_clust_5="32.54625" pt_clust_6="38.85157"></scales>
<clustering>
<clus scale="   32.546">  2  5  1 -1</clus>
<clus scale="   38.852">  2  6  1 -1</clus>
<clus scale="  104.415">  1  4  2 -1</clus>
<clus scale="  104.415">  1  3  2 -1</clus>
</clustering>
</event>
<event>
 6    0  0.8520634E+002  0.1345343E+03  0.7546771E-02  0.1220879E+00
         21   -1    0    0  502  501  0.00000000000E+00  0.00000000000E+00  0.99463154106E+02  0.99463154106E+02  0.00000000000E+00 0. -1.
         21   -1    0    0  503  502 -0.00000000000E+00 -0.00000000000E+00 -0.98992124550E+03  0.98992124550E+03  0.00000000000E+00 0.  1.
         21    1    1    2  503  505  0.11231596679E+02  0.34197139130E+02 -0.66488840997E+03  0.66586199081E+03  0.00000000000E+00 0.  1.
         21    1    1    2  504  501 -0.65727376310E+02 -0.17725705252E+02  0.25961337283E+02  0.72857941618E+02  0.00000000000E+00 0. -1.
         21    1    1    2  505  506  0.99448643507E+02  0.36795177926E+02 -0.25967461431E+03  0.28049032627E+03  0.00000000000E+00 0.  1.
         21    1    1    2  506  504 -0.44952863876E+02 -0.53266611804E+02  0.81435955990E+01  0.70174140914E+02  0.00000000000E+00 0.  1.
<scales pt_clust_3="35.99435" pt_clust_4="44.72301" pt_clust_5="126.86397" pt_clust_6="44.72301"></scales>
<clustering>
<clus scale="   35.994">  2  3  1 -1</clus>
<clus scale="   44.723">  4  6 -1 -1</clus>
<clus scale="  126.864">  2  5  1 -1</clus>
<clus scale="  134.534">  1  3  2 -1</clus>
</clustering>
</event>
<event>
 6    0  0.8520634E+002  0.7883815E+02  0.7546771E-02  0.1332381E+00
         21   -1    0    0  503  501  0.00000000000E+00  0.00000000000E+00  0.13676115244E+03  0.13676115244E+03  0.00000000000E+00 0. -1.
         21   -1    0    0  506  502 -0.00000000000E+00 -0.00000000000E+00 -0.14372150047E+04  0.14372150047E+04  0.00000000000E+00 0. -1.
         21    1    1    2  503  504  0.39509545828E+02 -0.65464859656E+02 -0.24242599197E+03  0.25419876799E+03  0.00000000000E+00 0. -1.
         21    1    1    2  504  502 -0.56911343130E+02  0.56030043329E+02 -0.11390328867E+04  0.11418293147E+04  0.00000000000E+00 0. -1.
         21    1    1    2  505  501 -0.31869976844E+02 -0.29797846859E+02  0.10249857492E+03  0.11139822693E+03  0.00000000000E+00 0. -1.
         21    1    1    2  506  505  0.49271774146E+02  0.39232663185E+02 -0.21493548499E+02  0.66549847597E+02  0.00000000000E+00 0. -1.
<scales pt_clust_3="14000.00000" pt_clust_4="78.83815" pt_clust_5="43.63035" pt_clust_6="30.23089"></scales>
<clustering>
<clus scale="   43.630">  1  5  2 -1</clus>
<clus scale="   30.231">  1  6  2 -1</clus>
<clus scale="   78.838">  2  4  1 -1</clus>
<clus scale="   43.630">  1  3  2 -1</clus>
</clustering>
</event>
<event>
 6    0  0.8520634E+002  0.8348618E+02  0.7546771E-02  0.1319439E+00
         21   -1    0    0  505  501  0.00000000000E+00  0.00000000000E+00  0.60882971795E+03  0.60882971795E+03  0.00000000000E+00 0.  1.
         21   -1    0    0  504  502 -0.00000000000E+00 -0.00000000000E+00 -0.28110446917E+04  0.28110446917E+04  0.00000000000E+00 0.  1.
         21    1    1    2  503  502 -0.33769956327E+02 -0.75630466766E+02 -0.27024280117E+04  0.27036970125E+04  0.00000000000E+00 0.  1.
         21    1    1    2  504  506  0.44686481724E+02  0.10990634533E+03 -0.70322842055E+02  0.13791877504E+03  0.00000000000E+00 0.  1.
         21    1    1    2  505  503  0.23557681060E+02 -0.50323817066E+02  0.30605512197E+03  0.31105817557E+03  0.00000000000E+00 0.  1.
         21    1    1    2  506  501 -0.34474206457E+02  0.16047938498E+02  0.26448075801E+03  0.26720044648E+03  0.00000000000E+00 0.  1.
<scales pt_clust_3="83.48618" pt_clust_4="14000.00000" pt_clust_5="36.65322" pt_clust_6="38.02640"></scales>
<clustering>
<clus scale="   38.026">  1  6  2 -1</clus>
<clus scale="   36.653">  1  5  2 -1</clus>
<clus scale="   83.486">  2  3  1 -1</clus>
<clus scale="   38.026">  1  3  2 -1</clus>
</clustering>
</event>
<event>
 6    0  0.8520634E+002  0.1119063E+03  0.7546771E-02  0.1257080E+00
         21   -1    0    0  504  501  0.00000000000E+00  0.00000000000E+00  0.91610731290E+02  0.91610731290E+02  0.00000000000E+00 0. -1.
         21   -1    0    0  505  502 -0.00000000000E+00 -0.00000000000E+00 -0.17181300459E+04  0.17181300459E+04  0.00000000000E+00 0.  1.
         21    1    1    2  503  502  0.75991106716E+02  0.37674996821E+02 -0.31572039681E+03  0.32691500829E+03  0.00000000000E+00 0.  1.
         21    1    1    2  504  503 -0.10826255906E+02 -0.28405796966E+02  0.55345846356E+02  0.63144752965E+02  0.00000000000E+00 0. -1.
         21    1    1    2  505  506  0.28200180061E+02  0.49434089032E+02 -0.12759244471E+04  0.12771930841E+04  0.00000000000E+00 0.  1.
         21    1    1    2  506  501 -0.93365030870E+02 -0.58703288888E+02 -0.90220317074E+02  0.14248793187E+03  0.00000000000E+00 0. -1.
<scales pt_clust_3="111.90632" pt_clust_4="30.39897" pt_clust_5="56.32340" pt_clust_6="14000.00000"></scales>
<clustering>
<clus scale="   30.399">  1  4  2 -1</clus>
<clus scale="   56.323">  2  5  1 -1</clus>
<clus scale="  111.906">  2  3  1 -1</clus>
<clus scale="   30.399">  1  3  2 -1</clus>
</clustering>
</event>
<event>
 6    0  0.8520634E+002  0.1089215E+03  0.7546771E-02  0.1262580E+00
         21   -1    0    0  505  501  0.00000000000E+00  0.00000000000E+00  0.17567352206E+02  0.17567352206E+02  0.00000000000E+00 0. -1.
         21   -1    0    0  504  502 -0.00000000000E+00 -0.00000000000E+00 -0.14430688924E+04  0.14430688924E+04  0.00000000000E+00 0. -1.
         21    1    1    2  503  501 -0.62853806695E+02  0.10130245076E+03 -0.29269674621E+03  0.31604457406E+03  0.00000000000E+00 0. -1.
         21    1    1    2  504  506 -0.26136040306E+01 -0.36509102001E+02 -0.53983727106E+03  0.54107672717E+03  0.00000000000E+00 0. -1.
         21    1    1    2  505  502  0.46330052575E+02 -0.57904178134E+01 -0.18204674415E+03  0.18793887242E+03  0.00000000000E+00 0. -1.
         21    1    1    2  506  503  0.19137358151E+02 -0.59002930942E+02 -0.41092077882E+03  0.41557607102E+03  0.00000000000E+00 0. -1.
<scales pt_clust_3="100.07885" pt_clust_4="33.02358" pt_clust_5="46.69050" pt_clust_6="33.02358"></scales>
<clustering>
<clus scale="   33.024">  4  6 -1 -1</clus>
<clus scale="   46.690">  1  5  2 -1</clus>
<clus scale="  100.079">  1  3  2 -1</clus>
<clus scale="   46.690">  1  3  2 -1</clus>
</clustering>
</event>
<event>
 6    0  0.8520634E+002  0.1622876E+03  0.7546771E-02  0.1186138E+00
         21   -1    0    0  506  501  0.00000000000E+00  0.00000000000E+00  0.71595301196E+02  0.71595301196E+02  0.00000000000E+00 0. -1.
         21   -1    0    0  505  502 -0.00000000000E+00 -0.00000000000E+00 -0.22671497843E+04  0.22671497843E+04  0.00000000000E+00 0. -1.
         21    1    1    2  503  501 -0.74620206511E+02  0.88857400710E+02 -0.22473336909E+03  0.25292073870E+03  0.00000000000E+00 0.  1.
         21    1    1    2  504  503  0.99017359614E+02 -0.13994949990E+03 -0.12027986126E+04  0.12149546504E+04  0.00000000000E+00 0. -1.
         21    1    1    2  505  504 -0.11276347836E+02 -0.41283552689E+02 -0.77604360757E+03  0.77722272779E+03  0.00000000000E+00 0.  1.
         21    1    1    2  506  502 -0.13120805267E+02  0.92375651874E+02  0.80211061457E+01  0.93646968631E+02  0.00000000000E+00 0. -1.
<scales pt_clust_3="162.28756" pt_clust_4="14000.00000" pt_clust_5="42.79588" pt_clust_6="92.17563"></scales>
<clustering>
<clus scale="   42.796">  2  5  1 -1</clus>
<clus scale="   92.176">  1  6  2 -1</clus>
<clus scale="  162.288">  1  3  2 -1</clus>
<clus scale="   92.176">  1  3  2 -1</clus>
</clustering>
</event>
<event>
 6    0  0.8520634E+002  0.9079511E+02  0.7546771E-02  0.1300938E+00
         21   -1    0    0  505  501  0.00000000000E+00  0.00000000000E+00  0.60592122154E+02  0.60592122154E+02  0.00000000000E+00 0.  1.
         21   -1    0    0  506  502 -0.00000000000E+00 -0.00000000000E+00 -0.68297966300E+03  0.68297966300E+03  0.00000000000E+00 0.  1.
         21    1    1    2  503  502 -0.72365636304E+02  0.54745255228E+02 -0.53058567612E+03  0.53828894471E+03  0.00000000000E+00 0.  1.
         21    1    1    2  504  501  0.14661860961E+02  0.35267054539E+02 -0.37074456785E+02  0.53228288049E+02  0.00000000000E+00 0.  1.
         21    1    1    2  505  503 -0.21658041528E+02 -0.43882239774E+02 -0.10018732356E+02  0.49950943219E+02  0.00000000000E+00 0.  1.
         21    1    1    2  506  504  0.79361816871E+02 -0.46130069993E+02 -0.44708675578E+02  0.10210360918E+03  0.00000000000E+00 0.  1.
<scales pt_clust_3="14000.00000" pt_clust_4="38.19339" pt_clust_5="34.45777" pt_clust_6="90.79511"></scales>
<clustering>
<clus scale="   38.193">  1  4  2 -1</clus>
<clus scale="   34.458">  1  5  2 -1</clus>
<clus scale="   90.795">  1  6  2 -1</clus>
<clus scale="   38.193">  1  3  2 -1</clus>
</clustering>
</event>
<event>
 6    0  0.8520634E+002  0.1027806E+03  0.7546771E-02  0.1274555E+00
         21   -1    0    0  503  501  0.00000000000E+00  0.00000000000E+00  0.21555570135E+03  0.21555570135E+03  0.00000000000E+00 0.  1.
         21   -1    0    0  505  502 -0.00000000000E+00 -0.00000000000E+00 -0.14995325649E+04  0.14995325649E+04  0.00000000000E+00 0.  1.
         21    1    1    2  503  504 -0.37182939103E+02 -0.51163867685E+02  0.40026993068E+02  0.74849665937E+02  0.00000000000E+00 0.  1.
         21    1    1    2  504  502  0.10456422170E+03  0.76751891217E+02  0.12069628818E+03  0.17717822453E+03  0.00000000000E+00 0.  1.
         21    1    1    2  505  506 -0.96002856916E+02 -0.35930198533E+02 -0.14204592919E+04  0.14241531265E+04  0.00000000000E+00 0.  1.
         21    1    1    2  506  501  0.28621574320E+02  0.10342175000E+02 -0.24240852898E+02  0.38907249318E+02  0.00000000000E+00 0. -1.
<scales pt_clust_3="56.49528" pt_clust_4="14000.00000" pt_clust_5="102.78062" pt_clust_6="30.43280"></scales>
<clustering>
<clus scale="   30.433">  1  6  2 -1</clus>
<clus scale="   56.495">  1  3  2 -1</clus>
<clus scale="  102.781">  2  5  1 -1</clus>
<clus scale="   30.433">  1  3  2 -1</clus>
</clustering>
</event>
<event>
 6    0  0.8520634E+002  0.5953485E+02  0.7546771E-02  0.1399794E+00
         21   -1    0    0  505  501  0.00000000000E+00  0.00000000000E+00  0.25382158384E+04  0.25382158384E+04  0.00000000000E+00 0. -1.
         21   -1    0    0  504  502 -0.00000000000E+00 -0.00000000000E+00 -0.42086467767E+02  0.42086467767E+02  0.00000000000E+00 0.  1.
         21    1    1    2  503  506 -0.11759271771E+03  0.10243886712E+02  0.23254285927E+03  0.26078567037E+03  0.00000000000E+00 0.  1.
         21    1    1    2  504  503  0.15162220782E+02 -0.30148250528E+02 -0.14249686968E+02  0.36631455439E+02  0.00000000000E+00 0.  1.
         21    1    1    2  505  502  0.45385001793E+02  0.98207770090E+01  0.25334909571E+03  0.25756942820E+03  0.00000000000E+00 0. -1.
         21    1    1    2  506  501  0.57045495133E+02  0.10083586807E+02  0.20244871026E+04  0.20253157521E+04  0.00000000000E+00 0. -1.
<scales pt_clust_3="59.53485" pt_clust_4="33.74626" pt_clust_5="47.68593" pt_clust_6="14000.00000"></scales>
<clustering>
<clus scale="   33.746">  2  4  1 -1</clus>
<clus scale="   47.686">  2  5  1 -1</clus>
<clus scale="   59.535">  2  3  1 -1</clus>
<clus scale="   59.535">  1  3  2 -1</clus>
</clustering>
</event>
<event>
 6    0  0.8520634E+002  0.1622167E+03  0.7546771E-02  0.1186217E+00
         21   -1    0    0  504  501  0.00000000000E+00  0.00000000000E+00  0.11643477906E+03  0.11643477906E+03  0.00000000000E+00 0. -1.
         21   -1    0    0  506  502 -0.00000000000E+00 -0.00000000000E+00 -0.13696624956E+04  0.13696624956E+04  0.00000000000E+00 0. -1.
         21    1    1    2  503  501 -0.14015418478E+03 -0.40754246513E+02 -0.79339191855E+02  0.16612890021E+03  0.00000000000E+00 0. -1.
         21    1    1    2  504  505  0.13460055738E+03  0.13727610331E+03 -0.72766561341E+02  0.20556510170E+03  0.00000000000E+00 0. -1.
         21    1    1    2  505  502 -0.19373353619E+01  0.32339465700E+02 -0.10314318429E+03  0.10811156634E+03  0.00000000000E+00 0.  1.
         21    1    1    2  506  503  0.74909627549E+01 -0.12886132250E+03 -0.99797877904E+03  0.10062917064E+04  0.00000000000E+00 0. -1.
<scales pt_clust_3="162.21667" pt_clust_4="14000.00000" pt_clust_5="32.39744" pt_clust_6="103.39402"></scales>
<clustering>
<clus scale="   32.397">  2  5  1 -1</clus>
<clus scale="  103.394">  2  6  1 -1</clus>
<clus scale="  162.217">  1  3  2 -1</clus>
<clus scale="  162.217">  1  3  2 -1</clus>
</clustering>
</event>
<event>
 6    0  0.8769331E+002  0.7683404E+02  0.7546771E-02  0.1338284E+00
         21   -1    0    0  506  501  0.00000000000E+00  0.00000000000E+00  0.95272294920E+03  0.95272294920E+03  0.00000000000E+00 0.  1.
         21   -1    0    0  503  502 -0.00000000000E+00 -0.00000000000E+00 -0.16330591674E+03  0.16330591674E+03  0.00000000000E+00 0. -1.
         21    1    1    2  503  505 -0.99277641323E+02  0.22661614400E+02  0.68109226463E+03  0.68866266907E+03  0.00000000000E+00 0.  1.
         21    1    1    2  504  502  0.68704079520E+02 -0.33676472590E+02 -0.13920302151E+03  0.15884532271E+03  0.00000000000E+00 0. -1.
         21    1    1    2  505  501  0.22325109992E+02  0.50095947045E+02  0.19479451884E+03  0.20236827571E+03  0.00000000000E+00 0.  1.
         21    1    1    2  506  504  0.82484518111E+01 -0.39081088856E+02  0.52733270505E+02  0.66152598450E+02  0.00000000000E+00 0.  1.
<scales pt_clust_3="76.83404" pt_clust_4="14000.00000" pt_clust_5="47.94026" pt_clust_6="39.94206"></scales>
<clustering>
<clus scale="   39.942">  1  6  2 -1</clus>
<clus scale="   47.940">  1  5  2 -1</clus>
<clus scale="   76.834">  1  3  2 -1</clus>
<clus scale="   39.942">  1  3  2 -1</clus>
</clustering>
</event>
<event>
 6    0  0.8520634E+002  0.1113912E+03  0.7546771E-02  0.1258015E+00
         21   -1    0    0  505  501  0.00000000000E+00  0.00000000000E+00  0.10610349704E+04  0.10610349704E+04  0.00000000000E+00 0.  1.
         21   -1    0    0  503  502 -0.00000000000E+00 -0.00000000000E+00 -0.38293201658E+02  0.38293201658E+02  0.00000000000E+00 0. -1.
         21    1    1    2  503  504 -0.86738590769E+01 -0.35114964925E+02  0.71211369887E+01  0.36864714633E+02  0.00000000000E+00 0. -1.
         21    1    1    2  504  506  0.58225491957E+02 -0.71392392551E+02  0.15677252563E+03  0.18183703259E+03  0.00000000000E+00 0. -1.
         21    1    1    2  505  502 -0.15939016764E+02  0.14365173419E+03  0.63455982771E+03  0.65081183758E+03  0.00000000000E+00 0.  1.
         21    1    1    2  506  501 -0.33612616116E+02 -0.37144376711E+02  0.22428827843E+03  0.22981458728E+03  0.00000000000E+00 0.  1.
<scales pt_clust_3="36.17038" pt_clust_4="111.39124" pt_clust_5="14000.00000" pt_clust_6="53.89128"></scales>
<clustering>
<clus scale="   36.170">  2  3  1 -1</clus>
<clus scale="   53.891">  1  6  2 -1</clus>
<clus scale="  111.391">  2  4  1 -1</clus>
<clus scale="   53.891">  1  3  2 -1</clus>
</clustering>
</event>
<event>
 6    0  0.8520634E+002  0.9818202E+02  0.7546771E-02  0.1284166E+00
         21   -1    0    0  506  501  0.00000000000E+00  0.00000000000E+00  0.43927855444E+03  0.43927855444E+03  0.00000000000E+00 0.  1.
         21   -1    0    0  503  502 -0.00000000000E+00 -0.00000000000E+00 -0.98565656095E+02  0.98565656095E+02  0.00000000000E+00 0.  1.
         21    1    1    2  503  505 -0.31468250609E+02 -0.10998048967E+03  0.41317893110E+02  0.12162700027E+03  0.00000000000E+00 0.  1.
         21    1    1    2  504  501  0.63073040873E+02 -0.31601420124E+02  0.92442934607E+02  0.11628651855E+03  0.00000000000E+00 0.  1.
         21    1    1    2  505  504 -0.72021653648E+02  0.10943652248E+03  0.21074832009E+03  0.24814980449E+03  0.00000000000E+00 0.  1.
         21    1    1    2  506  502  0.40416863384E+02  0.32145387311E+02 -0.37962494641E+01  0.51780887219E+02  0.00000000000E+00 0.  1.
<scales pt_clust_3="98.18202" pt_clust_4="74.62634" pt_clust_5="14000.00000" pt_clust_6="51.64154"></scales>
<clustering>
<clus scale="   51.642">  2  6  1 -1</clus>
<clus scale="   74.626">  1  4  2 -1</clus>
<clus scale="   98.182">  2  3  1 -1</clus>
<clus scale="   74.626">  1  3  2 -1</clus>
</clustering>
</event>
<event>
 6    0  0.8520634E+002  0.8106717E+02  0.7546771E-02  0.1326050E+00
         21   -1    0    0  503  501  0.00000000000E+00  0.00000000000E+00  0.21956024497E+03  0.21956024497E+03  0.00000000000E+00 0. -1.
         21   -1    0    0  505  502 -0.00000000000E+00 -0.00000000000E+00 -0.99882379354E+03  0.99882379354E+03  0.00000000000E+00 0. -1.
         21    1    1    2  503  506 -0.38895902897E+02 -0.10337456455E+02  0.16561292656E+03  0.17043296545E+03  0.00000000000E+00 0. -1.
         21    1    1    2  504  501  0.68519117578E+02 -0.19522625262E+02  0.13763487653E+02  0.72563323815E+02  0.00000000000E+00 0. -1.
         21    1    1    2  505  504  0.67628235824E+02  0.35067086185E+02 -0.55287983649E+03  0.55810338864E+03  0.00000000000E+00 0. -1.
         21    1    1    2  506  502 -0.97251450505E+02 -0.52070044677E+01 -0.40576012629E+03  0.41728436061E+03  0.00000000000E+00 0. -1.
<scales pt_clust_3="40.24617" pt_clust_4="45.67322" pt_clust_5="81.06717" pt_clust_6="14000.00000"></scales>
<clustering>
<clus scale="   40.246">  1  3  2 -1</clus>
<clus scale="   45.673">  1  4  2 -1</clus>
<clus scale="   81.067">  2  5  1 -1</clus>
<clus scale="   40.246">  1  3  2 -1</clus>
</clustering>
</event>
<event>
 6    0  0.8520634E+002  0.1909230E+03  0.7546771E-02  0.1157631E+00
         21   -1    0    0  503  501  0.00000000000E+00  0.00000000000E+00  0.15388878215E+04  0.15388878215E+04  0.00000000000E+00 0.  1.
         21   -1    0    0  506  502 -0.00000000000E+00 -0.00000000000E+00 -0.41090580072E+02  0.41090580072E+02  0.00000000000E+00 0. -1.
         21    1    1    2  503  504 -0.17439027485E+03  0.28850873158E+02  0.66342604629E+03  0.68657006907E+03  0.00000000000E+00 0.  1.
         21    1    1    2  504  505  0.20527744234E+03 -0.44660602557E+02  0.54838635951E+03  0.58724866713E+03  0.00000000000E+00 0. -1.
         21    1    1    2  505  502 -0.33621746478E+02 -0.27805266937E+02  0.50866606469E+02  0.67014672717E+02  0.00000000000E+00 0. -1.
         21    1    1    2  506  501  0.27345789818E+01  0.43614996336E+02  0.23511822919E+03  0.23914499268E+03  0.00000000000E+00 0. -1.
<scales pt_clust_3="14000.00000" pt_clust_4="190.92298" pt_clust_5="43.62975" pt_clust_6="41.92499"></scales>
<clustering>
<clus scale="   43.630">  2  5  1 -1</clus>
<clus scale="   41.925">  1  6  2 -1</clus>
<clus scale="  190.923">  2  4  1 -1</clus>
<clus scale="   41.925">  1  3  2 -1</clus>
</clustering>
</event>
<event>
 6    0  0.8520634E+002  0.9144293E+02  0.7546771E-02  0.1299395E+00
         21   -1    0    0  506  501  0.00000000000E+00  0.00000000000E+00  0.50384510211E+03  0.50384510211E+03  0.00000000000E+00 0.  1.
         21   -1    0    0  504  502 -0.00000000000E+00 -0.00000000000E+00 -0.91645806384E+02  0.91645806384E+02  0.00000000000E+00 0. -1.
         21    1    1    2  503  502  0.40616041161E+02  0.38308078571E+02  0.18342850131E+02  0.58767608717E+02  0.00000000000E+00 0. -1.
         21    1    1    2  504  501  0.64809038516E+02 -0.15422646551E+02 -0.31341748194E+02  0.73623193898E+02  0.00000000000E+00 0. -1.
         21    1    1    2  505  503 -0.88687025766E+02 -0.50676556111E+02  0.12624819004E+03  0.16239491177E+03  0.00000000000E+00 0. -1.
         21    1    1    2  506  505 -0.16738053911E+02  0.27791124091E+02  0.29895000375E+03  0.30070519412E+03  0.00000000000E+00 0.  1.
<scales pt_clust_3="57.44733" pt_clust_4="91.44293" pt_clust_5="14000.00000" pt_clust_6="32.44240"></scales>
<clustering>
<clus scale="   32.442">  1  6  2 -1</clus>
<clus scale="   57.447">  2  3  1 -1</clus>
<clus scale="   91.443">  2  4  1 -1</clus>
<clus scale="   32.442">  1  3  2 -1</clus>
</clustering>
</event>
<event>
 6    0  0.8520634E+002  0.6726936E+02  0.7546771E-02  0.1369633E+00
         21   -1    0    0  503  501  0.00000000000E+00  0.00000000000E+00  0.40100455558E+03  0.40100455558E+03  0.00000000000E+00 0.  1.
         21   -1    0    0  506  502 -0.00000000000E+00 -0.00000000000E+00 -0.39942033766E+03  0.39942033766E+03  0.00000000000E+00 0.  1.
         21    1    1    2  503  505  0.58106865606E+02 -0.15385890884E+02  0.32920722169E+03  0.33464985923E+03  0.00000000000E+00 0.  1.
         21    1    1    2  504  502 -0.20989909081E+02 -0.35171064836E+02 -0.27913739786E+03  0.28212633158E+03  0.00000000000E+00 0.  1.
         21    1    1    2  505  504 -0.32657821409E+02 -0.48687519377E+02  0.21155053451E+02  0.62326111132E+02  0.00000000000E+00 0.  1.
         21    1    1    2  506  501 -0.44591351162E+01  0.99244475097E+02 -0.69640659364E+02  0.12132259130E+03  0.00000000000E+00 0.  1.
<scales pt_clust_3="59.85754" pt_clust_4="40.95827" pt_clust_5="67.26936" pt_clust_6="14000.00000"></scales>
<clustering>
<clus scale="   40.958">  2  4  1 -1</clus>
<clus scale="   59.858">  1  3  2 -1</clus>
<clus scale="   67.269">  1  5  2 -1</clus>
<clus scale="   59.858">  1  3  2 -1</clus>
</clustering>
</event>
<event>
 6    0  0.8520634E+002  0.8082626E+02  0.7546771E-02  0.1326723E+00
         21   -1    0    0  503  501  0.00000000000E+00  0.00000000000E+00  0.11140197207E+03  0.11140197207E+03  0.00000000000E+00 0. -1.
         21   -1    0    0  504  502 -0.00000000000E+00 -0.00000000000E+00 -0.26445162559E+03  0.26445162559E+03  0.00000000000E+00 0. -1.
         21    1    1    2  503  506  0.31481457948E+02  0.56597699325E+01  0.39254180620E+02  0.50636013729E+02  0.00000000000E+00 0. -1.
         21    1    1    2  504  501  0.53797858175E+02  0.10140838524E+02 -0.58193890573E+02  0.79897278115E+02  0.00000000000E+00 0. -1.
         21    1    1    2  505  502 -0.33025933041E+01  0.60098978229E+02 -0.11797639384E+03  0.13244328526E+03  0.00000000000E+00 0. -1.
         21    1    1    2  506  505 -0.81976722819E+02 -0.75899586686E+02 -0.16133549717E+02  0.11287702056E+03  0.00000000000E+00 0. -1.
<scales pt_clust_3="31.98617" pt_clust_4="59.96811" pt_clust_5="80.82626" pt_clust_6="14000.00000"></scales>
<clustering>
<clus scale="   31.986">  1  3  2 -1</clus>
<clus scale="   59.968">  2  4  1 -1</clus>
<clus scale="   80.826">  2  5  1 -1</clus>
<clus scale="   31.986">  1  3  2 -1</clus>
</clustering>
</event>
<event>
 6    0  0.8520634E+002  0.9143496E+02  0.7546771E-02  0.1299413E+00
         21   -1    0    0  506  501  0.00000000000E+00  0.00000000000E+00  0.18720323215E+03  0.18720323215E+03  0.00000000000E+00 0. -1.
         21   -1    0    0  505  502 -0.00000000000E+00 -0.00000000000E+00 -0.55451375162E+03  0.55451375162E+03  0.00000000000E+00 0.  1.
         21    1    1    2  503  501  0.57441507500E+02  0.58864020339E+01  0.24897040763E+02  0.62881151004E+02  0.00000000000E+00 0. -1.
         21    1    1    2  504  502 -0.28113575873E+02 -0.60447659806E+02  0.17150325815E+02  0.68836228833E+02  0.00000000000E+00 0. -1.
         21    1    1    2  505  503 -0.19473371709E+02  0.93310875429E+02 -0.50101453957E+03  0.51000166719E+03  0.00000000000E+00 0.  1.
         21    1    1    2  506  504 -0.98545599191E+01 -0.38749617657E+02  0.91656653519E+02  0.99997936749E+02  0.00000000000E+00 0. -1.
<scales pt_clust_3="54.22266" pt_clust_4="14000.00000" pt_clust_5="91.43496" pt_clust_6="39.98306"></scales>
<clustering>
<clus scale="   39.983">  1  6  2 -1</clus>
<clus scale="   54.223">  1  3  2 -1</clus>
<clus scale="   91.435">  2  5  1 -1</clus>
<clus scale="   39.983">  1  3  2 -1</clus>
</clustering>
</event>
<event>
 6    0  0.8520634E+002  0.8652765E+02  0.7546771E-02  0.1311485E+00
         21   -1    0    0  503  501  0.00000000000E+00  0.00000000000E+00  0.12064123353E+04  0.12064123353E+04  0.00000000000E+00 0.  1.
         21   -1    0    0  505  502 -0.00000000000E+00 -0.00000000000E+00 -0.44012018725E+03  0.44012018725E+03  0.00000000000E+00 0.  1.
         21    1    1    2  503  504  0.11902261572E+03 -0.10526253167E+03  0.40623515240E+03  0.43620360231E+03  0.00000000000E+00 0. -1.
         21    1    1    2  504  502 -0.74272700795E+01  0.82096525392E+02 -0.13205741531E+03  0.15567326283E+03  0.00000000000E+00 0.  1.
         21    1    1    2  505  506 -0.55229039137E+02 -0.24105948814E+02 -0.27626594862E+03  0.28276176881E+03  0.00000000000E+00 0.  1.
         21    1    1    2  506  501 -0.56366306505E+02  0.47271955093E+02  0.76838035958E+03  0.77189388858E+03  0.00000000000E+00 0.  1.
<scales pt_clust_3="86.52765" pt_clust_4="14000.00000" pt_clust_5="60.26063" pt_clust_6="73.86073"></scales>
<clustering>
<clus scale="   60.261">  2  5  1 -1</clus>
<clus scale="   73.861">  1  6  2 -1</clus>
<clus scale="   86.528">  1  3  2 -1</clus>
<clus scale="   73.861">  1  3  2 -1</clus>
</clustering>
</event>
<event>
 6    0  0.8520634E+002  0.1384483E+03  0.7546771E-02  0.1215432E+00
         21   -1    0    0  504  501  0.00000000000E+00  0.00000000000E+00  0.13241633831E+04  0.13241633831E+04  0.00000000000E+00 0.  1.
         21   -1    0    0  505  502 -0.00000000000E+00 -0.00000000000E+00 -0.12028797256E+03  0.12028797256E+03  0.00000000000E+00 0. -1.
         21    1    1    2  503  501  0.13198720128E+03  0.89247237414E+02  0.93618124887E+03  0.94964257562E+03  0.00000000000E+00 0.  1.
         21    1    1    2  504  506 -0.16718577551E+02 -0.59763084507E+02  0.12735671694E+03  0.14167169956E+03  0.00000000000E+00 0. -1.
         21    1    1    2  505  503 -0.19976009661E+03  0.81433036276E+01  0.16295113509E+03  0.25792146483E+03  0.00000000000E+00 0. -1.
         21    1    1    2  506  502  0.84491472884E+02 -0.37627456535E+02 -0.22613690363E+02  0.95215615669E+02  0.00000000000E+00 0. -1.
<scales pt_clust_3="138.44834" pt_clust_4="62.05753" pt_clust_5="14000.00000" pt_clust_6="92.78604"></scales>
<clustering>
<clus scale="   62.058">  1  4  2 -1</clus>
<clus scale="   92.786">  2  6  1 -1</clus>
<clus scale="  138.448">  1  3  2 -1</clus>
<clus scale="   62.058">  1  3  2 -1</clus>
</clustering>
</event>
<event>
 6    0  0.8520634E+002  0.9798801E+02  0.7546771E-02  0.1284585E+00
         21   -1    0    0  504  501  0.00000000000E+00  0.00000000000E+00  0.11883452871E+03  0.11883452871E+03  0.00000000000E+00 0.  1.
         21   -1    0    0  506  502 -0.00000000000E+00 -0.00000000000E+00 -0.56364466072E+03  0.56364466072E+03  0.00000000000E+00 0. -1.
         21    1    1    2  503  501 -0.24808762336E+02 -0.18383395104E+02 -0.33533943117E+01  0.31059123580E+02  0.00000000000E+00 0.  1.
         21    1    1    2  504  505  0.72359507233E+02 -0.64831168208E+02  0.66919288536E+02  0.11797105508E+03  0.00000000000E+00 0.  1.
         21    1    1    2  505  502 -0.85015308617E+02  0.89312942981E+02 -0.37304972227E+03  0.39290011424E+03  0.00000000000E+00 0. -1.
         21    1    1    2  506  503  0.37464563719E+02 -0.60983796693E+01 -0.13532630397E+03  0.14054889653E+03  0.00000000000E+00 0. -1.
<scales pt_clust_3="30.87756" pt_clust_4="97.98801" pt_clust_5="14000.00000" pt_clust_6="37.42610"></scales>
<clustering>
<clus scale="   30.878">  1  3  2 -1</clus>
<clus scale="   37.426">  2  6  1 -1</clus>
<clus scale="   97.988">  1  4  2 -1</clus>
<clus scale="   30.878">  1  3  2 -1</clus>
</clustering>
</event>
<event>
 6    0  0.8520634E+002  0.9104651E+02  0.7546771E-02  0.1300337E+00
         21   -1    0    0  503  501  0.00000000000E+00  0.00000000000E+00  0.26157601379E+03  0.26157601379E+03  0.00000000000E+00 0.  1.
         21   -1    0    0  505  502 -0.00000000000E+00 -0.00000000000E+00 -0.19414635638E+03  0.19414635638E+03  0.00000000000E+00 0.  1.
         21    1    1    2  503  504 -0.43005778795E+02  0.42504894484E+02  0.15941636696E+03  0.17049850767E+03  0.00000000000E+00 0.  1.
         21    1    1    2  504  506  0.40001587640E+02  0.58383971512E+02  0.48014855523E+02  0.85523338886E+02  0.00000000000E+00 0. -1.
         21    1    1    2  505  501  0.31729963767E+02  0.29596317553E+01 -0.50080349929E+02  0.59359847286E+02  0.00000000000E+00 0.  1.
         21    1    1    2  506  502 -0.28725772612E+02 -0.10384849775E+03 -0.89921215142E+02  0.14034067632E+03  0.00000000000E+00 0.  1.
<scales pt_clust_3="59.65991" pt_clust_4="14000.00000" pt_clust_5="31.86770" pt_clust_6="91.04651"></scales>
<clustering>
<clus scale="   31.868">  2  5  1 -1</clus>
<clus scale="   59.660">  1  3  2 -1</clus>
<clus scale="   91.047">  2  6  1 -1</clus>
<clus scale="   59.660">  1  3  2 -1</clus>
</clustering>
</event>
<event>
 6    0  0.8520634E+002  0.1380607E+03  0.7546771E-02  0.1215962E+00
         21   -1    0    0  506  501  0.00000000000E+00  0.00000000000E+00  0.12208888984E+04  0.12208888984E+04  0.00000000000E+00 0.  1.
         21   -1    0    0  503  502 -0.00000000000E+00 -0.00000000000E+00 -0.54843226786E+02  0.54843226786E+02  0.00000000000E+00 0. -1.
         21    1    1    2  503  501 -0.26401733980E+02  0.75704245810E+02  0.36849656920E+03  0.37711789390E+03  0.00000000000E+00 0.  1.
         21    1    1    2  504  505  0.12806544128E+01 -0.17676457800E+03  0.16427675860E+03  0.24131765275E+03  0.00000000000E+00 0. -1.
         21    1    1    2  505  502 -0.42254979214E+02  0.28045705911E+02  0.76862130512E+02  0.92086003254E+02  0.00000000000E+00 0.  1.
         21    1    1    2  506  504  0.67376058781E+02  0.73014626276E+02  0.55641021330E+03  0.56521057528E+03  0.00000000000E+00 0.  1.
<scales pt_clust_3="83.90946" pt_clust_4="14000.00000" pt_clust_5="50.71533" pt_clust_6="138.06072"></scales>
<clustering>
<clus scale="   50.715">  2  5  1 -1</clus>
<clus scale="   83.909">  1  3  2 -1</clus>
<clus scale="  138.061">  1  6  2 -1</clus>
<clus scale="   83.909">  1  3  2 -1</clus>
</clustering>
</event>
<event>
 6    0  0.8520634E+002  0.6230486E+02  0.7546771E-02  0.1388406E+00
         21   -1    0    0  506  501  0.00000000000E+00  0.00000000000E+00  0.63368498697E+03  0.63368498697E+03  0.00000000000E+00 0. -1.
         21   -1    0    0  503  502 -0.00000000000E+00 -0.00000000000E+00 -0.25091073527E+03  0.25091073527E+03  0.00000000000E+00 0. -1.
         21    1    1    2  503  505 -0.33268329567E+02 -0.29861728849E+02 -0.84663286206E+02  0.95741196114E+02  0.00000000000E+00 0. -1.
         21    1    1    2  504  501  0.46286563169E+02 -0.41284575486E+02  0.58122353509E+03  0.58452344679E+03  0.00000000000E+00 0. -1.
         21    1    1    2  505  504 -0.17733999797E+02  0.10975551970E+03 -0.12148573591E+03  0.16468015327E+03  0.00000000000E+00 0. -1.
         21    1    1    2  506  502  0.47157661956E+01 -0.38609215366E+02  0.76997387257E+01  0.39650926073E+02  0.00000000000E+00 0. -1.
<scales pt_clust_3="54.64785" pt_clust_4="62.30486" pt_clust_5="14000.00000" pt_clust_6="38.89614"></scales>
<clustering>
<clus scale="   38.896">  2  6  1 -1</clus>
<clus scale="   54.648">  2  3  1 -1</clus>
<clus scale="   62.305">  1  4  2 -1</clus>
<clus scale="   62.305">  1  3  2 -1</clus>
</clustering>
</event>
<event>
 6    0  0.8520634E+002  0.8459614E+02  0.7546771E-02  0.1316492E+00
         21   -1    0    0  504  501  0.00000000000E+00  0.00000000000E+00  0.10773391249E+03  0.10773391249E+03  0.00000000000E+00 0. -1.
         21   -1    0    0  503  502 -0.00000000000E+00 -0.00000000000E+00 -0.11126221558E+04  0.11126221558E+04  0.00000000000E+00 0. -1.
         21    1    1    2  503  505 -0.42728290365E+02 -0.72650573388E+02 -0.98784215494E+03  0.99143125616E+03  0.00000000000E+00 0. -1.
         21    1    1    2  504  502  0.81560908129E+02  0.66369463121E+02  0.47268338264E+02  0.11528826121E+03  0.00000000000E+00 0. -1.
         21    1    1    2  505  506 -0.53602304513E+02 -0.22933555144E+02 -0.27783002161E+02  0.64583668290E+02  0.00000000000E+00 0. -1.
         21    1    1    2  506  501  0.14769686750E+02  0.29214665411E+02 -0.36531424493E+02  0.49052882659E+02  0.00000000000E+00 0. -1.
<scales pt_clust_3="84.59614" pt_clust_4="14000.00000" pt_clust_5="53.89148" pt_clust_6="32.73592"></scales>
<clustering>
<clus scale="   32.736">  1  6  2 -1</clus>
<clus scale="   53.891">  1  5  2 -1</clus>
<clus scale="   84.596">  2  3  1 -1</clus>
<clus scale="   32.736">  1  3  2 -1</clus>
</clustering>
</event>
<event>
 6    0  0.8520634E+002  0.1403587E+03  0.7546771E-02  0.1212847E+00
         21   -1    0    0  503  501  0.00000000000E+00  0.00000000000E+00  0.29193137877E+03  0.29193137877E+03  0.00000000000E+00 0.  1.
         21   -1    0    0  504  502 -0.00000000000E+00 -0.00000000000E+00 -0.48444973588E+03  0.48444973588E+03  0.00000000000E+00 0. -1.
         21    1    1    2  503  505 -0.15682183571E+03 -0.64114486371E+02  0.14994106433E+03  0.22624340497E+03  0.00000000000E+00 0.  1.
         21    1    1    2  504  501  0.32661277787E+02 -0.38708155770E+00  0.80981299443E+02  0.87320557478E+02  0.00000000000E+00 0.  1.
         21    1    1    2  505  506  0.10760265201E+03  0.27101363168E+02 -0.40119492651E+03  0.41625735269E+03  0.00000000000E+00 0. -1.
         21    1    1    2  506  502  0.16557905921E+02  0.37400204760E+02 -0.22245794358E+02  0.46559799519E+02  0.00000000000E+00 0. -1.
<scales pt_clust_3="14000.00000" pt_clust_4="32.66357" pt_clust_5="140.35866" pt_clust_6="41.69150"></scales>
<clustering>
<clus scale="   32.664">  1  4  2 -1</clus>
<clus scale="   41.692">  2  6  1 -1</clus>
<clus scale="  140.359">  2  5  1 -1</clus>
<clus scale="   32.664">  1  3  2 -1</clus>
</clustering>
</event>
<event>
 6    0  0.8520634E+002  0.1323970E+03  0.7546771E-02  0.1223942E+00
         21   -1    0    0  505  501  0.00000000000E+00  0.00000000000E+00  0.27297216082E+02  0.27297216082E+02  0.00000000000E+00 0. -1.
         21   -1    0    0  501  502 -0.00000000000E+00 -0.00000000000E+00 -0.11129298035E+04  0.11129298035E+04  0.00000000000E+00 0. -1.
         21    1    1    2  503  504 -0.11642923708E+03 -0.45836837314E+02 -0.38463625482E+03  0.40447723227E+03  0.00000000000E+00 0. -1.
         21    1    1    2  504  502  0.24593579798E+02 -0.29171461304E+02 -0.45762081873E+03  0.45920870207E+03  0.00000000000E+00 0. -1.
         21    1    1    2  505  506  0.46756086107E+02  0.49436656224E+02 -0.19142424696E+03  0.20315845267E+03  0.00000000000E+00 0. -1.
         21    1    1    2  506  503  0.45079571174E+02  0.25571642394E+02 -0.51951266950E+02  0.73382632616E+02  0.00000000000E+00 0.  1.
<scales pt_clust_3="119.77338" pt_clust_4="38.15519" pt_clust_5="49.73374" pt_clust_6="49.73374"></scales>
<clustering>
<clus scale="   38.155">  2  4  1 -1</clus>
<clus scale="   49.734">  5  6 -1 -1</clus>
<clus scale="  119.773">  2  3  1 -1</clus>
<clus scale="  132.397">  1  3  2 -1</clus>
</clustering>
</event>
<event>
 6    0  0.8520634E+002  0.7357054E+02  0.7546771E-02  0.1348356E+00
         21   -1    0    0  505  501  0.00000000000E+00  0.00000000000E+00  0.10596540620E+04  0.10596540620E+04  0.00000000000E+00 0.  1.
         21   -1    0    0  506  502 -0.00000000000E+00 -0.00000000000E+00 -0.55104300495E+03  0.55104300495E+03  0.00000000000E+00 0.  1.
         21    1    1    2  503  501 -0.52844581439E+02  0.25131794772E+02  0.97963754051E+03  0.98138364958E+03  0.00000000000E+00 0.  1.
         21    1    1    2  504  503  0.41789860767E+02 -0.84214707007E+02  0.13272775890E+02  0.94945647183E+02  0.00000000000E+00 0.  1.
         21    1    1    2  505  502 -0.70299116668E+02 -0.84826273560E+01 -0.37744765115E+03  0.38403209518E+03  0.00000000000E+00 0.  1.
         21    1    1    2  506  504  0.81353837339E+02  0.67565539591E+02 -0.10685160822E+03  0.15033567497E+03  0.00000000000E+00 0.  1.
<scales pt_clust_3="58.51630" pt_clust_4="67.27107" pt_clust_5="73.57054" pt_clust_6="14000.00000"></scales>
<clustering>
<clus scale="   58.516">  1  3  2 -1</clus>
<clus scale="   67.271">  1  4  2 -1</clus>
<clus scale="   73.571">  2  5  1 -1</clus>
<clus scale="   58.516">  1  3  2 -1</clus>
</clustering>
</event>
<event>
 6    0  0.8520634E+002  0.6782037E+02  0.7546771E-02  0.1367666E+00
         21   -1    0    0  504  501  0.00000000000E+00  0.00000000000E+00  0.15976814999E+04  0.15976814999E+04  0.00000000000E+00 0. -1.
         21   -1    0    0  503  502 -0.00000000000E+00 -0.00000000000E+00 -0.83457541110E+02  0.83457541110E+02  0.00000000000E+00 0. -1.
         21    1    1    2  503  505  0.77180692930E+00 -0.66856920171E+02  0.18673326345E+02  0.69420001279E+02  0.00000000000E+00 0.  1.
         21    1    1    2  504  502  0.31254510601E+02  0.49119431150E+02  0.57588923706E+02  0.81890457827E+02  0.00000000000E+00 0. -1.
         21    1    1    2  505  506 -0.96217797767E+02 -0.27630440578E+01  0.61731726530E+01  0.96455207637E+02  0.00000000000E+00 0. -1.
         21    1    1    2  506  501  0.64191480237E+02  0.20500533079E+02  0.14317885361E+04  0.14333733743E+04  0.00000000000E+00 0. -1.
<scales pt_clust_3="50.79068" pt_clust_4="58.21995" pt_clust_5="67.82037" pt_clust_6="14000.00000"></scales>
<clustering>
<clus scale="   58.220">  2  4  1 -1</clus>
<clus scale="   50.791">  2  3  1 -1</clus>
<clus scale="   67.820">  2  5  1 -1</clus>
<clus scale="   67.820">  1  3  2 -1</clus>
</clustering>
</event>
<event>
 6    0  0.8520634E+002  0.9406479E+02  0.7546771E-02  0.1293296E+00
         21   -1    0    0  504  501  0.00000000000E+00  0.00000000000E+00  0.29532080187E+03  0.29532080187E+03  0.00000000000E+00 0.  1.
         21   -1    0    0  505  502 -0.00000000000E+00 -0.00000000000E+00 -0.22275785553E+03  0.22275785553E+03  0.00000000000E+00 0.  1.
         21    1    1    2  503  501  0.23816741682E+02  0.89006828153E+02  0.11020852095E+03  0.14365016788E+03  0.00000000000E+00 0.  1.
         21    1    1    2  504  506  0.76437411335E+02 -0.81414004543E+02  0.67409948198E+02  0.13044163102E+03  0.00000000000E+00 0.  1.
         21    1    1    2  505  503 -0.83926632420E+02 -0.76577488881E+02  0.42657639618E+01  0.11369251591E+03  0.00000000000E+00 0.  1.
         21    1    1    2  506  502 -0.16327520597E+02  0.68984665271E+02 -0.10932128677E+03  0.13029434259E+03  0.00000000000E+00 0.  1.
<scales pt_clust_3="94.06479" pt_clust_4="93.48338" pt_clust_5="14000.00000" pt_clust_6="70.89056"></scales>
<clustering>
<clus scale="   70.891">  2  6  1 -1</clus>
<clus scale="   93.483">  2  4  1 -1</clus>
<clus scale="   94.065">  1  3  2 -1</clus>
<clus scale="   94.065">  1  3  2 -1</clus>
</clustering>
</event>
<event>
 6    0  0.8520634E+002  0.9392249E+02  0.7546771E-02  0.1293622E+00
         21   -1    0    0  506  501  0.00000000000E+00  0.00000000000E+00  0.36611889832E+03  0.36611889832E+03  0.00000000000E+00 0. -1.
         21   -1    0    0  504  502 -0.00000000000E+00 -0.00000000000E+00 -0.22827799426E+03  0.22827799426E+03  0.00000000000E+00 0.  1.
         21    1    1    2  503  502  0.31316457382E+02  0.20810581809E+02 -0.43890648159E+02  0.57794375280E+02  0.00000000000E+00 0.  1.
         21    1    1    2  504  505 -0.98388283370E+02  0.44545761975E+02 -0.14057754613E+03  0.17727556428E+03  0.00000000000E+00 0.  1.
         21    1    1    2  505  501 -0.13046107666E+02 -0.28800814484E+02  0.75857203800E+01  0.32515088710E+02  0.00000000000E+00 0. -1.
         21    1    1    2  506  503  0.80117933654E+02 -0.36555529300E+02  0.31472337797E+03  0.32681186431E+03  0.00000000000E+00 0. -1.
<scales pt_clust_3="37.06359" pt_clust_4="14000.00000" pt_clust_5="31.61784" pt_clust_6="93.92249"></scales>
<clustering>
<clus scale="   31.618">  1  5  2 -1</clus>
<clus scale="   37.064">  2  3  1 -1</clus>
<clus scale="   93.922">  1  6  2 -1</clus>
<clus scale="   31.618">  1  3  2 -1</clus>
</clustering>
</event>
<event>
 6    0  0.8520634E+002  0.6031565E+02  0.7546771E-02  0.1396512E+00
         21   -1    0    0  506  501  0.00000000000E+00  0.00000000000E+00  0.39320762871E+03  0.39320762871E+03  0.00000000000E+00 0. -1.
         21   -1    0    0  504  502 -0.00000000000E+00 -0.00000000000E+00 -0.12150736741E+04  0.12150736741E+04  0.00000000000E+00 0.  1.
         21    1    1    2  503  505 -0.94189477872E+01  0.71374525144E+02 -0.24430048764E+03  0.25468758839E+03  0.00000000000E+00 0.  1.
         21    1    1    2  504  501 -0.85320071373E+02 -0.38721872365E+02  0.35588112388E+03  0.36800852207E+03  0.00000000000E+00 0. -1.
         21    1    1    2  505  502  0.51903164170E+02 -0.34135031783E+02 -0.94015217749E+03  0.94220234329E+03  0.00000000000E+00 0.  1.
         21    1    1    2  506  503  0.42835854990E+02  0.14823790038E+01  0.67054958431E+01  0.43382849085E+02  0.00000000000E+00 0.  1.
<scales pt_clust_3="14000.00000" pt_clust_4="57.05747" pt_clust_5="60.31565" pt_clust_6="42.86150"></scales>
<clustering>
<clus scale="   42.861">  1  6  2 -1</clus>
<clus scale="   57.057">  1  4  2 -1</clus>
<clus scale="   60.316">  2  5  1 -1</clus>
<clus scale="   42.861">  1  3  2 -1</clus>
</clustering>
</event>
<event>
 6    0  0.8520634E+002  0.6524778E+02  0.7546771E-02  0.1377042E+00
         21   -1    0    0  504  501  0.00000000000E+00  0.00000000000E+00  0.29562520517E+03  0.29562520517E+03  0.00000000000E+00 0.  1.
         21   -1    0    0  506  502 -0.00000000000E+00 -0.00000000000E+00 -0.27893526424E+03  0.27893526424E+03  0.00000000000E+00 0. -1.
         21    1    1    2  503  501 -0.28129796954E+02  0.61289173335E+02  0.11911779018E+03  0.13688205209E+03  0.00000000000E+00 0.  1.
         21    1    1    2  504  505  0.72288565942E+02 -0.81031067697E+01  0.13894212962E+03  0.15683179680E+03  0.00000000000E+00 0.  1.
         21    1    1    2  505  502  0.28452595355E+02 -0.47404528940E+02 -0.44624098504E+02  0.71049628527E+02  0.00000000000E+00 0.  1.
         21    1    1    2  506  503 -0.72611364343E+02 -0.57815376258E+01 -0.19674588037E+03  0.20979699200E+03  0.00000000000E+00 0. -1.
<scales pt_clust_3="65.22914" pt_clust_4="14000.00000" pt_clust_5="55.28779" pt_clust_6="65.24778"></scales>
<clustering>
<clus scale="   55.288">  2  5  1 -1</clus>
<clus scale="   65.229">  1  3  2 -1</clus>
<clus scale="   65.248">  2  6  1 -1</clus>
<clus scale="   65.229">  1  3  2 -1</clus>
</clustering>
</event>
<event>
 6    0  0.8520634E+002  0.8666066E+02  0.7546771E-02  0.1311146E+00
         21   -1    0    0  504  501  0.00000000000E+00  0.00000000000E+00  0.74256867666E+03  0.74256867666E+03  0.00000000000E+00 0. -1.
         21   -1    0    0  501  502 -0.00000000000E+00 -0.00000000000E+00 -0.11613414576E+03  0.11613414576E+03  0.00000000000E+00 0. -1.
         21    1    1    2  503  505 -0.51182620377E+01 -0.12939826826E+03  0.30126823895E+03  0.32792172882E+03  0.00000000000E+00 0. -1.
         21    1    1    2  504  506  0.34353396777E+02  0.16007878959E+02  0.27872006990E+03  0.28128506080E+03  0.00000000000E+00 0. -1.
         21    1    1    2  505  502  0.31615654859E+01  0.57863027742E+02 -0.85172136668E+02  0.10301659255E+03  0.00000000000E+00 0. -1.
         21    1    1    2  506  503 -0.32396700226E+02  0.55527361559E+02  0.13161835871E+03  0.14647944025E+03  0.00000000000E+00 0. -1.
<scales pt_clust_3="86.66066" pt_clust_4="37.89997" pt_clust_5="58.29736" pt_clust_6="14000.00000"></scales>
<clustering>
<clus scale="   37.900">  1  4  2 -1</clus>
<clus scale="   58.297">  2  5  1 -1</clus>
<clus scale="   86.661">  2  3  1 -1</clus>
<clus scale="   37.900">  1  3  2 -1</clus>
</clustering>
</event>
<event>
 6    0  0.8520634E+002  0.7580075E+02  0.7546771E-02  0.1341409E+00
         21   -1    0    0  506  501  0.00000000000E+00  0.00000000000E+00  0.30114548476E+03  0.30114548476E+03  0.00000000000E+00 0.  1.
         21   -1    0    0  505  502 -0.00000000000E+00 -0.00000000000E+00 -0.18485704538E+03  0.18485704538E+03  0.00000000000E+00 0. -1.
         21    1    1    2  503  501  0.38178756987E+02  0.52987351525E+02  0.26083662728E+02  0.70325204358E+02  0.00000000000E+00 0.  1.
         21    1    1    2  504  502 -0.43434516633E+02 -0.97309074866E+02  0.49958033383E+01  0.10667976067E+03  0.00000000000E+00 0.  1.
         21    1    1    2  505  503  0.69878593155E+02  0.25618152963E+02 -0.92649288386E+02  0.11884106269E+03  0.00000000000E+00 0. -1.
         21    1    1    2  506  504 -0.64622833510E+02  0.18703570378E+02  0.17785826170E+03  0.19015650242E+03  0.00000000000E+00 0.  1.
<scales pt_clust_3="65.30909" pt_clust_4="14000.00000" pt_clust_5="75.80075" pt_clust_6="68.08409"></scales>
<clustering>
<clus scale="   65.309">  1  3  2 -1</clus>
<clus scale="   68.084">  1  6  2 -1</clus>
<clus scale="   75.801">  2  5  1 -1</clus>
<clus scale="   65.309">  1  3  2 -1</clus>
</clustering>
</event>
<event>
 6    0  0.8520634E+002  0.1254222E+03  0.7546771E-02  0.1234411E+00
         21   -1    0    0  503  501  0.00000000000E+00  0.00000000000E+00  0.80114356327E+03  0.80114356327E+03  0.00000000000E+00 0.  1.
         21   -1    0    0  504  502 -0.00000000000E+00 -0.00000000000E+00 -0.25074578055E+03  0.25074578055E+03  0.00000000000E+00 0. -1.
         21    1    1    2  503  505 -0.11045702874E+03 -0.19950364098E+02 -0.28809169934E+02  0.11588244258E+03  0.00000000000E+00 0. -1.
         21    1    1    2  504  501  0.82650340400E+02 -0.44011051810E+02  0.69485864762E+03  0.70113949512E+03  0.00000000000E+00 0.  1.
         21    1    1    2  505  506 -0.56640853872E+02  0.20586962221E+01  0.22961109039E+02  0.61152572193E+02  0.00000000000E+00 0. -1.
         21    1    1    2  506  502  0.84447542209E+02  0.61902719686E+02 -0.13861280401E+03  0.17371483392E+03  0.00000000000E+00 0. -1.
<scales pt_clust_3="39.34309" pt_clust_4="93.63787" pt_clust_5="39.34309" pt_clust_6="112.54038"></scales>
<clustering>
<clus scale="   39.343">  3  5 -1 -1</clus>
<clus scale="   93.638">  1  4  2 -1</clus>
<clus scale="  112.540">  2  6  1 -1</clus>
<clus scale="   93.638">  1  3  2 -1</clus>
</clustering>
</event>
<event>
 6    0  0.8520634E+002  0.9124356E+02  0.7546771E-02  0.1299868E+00
         21   -1    0    0  504  501  0.00000000000E+00  0.00000000000E+00  0.11099373972E+04  0.11099373972E+04  0.00000000000E+00 0.  1.
         21   -1    0    0  505  502 -0.00000000000E+00 -0.00000000000E+00 -0.33880114046E+02  0.33880114046E+02  0.00000000000E+00 0.  1.
         21    1    1    2  503  506  0.96910263574E+01  0.31479230343E+02  0.20338446942E+03  0.20603422127E+03  0.00000000000E+00 0.  1.
         21    1    1    2  504  502  0.97057247537E+02  0.20039195670E+02  0.31458888037E+03  0.32983002034E+03  0.00000000000E+00 0.  1.
         21    1    1    2  505  503 -0.74051298548E+02 -0.52737027479E+02  0.60291007954E+02  0.10908617935E+03  0.00000000000E+00 0.  1.
         21    1    1    2  506  501 -0.32696975347E+02  0.12186014651E+01  0.49779292546E+03  0.49886709034E+03  0.00000000000E+00 0.  1.
<scales pt_clust_3="31.91171" pt_clust_4="91.24356" pt_clust_5="14000.00000" pt_clust_6="32.71968"></scales>
<clustering>
<clus scale="   32.720">  1  6  2 -1</clus>
<clus scale="   31.912">  1  3  2 -1</clus>
<clus scale="   91.244">  1  4  2 -1</clus>
<clus scale="   32.720">  1  3  2 -1</clus>
</clustering>
</event>
<event>
 6    0  0.8520634E+002  0.1209520E+03  0.7546771E-02  0.1241535E+00
         21   -1    0    0  504  501  0.00000000000E+00  0.00000000000E+00  0.30077310419E+03  0.30077310419E+03  0.00000000000E+00 0.  1.
         21   -1    0    0  505  502 -0.00000000000E+00 -0.00000000000E+00 -0.87381012124E+02  0.87381012124E+02  0.00000000000E+00 0.  1.
         21    1    1    2  503  502 -0.15329382461E+02  0.85794768944E+02  0.80351356985E+02  0.11854143965E+03  0.00000000000E+00 0.  1.
         21    1    1    2  504  503 -0.20717624709E+02  0.30876499705E+02  0.13044613582E+03  0.13564207518E+03  0.00000000000E+00 0.  1.
         21    1    1    2  505  506  0.29560213741E+02 -0.35476546887E+02 -0.18634847963E+02  0.49796075890E+02  0.00000000000E+00 0.  1.
         21    1    1    2  506  501  0.64867934293E+01 -0.81194721761E+02  0.21229447227E+02  0.84174525603E+02  0.00000000000E+00 0.  1.
<scales pt_clust_3="107.70133" pt_clust_4="37.18304" pt_clust_5="42.56115" pt_clust_6="42.56115"></scales>
<clustering>
<clus scale="   37.183">  1  4  2 -1</clus>
<clus scale="   42.561">  5  6 -1 -1</clus>
<clus scale="  107.701">  1  3  2 -1</clus>
<clus scale="   37.183">  1  3  2 -1</clus>
</clustering>
</event>
<event>
 6    0  0.8520634E+002  0.8979490E+02  0.7546771E-02  0.1303349E+00
         21   -1    0    0  506  501  0.00000000000E+00  0.00000000000E+00  0.10646216269E+03  0.10646216269E+03  0.00000000000E+00 0.  1.
         21   -1    0    0  503  502 -0.00000000000E+00 -0.00000000000E+00 -0.15947185380E+04  0.15947185380E+04  0.00000000000E+00 0.  1.
         21    1    1    2  503  505 -0.22943961447E+02  0.26742866945E+02 -0.12385917169E+04  0.12390928325E+04  0.00000000000E+00 0.  1.
         21    1    1    2  504  501 -0.59257382637E+02  0.58161625935E+02 -0.24180472560E+02  0.86480676348E+02  0.00000000000E+00 0. -1.
         21    1    1    2  505  504  0.48788881192E+02  0.60272332231E+01 -0.26606976420E+03  0.27057309898E+03  0.00000000000E+00 0. -1.
         21    1    1    2  506  502  0.33412462893E+02 -0.90931726102E+02  0.40585578388E+02  0.10503409285E+03  0.00000000000E+00 0.  1.
<scales pt_clust_3="35.23643" pt_clust_4="14000.00000" pt_clust_5="40.95795" pt_clust_6="89.79490"></scales>
<clustering>
<clus scale="   35.236">  2  3  1 -1</clus>
<clus scale="   40.958">  2  5  1 -1</clus>
<clus scale="   89.795">  1  6  2 -1</clus>
<clus scale="   89.795">  1  3  2 -1</clus>
</clustering>
</event>
<event>
 6    0  0.8520634E+002  0.7577925E+02  0.7546771E-02  0.1341475E+00
         21   -1    0    0  503  501  0.00000000000E+00  0.00000000000E+00  0.12418905803E+03  0.12418905803E+03  0.00000000000E+00 0.  1.
         21   -1    0    0  506  502 -0.00000000000E+00 -0.00000000000E+00 -0.57744104110E+03  0.57744104110E+03  0.00000000000E+00 0. -1.
         21    1    1    2  503  504 -0.30762340988E+02  0.43160990948E+02  0.49805347836E+01  0.53235312429E+02  0.00000000000E+00 0. -1.
         21    1    1    2  504  502  0.27737560994E+02  0.31512327535E+02 -0.15317259146E+03  0.15882141496E+03  0.00000000000E+00 0. -1.
         21    1    1    2  505  501  0.91416239295E+02 -0.63813580220E+01  0.58848926325E+02  0.10890751428E+03  0.00000000000E+00 0.  1.
         21    1    1    2  506  505 -0.88391459301E+02 -0.68291960461E+02 -0.36390885273E+03  0.38066585746E+03  0.00000000000E+00 0. -1.
<scales pt_clust_3="53.60038" pt_clust_4="41.98094" pt_clust_5="75.77925" pt_clust_6="14000.00000"></scales>
<clustering>
<clus scale="   41.981">  2  4  1 -1</clus>
<clus scale="   53.600">  1  3  2 -1</clus>
<clus scale="   75.779">  1  5  2 -1</clus>
<clus scale="   53.600">  1  3  2 -1</clus>
</clustering>
</event>
<event>
 6    0  0.8520634E+002  0.1018645E+03  0.7546771E-02  0.1276423E+00
         21   -1    0    0  506  501  0.00000000000E+00  0.00000000000E+00  0.27765229131E+03  0.27765229131E+03  0.00000000000E+00 0.  1.
         21   -1    0    0  505  502 -0.00000000000E+00 -0.00000000000E+00 -0.14915206042E+03  0.14915206042E+03  0.00000000000E+00 0.  1.
         21    1    1    2  503  501 -0.21673528411E+02 -0.49306173986E+02  0.70771587995E+02  0.88935135319E+02  0.00000000000E+00 0.  1.
         21    1    1    2  504  503 -0.78296957209E+02  0.14718234093E+02  0.84165877139E+02  0.11589190997E+03  0.00000000000E+00 0.  1.
         21    1    1    2  505  504 -0.36533856790E+02  0.54950922339E+02 -0.48920175104E+02  0.82143229119E+02  0.00000000000E+00 0.  1.
         21    1    1    2  506  502  0.13650434241E+03 -0.20362982446E+02  0.22482940862E+02  0.13983407732E+03  0.00000000000E+00 0.  1.
<scales pt_clust_3="53.85945" pt_clust_4="14000.00000" pt_clust_5="63.66081" pt_clust_6="101.86449"></scales>
<clustering>
<clus scale="   53.859">  1  3  2 -1</clus>
<clus scale="   63.661">  2  5  1 -1</clus>
<clus scale="  101.864">  2  6  1 -1</clus>
<clus scale="   53.859">  1  3  2 -1</clus>
</clustering>
</event>
<event>
 6    0  0.8520634E+002  0.1146074E+03  0.7546771E-02  0.1252268E+00
         21   -1    0    0  505  501  0.00000000000E+00  0.00000000000E+00  0.73497695574E+03  0.73497695574E+03  0.00000000000E+00 0.  1.
         21   -1    0    0  504  502 -0.00000000000E+00 -0.00000000000E+00 -0.35233719885E+03  0.35233719885E+03  0.00000000000E+00 0. -1.
         21    1    1    2  503  502  0.57127370367E+02  0.29115682672E+02 -0.29023743194E+03  0.29723564107E+03  0.00000000000E+00 0. -1.
         21    1    1    2  504  501  0.37444684378E+02  0.69308770642E+02 -0.13456453088E+02  0.79917996758E+02  0.00000000000E+00 0. -1.
         21    1    1    2  505  506 -0.62542984103E+02  0.18773907738E+01  0.40430546431E+03  0.40911863552E+03  0.00000000000E+00 0.  1.
         21    1    1    2  506  503 -0.32029070642E+02 -0.10030184409E+03  0.28202817761E+03  0.30104188124E+03  0.00000000000E+00 0.  1.
<scales pt_clust_3="63.53502" pt_clust_4="14000.00000" pt_clust_5="62.57116" pt_clust_6="114.60739"></scales>
<clustering>
<clus scale="   62.571">  1  5  2 -1</clus>
<clus scale="   63.535">  2  3  1 -1</clus>
<clus scale="  114.607">  1  6  2 -1</clus>
<clus scale="   62.571">  1  3  2 -1</clus>
</clustering>
</event>
<event>
 6    0  0.8520634E+002  0.6631885E+02  0.7546771E-02  0.1373078E+00
         21   -1    0    0  503  501  0.00000000000E+00  0.00000000000E+00  0.40763440979E+03  0.40763440979E+03  0.00000000000E+00 0. -1.
         21   -1    0    0  506  502 -0.00000000000E+00 -0.00000000000E+00 -0.45490766627E+02  0.45490766627E+02  0.00000000000E+00 0. -1.
         21    1    1    2  503  505  0.62068341537E+02  0.39470729393E+02  0.77636002715E+02  0.10694749374E+03  0.00000000000E+00 0. -1.
         21    1    1    2  504  501 -0.58833335940E+02 -0.24462602929E+02  0.16683632682E+03  0.17858930625E+03  0.00000000000E+00 0. -1.
         21    1    1    2  505  502 -0.36515792196E+02  0.36691055695E+02  0.27972432986E+02  0.58839558589E+02  0.00000000000E+00 0. -1.
         21    1    1    2  506  504  0.33280786599E+02 -0.51699182159E+02  0.89698880643E+02  0.10874881784E+03  0.00000000000E+00 0. -1.
<scales pt_clust_3="66.31885" pt_clust_4="14000.00000" pt_clust_5="51.76521" pt_clust_6="45.57466"></scales>
<clustering>
<clus scale="   51.765">  2  5  1 -1</clus>
<clus scale="   45.575">  2  6  1 -1</clus>
<clus scale="   66.319">  2  3  1 -1</clus>
<clus scale="   66.319">  1  3  2 -1</clus>
</clustering>
</event>
<event>
 6    0  0.8520634E+002  0.1010399E+03  0.7546771E-02  0.1278124E+00
         21   -1    0    0  506  501  0.00000000000E+00  0.00000000000E+00  0.33122167435E+03  0.33122167435E+03  0.00000000000E+00 0.  1.
         21   -1    0    0  503  502 -0.00000000000E+00 -0.00000000000E+00 -0.12793081763E+03  0.12793081763E+03  0.00000000000E+00 0.  1.
         21    1    1    2  503  505 -0.10293882336E+03  0.34229428929E+02 -0.27371792954E+02  0.11188060694E+03  0.00000000000E+00 0.  1.
         21    1    1    2  504  502  0.21361713560E+02  0.33221000887E+02 -0.33179686824E+02  0.51583421018E+02  0.00000000000E+00 0.  1.
         21    1    1    2  505  501  0.36412609960E+02  0.96714333059E+01  0.41471091958E+02  0.56029155397E+02  0.00000000000E+00 0.  1.
         21    1    1    2  506  504  0.45164499836E+02 -0.77121863123E+02  0.22237124453E+03  0.23965930863E+03  0.00000000000E+00 0.  1.
<scales pt_clust_3="101.03995" pt_clust_4="40.41132" pt_clust_5="37.67512" pt_clust_6="14000.00000"></scales>
<clustering>
<clus scale="   37.675">  1  5  2 -1</clus>
<clus scale="   40.411">  2  4  1 -1</clus>
<clus scale="  101.040">  2  3  1 -1</clus>
<clus scale="   37.675">  1  3  2 -1</clus>
</clustering>
</event>
<event>
 6    0  0.8520634E+002  0.8970076E+02  0.7546771E-02  0.1303578E+00
         21   -1    0    0  505  501  0.00000000000E+00  0.00000000000E+00  0.61578838095E+02  0.61578838095E+02  0.00000000000E+00 0. -1.
         21   -1    0    0  504  502 -0.00000000000E+00 -0.00000000000E+00 -0.73038729784E+03  0.73038729784E+03  0.00000000000E+00 0.  1.
         21    1    1    2  503  501 -0.30808584713E+02 -0.40106741134E+02  0.20195177767E+02  0.54456999380E+02  0.00000000000E+00 0. -1.
         21    1    1    2  504  506 -0.27740841649E+02 -0.12897432676E+02 -0.20522137141E+03  0.20748905838E+03  0.00000000000E+00 0.  1.
         21    1    1    2  505  502 -0.46417584626E+02 -0.25855883889E+02 -0.38044517334E+02  0.65349094817E+02  0.00000000000E+00 0. -1.
         21    1    1    2  506  503  0.10496701099E+03  0.78860057699E+02 -0.44573774876E+03  0.46467098335E+03  0.00000000000E+00 0.  1.
<scales pt_clust_3="51.46278" pt_clust_4="30.59245" pt_clust_5="14000.00000" pt_clust_6="89.70076"></scales>
<clustering>
<clus scale="   30.592">  2  4  1 -1</clus>
<clus scale="   51.463">  1  3  2 -1</clus>
<clus scale="   89.701">  2  6  1 -1</clus>
<clus scale="   51.463">  1  3  2 -1</clus>
</clustering>
</event>
<event>
 6    0  0.8520634E+002  0.1385743E+03  0.7546771E-02  0.1215260E+00
         21   -1    0    0  503  501  0.00000000000E+00  0.00000000000E+00  0.18094074207E+04  0.18094074207E+04  0.00000000000E+00 0.  1.
         21   -1    0    0  501  502 -0.00000000000E+00 -0.00000000000E+00 -0.97916480625E+02  0.97916480625E+02  0.00000000000E+00 0.  1.
         21    1    1    2  503  504 -0.20287514279E+01  0.32609485821E+02  0.81052768272E+03  0.81118593359E+03  0.00000000000E+00 0.  1.
         21    1    1    2  504  505 -0.13403229263E+03 -0.60198308762E+02  0.57934090780E+03  0.59768250710E+03  0.00000000000E+00 0.  1.
         21    1    1    2  505  506  0.11920807640E+03  0.55891813428E+02  0.39589073052E+03  0.41720969643E+03  0.00000000000E+00 0.  1.
         21    1    1    2  506  502  0.16852967657E+02 -0.28302990488E+02 -0.74268380963E+02  0.81245764199E+02  0.00000000000E+00 0.  1.
<scales pt_clust_3="32.67253" pt_clust_4="14000.00000" pt_clust_5="138.57432" pt_clust_6="32.83911"></scales>
<clustering>
<clus scale="   32.673">  1  3  2 -1</clus>
<clus scale="   32.839">  2  6  1 -1</clus>
<clus scale="  138.574">  2  5  1 -1</clus>
<clus scale="   32.673">  1  3  2 -1</clus>
</clustering>
</event>
<event>
 6    0  0.8520634E+002  0.7131925E+02  0.7546771E-02  0.1355663E+00
         21   -1    0    0  506  501  0.00000000000E+00  0.00000000000E+00  0.33257745249E+03  0.33257745249E+03  0.00000000000E+00 0.  1.
         21   -1    0    0  504  502 -0.00000000000E+00 -0.00000000000E+00 -0.43338467500E+03  0.43338467500E+03  0.00000000000E+00 0.  1.
         21    1    1    2  503  501 -0.12666643811E+02 -0.55641619855E+02  0.28354561394E+03  0.28923096119E+03  0.00000000000E+00 0.  1.
         21    1    1    2  504  503 -0.27016770765E+02 -0.57568260589E+02 -0.25226399940E+03  0.26015598383E+03  0.00000000000E+00 0.  1.
         21    1    1    2  505  502  0.71601408902E+02  0.90519002085E+02 -0.13463225346E+03  0.17733103273E+03  0.00000000000E+00 0.  1.
         21    1    1    2  506  505 -0.31917994326E+02  0.22690878359E+02  0.25434164061E+01  0.39244149749E+02  0.00000000000E+00 0.  1.
<scales pt_clust_3="54.53458" pt_clust_4="71.31925" pt_clust_5="14000.00000" pt_clust_6="39.16164"></scales>
<clustering>
<clus scale="   39.162">  1  6  2 -1</clus>
<clus scale="   54.535">  1  3  2 -1</clus>
<clus scale="   71.319">  2  4  1 -1</clus>
<clus scale="   39.162">  1  3  2 -1</clus>
</clustering>
</event>
<event>
 6    0  0.8520634E+002  0.7471460E+02  0.7546771E-02  0.1344757E+00
         21   -1    0    0  503  501  0.00000000000E+00  0.00000000000E+00  0.24327594543E+03  0.24327594543E+03  0.00000000000E+00 0. -1.
         21   -1    0    0  505  502 -0.00000000000E+00 -0.00000000000E+00 -0.15526088820E+03  0.15526088820E+03  0.00000000000E+00 0. -1.
         21    1    1    2  503  504 -0.46266544757E+02 -0.10159392227E+03  0.10556298435E+03  0.15364069080E+03  0.00000000000E+00 0. -1.
         21    1    1    2  504  502  0.10662066985E+02  0.37398010823E+02 -0.96509897839E+02  0.10405023434E+03  0.00000000000E+00 0. -1.
         21    1    1    2  505  506 -0.17045628238E+02  0.53071526025E+02  0.15941779091E+02  0.57976552478E+02  0.00000000000E+00 0. -1.
         21    1    1    2  506  501  0.52650106009E+02  0.11124385418E+02  0.63020191618E+02  0.82869356009E+02  0.00000000000E+00 0. -1.
<scales pt_clust_3="14000.00000" pt_clust_4="38.88818" pt_clust_5="74.71460" pt_clust_6="57.42751"></scales>
<clustering>
<clus scale="   38.888">  2  4  1 -1</clus>
<clus scale="   57.428">  1  6  2 -1</clus>
<clus scale="   74.715">  2  5  1 -1</clus>
<clus scale="   57.428">  1  3  2 -1</clus>
</clustering>
</event>
<event>
 6    0  0.8520634E+002  0.8740099E+02  0.7546771E-02  0.1309270E+00
         21   -1    0    0  503  501  0.00000000000E+00  0.00000000000E+00  0.41510330125E+03  0.41510330125E+03  0.00000000000E+00 0.  1.
         21   -1    0    0  506  502 -0.00000000000E+00 -0.00000000000E+00 -0.31634469065E+03  0.31634469065E+03  0.00000000000E+00 0. -1.
         21    1    1    2  503  505 -0.16259175842E+02  0.38528012019E+02  0.44643324096E+02  0.61170212485E+02  0.00000000000E+00 0.  1.
         21    1    1    2  504  501  0.54895244836E+02 -0.87239839705E+01  0.11230155909E+03  0.12530457284E+03  0.00000000000E+00 0.  1.
         21    1    1    2  505  502 -0.36001803139E+02  0.79300956383E+02 -0.28244560457E+03  0.29556774359E+03  0.00000000000E+00 0. -1.
         21    1    1    2  506  504 -0.26342658550E+01 -0.10910498443E+03  0.22425933198E+03  0.24940546298E+03  0.00000000000E+00 0.  1.
<scales pt_clust_3="41.81828" pt_clust_4="49.71638" pt_clust_5="87.40099" pt_clust_6="14000.00000"></scales>
<clustering>
<clus scale="   41.818">  1  3  2 -1</clus>
<clus scale="   49.716">  1  4  2 -1</clus>
<clus scale="   87.401">  2  5  1 -1</clus>
<clus scale="   41.818">  1  3  2 -1</clus>
</clustering>
</event>
<event>
 6    0  0.8520634E+002  0.1289666E+03  0.7546771E-02  0.1228997E+00
         21   -1    0    0  504  501  0.00000000000E+00  0.00000000000E+00  0.13465296919E+04  0.13465296919E+04  0.00000000000E+00 0. -1.
         21   -1    0    0  503  502 -0.00000000000E+00 -0.00000000000E+00 -0.52951718512E+02  0.52951718512E+02  0.00000000000E+00 0. -1.
         21    1    1    2  503  505 -0.30500872881E+02 -0.10482133912E+03  0.71941498676E+02  0.13074171336E+03  0.00000000000E+00 0. -1.
         21    1    1    2  504  506  0.10200348094E+03  0.18164513612E+03  0.80438433587E+03  0.83092347745E+03  0.00000000000E+00 0. -1.
         21    1    1    2  505  501 -0.40685372145E+02 -0.78988537187E+02  0.37555136611E+03  0.38591879599E+03  0.00000000000E+00 0. -1.
         21    1    1    2  506  502 -0.30817235916E+02  0.21647401903E+01  0.41700772734E+02  0.51897423599E+02  0.00000000000E+00 0. -1.
<scales pt_clust_3="128.96660" pt_clust_4="14000.00000" pt_clust_5="90.22350" pt_clust_6="30.89317"></scales>
<clustering>
<clus scale="   30.893">  2  6  1 -1</clus>
<clus scale="   90.224">  1  5  2 -1</clus>
<clus scale="  128.967">  2  3  1 -1</clus>
<clus scale="   90.224">  1  3  2 -1</clus>
</clustering>
</event>
<event>
 6    0  0.8520634E+002  0.1274342E+03  0.7546771E-02  0.1231313E+00
         21   -1    0    0  503  501  0.00000000000E+00  0.00000000000E+00  0.99586116962E+02  0.99586116962E+02  0.00000000000E+00 0. -1.
         21   -1    0    0  505  502 -0.00000000000E+00 -0.00000000000E+00 -0.36379792993E+03  0.36379792993E+03  0.00000000000E+00 0. -1.
         21    1    1    2  503  504 -0.33118788446E+02  0.49004378122E+02 -0.10792370584E+03  0.12306831235E+03  0.00000000000E+00 0. -1.
         21    1    1    2  504  506 -0.55404487854E+02  0.74254653966E+02 -0.48494246986E+02  0.10457104236E+03  0.00000000000E+00 0. -1.
         21    1    1    2  505  501  0.86763438603E+02 -0.27901782636E+02  0.89512631778E+00  0.91143869808E+02  0.00000000000E+00 0. -1.
         21    1    1    2  506  502  0.17598376977E+01 -0.95357249452E+02 -0.10868898646E+03  0.14460082237E+03  0.00000000000E+00 0. -1.
<scales pt_clust_3="52.53982" pt_clust_4="52.53982" pt_clust_5="91.13947" pt_clust_6="109.15831"></scales>
<clustering>
<clus scale="   52.540">  3  4 -1 -1</clus>
<clus scale="   91.139">  1  5  2 -1</clus>
<clus scale="  109.158">  2  6  1 -1</clus>
<clus scale="   91.139">  1  3  2 -1</clus>
</clustering>
</event>
<event>
 6    0  0.8520634E+002  0.1267319E+03  0.7546771E-02  0.1232387E+00
         21   -1    0    0  506  501  0.00000000000E+00  0.00000000000E+00  0.93932630390E+03  0.93932630390E+03  0.00000000000E+00 0. -1.
         21   -1    0    0  503  502 -0.00000000000E+00 -0.00000000000E+00 -0.71586798826E+02  0.71586798826E+02  0.00000000000E+00 0. -1.
         21    1    1    2  503  505  0.44680201974E+02 -0.28178928823E+02  0.25483002213E+01  0.52885407364E+02  0.00000000000E+00 0. -1.
         21    1    1    2  504  502 -0.10820109682E+03  0.11255762869E+03  0.26508623710E+03  0.30764819231E+03  0.00000000000E+00 0. -1.
         21    1    1    2  505  501  0.67080453410E+02 -0.28537792201E+00  0.28959034312E+02  0.73065000777E+02  0.00000000000E+00 0. -1.
         21    1    1    2  506  504 -0.35595585635E+01 -0.84093321947E+02  0.57114593344E+03  0.57731450227E+03  0.00000000000E+00 0. -1.
<scales pt_clust_3="35.16282" pt_clust_4="120.37792" pt_clust_5="35.16282" pt_clust_6="84.16862"></scales>
<clustering>
<clus scale="   35.163">  3  5 -1 -1</clus>
<clus scale="   84.169">  1  6  2 -1</clus>
<clus scale="  120.378">  1  4  2 -1</clus>
<clus scale="   84.169">  1  3  2 -1</clus>
</clustering>
</event>
<event>
 6    0  0.8520634E+002  0.1258156E+03  0.7546771E-02  0.1233800E+00
         21   -1    0    0  503  501  0.00000000000E+00  0.00000000000E+00  0.62864698281E+03  0.62864698281E+03  0.00000000000E+00 0.  1.
         21   -1    0    0  505  502 -0.00000000000E+00 -0.00000000000E+00 -0.14660992360E+03  0.14660992360E+03  0.00000000000E+00 0.  1.
         21    1    1    2  503  504 -0.19876069848E+02  0.52908445378E+02  0.11512423039E+03  0.12824956206E+03  0.00000000000E+00 0.  1.
         21    1    1    2  504  502  0.43652984285E+02  0.88897621418E+02  0.20834198597E+03  0.23068323140E+03  0.00000000000E+00 0.  1.
         21    1    1    2  505  506  0.23640177849E+02 -0.10670460284E+03 -0.10179678251E+03  0.14935633634E+03  0.00000000000E+00 0.  1.
         21    1    1    2  506  501 -0.47417092285E+02 -0.35101463957E+02  0.26036762536E+03  0.26696777661E+03  0.00000000000E+00 0.  1.
<scales pt_clust_3="44.87087" pt_clust_4="44.87087" pt_clust_5="110.91214" pt_clust_6="58.99571"></scales>
<clustering>
<clus scale="   44.871">  3  4 -1 -1</clus>
<clus scale="   58.996">  1  6  2 -1</clus>
<clus scale="  110.912">  2  5  1 -1</clus>
<clus scale="   58.996">  1  3  2 -1</clus>
</clustering>
</event>
<event>
 6    0  0.8520634E+002  0.1251729E+03  0.7546771E-02  0.1234799E+00
         21   -1    0    0  506  501  0.00000000000E+00  0.00000000000E+00  0.20599311764E+03  0.20599311764E+03  0.00000000000E+00 0. -1.
         21   -1    0    0  503  502 -0.00000000000E+00 -0.00000000000E+00 -0.37845860683E+03  0.37845860683E+03  0.00000000000E+00 0. -1.
         21    1    1    2  503  504  0.47179742909E+02 -0.60558862886E+02 -0.13407038922E+03  0.15449327908E+03  0.00000000000E+00 0. -1.
         21    1    1    2  504  505  0.14263331741E+03  0.26494932916E+02 -0.68355088166E+02  0.16037039248E+03  0.00000000000E+00 0. -1.
         21    1    1    2  505  501 -0.11850167656E+03  0.33751399575E+02  0.10801874250E+03  0.16385924769E+03  0.00000000000E+00 0. -1.
         21    1    1    2  506  502 -0.71311383762E+02  0.31253039491E+00 -0.78058754306E+02  0.10572880522E+03  0.00000000000E+00 0. -1.
<scales pt_clust_3="61.44490" pt_clust_4="14000.00000" pt_clust_5="125.17292" pt_clust_6="71.31207"></scales>
<clustering>
<clus scale="   71.312">  2  6  1 -1</clus>
<clus scale="   61.445">  2  3  1 -1</clus>
<clus scale="  125.173">  1  5  2 -1</clus>
<clus scale="  125.173">  1  3  2 -1</clus>
</clustering>
</event>
<event>
 6    0  0.8520634E+002  0.1183135E+03  0.7546771E-02  0.1245905E+00
         21   -1    0    0  505  501  0.00000000000E+00  0.00000000000E+00  0.11749010135E+03  0.11749010135E+03  0.00000000000E+00 0. -1.
         21   -1    0    0  504  502 -0.00000000000E+00 -0.00000000000E+00 -0.57449418201E+03  0.57449418201E+03  0.00000000000E+00 0.  1.
         21    1    1    2  503  502 -0.32706543073E+02  0.88505588239E+01 -0.65473101838E+02  0.73720942856E+02  0.00000000000E+00 0.  1.
         21    1    1    2  504  501  0.63400649342E+01  0.32606285871E+02  0.19521743250E+02  0.38528752396E+02  0.00000000000E+00 0. -1.
         21    1    1    2  505  506  0.11435632147E+03 -0.90577147289E+01  0.38117741266E+02  0.12088164731E+03  0.00000000000E+00 0. -1.
         21    1    1    2  506  503 -0.87989843332E+02 -0.32399129966E+02 -0.44917046334E+03  0.45885294081E+03  0.00000000000E+00 0.  1.
<scales pt_clust_3="34.02970" pt_clust_4="33.21696" pt_clust_5="118.31352" pt_clust_6="14000.00000"></scales>
<clustering>
<clus scale="   33.217">  1  4  2 -1</clus>
<clus scale="   34.030">  2  3  1 -1</clus>
<clus scale="  118.314">  1  5  2 -1</clus>
<clus scale="   33.217">  1  3  2 -1</clus>
</clustering>
</event>
<event>
 6    0  0.8520634E+002  0.1587697E+03  0.7546771E-02  0.1190093E+00
         21   -1    0    0  505  501  0.00000000000E+00  0.00000000000E+00  0.69711856228E+03  0.69711856228E+03  0.00000000000E+00 0.  1.
         21   -1    0    0  503  502 -0.00000000000E+00 -0.00000000000E+00 -0.16185939271E+03  0.16185939271E+03  0.00000000000E+00 0. -1.
         21    1    1    2  503  504 -0.34421649737E+02  0.20787757825E+02 -0.10389458530E+03  0.11140496264E+03  0.00000000000E+00 0. -1.
         21    1    1    2  504  501 -0.34094147694E+02 -0.15611874004E+03  0.10659261793E+03  0.19208711069E+03  0.00000000000E+00 0. -1.
         21    1    1    2  505  506  0.49687310374E+02  0.51269142311E+02  0.26098968847E+03  0.27057895568E+03  0.00000000000E+00 0.  1.
         21    1    1    2  506  502  0.18828487057E+02  0.84061839903E+02  0.27157144846E+03  0.28490692598E+03  0.00000000000E+00 0.  1.
<scales pt_clust_3="40.21170" pt_clust_4="152.55659" pt_clust_5="40.03917" pt_clust_6="40.03917"></scales>
<clustering>
<clus scale="   40.039">  5  6 -1 -1</clus>
<clus scale="   40.212">  2  3  1 -1</clus>
<clus scale="  152.557">  2  4  1 -1</clus>
<clus scale="  158.770">  1  3  2 -1</clus>
</clustering>
</event>
<event>
 6    0  0.8520634E+002  0.8837026E+02  0.7546771E-02  0.1306847E+00
         21   -1    0    0  504  501  0.00000000000E+00  0.00000000000E+00  0.65636242973E+03  0.65636242973E+03  0.00000000000E+00 0.  1.
         21   -1    0    0  503  502 -0.00000000000E+00 -0.00000000000E+00 -0.18309517927E+03  0.18309517927E+03  0.00000000000E+00 0.  1.
         21    1    1    2  503  506 -0.62902557737E+02 -0.54502006216E+02 -0.10366136590E+03  0.13293938180E+03  0.00000000000E+00 0.  1.
         21    1    1    2  504  502 -0.10206781366E+02 -0.40373039703E+02  0.20615317214E+02  0.46466676496E+02  0.00000000000E+00 0.  1.
         21    1    1    2  505  501  0.26100437914E+02 -0.23653612180E+02  0.52833492326E+03  0.52950780670E+03  0.00000000000E+00 0.  1.
         21    1    1    2  506  505  0.47008901188E+02  0.11852865810E+03  0.27978375893E+02  0.13054374401E+03  0.00000000000E+00 0.  1.
<scales pt_clust_3="88.37026" pt_clust_4="46.71776" pt_clust_5="35.22394" pt_clust_6="14000.00000"></scales>
<clustering>
<clus scale="   35.224">  1  5  2 -1</clus>
<clus scale="   46.718">  1  4  2 -1</clus>
<clus scale="   88.370">  2  3  1 -1</clus>
<clus scale="   35.224">  1  3  2 -1</clus>
</clustering>
</event>
<event>
 6    0  0.8520634E+002  0.8348875E+02  0.7546771E-02  0.1319433E+00
         21   -1    0    0  504  501  0.00000000000E+00  0.00000000000E+00  0.10692756365E+03  0.10692756365E+03  0.00000000000E+00 0. -1.
         21   -1    0    0  503  502 -0.00000000000E+00 -0.00000000000E+00 -0.48929761439E+03  0.48929761439E+03  0.00000000000E+00 0. -1.
         21    1    1    2  503  506 -0.99981519723E+01 -0.41691795417E+02 -0.21441568730E+03  0.21866013768E+03  0.00000000000E+00 0. -1.
         21    1    1    2  504  505 -0.18435194450E+02 -0.24567683995E+02  0.69155660620E+02  0.75669894192E+02  0.00000000000E+00 0. -1.
         21    1    1    2  505  502  0.87158518238E+02  0.84192244090E+02 -0.18605902078E+03  0.22204256456E+03  0.00000000000E+00 0. -1.
         21    1    1    2  506  501 -0.58725171815E+02 -0.17932764677E+02 -0.51051003286E+02  0.79852581612E+02  0.00000000000E+00 0. -1.
<scales pt_clust_3="44.61347" pt_clust_4="30.71526" pt_clust_5="83.48875" pt_clust_6="14000.00000"></scales>
<clustering>
<clus scale="   30.715">  1  4  2 -1</clus>
<clus scale="   44.613">  2  3  1 -1</clus>
<clus scale="   83.489">  2  5  1 -1</clus>
<clus scale="   30.715">  1  3  2 -1</clus>
</clustering>
</event>
<event>
 6    0  0.8520634E+002  0.1558372E+03  0.7546771E-02  0.1193478E+00
         21   -1    0    0  505  501  0.00000000000E+00  0.00000000000E+00  0.65970118198E+03  0.65970118198E+03  0.00000000000E+00 0.  1.
         21   -1    0    0  503  502 -0.00000000000E+00 -0.00000000000E+00 -0.10135994573E+03  0.10135994573E+03  0.00000000000E+00 0.  1.
         21    1    1    2  503  504 -0.19789800924E+02  0.43873544659E+02  0.15807199978E+03  0.16523704566E+03  0.00000000000E+00 0.  1.
         21    1    1    2  504  501  0.31302169194E+02  0.11194122797E+03  0.35913754236E+03  0.37747905723E+03  0.00000000000E+00 0.  1.
         21    1    1    2  505  506  0.52623371576E+01 -0.12525643568E+03  0.92828162832E+02  0.15599338027E+03  0.00000000000E+00 0. -1.
         21    1    1    2  506  502 -0.16774705427E+02 -0.30558336946E+02 -0.51696468725E+02  0.62351644547E+02  0.00000000000E+00 0.  1.
<scales pt_clust_3="32.96439" pt_clust_4="32.96439" pt_clust_5="147.17662" pt_clust_6="34.85976"></scales>
<clustering>
<clus scale="   32.964">  3  4 -1 -1</clus>
<clus scale="   34.860">  2  6  1 -1</clus>
<clus scale="  147.177">  2  5  1 -1</clus>
<clus scale="  155.837">  1  3  2 -1</clus>
</clustering>
</event>
<event>
 6    0  0.8520634E+002  0.9970747E+02  0.7546771E-02  0.1280912E+00
         21   -1    0    0  503  501  0.00000000000E+00  0.00000000000E+00  0.10278602450E+03  0.10278602450E+03  0.00000000000E+00 0. -1.
         21   -1    0    0  505  502 -0.00000000000E+00 -0.00000000000E+00 -0.26954615516E+03  0.26954615516E+03  0.00000000000E+00 0. -1.
         21    1    1    2  503  502  0.23263459701E+02 -0.42238621870E+02 -0.31269184976E+02  0.57472181652E+02  0.00000000000E+00 0. -1.
         21    1    1    2  504  501 -0.36757008223E+02  0.26893844492E+01  0.14261707368E+02  0.39518435436E+02  0.00000000000E+00 0.  1.
         21    1    1    2  505  506  0.36186978461E+02  0.10449352621E+03 -0.17073502801E+03  0.20341790535E+03  0.00000000000E+00 0. -1.
         21    1    1    2  506  504 -0.22693429938E+02 -0.64944288785E+02  0.20982374960E+02  0.71923657215E+02  0.00000000000E+00 0. -1.
<scales pt_clust_3="45.07024" pt_clust_4="36.85526" pt_clust_5="99.70747" pt_clust_6="14000.00000"></scales>
<clustering>
<clus scale="   36.855">  1  4  2 -1</clus>
<clus scale="   45.070">  1  3  2 -1</clus>
<clus scale="   99.707">  2  5  1 -1</clus>
<clus scale="   36.855">  1  3  2 -1</clus>
</clustering>
</event>
<event>
 6    0  0.8520634E+002  0.8035233E+02  0.7546771E-02  0.1328055E+00
         21   -1    0    0  504  501  0.00000000000E+00  0.00000000000E+00  0.14976431133E+03  0.14976431133E+03  0.00000000000E+00 0. -1.
         21   -1    0    0  503  502 -0.00000000000E+00 -0.00000000000E+00 -0.73099289067E+03  0.73099289067E+03  0.00000000000E+00 0. -1.
         21    1    1    2  503  505 -0.28947992452E+02 -0.17147590487E+02 -0.50384227077E+03  0.50496441453E+03  0.00000000000E+00 0. -1.
         21    1    1    2  504  502  0.48172625723E+02  0.61177252720E+02  0.98410770929E+02  0.12549078832E+03  0.00000000000E+00 0. -1.
         21    1    1    2  505  506  0.55144994303E+01  0.58144722952E+02 -0.11469095084E+03  0.12870599332E+03  0.00000000000E+00 0. -1.
         21    1    1    2  506  501 -0.24739132702E+02 -0.10217438518E+03 -0.61106128649E+02  0.12159600583E+03  0.00000000000E+00 0. -1.
<scales pt_clust_3="33.64560" pt_clust_4="80.35233" pt_clust_5="49.95292" pt_clust_6="14000.00000"></scales>
<clustering>
<clus scale="   33.646">  2  3  1 -1</clus>
<clus scale="   49.953">  2  5  1 -1</clus>
<clus scale="   80.352">  1  4  2 -1</clus>
<clus scale="   80.352">  1  3  2 -1</clus>
</clustering>
</event>
<event>
 6    0  0.8520634E+002  0.2122082E+03  0.7546771E-02  0.1139829E+00
         21   -1    0    0  505  501  0.00000000000E+00  0.00000000000E+00  0.87811973719E+02  0.87811973719E+02  0.00000000000E+00 0. -1.
         21   -1    0    0  501  502 -0.00000000000E+00 -0.00000000000E+00 -0.17516401304E+04  0.17516401304E+04  0.00000000000E+00 0.  1.
         21    1    1    2  503  502  0.17834830532E+03 -0.89295443005E+02 -0.15376882323E+04  0.15505698610E+04  0.00000000000E+00 0.  1.
         21    1    1    2  504  503 -0.92908935811E+02 -0.23951647654E+02 -0.57419615109E+02  0.11181575908E+03  0.00000000000E+00 0. -1.
         21    1    1    2  505  506  0.27410027080E+01  0.59136003737E+02 -0.18218001320E+02  0.61939289679E+02  0.00000000000E+00 0. -1.
         21    1    1    2  506  504 -0.88180372221E+02  0.54111086922E+02 -0.50502307987E+02  0.11512719438E+03  0.00000000000E+00 0. -1.
<scales pt_clust_3="197.17834" pt_clust_4="68.54845" pt_clust_5="59.19949" pt_clust_6="68.54845"></scales>
<clustering>
<clus scale="   59.199">  1  5  2 -1</clus>
<clus scale="   68.548">  4  6 -1 -1</clus>
<clus scale="  197.178">  2  3  1 -1</clus>
<clus scale="   59.199">  1  3  2 -1</clus>
</clustering>
</event>
<event>
 6    0  0.8520634E+002  0.9346397E+02  0.7546771E-02  0.1294674E+00
         21   -1    0    0  504  501  0.00000000000E+00  0.00000000000E+00  0.52625082091E+02  0.52625082091E+02  0.00000000000E+00 0. -1.
         21   -1    0    0  503  502 -0.00000000000E+00 -0.00000000000E+00 -0.70906768447E+03  0.70906768447E+03  0.00000000000E+00 0. -1.
         21    1    1    2  503  505  0.20011286150E+02  0.79063269908E+02 -0.31687736469E+03  0.32720439556E+03  0.00000000000E+00 0. -1.
         21    1    1    2  504  506  0.32372728756E+02 -0.66189422528E+01  0.90260074506E+01  0.34253069558E+02  0.00000000000E+00 0. -1.
         21    1    1    2  505  501 -0.23546833706E+02  0.58239835768E+02 -0.10999714561E+03  0.12667163807E+03  0.00000000000E+00 0. -1.
         21    1    1    2  506  502 -0.28837181200E+02 -0.13068416342E+03 -0.23859409953E+03  0.27356366338E+03  0.00000000000E+00 0. -1.
<scales pt_clust_3="93.46397" pt_clust_4="33.04246" pt_clust_5="58.37570" pt_clust_6="14000.00000"></scales>
<clustering>
<clus scale="   33.042">  1  4  2 -1</clus>
<clus scale="   58.376">  1  5  2 -1</clus>
<clus scale="   93.464">  2  3  1 -1</clus>
<clus scale="   33.042">  1  3  2 -1</clus>
</clustering>
</event>
<event>
 6    0  0.8520634E+002  0.1490540E+03  0.7546771E-02  0.1201640E+00
         21   -1    0    0  505  501  0.00000000000E+00  0.00000000000E+00  0.65780914007E+03  0.65780914007E+03  0.00000000000E+00 0.  1.
         21   -1    0    0  506  502 -0.00000000000E+00 -0.00000000000E+00 -0.22569867124E+03  0.22569867124E+03  0.00000000000E+00 0. -1.
         21    1    1    2  503  502 -0.48137320082E+01  0.35759693680E+02 -0.11448219965E+03  0.12003375252E+03  0.00000000000E+00 0. -1.
         21    1    1    2  504  503  0.87420936430E+02  0.86271229104E+02  0.12344665266E+03  0.17413851139E+03  0.00000000000E+00 0.  1.
         21    1    1    2  505  504  0.17562539433E+02  0.26186592639E+02  0.40864170385E+03  0.40985634380E+03  0.00000000000E+00 0.  1.
         21    1    1    2  506  501 -0.10016974386E+03 -0.14821751542E+03  0.14504311970E+02  0.17947920361E+03  0.00000000000E+00 0. -1.
<scales pt_clust_3="36.34664" pt_clust_4="14000.00000" pt_clust_5="31.53063" pt_clust_6="149.05397"></scales>
<clustering>
<clus scale="   31.531">  1  5  2 -1</clus>
<clus scale="   36.347">  2  3  1 -1</clus>
<clus scale="  149.054">  2  6  1 -1</clus>
<clus scale="   31.531">  1  3  2 -1</clus>
</clustering>
</event>
<event>
 6    0  0.8520634E+002  0.1053630E+03  0.7546771E-02  0.1269406E+00
         21   -1    0    0  503  501  0.00000000000E+00  0.00000000000E+00  0.23251737786E+03  0.23251737786E+03  0.00000000000E+00 0.  1.
         21   -1    0    0  504  502 -0.00000000000E+00 -0.00000000000E+00 -0.64886750063E+03  0.64886750063E+03  0.00000000000E+00 0.  1.
         21    1    1    2  503  502 -0.63373688360E+02 -0.21978867184E+02 -0.36451256509E+03  0.37063284404E+03  0.00000000000E+00 0.  1.
         21    1    1    2  504  505  0.91596968421E+02 -0.14427069416E+02 -0.21133690090E+03  0.23078438127E+03  0.00000000000E+00 0.  1.
         21    1    1    2  505  506  0.86231546673E+02  0.23513086216E+02  0.81135559188E+01  0.89747282158E+02  0.00000000000E+00 0.  1.
         21    1    1    2  506  501 -0.11445482673E+03  0.12892850384E+02  0.15138578730E+03  0.19022037102E+03  0.00000000000E+00 0.  1.
<scales pt_clust_3="67.07678" pt_clust_4="52.45538" pt_clust_5="14000.00000" pt_clust_6="105.36302"></scales>
<clustering>
<clus scale="   67.077">  2  3  1 -1</clus>
<clus scale="   52.455">  2  4  1 -1</clus>
<clus scale="  105.363">  1  6  2 -1</clus>
<clus scale="  105.363">  1  3  2 -1</clus>
</clustering>
</event>
<event>
 6    0  0.8520634E+002  0.1420207E+03  0.7546771E-02  0.1210636E+00
         21   -1    0    0  505  501  0.00000000000E+00  0.00000000000E+00  0.47256245940E+03  0.47256245940E+03  0.00000000000E+00 0. -1.
         21   -1    0    0  506  502 -0.00000000000E+00 -0.00000000000E+00 -0.73885575531E+02  0.73885575531E+02  0.00000000000E+00 0. -1.
         21    1    1    2  503  504  0.97222418735E+02  0.26348863659E+02  0.18099581595E+03  0.20713750677E+03  0.00000000000E+00 0. -1.
         21    1    1    2  504  501  0.23043233465E+02  0.46655672150E+02  0.86200500248E+02  0.10068896958E+03  0.00000000000E+00 0.  1.
         21    1    1    2  505  502 -0.12313012610E+03 -0.10524839776E+01  0.10524050213E+03  0.16198055119E+03  0.00000000000E+00 0. -1.
         21    1    1    2  506  503  0.28644739044E+01 -0.71952051832E+02  0.26240065550E+02  0.76641007389E+02  0.00000000000E+00 0. -1.
<scales pt_clust_3="42.94314" pt_clust_4="42.94314" pt_clust_5="128.84138" pt_clust_6="72.00905"></scales>
<clustering>
<clus scale="   42.943">  3  4 -1 -1</clus>
<clus scale="   72.009">  2  6  1 -1</clus>
<clus scale="  128.841">  2  5  1 -1</clus>
<clus scale="  142.021">  1  3  2 -1</clus>
</clustering>
</event>
<event>
 6    0  0.8520634E+002  0.9595300E+02  0.7546771E-02  0.1289044E+00
         21   -1    0    0  506  501  0.00000000000E+00  0.00000000000E+00  0.41353565010E+02  0.41353565010E+02  0.00000000000E+00 0.  1.
         21   -1    0    0  501  502 -0.00000000000E+00 -0.00000000000E+00 -0.75818390664E+03  0.75818390664E+03  0.00000000000E+00 0.  1.
         21    1    1    2  503  504  0.19210892575E+02  0.28824276958E+02 -0.29237950869E+03  0.29442431020E+03  0.00000000000E+00 0.  1.
         21    1    1    2  504  502 -0.24163752475E+02  0.22784425759E+02 -0.20386561676E+03  0.20655315705E+03  0.00000000000E+00 0. -1.
         21    1    1    2  505  503 -0.47947824081E+02 -0.11131627294E+03 -0.12611884891E+03  0.17491789647E+03  0.00000000000E+00 0.  1.
         21    1    1    2  506  505  0.52900683981E+02  0.59707570222E+02 -0.94466367263E+02  0.12364210792E+03  0.00000000000E+00 0.  1.
<scales pt_clust_3="41.40941" pt_clust_4="33.21170" pt_clust_5="95.95300" pt_clust_6="14000.00000"></scales>
<clustering>
<clus scale="   33.212">  2  4  1 -1</clus>
<clus scale="   41.409">  2  3  1 -1</clus>
<clus scale="   95.953">  2  5  1 -1</clus>
<clus scale="   95.953">  1  3  2 -1</clus>
</clustering>
</event>
<event>
 6    0  0.8520634E+002  0.9776503E+02  0.7546771E-02  0.1285067E+00
         21   -1    0    0  505  501  0.00000000000E+00  0.00000000000E+00  0.10507634527E+04  0.10507634527E+04  0.00000000000E+00 0. -1.
         21   -1    0    0  503  502 -0.00000000000E+00 -0.00000000000E+00 -0.27966634290E+02  0.27966634290E+02  0.00000000000E+00 0. -1.
         21    1    1    2  503  501  0.73428348152E+02  0.49905000005E+02  0.12896479129E+03  0.15656994836E+03  0.00000000000E+00 0. -1.
         21    1    1    2  504  506  0.42290313398E+01 -0.65368262020E+02  0.22744955557E+03  0.23669430647E+03  0.00000000000E+00 0. -1.
         21    1    1    2  505  504 -0.60553712875E+02  0.60761706549E+02  0.58109116289E+03  0.58738886329E+03  0.00000000000E+00 0. -1.
         21    1    1    2  506  502 -0.17103666617E+02 -0.45298444534E+02  0.85291308618E+02  0.98076968829E+02  0.00000000000E+00 0.  1.
<scales pt_clust_3="87.78336" pt_clust_4="37.00028" pt_clust_5="85.78308" pt_clust_6="37.00028"></scales>
<clustering>
<clus scale="   37.000">  4  6 -1 -1</clus>
<clus scale="   85.783">  1  5  2 -1</clus>
<clus scale="   87.783">  2  3  1 -1</clus>
<clus scale="   85.783">  1  3  2 -1</clus>
</clustering>
</event>
<event>
 6    0  0.8520634E+002  0.7445491E+02  0.7546771E-02  0.1345567E+00
         21   -1    0    0  505  501  0.00000000000E+00  0.00000000000E+00  0.17879079503E+03  0.17879079503E+03  0.00000000000E+00 0. -1.
         21   -1    0    0  504  502 -0.00000000000E+00 -0.00000000000E+00 -0.21100642404E+03  0.21100642404E+03  0.00000000000E+00 0. -1.
         21    1    1    2  503  506 -0.11303381874E+03  0.32304652276E+02  0.21742272654E+02  0.11955317293E+03  0.00000000000E+00 0. -1.
         21    1    1    2  504  501  0.31352927615E+02  0.20327392050E+02 -0.11287533836E+02  0.39033541444E+02  0.00000000000E+00 0. -1.
         21    1    1    2  505  503  0.39189085001E+02 -0.37995436471E+02  0.82102038021E+02  0.98590984492E+02  0.00000000000E+00 0. -1.
         21    1    1    2  506  502  0.42491806125E+02 -0.14636607855E+02 -0.12477240585E+03  0.13261952021E+03  0.00000000000E+00 0. -1.
<scales pt_clust_3="74.45491" pt_clust_4="37.36588" pt_clust_5="54.97885" pt_clust_6="14000.00000"></scales>
<clustering>
<clus scale="   37.366">  2  4  1 -1</clus>
<clus scale="   54.979">  1  5  2 -1</clus>
<clus scale="   74.455">  1  3  2 -1</clus>
<clus scale="   54.979">  1  3  2 -1</clus>
</clustering>
</event>
<event>
 6    0  0.8520634E+002  0.1072805E+03  0.7546771E-02  0.1265691E+00
         21   -1    0    0  506  501  0.00000000000E+00  0.00000000000E+00  0.12069188961E+03  0.12069188961E+03  0.00000000000E+00 0. -1.
         21   -1    0    0  503  502 -0.00000000000E+00 -0.00000000000E+00 -0.18577189951E+04  0.18577189951E+04  0.00000000000E+00 0. -1.
         21    1    1    2  503  501 -0.64658853804E+02 -0.32747864983E+02 -0.16126465270E+04  0.16142744535E+04  0.00000000000E+00 0. -1.
         21    1    1    2  504  505  0.77895343501E+02  0.87638435475E+02 -0.16195845922E+02  0.11836589600E+03  0.00000000000E+00 0. -1.
         21    1    1    2  505  502 -0.27231754527E+02 -0.24945061453E+02 -0.17091773080E+03  0.17486193195E+03  0.00000000000E+00 0.  1.
         21    1    1    2  506  504  0.13995264830E+02 -0.29945509040E+02  0.62732998246E+02  0.70908603274E+02  0.00000000000E+00 0. -1.
<scales pt_clust_3="14000.00000" pt_clust_4="107.28047" pt_clust_5="37.31054" pt_clust_6="33.05451"></scales>
<clustering>
<clus scale="   33.055">  1  6  2 -1</clus>
<clus scale="   37.311">  2  5  1 -1</clus>
<clus scale="  107.280">  1  4  2 -1</clus>
<clus scale="   33.055">  1  3  2 -1</clus>
</clustering>
</event>
<event>
 6    0  0.8520634E+002  0.9482670E+02  0.7546771E-02  0.1291567E+00
         21   -1    0    0  504  501  0.00000000000E+00  0.00000000000E+00  0.15941353777E+04  0.15941353777E+04  0.00000000000E+00 0.  1.
         21   -1    0    0  503  502 -0.00000000000E+00 -0.00000000000E+00 -0.19502312130E+03  0.19502312130E+03  0.00000000000E+00 0. -1.
         21    1    1    2  503  506 -0.35931600961E+02  0.19239188604E+02  0.85762797488E+01  0.41650677066E+02  0.00000000000E+00 0. -1.
         21    1    1    2  504  505  0.13282079667E+03 -0.10974520567E+03 -0.33903428832E+02  0.17559845296E+03  0.00000000000E+00 0. -1.
         21    1    1    2  505  502 -0.95063430152E+01  0.56270686791E+02 -0.60985652999E+02  0.83522515654E+02  0.00000000000E+00 0.  1.
         21    1    1    2  506  501 -0.87382852696E+02  0.34235330275E+02  0.14854250585E+04  0.14883868533E+04  0.00000000000E+00 0.  1.
<scales pt_clust_3="40.75814" pt_clust_4="14000.00000" pt_clust_5="68.42559" pt_clust_6="94.82670"></scales>
<clustering>
<clus scale="   40.758">  2  3  1 -1</clus>
<clus scale="   68.426">  2  5  1 -1</clus>
<clus scale="   94.827">  1  6  2 -1</clus>
<clus scale="   94.827">  1  3  2 -1</clus>
</clustering>
</event>
<event>
 6    0  0.8520634E+002  0.1456551E+03  0.7546771E-02  0.1205916E+00
         21   -1    0    0  504  501  0.00000000000E+00  0.00000000000E+00  0.61980157849E+03  0.61980157849E+03  0.00000000000E+00 0.  1.
         21   -1    0    0  505  502 -0.00000000000E+00 -0.00000000000E+00 -0.48532646881E+02  0.48532646881E+02  0.00000000000E+00 0.  1.
         21    1    1    2  503  506 -0.67483248896E+02  0.48646026024E+02  0.18001396050E+03  0.19830645653E+03  0.00000000000E+00 0.  1.
         21    1    1    2  504  503  0.86937929004E+02 -0.10101758235E+03  0.28196599968E+03  0.31187750868E+03  0.00000000000E+00 0.  1.
         21    1    1    2  505  501  0.33121820224E+02  0.21775554166E+01  0.91885229883E+01  0.34441627099E+02  0.00000000000E+00 0. -1.
         21    1    1    2  506  502 -0.52576500332E+02  0.50194000912E+02  0.10010044844E+03  0.12370863306E+03  0.00000000000E+00 0.  1.
<scales pt_clust_3="30.23121" pt_clust_4="142.01922" pt_clust_5="33.19332" pt_clust_6="30.23121"></scales>
<clustering>
<clus scale="   30.231">  3  6 -1 -1</clus>
<clus scale="   33.193">  2  5  1 -1</clus>
<clus scale="  142.019">  1  4  2 -1</clus>
<clus scale="  142.019">  1  3  2 -1</clus>
</clustering>
</event>
<event>
 6    0  0.8520634E+002  0.6293542E+02  0.7546771E-02  0.1385910E+00
         21   -1    0    0  504  501  0.00000000000E+00  0.00000000000E+00  0.90327620407E+03  0.90327620407E+03  0.00000000000E+00 0.  1.
         21   -1    0    0  503  502 -0.00000000000E+00 -0.00000000000E+00 -0.30855599668E+03  0.30855599668E+03  0.00000000000E+00 0.  1.
         21    1    1    2  503  505 -0.31031846798E+02  0.34064078769E+02 -0.29184715124E+03  0.29546251313E+03  0.00000000000E+00 0.  1.
         21    1    1    2  504  502 -0.38257082619E+02 -0.41847412228E+02  0.44963054041E+03  0.45319138689E+03  0.00000000000E+00 0.  1.
         21    1    1    2  505  506  0.19523130070E+02 -0.62929455002E+02  0.15932057579E+03  0.17240740931E+03  0.00000000000E+00 0.  1.
         21    1    1    2  506  501  0.49765799347E+02  0.70712788461E+02  0.27761624243E+03  0.29077089142E+03  0.00000000000E+00 0.  1.
<scales pt_clust_3="46.07968" pt_clust_4="14000.00000" pt_clust_5="48.33222" pt_clust_6="62.93542"></scales>
<clustering>
<clus scale="   46.080">  2  3  1 -1</clus>
<clus scale="   48.332">  2  5  1 -1</clus>
<clus scale="   62.935">  2  6  1 -1</clus>
<clus scale="   62.935">  1  3  2 -1</clus>
</clustering>
</event>
<event>
 6    0  0.8520634E+002  0.7477420E+02  0.7546771E-02  0.1344572E+00
         21   -1    0    0  503  501  0.00000000000E+00  0.00000000000E+00  0.35682426161E+03  0.35682426161E+03  0.00000000000E+00 0. -1.
         21   -1    0    0  506  502 -0.00000000000E+00 -0.00000000000E+00 -0.56866403913E+02  0.56866403913E+02  0.00000000000E+00 0.  1.
         21    1    1    2  503  504  0.30881740882E+01  0.59451625920E+02  0.11857167823E+03  0.13267733613E+03  0.00000000000E+00 0. -1.
         21    1    1    2  504  502  0.64032315141E+02  0.31046493826E+02  0.24116952926E+02  0.75137537754E+02  0.00000000000E+00 0.  1.
         21    1    1    2  505  501 -0.75112136274E+02 -0.52469389399E+02  0.12708903377E+03  0.15667320238E+03  0.00000000000E+00 0. -1.
         21    1    1    2  506  505  0.79916470450E+01 -0.38028730347E+02  0.30180192772E+02  0.49202589261E+02  0.00000000000E+00 0.  1.
<scales pt_clust_3="53.95772" pt_clust_4="74.77420" pt_clust_5="14000.00000" pt_clust_6="38.85937"></scales>
<clustering>
<clus scale="   38.859">  2  6  1 -1</clus>
<clus scale="   53.958">  1  3  2 -1</clus>
<clus scale="   74.774">  2  4  1 -1</clus>
<clus scale="   53.958">  1  3  2 -1</clus>
</clustering>
</event>
<event>
 6    0  0.8520634E+002  0.1002153E+03  0.7546771E-02  0.1279844E+00
         21   -1    0    0  506  501  0.00000000000E+00  0.00000000000E+00  0.15610166070E+03  0.15610166070E+03  0.00000000000E+00 0.  1.
         21   -1    0    0  505  502 -0.00000000000E+00 -0.00000000000E+00 -0.24940815260E+03  0.24940815260E+03  0.00000000000E+00 0.  1.
         21    1    1    2  503  501  0.27609000871E+02  0.24818255892E+02  0.35835609253E+02  0.51598388009E+02  0.00000000000E+00 0.  1.
         21    1    1    2  504  503  0.71813525428E+02 -0.52291558614E+02  0.28005290806E+02  0.93144435420E+02  0.00000000000E+00 0.  1.
         21    1    1    2  505  504 -0.77911270295E+02  0.67075327977E+02 -0.18220075379E+03  0.20920415948E+03  0.00000000000E+00 0.  1.
         21    1    1    2  506  502 -0.21511256004E+02 -0.39602025255E+02  0.25053361824E+02  0.51562830390E+02  0.00000000000E+00 0.  1.
<scales pt_clust_3="37.12415" pt_clust_4="14000.00000" pt_clust_5="100.21525" pt_clust_6="33.41050"></scales>
<clustering>
<clus scale="   37.124">  1  3  2 -1</clus>
<clus scale="   33.411">  1  6  2 -1</clus>
<clus scale="  100.215">  2  5  1 -1</clus>
<clus scale="   37.124">  1  3  2 -1</clus>
</clustering>
</event>
<event>
 6    0  0.8520634E+002  0.8909088E+02  0.7546771E-02  0.1305068E+00
         21   -1    0    0  505  501  0.00000000000E+00  0.00000000000E+00  0.61685736287E+03  0.61685736287E+03  0.00000000000E+00 0. -1.
         21   -1    0    0  503  502 -0.00000000000E+00 -0.00000000000E+00 -0.14282598433E+03  0.14282598433E+03  0.00000000000E+00 0. -1.
         21    1    1    2  503  506  0.30705108041E+02 -0.91539967149E+02 -0.72420476318E+01  0.96823636057E+02  0.00000000000E+00 0. -1.
         21    1    1    2  504  501 -0.21189671593E+02 -0.25682947836E+02  0.19567012315E+03  0.19848277780E+03  0.00000000000E+00 0. -1.
         21    1    1    2  505  502 -0.74272898157E+02  0.53377902604E+02 -0.58425554969E+02  0.10853206605E+03  0.00000000000E+00 0. -1.
         21    1    1    2  506  504  0.64757461710E+02  0.63845012381E+02  0.34402885798E+03  0.35584486729E+03  0.00000000000E+00 0. -1.
<scales pt_clust_3="14000.00000" pt_clust_4="33.29589" pt_clust_5="89.09088" pt_clust_6="63.39192"></scales>
<clustering>
<clus scale="   33.296">  1  4  2 -1</clus>
<clus scale="   63.392">  1  6  2 -1</clus>
<clus scale="   89.091">  2  5  1 -1</clus>
<clus scale="   33.296">  1  3  2 -1</clus>
</clustering>
</event>
<event>
 6    0  0.8520634E+002  0.7964286E+02  0.7546771E-02  0.1330068E+00
         21   -1    0    0  503  501  0.00000000000E+00  0.00000000000E+00  0.28773225365E+03  0.28773225365E+03  0.00000000000E+00 0.  1.
         21   -1    0    0  506  502 -0.00000000000E+00 -0.00000000000E+00 -0.46393146730E+03  0.46393146730E+03  0.00000000000E+00 0.  1.
         21    1    1    2  503  504 -0.35672159087E+02  0.15587528646E+01  0.50477502312E+02  0.61829692577E+02  0.00000000000E+00 0.  1.
         21    1    1    2  504  502  0.12117489589E+03 -0.30918697359E+02 -0.25614256615E+03  0.28504093642E+03  0.00000000000E+00 0.  1.
         21    1    1    2  505  501 -0.24570132052E+02  0.51809435550E+02  0.20750478654E+03  0.21528154923E+03  0.00000000000E+00 0.  1.
         21    1    1    2  506  505 -0.60932604749E+02 -0.22449491055E+02 -0.17803893635E+03  0.18951154272E+03  0.00000000000E+00 0.  1.
<scales pt_clust_3="35.70620" pt_clust_4="14000.00000" pt_clust_5="79.64286" pt_clust_6="65.75327"></scales>
<clustering>
<clus scale="   35.706">  1  3  2 -1</clus>
<clus scale="   65.753">  2  6  1 -1</clus>
<clus scale="   79.643">  1  5  2 -1</clus>
<clus scale="   35.706">  1  3  2 -1</clus>
</clustering>
</event>
<event>
 6    0  0.8520634E+002  0.1312065E+03  0.7546771E-02  0.1225676E+00
         21   -1    0    0  506  501  0.00000000000E+00  0.00000000000E+00  0.15857739163E+03  0.15857739163E+03  0.00000000000E+00 0. -1.
         21   -1    0    0  505  502 -0.00000000000E+00 -0.00000000000E+00 -0.73037808045E+03  0.73037808045E+03  0.00000000000E+00 0.  1.
         21    1    1    2  503  504 -0.27084447489E+02 -0.32474016495E+02  0.55594703921E+02  0.69849124169E+02  0.00000000000E+00 0. -1.
         21    1    1    2  504  502 -0.71254447540E+00 -0.10593046788E+03 -0.21185818165E+03  0.23686633547E+03  0.00000000000E+00 0. -1.
         21    1    1    2  505  501  0.12940699118E+01  0.15604336506E+03 -0.48303230938E+03  0.50761345362E+03  0.00000000000E+00 0.  1.
         21    1    1    2  506  503  0.26502922053E+02 -0.17638880680E+02  0.67495098282E+02  0.74626558818E+02  0.00000000000E+00 0. -1.
<scales pt_clust_3="45.83519" pt_clust_4="14000.00000" pt_clust_5="131.20653" pt_clust_6="31.83606"></scales>
<clustering>
<clus scale="   31.836">  1  6  2 -1</clus>
<clus scale="   45.835">  1  3  2 -1</clus>
<clus scale="  131.207">  2  5  1 -1</clus>
<clus scale="   31.836">  1  3  2 -1</clus>
</clustering>
</event>
<event>
 6    0  0.8520634E+002  0.8256132E+02  0.7546771E-02  0.1321936E+00
         21   -1    0    0  506  501  0.00000000000E+00  0.00000000000E+00  0.20495780774E+03  0.20495780774E+03  0.00000000000E+00 0. -1.
         21   -1    0    0  505  502 -0.00000000000E+00 -0.00000000000E+00 -0.37866643573E+03  0.37866643573E+03  0.00000000000E+00 0. -1.
         21    1    1    2  503  504 -0.71599778715E+02 -0.87790921478E+02  0.54543446016E+01  0.11341747697E+03  0.00000000000E+00 0. -1.
         21    1    1    2  504  502  0.35261601792E+02  0.40958666848E+02 -0.84750525312E+02  0.10051688660E+03  0.00000000000E+00 0. -1.
         21    1    1    2  505  501  0.20547796514E+02 -0.29798793191E+02 -0.21932758985E+03  0.22229433571E+03  0.00000000000E+00 0. -1.
         21    1    1    2  506  503  0.15790380409E+02  0.76631047821E+02  0.12491514258E+03  0.14739554420E+03  0.00000000000E+00 0. -1.
<scales pt_clust_3="14000.00000" pt_clust_4="52.82117" pt_clust_5="36.19641" pt_clust_6="82.56132"></scales>
<clustering>
<clus scale="   36.196">  2  5  1 -1</clus>
<clus scale="   52.821">  2  4  1 -1</clus>
<clus scale="   82.561">  1  6  2 -1</clus>
<clus scale="   82.561">  1  3  2 -1</clus>
</clustering>
</event>
<event>
 6    0  0.8520634E+002  0.7629086E+02  0.7546771E-02  0.1339920E+00
         21   -1    0    0  506  501  0.00000000000E+00  0.00000000000E+00  0.26442309253E+04  0.26442309253E+04  0.00000000000E+00 0.  1.
         21   -1    0    0  505  502 -0.00000000000E+00 -0.00000000000E+00 -0.36021261868E+02  0.36021261868E+02  0.00000000000E+00 0.  1.
         21    1    1    2  503  502  0.21504415660E+01 -0.61428320734E+02  0.11001487378E+03  0.12602117061E+03  0.00000000000E+00 0.  1.
         21    1    1    2  504  503 -0.12179325802E+02 -0.54871680816E+02  0.83101384381E+03  0.83291250798E+03  0.00000000000E+00 0.  1.
         21    1    1    2  505  501 -0.19201516749E+02  0.13835451354E+03  0.15483558271E+03  0.20852991953E+03  0.00000000000E+00 0.  1.
         21    1    1    2  506  504  0.29230400984E+02 -0.22054511994E+02  0.15123453631E+04  0.15127885891E+04  0.00000000000E+00 0.  1.
<scales pt_clust_3="63.94002" pt_clust_4="14000.00000" pt_clust_5="76.29086" pt_clust_6="36.61718"></scales>
<clustering>
<clus scale="   36.617">  1  6  2 -1</clus>
<clus scale="   63.940">  2  3  1 -1</clus>
<clus scale="   76.291">  2  5  1 -1</clus>
<clus scale="   36.617">  1  3  2 -1</clus>
</clustering>
</event>
<event>
 6    0  0.8520634E+002  0.1163137E+03  0.7546771E-02  0.1249305E+00
         21   -1    0    0  505  501  0.00000000000E+00  0.00000000000E+00  0.13870355184E+04  0.13870355184E+04  0.00000000000E+00 0. -1.
         21   -1    0    0  506  502 -0.00000000000E+00 -0.00000000000E+00 -0.80440480386E+03  0.80440480386E+03  0.00000000000E+00 0.  1.
         21    1    1    2  503  504  0.12954786342E+02 -0.95967043443E+02  0.12446941104E+03  0.15770267658E+03  0.00000000000E+00 0.  1.
         21    1    1    2  504  502  0.19767399747E+02  0.14363941811E+03  0.36389571111E+02  0.14948991074E+03  0.00000000000E+00 0.  1.
         21    1    1    2  505  503 -0.44998322566E+02 -0.17779259234E+02  0.11521447221E+04  0.11531601848E+04  0.00000000000E+00 0. -1.
         21    1    1    2  506  501  0.12276136476E+02 -0.29893115433E+02 -0.73037298972E+03  0.73108755015E+03  0.00000000000E+00 0.  1.
<scales pt_clust_3="116.31365" pt_clust_4="14000.00000" pt_clust_5="48.38091" pt_clust_6="32.31566"></scales>
<clustering>
<clus scale="   32.316">  2  6  1 -1</clus>
<clus scale="   48.381">  1  5  2 -1</clus>
<clus scale="  116.314">  1  3  2 -1</clus>
<clus scale="   48.381">  1  3  2 -1</clus>
</clustering>
</event>
<event>
 6    0  0.8520634E+002  0.7714846E+02  0.7546771E-02  0.1337344E+00
         21   -1    0    0  503  501  0.00000000000E+00  0.00000000000E+00  0.16438764288E+03  0.16438764288E+03  0.00000000000E+00 0. -1.
         21   -1    0    0  504  502 -0.00000000000E+00 -0.00000000000E+00 -0.12553188937E+03  0.12553188937E+03  0.00000000000E+00 0. -1.
         21    1    1    2  503  505 -0.34440348949E+02  0.13989706700E+02  0.38405853351E+02  0.53449594019E+02  0.00000000000E+00 0. -1.
         21    1    1    2  504  501  0.54502079693E+02  0.28056718844E+02 -0.19176375191E+02  0.64229195298E+02  0.00000000000E+00 0. -1.
         21    1    1    2  505  506 -0.13154917654E+02  0.59605925983E+02  0.33148918263E+02  0.69460557533E+02  0.00000000000E+00 0. -1.
         21    1    1    2  506  502 -0.69068130904E+01 -0.10165235153E+03 -0.13522642914E+02  0.10278018539E+03  0.00000000000E+00 0. -1.
<scales pt_clust_3="37.17324" pt_clust_4="56.94746" pt_clust_5="77.14846" pt_clust_6="14000.00000"></scales>
<clustering>
<clus scale="   37.173">  1  3  2 -1</clus>
<clus scale="   56.947">  2  4  1 -1</clus>
<clus scale="   77.148">  1  5  2 -1</clus>
<clus scale="   37.173">  1  3  2 -1</clus>
</clustering>
</event>
<event>
 6    0  0.8520634E+002  0.8270615E+02  0.7546771E-02  0.1321543E+00
         21   -1    0    0  505  501  0.00000000000E+00  0.00000000000E+00  0.30422347585E+03  0.30422347585E+03  0.00000000000E+00 0.  1.
         21   -1    0    0  503  502 -0.00000000000E+00 -0.00000000000E+00 -0.50683343824E+03  0.50683343824E+03  0.00000000000E+00 0.  1.
         21    1    1    2  503  504 -0.29926100231E+02 -0.11465577252E+02 -0.15746168584E+03  0.16068980504E+03  0.00000000000E+00 0.  1.
         21    1    1    2  504  506  0.21638584013E+02  0.92102128731E+02 -0.31934564572E+03  0.33306556693E+03  0.00000000000E+00 0.  1.
         21    1    1    2  505  502  0.36300053657E+02 -0.10243833620E+03  0.13323528109E+03  0.17193878779E+03  0.00000000000E+00 0.  1.
         21    1    1    2  506  501 -0.28012537439E+02  0.21801784722E+02  0.14096208807E+03  0.14536275432E+03  0.00000000000E+00 0.  1.
<scales pt_clust_3="32.04732" pt_clust_4="82.70615" pt_clust_5="14000.00000" pt_clust_6="35.60205"></scales>
<clustering>
<clus scale="   32.047">  2  3  1 -1</clus>
<clus scale="   35.602">  1  6  2 -1</clus>
<clus scale="   82.706">  2  4  1 -1</clus>
<clus scale="   35.602">  1  3  2 -1</clus>
</clustering>
</event>
<event>
 6    0  0.8520634E+002  0.1214961E+03  0.7546771E-02  0.1240649E+00
         21   -1    0    0  505  501  0.00000000000E+00  0.00000000000E+00  0.10202565139E+04  0.10202565139E+04  0.00000000000E+00 0. -1.
         21   -1    0    0  504  502 -0.00000000000E+00 -0.00000000000E+00 -0.26939462000E+02  0.26939462000E+02  0.00000000000E+00 0. -1.
         21    1    1    2  503  502  0.37304842764E+02  0.49641589934E+02  0.70620228896E+02  0.94038053331E+02  0.00000000000E+00 0. -1.
         21    1    1    2  504  506  0.85832150366E+01 -0.85126725652E+02  0.23449855563E+03  0.24961931735E+03  0.00000000000E+00 0. -1.
         21    1    1    2  505  503 -0.66858926957E+02  0.73600918382E+02  0.40555078377E+03  0.41756274920E+03  0.00000000000E+00 0. -1.
         21    1    1    2  506  501  0.20970869156E+02 -0.38115782665E+02  0.28264748356E+03  0.28597585598E+03  0.00000000000E+00 0.  1.
<scales pt_clust_3="62.09621" pt_clust_4="41.33356" pt_clust_5="106.77683" pt_clust_6="41.33356"></scales>
<clustering>
<clus scale="   41.334">  4  6 -1 -1</clus>
<clus scale="   62.096">  2  3  1 -1</clus>
<clus scale="  106.777">  1  5  2 -1</clus>
<clus scale="  106.777">  1  3  2 -1</clus>
</clustering>
</event>
<event>
 6    0  0.8520634E+002  0.7622039E+02  0.7546771E-02  0.1340133E+00
         21   -1    0    0  506  501  0.00000000000E+00  0.00000000000E+00  0.66792339248E+03  0.66792339248E+03  0.00000000000E+00 0. -1.
         21   -1    0    0  503  502 -0.00000000000E+00 -0.00000000000E+00 -0.11846155917E+03  0.11846155917E+03  0.00000000000E+00 0. -1.
         21    1    1    2  503  504  0.27087284633E+02 -0.53270083147E+02  0.30392154395E+01  0.59838612766E+02  0.00000000000E+00 0.  1.
         21    1    1    2  504  501  0.69183568115E+02 -0.22311437153E+02  0.32310352764E+03  0.33117979392E+03  0.00000000000E+00 0. -1.
         21    1    1    2  505  502 -0.81934465639E+02  0.48862943963E+02 -0.58509429011E+02  0.11191155988E+03  0.00000000000E+00 0. -1.
         21    1    1    2  506  505 -0.14336387108E+02  0.26718576337E+02  0.28182851924E+03  0.28345498509E+03  0.00000000000E+00 0. -1.
<scales pt_clust_3="76.22039" pt_clust_4="57.01181" pt_clust_5="14000.00000" pt_clust_6="30.32185"></scales>
<clustering>
<clus scale="   30.322">  1  6  2 -1</clus>
<clus scale="   57.012">  1  4  2 -1</clus>
<clus scale="   76.220">  1  3  2 -1</clus>
<clus scale="   30.322">  1  3  2 -1</clus>
</clustering>
</event>
<event>
 6    0  0.8520634E+002  0.8499951E+02  0.7546771E-02  0.1315434E+00
         21   -1    0    0  506  501  0.00000000000E+00  0.00000000000E+00  0.14843326034E+04  0.14843326034E+04  0.00000000000E+00 0.  1.
         21   -1    0    0  503  502 -0.00000000000E+00 -0.00000000000E+00 -0.89181989575E+02  0.89181989575E+02  0.00000000000E+00 0.  1.
         21    1    1    2  503  501  0.81000826542E+02  0.59240658495E+02  0.73239629104E+03  0.73923941768E+03  0.00000000000E+00 0.  1.
         21    1    1    2  504  505 -0.29357074850E+01 -0.94688254924E+02  0.61736150654E+03  0.62458763497E+03  0.00000000000E+00 0.  1.
         21    1    1    2  505  502 -0.51056752578E+02  0.52036738816E+02 -0.63250202356E+02  0.96515295516E+02  0.00000000000E+00 0.  1.
         21    1    1    2  506  504 -0.27008366479E+02 -0.16589142388E+02  0.10864301856E+03  0.11317224477E+03  0.00000000000E+00 0.  1.
<scales pt_clust_3="14000.00000" pt_clust_4="84.99951" pt_clust_5="72.98803" pt_clust_6="31.69624"></scales>
<clustering>
<clus scale="   31.696">  1  6  2 -1</clus>
<clus scale="   72.988">  2  5  1 -1</clus>
<clus scale="   85.000">  2  4  1 -1</clus>
<clus scale="   31.696">  1  3  2 -1</clus>
</clustering>
</event>
<event>
 6    0  0.8520634E+002  0.9640445E+02  0.7546771E-02  0.1288044E+00
         21   -1    0    0  505  501  0.00000000000E+00  0.00000000000E+00  0.90545827760E+03  0.90545827760E+03  0.00000000000E+00 0.  1.
         21   -1    0    0  504  502 -0.00000000000E+00 -0.00000000000E+00 -0.42938288328E+03  0.42938288328E+03  0.00000000000E+00 0.  1.
         21    1    1    2  503  506  0.94376825110E+02  0.32031884018E+02  0.28853051693E+03  0.30525871963E+03  0.00000000000E+00 0.  1.
         21    1    1    2  504  503 -0.25268222820E+02 -0.49150959205E+02 -0.20925657196E+03  0.21643154295E+03  0.00000000000E+00 0.  1.
         21    1    1    2  505  502  0.26910018116E+02 -0.20355928427E+02 -0.20237754776E+03  0.20517111087E+03  0.00000000000E+00 0.  1.
         21    1    1    2  506  501 -0.96018620406E+02  0.37475003615E+02  0.59917899710E+03  0.60797978744E+03  0.00000000000E+00 0.  1.
<scales pt_clust_3="96.40445" pt_clust_4="68.35529" pt_clust_5="33.74186" pt_clust_6="14000.00000"></scales>
<clustering>
<clus scale="   33.742">  2  5  1 -1</clus>
<clus scale="   68.355">  2  4  1 -1</clus>
<clus scale="   96.404">  2  3  1 -1</clus>
<clus scale="   96.404">  1  3  2 -1</clus>
</clustering>
</event>
<event>
 6    0  0.8520634E+002  0.8800610E+02  0.7546771E-02  0.1307753E+00
         21   -1    0    0  504  501  0.00000000000E+00  0.00000000000E+00  0.15732386124E+04  0.15732386124E+04  0.00000000000E+00 0. -1.
         21   -1    0    0  505  502 -0.00000000000E+00 -0.00000000000E+00 -0.18529377076E+02  0.18529377076E+02  0.00000000000E+00 0. -1.
         21    1    1    2  503  506  0.30892066675E+02 -0.18023707296E+02  0.27152713945E+03  0.27387252741E+03  0.00000000000E+00 0.  1.
         21    1    1    2  504  502 -0.70835818569E+02 -0.45265514181E+02  0.13862920002E+03  0.16212567676E+03  0.00000000000E+00 0. -1.
         21    1    1    2  505  503  0.69782767504E+02  0.78348114254E+02  0.52866607930E+03  0.53897670177E+03  0.00000000000E+00 0. -1.
         21    1    1    2  506  501 -0.29839015610E+02 -0.15058892777E+02  0.61588681656E+03  0.61679308355E+03  0.00000000000E+00 0. -1.
<scales pt_clust_3="31.61033" pt_clust_4="14000.00000" pt_clust_5="88.00610" pt_clust_6="33.42360"></scales>
<clustering>
<clus scale="   33.424">  1  6  2 -1</clus>
<clus scale="   31.610">  1  3  2 -1</clus>
<clus scale="   88.006">  1  5  2 -1</clus>
<clus scale="   33.424">  1  3  2 -1</clus>
</clustering>
</event>
<event>
 6    0  0.8520634E+002  0.8641917E+02  0.7546771E-02  0.1311762E+00
         21   -1    0    0  506  501  0.00000000000E+00  0.00000000000E+00  0.15725987211E+03  0.15725987211E+03  0.00000000000E+00 0.  1.
         21   -1    0    0  504  502 -0.00000000000E+00 -0.00000000000E+00 -0.46197607725E+03  0.46197607725E+03  0.00000000000E+00 0.  1.
         21    1    1    2  503  502 -0.45173555865E+02 -0.12288014905E+03 -0.29023176795E+02  0.13409894098E+03  0.00000000000E+00 0.  1.
         21    1    1    2  504  505  0.12422259881E+02  0.28849463648E+02 -0.32494494874E+03  0.32645952859E+03  0.00000000000E+00 0.  1.
         21    1    1    2  505  501 -0.33430593436E+02  0.49481095893E+02 -0.83223663475E+01  0.60292994699E+02  0.00000000000E+00 0.  1.
         21    1    1    2  506  503  0.66181889420E+02  0.44549589513E+02  0.57574286747E+02  0.98384485095E+02  0.00000000000E+00 0.  1.
<scales pt_clust_3="14000.00000" pt_clust_4="31.41025" pt_clust_5="64.32868" pt_clust_6="86.41917"></scales>
<clustering>
<clus scale="   31.410">  2  4  1 -1</clus>
<clus scale="   64.329">  2  5  1 -1</clus>
<clus scale="   86.419">  1  6  2 -1</clus>
<clus scale="   86.419">  1  3  2 -1</clus>
</clustering>
</event>
<event>
 6    0  0.8520634E+002  0.1564418E+03  0.7546771E-02  0.1192773E+00
         21   -1    0    0  506  501  0.00000000000E+00  0.00000000000E+00  0.22997115898E+03  0.22997115898E+03  0.00000000000E+00 0. -1.
         21   -1    0    0  504  502 -0.00000000000E+00 -0.00000000000E+00 -0.13032095157E+04  0.13032095157E+04  0.00000000000E+00 0. -1.
         21    1    1    2  503  501 -0.84726407866E+02 -0.22825503463E+02 -0.75583440142E+01  0.88072108879E+02  0.00000000000E+00 0. -1.
         21    1    1    2  504  505  0.99478755778E+01 -0.15420341263E+03 -0.11318939109E+04  0.11423928739E+04  0.00000000000E+00 0. -1.
         21    1    1    2  505  503 -0.23222534335E+02 -0.44196149317E+02 -0.58115734173E+01  0.50262909794E+02  0.00000000000E+00 0. -1.
         21    1    1    2  506  502  0.98001066623E+02  0.22122506541E+03  0.72025471659E+02  0.25245278210E+03  0.00000000000E+00 0. -1.
<scales pt_clust_3="137.68741" pt_clust_4="156.44182" pt_clust_5="40.00614" pt_clust_6="14000.00000"></scales>
<clustering>
<clus scale="   40.006">  3  5 -1 -1</clus>
<clus scale="  137.687">  1  3  2 -1</clus>
<clus scale="  156.442">  2  4  1 -1</clus>
<clus scale="  137.687">  1  3  2 -1</clus>
</clustering>
</event>
<event>
 6    0  0.8520634E+002  0.8529690E+02  0.7546771E-02  0.1314658E+00
         21   -1    0    0  505  501  0.00000000000E+00  0.00000000000E+00  0.12352472014E+03  0.12352472014E+03  0.00000000000E+00 0. -1.
         21   -1    0    0  506  502 -0.00000000000E+00 -0.00000000000E+00 -0.23924205302E+04  0.23924205302E+04  0.00000000000E+00 0. -1.
         21    1    1    2  503  502  0.40977264161E+02 -0.59521034610E+02 -0.21154955255E+04  0.21167293658E+04  0.00000000000E+00 0. -1.
         21    1    1    2  504  501  0.43373288783E+02  0.52037488277E+02 -0.73708131428E+02  0.10011009442E+03  0.00000000000E+00 0. -1.
         21    1    1    2  505  503 -0.11440149192E+03 -0.33451091978E+01  0.77811174027E+02  0.13839606177E+03  0.00000000000E+00 0. -1.
         21    1    1    2  506  504  0.30050938977E+02  0.10828655531E+02 -0.15750332721E+03  0.16070972838E+03  0.00000000000E+00 0. -1.
<scales pt_clust_3="85.29690" pt_clust_4="68.81852" pt_clust_5="14000.00000" pt_clust_6="31.94243"></scales>
<clustering>
<clus scale="   31.942">  2  6  1 -1</clus>
<clus scale="   68.819">  1  4  2 -1</clus>
<clus scale="   85.297">  2  3  1 -1</clus>
<clus scale="   68.819">  1  3  2 -1</clus>
</clustering>
</event>
<event>
 6    0  0.8520634E+002  0.1724490E+03  0.7546771E-02  0.1175318E+00
         21   -1    0    0  506  501  0.00000000000E+00  0.00000000000E+00  0.16656018473E+03  0.16656018473E+03  0.00000000000E+00 0. -1.
         21   -1    0    0  505  502 -0.00000000000E+00 -0.00000000000E+00 -0.62536797386E+03  0.62536797386E+03  0.00000000000E+00 0. -1.
         21    1    1    2  503  502  0.51912128257E+02 -0.98589224255E+02 -0.33949732081E+03  0.35731377672E+03  0.00000000000E+00 0. -1.
         21    1    1    2  504  501 -0.34920860606E+02  0.21049400224E+03 -0.12836765152E+03  0.24900892643E+03  0.00000000000E+00 0. -1.
         21    1    1    2  505  504 -0.35287679015E+02  0.19802463986E+02 -0.25990440060E+02  0.48092211893E+02  0.00000000000E+00 0. -1.
         21    1    1    2  506  503  0.18296411363E+02 -0.13170724197E+03  0.35047623254E+02  0.13751324355E+03  0.00000000000E+00 0. -1.
<scales pt_clust_3="111.42129" pt_clust_4="35.04725" pt_clust_5="35.04725" pt_clust_6="152.51781"></scales>
<clustering>
<clus scale="   35.047">  4  5 -1 -1</clus>
<clus scale="  111.421">  2  3  1 -1</clus>
<clus scale="  152.518">  1  6  2 -1</clus>
<clus scale="  152.518">  1  3  2 -1</clus>
</clustering>
</event>
<event>
 6    0  0.8520634E+002  0.6297888E+02  0.7546771E-02  0.1385740E+00
         21   -1    0    0  504  501  0.00000000000E+00  0.00000000000E+00  0.40781545431E+02  0.40781545431E+02  0.00000000000E+00 0.  1.
         21   -1    0    0  506  502 -0.00000000000E+00 -0.00000000000E+00 -0.10400821772E+04  0.10400821772E+04  0.00000000000E+00 0.  1.
         21    1    1    2  503  502  0.59385726388E+02 -0.12768233828E+02 -0.15080863590E+03  0.16258209297E+03  0.00000000000E+00 0.  1.
         21    1    1    2  504  505 -0.49559998207E+02  0.37873744708E+02 -0.66313804396E+01  0.62726303629E+02  0.00000000000E+00 0.  1.
         21    1    1    2  505  503  0.24712652037E+02 -0.81985742540E+02 -0.44732342045E+03  0.45544551775E+03  0.00000000000E+00 0.  1.
         21    1    1    2  506  501 -0.34538380217E+02  0.56880231661E+02 -0.39453719495E+03  0.40010980825E+03  0.00000000000E+00 0.  1.
<scales pt_clust_3="60.74284" pt_clust_4="62.97888" pt_clust_5="14000.00000" pt_clust_6="51.73315"></scales>
<clustering>
<clus scale="   60.743">  2  3  1 -1</clus>
<clus scale="   51.733">  2  6  1 -1</clus>
<clus scale="   62.979">  1  4  2 -1</clus>
<clus scale="   62.979">  1  3  2 -1</clus>
</clustering>
</event>
<event>
 6    0  0.8520634E+002  0.7434259E+02  0.7546771E-02  0.1345919E+00
         21   -1    0    0  503  501  0.00000000000E+00  0.00000000000E+00  0.56583166643E+03  0.56583166643E+03  0.00000000000E+00 0. -1.
         21   -1    0    0  505  502 -0.00000000000E+00 -0.00000000000E+00 -0.10457606513E+03  0.10457606513E+03  0.00000000000E+00 0. -1.
         21    1    1    2  503  506 -0.10503484585E+02  0.33578350123E+02  0.71797210150E+02  0.79954162936E+02  0.00000000000E+00 0. -1.
         21    1    1    2  504  501  0.25894123113E+02 -0.96597315012E+02  0.39437725812E+03  0.40685988817E+03  0.00000000000E+00 0. -1.
         21    1    1    2  505  504  0.37614618750E+02 -0.34862762293E+02  0.38483647803E+02  0.64119130426E+02  0.00000000000E+00 0. -1.
         21    1    1    2  506  502 -0.53005257279E+02  0.97881727182E+02 -0.43402514768E+02  0.11947455002E+03  0.00000000000E+00 0. -1.
<scales pt_clust_3="35.18279" pt_clust_4="74.34259" pt_clust_5="48.12444" pt_clust_6="14000.00000"></scales>
<clustering>
<clus scale="   35.183">  1  3  2 -1</clus>
<clus scale="   48.124">  2  5  1 -1</clus>
<clus scale="   74.343">  1  4  2 -1</clus>
<clus scale="   35.183">  1  3  2 -1</clus>
</clustering>
</event>
<event>
 6    0  0.8520634E+002  0.1167174E+03  0.7546771E-02  0.1248613E+00
         21   -1    0    0  506  501  0.00000000000E+00  0.00000000000E+00  0.93250914348E+03  0.93250914348E+03  0.00000000000E+00 0.  1.
         21   -1    0    0  503  502 -0.00000000000E+00 -0.00000000000E+00 -0.70052940631E+03  0.70052940631E+03  0.00000000000E+00 0. -1.
         21    1    1    2  503  505 -0.10995721458E+03  0.38501363066E+02 -0.66941680776E+03  0.67947906996E+03  0.00000000000E+00 0. -1.
         21    1    1    2  504  502  0.12844321315E+03 -0.49617415355E+02  0.48093966843E+03  0.50026244270E+03  0.00000000000E+00 0.  1.
         21    1    1    2  505  501  0.44654778212E+02 -0.75115262534E+01  0.23687638857E+02  0.51103585769E+02  0.00000000000E+00 0. -1.
         21    1    1    2  506  504 -0.63140776778E+02  0.18627578542E+02  0.39676923765E+03  0.40219345136E+03  0.00000000000E+00 0.  1.
<scales pt_clust_3="116.71738" pt_clust_4="14000.00000" pt_clust_5="45.28214" pt_clust_6="45.83217"></scales>
<clustering>
<clus scale="   45.282">  1  5  2 -1</clus>
<clus scale="   45.832">  1  6  2 -1</clus>
<clus scale="  116.717">  2  3  1 -1</clus>
<clus scale="   45.282">  1  3  2 -1</clus>
</clustering>
</event>
<event>
 6    0  0.8520634E+002  0.1312325E+03  0.7546771E-02  0.1225638E+00
         21   -1    0    0  503  501  0.00000000000E+00  0.00000000000E+00  0.54690701541E+03  0.54690701541E+03  0.00000000000E+00 0. -1.
         21   -1    0    0  504  502 -0.00000000000E+00 -0.00000000000E+00 -0.26124796601E+03  0.26124796601E+03  0.00000000000E+00 0. -1.
         21    1    1    2  503  506 -0.33501991635E+02  0.42202824540E+02  0.32489881896E+03  0.32933676443E+03  0.00000000000E+00 0. -1.
         21    1    1    2  504  501  0.24630126090E+02  0.25383985964E+02  0.11719894560E+03  0.12241969900E+03  0.00000000000E+00 0.  1.
         21    1    1    2  505  502  0.10915848557E+03 -0.91183383666E+02 -0.19927102656E+03  0.24482427669E+03  0.00000000000E+00 0. -1.
         21    1    1    2  506  505 -0.10028662002E+03  0.23596573163E+02  0.42832311399E+02  0.11157424130E+03  0.00000000000E+00 0. -1.
<scales pt_clust_3="63.35866" pt_clust_4="35.36933" pt_clust_5="131.23253" pt_clust_6="14000.00000"></scales>
<clustering>
<clus scale="   35.369">  1  4  2 -1</clus>
<clus scale="   63.359">  1  3  2 -1</clus>
<clus scale="  131.233">  2  5  1 -1</clus>
<clus scale="   35.369">  1  3  2 -1</clus>
</clustering>
</event>
<event>
 6    0  0.8520634E+002  0.8451737E+02  0.7546771E-02  0.1316700E+00
         21   -1    0    0  506  501  0.00000000000E+00  0.00000000000E+00  0.15086741046E+04  0.15086741046E+04  0.00000000000E+00 0.  1.
         21   -1    0    0  504  502 -0.00000000000E+00 -0.00000000000E+00 -0.20866421233E+04  0.20866421233E+04  0.00000000000E+00 0. -1.
         21    1    1    2  503  505  0.12948118774E+03 -0.13573106667E+01 -0.44825269268E+03  0.46658085769E+03  0.00000000000E+00 0. -1.
         21    1    1    2  504  503 -0.72716583764E+01  0.30233123883E+02 -0.15887970441E+04  0.15891013077E+04  0.00000000000E+00 0. -1.
         21    1    1    2  505  501 -0.79567098282E+02 -0.28210886435E+02  0.14865246375E+04  0.14889198350E+04  0.00000000000E+00 0.  1.
         21    1    1    2  506  502 -0.42642431085E+02 -0.66492678149E+00 -0.27442919449E+02  0.50714227633E+02  0.00000000000E+00 0. -1.
<scales pt_clust_3="14000.00000" pt_clust_4="31.09532" pt_clust_5="84.51737" pt_clust_6="43.24718"></scales>
<clustering>
<clus scale="   31.095">  2  4  1 -1</clus>
<clus scale="   43.247">  2  6  1 -1</clus>
<clus scale="   84.517">  1  5  2 -1</clus>
<clus scale="   84.517">  1  3  2 -1</clus>
</clustering>
</event>
<event>
 6    0  0.8520634E+002  0.1281892E+03  0.7546771E-02  0.1230168E+00
         21   -1    0    0  505  501  0.00000000000E+00  0.00000000000E+00  0.90306058484E+03  0.90306058484E+03  0.00000000000E+00 0.  1.
         21   -1    0    0  506  502 -0.00000000000E+00 -0.00000000000E+00 -0.10846382376E+03  0.10846382376E+03  0.00000000000E+00 0.  1.
         21    1    1    2  503  501 -0.12076208070E+03  0.31387455808E+02  0.13844565433E+03  0.18637556631E+03  0.00000000000E+00 0.  1.
         21    1    1    2  504  502  0.14362253004E+03  0.28077991354E+02  0.27302573161E+02  0.14886650139E+03  0.00000000000E+00 0.  1.
         21    1    1    2  505  504 -0.22472889831E+01 -0.32961193671E+02  0.64003830165E+03  0.64089041043E+03  0.00000000000E+00 0.  1.
         21    1    1    2  506  503 -0.20613160359E+02 -0.26504253491E+02 -0.11189768053E+02  0.35391930467E+02  0.00000000000E+00 0. -1.
<scales pt_clust_3="14000.00000" pt_clust_4="128.18923" pt_clust_5="33.03771" pt_clust_6="34.84941"></scales>
<clustering>
<clus scale="   33.038">  1  5  2 -1</clus>
<clus scale="   34.849">  2  6  1 -1</clus>
<clus scale="  128.189">  2  4  1 -1</clus>
<clus scale="   33.038">  1  3  2 -1</clus>
</clustering>
</event>
<event>
 6    0  0.8520634E+002  0.8167769E+02  0.7546771E-02  0.1324357E+00
         21   -1    0    0  505  501  0.00000000000E+00  0.00000000000E+00  0.96220830571E+02  0.96220830571E+02  0.00000000000E+00 0.  1.
         21   -1    0    0  506  502 -0.00000000000E+00 -0.00000000000E+00 -0.25075685869E+03  0.25075685869E+03  0.00000000000E+00 0.  1.
         21    1    1    2  503  502 -0.72350481494E+02  0.37620183696E+02 -0.95574954236E+02  0.12563615033E+03  0.00000000000E+00 0.  1.
         21    1    1    2  504  503  0.50141406858E+02 -0.72931632536E+02 -0.44238489322E+02  0.98945579202E+02  0.00000000000E+00 0.  1.
         21    1    1    2  505  504 -0.30501682321E+02 -0.10617161501E+02  0.26022712631E+02  0.41475996858E+02  0.00000000000E+00 0.  1.
         21    1    1    2  506  501  0.52710756957E+02  0.45928610340E+02 -0.40745297188E+02  0.80919962863E+02  0.00000000000E+00 0.  1.
<scales pt_clust_3="81.67769" pt_clust_4="14000.00000" pt_clust_5="32.29670" pt_clust_6="60.40016"></scales>
<clustering>
<clus scale="   32.297">  1  5  2 -1</clus>
<clus scale="   60.400">  1  6  2 -1</clus>
<clus scale="   81.678">  2  3  1 -1</clus>
<clus scale="   32.297">  1  3  2 -1</clus>
</clustering>
</event>
<event>
 6    0  0.8520634E+002  0.8353570E+02  0.7546771E-02  0.1319307E+00
         21   -1    0    0  503  501  0.00000000000E+00  0.00000000000E+00  0.21363627541E+03  0.21363627541E+03  0.00000000000E+00 0.  1.
         21   -1    0    0  504  502 -0.00000000000E+00 -0.00000000000E+00 -0.49760579409E+03  0.49760579409E+03  0.00000000000E+00 0. -1.
         21    1    1    2  503  502 -0.11655246753E+03 -0.43554541294E+02  0.17274835641E+03  0.21289309617E+03  0.00000000000E+00 0.  1.
         21    1    1    2  504  506  0.41102707475E+02 -0.11398227956E+02 -0.30975419455E+03  0.31267717090E+03  0.00000000000E+00 0. -1.
         21    1    1    2  505  501  0.27479241580E+02  0.28190556569E+02 -0.13957150272E+02  0.41768627475E+02  0.00000000000E+00 0.  1.
         21    1    1    2  506  505  0.47970518477E+02  0.26762212681E+02 -0.13300653027E+03  0.14390317497E+03  0.00000000000E+00 0. -1.
<scales pt_clust_3="83.53570" pt_clust_4="42.79325" pt_clust_5="39.36771" pt_clust_6="14000.00000"></scales>
<clustering>
<clus scale="   39.368">  1  5  2 -1</clus>
<clus scale="   42.793">  2  4  1 -1</clus>
<clus scale="   83.536">  1  3  2 -1</clus>
<clus scale="   39.368">  1  3  2 -1</clus>
</clustering>
</event>
<event>
 6    0  0.8520634E+002  0.8901247E+02  0.7546771E-02  0.1305261E+00
         21   -1    0    0  503  501  0.00000000000E+00  0.00000000000E+00  0.20203797328E+03  0.20203797328E+03  0.00000000000E+00 0.  1.
         21   -1    0    0  506  502 -0.00000000000E+00 -0.00000000000E+00 -0.34413178376E+03  0.34413178376E+03  0.00000000000E+00 0.  1.
         21    1    1    2  503  502 -0.23679354298E+01  0.77542686199E+02 -0.48198367750E+02  0.91332129916E+02  0.00000000000E+00 0.  1.
         21    1    1    2  504  505  0.26048850438E+02 -0.79055404296E+02  0.88417931334E+01  0.83704700366E+02  0.00000000000E+00 0.  1.
         21    1    1    2  505  501 -0.79563927630E+02  0.56702210170E+02  0.10835742451E+03  0.14590027644E+03  0.00000000000E+00 0.  1.
         21    1    1    2  506  504  0.55883012621E+02 -0.55189492073E+02 -0.21109466037E+03  0.22523265032E+03  0.00000000000E+00 0.  1.
<scales pt_clust_3="77.57883" pt_clust_4="89.01247" pt_clust_5="14000.00000" pt_clust_6="54.38623"></scales>
<clustering>
<clus scale="   77.579">  2  3  1 -1</clus>
<clus scale="   54.386">  2  6  1 -1</clus>
<clus scale="   89.012">  2  4  1 -1</clus>
<clus scale="   89.012">  1  3  2 -1</clus>
</clustering>
</event>
<event>
 6    0  0.8520634E+002  0.5801168E+02  0.7546771E-02  0.1406370E+00
         21   -1    0    0  504  501  0.00000000000E+00  0.00000000000E+00  0.40269805520E+03  0.40269805520E+03  0.00000000000E+00 0. -1.
         21   -1    0    0  506  502 -0.00000000000E+00 -0.00000000000E+00 -0.12899924614E+04  0.12899924614E+04  0.00000000000E+00 0. -1.
         21    1    1    2  503  501  0.50006528001E+02 -0.91795016730E+02  0.63085342427E+02  0.12209315447E+03  0.00000000000E+00 0. -1.
         21    1    1    2  504  505 -0.26873230927E+02  0.47067414070E+02  0.30115599678E+03  0.30599419341E+03  0.00000000000E+00 0. -1.
         21    1    1    2  505  502 -0.15952756301E+02  0.81489490003E+02 -0.11876297662E+04  0.11905290794E+04  0.00000000000E+00 0. -1.
         21    1    1    2  506  503 -0.71805407727E+01 -0.36761887342E+02 -0.63905979246E+02  0.74074089331E+02  0.00000000000E+00 0.  1.
<scales pt_clust_3="58.01168" pt_clust_4="14000.00000" pt_clust_5="51.12690" pt_clust_6="37.45660"></scales>
<clustering>
<clus scale="   37.457">  2  6  1 -1</clus>
<clus scale="   51.127">  2  5  1 -1</clus>
<clus scale="   58.012">  2  3  1 -1</clus>
<clus scale="   58.012">  1  3  2 -1</clus>
</clustering>
</event>
<event>
 6    0  0.8520634E+002  0.9918755E+02  0.7546771E-02  0.1282014E+00
         21   -1    0    0  503  501  0.00000000000E+00  0.00000000000E+00  0.26808262693E+04  0.26808262693E+04  0.00000000000E+00 0. -1.
         21   -1    0    0  506  502 -0.00000000000E+00 -0.00000000000E+00 -0.15222746168E+03  0.15222746168E+03  0.00000000000E+00 0.  1.
         21    1    1    2  503  505 -0.27061802705E+02 -0.15153037392E+03  0.20214533173E+04  0.20273054307E+04  0.00000000000E+00 0. -1.
         21    1    1    2  504  501  0.54548414907E+02  0.57590279435E+02  0.60623663531E+03  0.61140414445E+03  0.00000000000E+00 0.  1.
         21    1    1    2  505  502  0.43528981256E+01  0.11490101288E+03 -0.10506915280E+03  0.15575852257E+03  0.00000000000E+00 0.  1.
         21    1    1    2  506  504 -0.31839510328E+02 -0.20960918401E+02  0.59780078503E+01  0.38585633285E+02  0.00000000000E+00 0. -1.
<scales pt_clust_3="99.18755" pt_clust_4="78.61789" pt_clust_5="14000.00000" pt_clust_6="38.11974"></scales>
<clustering>
<clus scale="   38.120">  2  6  1 -1</clus>
<clus scale="   78.618">  1  4  2 -1</clus>
<clus scale="   99.188">  1  3  2 -1</clus>
<clus scale="   78.618">  1  3  2 -1</clus>
</clustering>
</event>
<event>
 6    0  0.8520634E+002  0.1402572E+03  0.7546771E-02  0.1212983E+00
         21   -1    0    0  504  501  0.00000000000E+00  0.00000000000E+00  0.70269708403E+03  0.70269708403E+03  0.00000000000E+00 0. -1.
         21   -1    0    0  506  502 -0.00000000000E+00 -0.00000000000E+00 -0.67448850529E+02  0.67448850529E+02  0.00000000000E+00 0. -1.
         21    1    1    2  503  502  0.65671398823E+02 -0.22786715933E+02 -0.71292347370E+01  0.69876985011E+02  0.00000000000E+00 0. -1.
         21    1    1    2  504  503  0.95851290804E+02 -0.21989536926E+02  0.22044182243E+03  0.24138269772E+03  0.00000000000E+00 0. -1.
         21    1    1    2  505  501 -0.10291396869E+03  0.26197267178E+02  0.34157997869E+03  0.35770723168E+03  0.00000000000E+00 0. -1.
         21    1    1    2  506  505 -0.58608720935E+02  0.18578985681E+02  0.80355667121E+02  0.10117902014E+03  0.00000000000E+00 0. -1.
<scales pt_clust_3="69.51235" pt_clust_4="123.36800" pt_clust_5="50.77164" pt_clust_6="50.77164"></scales>
<clustering>
<clus scale="   50.772">  5  6 -1 -1</clus>
<clus scale="   69.512">  2  3  1 -1</clus>
<clus scale="  123.368">  1  4  2 -1</clus>
<clus scale="  123.368">  1  3  2 -1</clus>
</clustering>
</event>
<event>
 6    0  0.8520634E+002  0.1715586E+03  0.7546771E-02  0.1176232E+00
         21   -1    0    0  503  501  0.00000000000E+00  0.00000000000E+00  0.10396840648E+03  0.10396840648E+03  0.00000000000E+00 0.  1.
         21   -1    0    0  504  502 -0.00000000000E+00 -0.00000000000E+00 -0.28883705604E+03  0.28883705604E+03  0.00000000000E+00 0.  1.
         21    1    1    2  503  506  0.79706406977E+01  0.85585587005E+02 -0.25573493890E+01  0.85993975673E+02  0.00000000000E+00 0.  1.
         21    1    1    2  504  505 -0.29895255914E+02 -0.17873263627E+02 -0.40675111764E+02  0.53550393050E+02  0.00000000000E+00 0. -1.
         21    1    1    2  505  501 -0.27413708232E+02 -0.12864957815E+03 -0.89846429606E+02  0.15929408737E+03  0.00000000000E+00 0.  1.
         21    1    1    2  506  502  0.49338323447E+02  0.60937254771E+02 -0.51789758809E+02  0.93967006429E+02  0.00000000000E+00 0.  1.
<scales pt_clust_3="65.33100" pt_clust_4="30.50243" pt_clust_5="168.12763" pt_clust_6="65.33100"></scales>
<clustering>
<clus scale="   30.502">  4  5 -1 -1</clus>
<clus scale="   65.331">  3  6 -1 -1</clus>
<clus scale="  168.128">  2  4  1 -1</clus>
<clus scale="  171.559">  1  3  2 -1</clus>
</clustering>
</event>
<event>
 6    0  0.8520634E+002  0.9537172E+02  0.7546771E-02  0.1290341E+00
         21   -1    0    0  504  501  0.00000000000E+00  0.00000000000E+00  0.13818161307E+03  0.13818161307E+03  0.00000000000E+00 0. -1.
         21   -1    0    0  506  502 -0.00000000000E+00 -0.00000000000E+00 -0.22837068177E+03  0.22837068177E+03  0.00000000000E+00 0. -1.
         21    1    1    2  503  505  0.76294425713E+02 -0.26121965691E+02 -0.65232830944E+00  0.80645037160E+02  0.00000000000E+00 0. -1.
         21    1    1    2  504  503  0.14445202190E+02 -0.33557939545E+02  0.30801878573E+02  0.47786555604E+02  0.00000000000E+00 0. -1.
         21    1    1    2  505  502 -0.10100427403E+03  0.11715816910E+02 -0.14969013625E+03  0.18095927892E+03  0.00000000000E+00 0. -1.
         21    1    1    2  506  501  0.10264646129E+02  0.47964088327E+02  0.29351517283E+02  0.57161423145E+02  0.00000000000E+00 0. -1.
<scales pt_clust_3="95.37172" pt_clust_4="36.53490" pt_clust_5="14000.00000" pt_clust_6="37.18719"></scales>
<clustering>
<clus scale="   36.535">  1  4  2 -1</clus>
<clus scale="   37.187">  1  6  2 -1</clus>
<clus scale="   95.372">  1  3  2 -1</clus>
<clus scale="   36.535">  1  3  2 -1</clus>
</clustering>
</event>
<event>
 6    0  0.8520634E+002  0.1072004E+03  0.7546771E-02  0.1265844E+00
         21   -1    0    0  506  501  0.00000000000E+00  0.00000000000E+00  0.14670585919E+02  0.14670585919E+02  0.00000000000E+00 0.  1.
         21   -1    0    0  505  502 -0.00000000000E+00 -0.00000000000E+00 -0.28991398111E+04  0.28991398111E+04  0.00000000000E+00 0.  1.
         21    1    1    2  503  501  0.18918029802E+02 -0.27618366211E+02 -0.54597900427E+02  0.64043709565E+02  0.00000000000E+00 0.  1.
         21    1    1    2  504  503 -0.46280583756E+02 -0.25992068556E+02 -0.12578713896E+03  0.13652796193E+03  0.00000000000E+00 0.  1.
         21    1    1    2  505  504  0.12068454937E+03  0.18992261376E+02 -0.16159158592E+04  0.16205275470E+04  0.00000000000E+00 0.  1.
         21    1    1    2  506  502 -0.93321995411E+02  0.34618173390E+02 -0.10881683266E+04  0.10927111786E+04  0.00000000000E+00 0.  1.
<scales pt_clust_3="33.47635" pt_clust_4="54.53304" pt_clust_5="107.20041" pt_clust_6="14000.00000"></scales>
<clustering>
<clus scale="   33.476">  1  3  2 -1</clus>
<clus scale="   54.533">  1  4  2 -1</clus>
<clus scale="  107.200">  1  5  2 -1</clus>
<clus scale="   33.476">  1  3  2 -1</clus>
</clustering>
</event>
<event>
 6    0  0.8520634E+002  0.7052398E+02  0.7546771E-02  0.1358320E+00
         21   -1    0    0  505  501  0.00000000000E+00  0.00000000000E+00  0.26873784102E+04  0.26873784102E+04  0.00000000000E+00 0.  1.
         21   -1    0    0  503  502 -0.00000000000E+00 -0.00000000000E+00 -0.16981307716E+02  0.16981307716E+02  0.00000000000E+00 0. -1.
         21    1    1    2  503  501 -0.90423853396E+02 -0.41252965274E+02  0.28799618630E+03  0.30466388648E+03  0.00000000000E+00 0.  1.
         21    1    1    2  504  506  0.81959442515E+02 -0.19093256356E+02  0.10697859425E+04  0.10730908002E+04  0.00000000000E+00 0.  1.
         21    1    1    2  505  504 -0.45826155133E+02  0.49746813020E+02  0.11919249514E+04  0.11938424820E+04  0.00000000000E+00 0.  1.
         21    1    1    2  506  502  0.54290566013E+02  0.10599408610E+02  0.12069002225E+03  0.13276254928E+03  0.00000000000E+00 0. -1.
<scales pt_clust_3="59.24911" pt_clust_4="14000.00000" pt_clust_5="70.52398" pt_clust_6="55.31558"></scales>
<clustering>
<clus scale="   55.316">  2  6  1 -1</clus>
<clus scale="   59.249">  2  3  1 -1</clus>
<clus scale="   70.524">  1  5  2 -1</clus>
<clus scale="   70.524">  1  3  2 -1</clus>
</clustering>
</event>
<event>
 6    0  0.8520634E+002  0.1056839E+03  0.7546771E-02  0.1268778E+00
         21   -1    0    0  503  501  0.00000000000E+00  0.00000000000E+00  0.46666771511E+03  0.46666771511E+03  0.00000000000E+00 0. -1.
         21   -1    0    0  501  502 -0.00000000000E+00 -0.00000000000E+00 -0.87278308902E+03  0.87278308902E+03  0.00000000000E+00 0.  1.
         21    1    1    2  503  505 -0.18677976933E+02 -0.29335294113E+02  0.24255505364E+03  0.24503546753E+03  0.00000000000E+00 0. -1.
         21    1    1    2  504  502 -0.47568043037E+02  0.14532304599E+02 -0.95480918698E+02  0.10765924220E+03  0.00000000000E+00 0.  1.
         21    1    1    2  505  506 -0.41386259124E+01 -0.64321091121E+02  0.20824560571E+03  0.21799211748E+03  0.00000000000E+00 0. -1.
         21    1    1    2  506  504  0.70384645883E+02  0.79124080636E+02 -0.76143511457E+03  0.76876397692E+03  0.00000000000E+00 0.  1.
<scales pt_clust_3="31.85931" pt_clust_4="49.73838" pt_clust_5="31.85931" pt_clust_6="96.37375"></scales>
<clustering>
<clus scale="   31.859">  3  5 -1 -1</clus>
<clus scale="   49.738">  2  4  1 -1</clus>
<clus scale="   96.374">  2  6  1 -1</clus>
<clus scale="  105.684">  1  3  2 -1</clus>
</clustering>
</event>
<event>
 6    0  0.8520634E+002  0.8907622E+02  0.7546771E-02  0.1305104E+00
         21   -1    0    0  506  501  0.00000000000E+00  0.00000000000E+00  0.35380337340E+03  0.35380337340E+03  0.00000000000E+00 0.  1.
         21   -1    0    0  503  502 -0.00000000000E+00 -0.00000000000E+00 -0.24318360274E+04  0.24318360274E+04  0.00000000000E+00 0. -1.
         21    1    1    2  503  501  0.65306162391E+02  0.37879312285E+02 -0.34292488487E+03  0.35113702996E+03  0.00000000000E+00 0. -1.
         21    1    1    2  504  502 -0.16585787677E+02  0.50509675970E+02 -0.13835322649E+04  0.13845533011E+04  0.00000000000E+00 0. -1.
         21    1    1    2  505  504 -0.84755086139E+02 -0.63760095351E+01 -0.69237529644E+03  0.69757266951E+03  0.00000000000E+00 0. -1.
         21    1    1    2  506  505  0.36034711424E+02 -0.82012978720E+02  0.34079979216E+03  0.35237640023E+03  0.00000000000E+00 0.  1.
<scales pt_clust_3="80.99161" pt_clust_4="53.16310" pt_clust_5="89.07622" pt_clust_6="14000.00000"></scales>
<clustering>
<clus scale="   53.163">  2  4  1 -1</clus>
<clus scale="   80.992">  2  3  1 -1</clus>
<clus scale="   89.076">  2  5  1 -1</clus>
<clus scale="   89.076">  1  3  2 -1</clus>
</clustering>
</event>
<event>
 6    0  0.8520634E+002  0.1218216E+03  0.7546771E-02  0.1240122E+00
         21   -1    0    0  504  501  0.00000000000E+00  0.00000000000E+00  0.15960179591E+03  0.15960179591E+03  0.00000000000E+00 0. -1.
         21   -1    0    0  506  502 -0.00000000000E+00 -0.00000000000E+00 -0.31810774734E+03  0.31810774734E+03  0.00000000000E+00 0.  1.
         21    1    1    2  503  505 -0.49387389926E+02 -0.12676388531E+03 -0.20364889840E+03  0.24491033200E+03  0.00000000000E+00 0.  1.
         21    1    1    2  504  503  0.69042573250E+02  0.98624832223E+02  0.92778288476E+02  0.15199192500E+03  0.00000000000E+00 0. -1.
         21    1    1    2  505  502  0.12299606582E+02  0.27922122654E+02 -0.35032236934E+02  0.46456246944E+02  0.00000000000E+00 0.  1.
         21    1    1    2  506  501 -0.31954789906E+02  0.21693043284E+00 -0.12603104573E+02  0.34351039309E+02  0.00000000000E+00 0.  1.
<scales pt_clust_3="14000.00000" pt_clust_4="121.82164" pt_clust_5="30.51107" pt_clust_6="31.02121"></scales>
<clustering>
<clus scale="   30.511">  2  5  1 -1</clus>
<clus scale="   31.021">  2  6  1 -1</clus>
<clus scale="  121.822">  1  4  2 -1</clus>
<clus scale="  121.822">  1  3  2 -1</clus>
</clustering>
</event>
<event>
 6    0  0.8520634E+002  0.1043531E+03  0.7546771E-02  0.1271399E+00
         21   -1    0    0  506  501  0.00000000000E+00  0.00000000000E+00  0.83978169940E+02  0.83978169940E+02  0.00000000000E+00 0.  1.
         21   -1    0    0  503  502 -0.00000000000E+00 -0.00000000000E+00 -0.48806068035E+03  0.48806068035E+03  0.00000000000E+00 0.  1.
         21    1    1    2  503  505  0.53713278287E+02  0.62000706232E+02 -0.60865136628E+02  0.10214582074E+03  0.00000000000E+00 0.  1.
         21    1    1    2  504  502  0.38820053122E+02  0.57051913582E+02 -0.28753461992E+03  0.29569929831E+03  0.00000000000E+00 0.  1.
         21    1    1    2  505  501 -0.33215941459E+02 -0.43219993410E+01 -0.24001416816E+02  0.41207359227E+02  0.00000000000E+00 0.  1.
         21    1    1    2  506  504 -0.59317389950E+02 -0.11473062047E+03 -0.31681337043E+02  0.13298637201E+03  0.00000000000E+00 0.  1.
<scales pt_clust_3="104.35314" pt_clust_4="67.81464" pt_clust_5="33.49595" pt_clust_6="14000.00000"></scales>
<clustering>
<clus scale="   33.496">  1  5  2 -1</clus>
<clus scale="   67.815">  2  4  1 -1</clus>
<clus scale="  104.353">  1  3  2 -1</clus>
<clus scale="   33.496">  1  3  2 -1</clus>
</clustering>
</event>
<event>
 6    0  0.8520634E+002  0.1246371E+03  0.7546771E-02  0.1235638E+00
         21   -1    0    0  503  501  0.00000000000E+00  0.00000000000E+00  0.17280752990E+03  0.17280752990E+03  0.00000000000E+00 0.  1.
         21   -1    0    0  506  502 -0.00000000000E+00 -0.00000000000E+00 -0.16187019512E+04  0.16187019512E+04  0.00000000000E+00 0.  1.
         21    1    1    2  503  502  0.38369515885E+02 -0.34612486933E+02  0.99223443676E+00  0.51683929128E+02  0.00000000000E+00 0. -1.
         21    1    1    2  504  501  0.38817257960E+02  0.11761628674E+02  0.13147104353E+03  0.13758543060E+03  0.00000000000E+00 0.  1.
         21    1    1    2  505  504  0.72783719695E+02  0.18201210146E+01 -0.15958932394E+03  0.17541247108E+03  0.00000000000E+00 0.  1.
         21    1    1    2  506  505 -0.14997049354E+03  0.21030737244E+02 -0.14187683753E+04  0.14268276503E+04  0.00000000000E+00 0.  1.
<scales pt_clust_3="70.27388" pt_clust_4="40.56002" pt_clust_5="14000.00000" pt_clust_6="124.63708"></scales>
<clustering>
<clus scale="   40.560">  1  4  2 -1</clus>
<clus scale="   70.274">  1  3  2 -1</clus>
<clus scale="  124.637">  2  6  1 -1</clus>
<clus scale="   40.560">  1  3  2 -1</clus>
</clustering>
</event>
<event>
 6    0  0.8520634E+002  0.7132481E+02  0.7546771E-02  0.1355645E+00
         21   -1    0    0  504  501  0.00000000000E+00  0.00000000000E+00  0.12254744789E+03  0.12254744789E+03  0.00000000000E+00 0.  1.
         21   -1    0    0  503  502 -0.00000000000E+00 -0.00000000000E+00 -0.18986929182E+03  0.18986929182E+03  0.00000000000E+00 0. -1.
         21    1    1    2  503  506 -0.27231635106E+02  0.48452378003E+02 -0.75280307356E+02  0.93575208043E+02  0.00000000000E+00 0. -1.
         21    1    1    2  504  502 -0.38641476948E+02 -0.18059997336E+02 -0.37041213522E+02  0.56492289241E+02  0.00000000000E+00 0. -1.
         21    1    1    2  505  501 -0.61614413574E+01  0.48589555150E+02  0.11298609112E+02  0.50264965902E+02  0.00000000000E+00 0. -1.
         21    1    1    2  506  505  0.72034553411E+02 -0.78981935817E+02  0.33701067838E+02  0.11208427652E+03  0.00000000000E+00 0.  1.
<scales pt_clust_3="14000.00000" pt_clust_4="42.65357" pt_clust_5="47.52383" pt_clust_6="71.32481"></scales>
<clustering>
<clus scale="   42.654">  2  4  1 -1</clus>
<clus scale="   47.524">  1  5  2 -1</clus>
<clus scale="   71.325">  1  6  2 -1</clus>
<clus scale="   47.524">  1  3  2 -1</clus>
</clustering>
</event>
<event>
 6    0  0.8520634E+002  0.8403396E+02  0.7546771E-02  0.1317978E+00
         21   -1    0    0  502  501  0.00000000000E+00  0.00000000000E+00  0.18010053017E+03  0.18010053017E+03  0.00000000000E+00 0.  1.
         21   -1    0    0  506  502 -0.00000000000E+00 -0.00000000000E+00 -0.15344172012E+03  0.15344172012E+03  0.00000000000E+00 0.  1.
         21    1    1    2  503  504 -0.36708796395E+02  0.49990228161E+02  0.19993822442E+02  0.65163729023E+02  0.00000000000E+00 0.  1.
         21    1    1    2  504  505  0.78340908293E+02  0.53282185767E+02  0.12616733996E+02  0.95579658971E+02  0.00000000000E+00 0.  1.
         21    1    1    2  505  501 -0.57832318112E+02 -0.53677251510E+02  0.52249672857E+02  0.94635366864E+02  0.00000000000E+00 0.  1.
         21    1    1    2  506  503  0.16200206213E+02 -0.49595162418E+02 -0.58201419243E+02  0.78163495435E+02  0.00000000000E+00 0.  1.
<scales pt_clust_3="49.08159" pt_clust_4="14000.00000" pt_clust_5="84.03396" pt_clust_6="52.17401"></scales>
<clustering>
<clus scale="   52.174">  2  6  1 -1</clus>
<clus scale="   49.082">  2  3  1 -1</clus>
<clus scale="   84.034">  1  5  2 -1</clus>
<clus scale="   84.034">  1  3  2 -1</clus>
</clustering>
</event>
<event>
 6    0  0.8520634E+002  0.8617510E+02  0.7546771E-02  0.1312388E+00
         21   -1    0    0  503  501  0.00000000000E+00  0.00000000000E+00  0.29016302328E+03  0.29016302328E+03  0.00000000000E+00 0.  1.
         21   -1    0    0  505  502 -0.00000000000E+00 -0.00000000000E+00 -0.67127399650E+03  0.67127399650E+03  0.00000000000E+00 0. -1.
         21    1    1    2  503  506 -0.41221175385E+01  0.34262196391E+02  0.20284773280E+03  0.20576222359E+03  0.00000000000E+00 0.  1.
         21    1    1    2  504  502 -0.21675761810E+02  0.42989822646E+02 -0.53997461436E+03  0.54211672881E+03  0.00000000000E+00 0. -1.
         21    1    1    2  505  501 -0.42943644041E+02 -0.10780752940E+03  0.16263152452E+02  0.11717981945E+03  0.00000000000E+00 0.  1.
         21    1    1    2  506  504  0.68741523389E+02  0.30555510362E+02 -0.60247244112E+02  0.96378247932E+02  0.00000000000E+00 0.  1.
<scales pt_clust_3="34.50927" pt_clust_4="48.55025" pt_clust_5="86.17510" pt_clust_6="14000.00000"></scales>
<clustering>
<clus scale="   34.509">  1  3  2 -1</clus>
<clus scale="   48.550">  2  4  1 -1</clus>
<clus scale="   86.175">  1  5  2 -1</clus>
<clus scale="   34.509">  1  3  2 -1</clus>
</clustering>
</event>
<event>
 6    0  0.8520634E+002  0.8555608E+02  0.7546771E-02  0.1313985E+00
         21   -1    0    0  504  501  0.00000000000E+00  0.00000000000E+00  0.20421999629E+03  0.20421999629E+03  0.00000000000E+00 0.  1.
         21   -1    0    0  506  502 -0.00000000000E+00 -0.00000000000E+00 -0.32118931867E+03  0.32118931867E+03  0.00000000000E+00 0.  1.
         21    1    1    2  503  502 -0.31364229163E+01 -0.63761271269E+02 -0.48258050472E+02  0.80026097606E+02  0.00000000000E+00 0.  1.
         21    1    1    2  504  503  0.20779592898E+02  0.11978784506E+03  0.83453213678E+02  0.14746307395E+03  0.00000000000E+00 0.  1.
         21    1    1    2  505  501  0.61295232096E+01 -0.36550146556E+02  0.67023895526E+02  0.76587772128E+02  0.00000000000E+00 0.  1.
         21    1    1    2  506  505 -0.23772693191E+02 -0.19476427232E+02 -0.21918838112E+03  0.22133237128E+03  0.00000000000E+00 0.  1.
<scales pt_clust_3="85.55608" pt_clust_4="14000.00000" pt_clust_5="37.80545" pt_clust_6="30.73227"></scales>
<clustering>
<clus scale="   30.732">  2  6  1 -1</clus>
<clus scale="   37.805">  1  5  2 -1</clus>
<clus scale="   85.556">  2  3  1 -1</clus>
<clus scale="   37.805">  1  3  2 -1</clus>
</clustering>
</event>
<event>
 6    0  0.8520634E+002  0.8008907E+02  0.7546771E-02  0.1328799E+00
         21   -1    0    0  505  501  0.00000000000E+00  0.00000000000E+00  0.22516044008E+04  0.22516044008E+04  0.00000000000E+00 0.  1.
         21   -1    0    0  501  502 -0.00000000000E+00 -0.00000000000E+00 -0.60349245891E+03  0.60349245891E+03  0.00000000000E+00 0. -1.
         21    1    1    2  503  504  0.89856827419E+02  0.44194021962E+02 -0.29380262058E+02  0.10435784978E+03  0.00000000000E+00 0.  1.
         21    1    1    2  504  506 -0.81155797387E+02 -0.19984744943E+02 -0.12693936588E+03  0.15198439423E+03  0.00000000000E+00 0.  1.
         21    1    1    2  505  503 -0.33641231866E+02 -0.88612456956E+00  0.22007302623E+04  0.22009875523E+04  0.00000000000E+00 0.  1.
         21    1    1    2  506  502  0.24940201833E+02 -0.23323152450E+02 -0.39629869248E+03  0.39776706346E+03  0.00000000000E+00 0. -1.
<scales pt_clust_3="80.08907" pt_clust_4="14000.00000" pt_clust_5="33.65290" pt_clust_6="33.80148"></scales>
<clustering>
<clus scale="   33.653">  1  5  2 -1</clus>
<clus scale="   33.801">  2  6  1 -1</clus>
<clus scale="   80.089">  1  3  2 -1</clus>
<clus scale="   33.653">  1  3  2 -1</clus>
</clustering>
</event>
<event>
 6    0  0.8520634E+002  0.9252533E+02  0.7546771E-02  0.1296849E+00
         21   -1    0    0  503  501  0.00000000000E+00  0.00000000000E+00  0.21056031853E+03  0.21056031853E+03  0.00000000000E+00 0. -1.
         21   -1    0    0  504  502 -0.00000000000E+00 -0.00000000000E+00 -0.28391122759E+03  0.28391122759E+03  0.00000000000E+00 0.  1.
         21    1    1    2  503  502  0.11575231388E+02 -0.82950206297E+02 -0.48865278083E+02  0.96966685561E+02  0.00000000000E+00 0.  1.
         21    1    1    2  504  505  0.24847845090E+02 -0.24741314842E+02 -0.17631442043E+03  0.17976741339E+03  0.00000000000E+00 0.  1.
         21    1    1    2  505  506 -0.40289842184E+02  0.13364289654E+02  0.44050019884E+01  0.42676453270E+02  0.00000000000E+00 0.  1.
         21    1    1    2  506  501  0.38667657058E+01  0.94327231486E+02  0.14742378746E+03  0.17506099390E+03  0.00000000000E+00 0. -1.
<scales pt_clust_3="14000.00000" pt_clust_4="35.06491" pt_clust_5="36.88657" pt_clust_6="92.52533"></scales>
<clustering>
<clus scale="   35.065">  2  4  1 -1</clus>
<clus scale="   36.887">  2  5  1 -1</clus>
<clus scale="   92.525">  1  6  2 -1</clus>
<clus scale="   92.525">  1  3  2 -1</clus>
</clustering>
</event>
<event>
 6    0  0.8520634E+002  0.1250100E+03  0.7546771E-02  0.1235054E+00
         21   -1    0    0  505  501  0.00000000000E+00  0.00000000000E+00  0.44897624780E+03  0.44897624780E+03  0.00000000000E+00 0.  1.
         21   -1    0    0  503  502 -0.00000000000E+00 -0.00000000000E+00 -0.65506369843E+03  0.65506369843E+03  0.00000000000E+00 0. -1.
         21    1    1    2  503  504  0.13855268989E+03 -0.42421832547E+02 -0.18348076723E+03  0.23379831414E+03  0.00000000000E+00 0.  1.
         21    1    1    2  504  501 -0.49907751948E+02 -0.43625951153E+02  0.38698451017E+03  0.39262070555E+03  0.00000000000E+00 0.  1.
         21    1    1    2  505  506 -0.54040215019E+02  0.11689412384E+03 -0.96009581245E+02  0.16063131924E+03  0.00000000000E+00 0.  1.
         21    1    1    2  506  502 -0.34604722923E+02 -0.30846340144E+02 -0.31358161232E+03  0.31698960730E+03  0.00000000000E+00 0. -1.
<scales pt_clust_3="125.00996" pt_clust_4="66.67177" pt_clust_5="14000.00000" pt_clust_6="46.35713"></scales>
<clustering>
<clus scale="   46.357">  2  6  1 -1</clus>
<clus scale="   66.672">  1  4  2 -1</clus>
<clus scale="  125.010">  2  3  1 -1</clus>
<clus scale="   66.672">  1  3  2 -1</clus>
</clustering>
</event>
<event>
 6    0  0.8520634E+002  0.6236221E+02  0.7546771E-02  0.1388178E+00
         21   -1    0    0  503  501  0.00000000000E+00  0.00000000000E+00  0.15982977694E+03  0.15982977694E+03  0.00000000000E+00 0.  1.
         21   -1    0    0  506  502 -0.00000000000E+00 -0.00000000000E+00 -0.93999020922E+03  0.93999020922E+03  0.00000000000E+00 0.  1.
         21    1    1    2  503  505 -0.37671882562E+02 -0.23966484412E+02  0.12672010192E+01  0.44667313656E+02  0.00000000000E+00 0. -1.
         21    1    1    2  504  501  0.79245724325E+02 -0.25867273711E+02  0.56757837883E+02  0.10084866303E+03  0.00000000000E+00 0.  1.
         21    1    1    2  505  502  0.16722080275E+02  0.71867381820E+02  0.33044047111E+02  0.80848361689E+02  0.00000000000E+00 0.  1.
         21    1    1    2  506  504 -0.58295922038E+02 -0.22033623696E+02 -0.87122951830E+03  0.87345564779E+03  0.00000000000E+00 0.  1.
<scales pt_clust_3="44.64933" pt_clust_4="62.36221" pt_clust_5="61.90419" pt_clust_6="14000.00000"></scales>
<clustering>
<clus scale="   44.649">  1  3  2 -1</clus>
<clus scale="   61.904">  1  5  2 -1</clus>
<clus scale="   62.362">  1  4  2 -1</clus>
<clus scale="   44.649">  1  3  2 -1</clus>
</clustering>
</event>
<event>
 6    0  0.8520634E+002  0.8450188E+02  0.7546771E-02  0.1316740E+00
         21   -1    0    0  504  501  0.00000000000E+00  0.00000000000E+00  0.52951518401E+03  0.52951518401E+03  0.00000000000E+00 0.  1.
         21   -1    0    0  506  502 -0.00000000000E+00 -0.00000000000E+00 -0.15557073729E+03  0.15557073729E+03  0.00000000000E+00 0. -1.
         21    1    1    2  503  502  0.58434037541E+02  0.70990517481E+01 -0.10784611488E+03  0.12286463191E+03  0.00000000000E+00 0. -1.
         21    1    1    2  504  503  0.18632228761E+02 -0.93675197786E+02  0.11226820771E+03  0.14739861971E+03  0.00000000000E+00 0.  1.
         21    1    1    2  505  501 -0.53530778904E+02  0.64661057823E+02  0.37313562449E+03  0.38246148950E+03  0.00000000000E+00 0.  1.
         21    1    1    2  506  505 -0.23535487398E+02  0.21915088216E+02 -0.36132705984E+01  0.32361180185E+02  0.00000000000E+00 0. -1.
<scales pt_clust_3="46.33212" pt_clust_4="84.50188" pt_clust_5="14000.00000" pt_clust_6="32.15883"></scales>
<clustering>
<clus scale="   32.159">  2  6  1 -1</clus>
<clus scale="   46.332">  2  3  1 -1</clus>
<clus scale="   84.502">  2  4  1 -1</clus>
<clus scale="   84.502">  1  3  2 -1</clus>
</clustering>
</event>
<event>
 6    0  0.8520634E+002  0.3698029E+03  0.7546771E-02  0.1054768E+00
         21   -1    0    0  503  501  0.00000000000E+00  0.00000000000E+00  0.65847820655E+03  0.65847820655E+03  0.00000000000E+00 0.  1.
         21   -1    0    0  504  502 -0.00000000000E+00 -0.00000000000E+00 -0.48314996529E+03  0.48314996529E+03  0.00000000000E+00 0.  1.
         21    1    1    2  503  505  0.17344227663E+03 -0.35772573586E+03  0.34610586671E+03  0.52710454029E+03  0.00000000000E+00 0.  1.
         21    1    1    2  504  506 -0.10497121520E+02 -0.74744653178E+02 -0.46811152172E+02  0.88815745825E+02  0.00000000000E+00 0.  1.
         21    1    1    2  505  502 -0.13394638663E+03  0.38634511428E+03 -0.18069648657E+03  0.44705190088E+03  0.00000000000E+00 0.  1.
         21    1    1    2  506  501 -0.28998768481E+02  0.46125274755E+02  0.56730013284E+02  0.78655984844E+02  0.00000000000E+00 0. -1.
<scales pt_clust_3="369.80285" pt_clust_4="74.00826" pt_clust_5="14000.00000" pt_clust_6="54.48366"></scales>
<clustering>
<clus scale="   54.484">  1  6  2 -1</clus>
<clus scale="   74.008">  2  4  1 -1</clus>
<clus scale="  369.803">  1  3  2 -1</clus>
<clus scale="   54.484">  1  3  2 -1</clus>
</clustering>
</event>
<event>
 6    0  0.8520634E+002  0.1294971E+03  0.7546771E-02  0.1228204E+00
         21   -1    0    0  504  501  0.00000000000E+00  0.00000000000E+00  0.80458960692E+03  0.80458960692E+03  0.00000000000E+00 0. -1.
         21   -1    0    0  503  502 -0.00000000000E+00 -0.00000000000E+00 -0.90533688658E+02  0.90533688658E+02  0.00000000000E+00 0.  1.
         21    1    1    2  503  506 -0.31616485255E+02  0.54690207182E+01  0.18445626458E+02  0.37010180531E+02  0.00000000000E+00 0.  1.
         21    1    1    2  504  505  0.59687218579E+01  0.40250376080E+02  0.13238041453E+03  0.13849293328E+03  0.00000000000E+00 0. -1.
         21    1    1    2  505  502  0.13866102165E+03  0.53865426544E+02  0.13203155801E+02  0.14934083977E+03  0.00000000000E+00 0.  1.
         21    1    1    2  506  501 -0.11301325825E+03 -0.99584823342E+02  0.55002672147E+03  0.57027934200E+03  0.00000000000E+00 0. -1.
<scales pt_clust_3="32.08601" pt_clust_4="40.73744" pt_clust_5="14000.00000" pt_clust_6="129.49709"></scales>
<clustering>
<clus scale="   32.086">  2  3  1 -1</clus>
<clus scale="   40.737">  1  4  2 -1</clus>
<clus scale="  129.497">  1  6  2 -1</clus>
<clus scale="   40.737">  1  3  2 -1</clus>
</clustering>
</event>
<event>
 6    0  0.8520634E+002  0.1088030E+03  0.7546771E-02  0.1262803E+00
         21   -1    0    0  506  501  0.00000000000E+00  0.00000000000E+00  0.52082881942E+02  0.52082881942E+02  0.00000000000E+00 0.  1.
         21   -1    0    0  503  502 -0.00000000000E+00 -0.00000000000E+00 -0.12892837187E+04  0.12892837187E+04  0.00000000000E+00 0. -1.
         21    1    1    2  503  501  0.70162297163E+02 -0.33951090042E+02 -0.13727219253E+03  0.15785778188E+03  0.00000000000E+00 0.  1.
         21    1    1    2  504  502 -0.89123080129E+01  0.32140302656E+02 -0.45471045651E+03  0.45593204269E+03  0.00000000000E+00 0. -1.
         21    1    1    2  505  504 -0.12679380785E+03  0.29381278461E+01 -0.64961129487E+03  0.66187622463E+03  0.00000000000E+00 0. -1.
         21    1    1    2  506  505  0.65543818697E+02 -0.11273404593E+01  0.43931071818E+01  0.65700551418E+02  0.00000000000E+00 0.  1.
<scales pt_clust_3="108.80304" pt_clust_4="33.35309" pt_clust_5="14000.00000" pt_clust_6="65.21625"></scales>
<clustering>
<clus scale="   33.353">  2  4  1 -1</clus>
<clus scale="   65.216">  1  6  2 -1</clus>
<clus scale="  108.803">  1  3  2 -1</clus>
<clus scale="   65.216">  1  3  2 -1</clus>
</clustering>
</event>
<event>
 6    0  0.8520634E+002  0.1022919E+03  0.7546771E-02  0.1275549E+00
         21   -1    0    0  504  501  0.00000000000E+00  0.00000000000E+00  0.78086621593E+03  0.78086621593E+03  0.00000000000E+00 0.  1.
         21   -1    0    0  503  502 -0.00000000000E+00 -0.00000000000E+00 -0.52643479438E+03  0.52643479438E+03  0.00000000000E+00 0.  1.
         21    1    1    2  503  501  0.83670386302E+02  0.11716901798E+03  0.36149391706E+03  0.38911073538E+03  0.00000000000E+00 0.  1.
         21    1    1    2  504  506 -0.72252854753E+02 -0.21175715201E+02  0.36711174592E+03  0.37475314532E+03  0.00000000000E+00 0.  1.
         21    1    1    2  505  502  0.15775297665E+02  0.28088988960E+02 -0.38937642520E+03  0.39070686175E+03  0.00000000000E+00 0.  1.
         21    1    1    2  506  505 -0.27192829214E+02 -0.12408229174E+03 -0.84797816232E+02  0.15273026786E+03  0.00000000000E+00 0.  1.
<scales pt_clust_3="14000.00000" pt_clust_4="74.64931" pt_clust_5="32.21570" pt_clust_6="102.29186"></scales>
<clustering>
<clus scale="   32.216">  2  5  1 -1</clus>
<clus scale="   74.649">  1  4  2 -1</clus>
<clus scale="  102.292">  2  6  1 -1</clus>
<clus scale="   74.649">  1  3  2 -1</clus>
</clustering>
</event>
<event>
 6    0  0.8520634E+002  0.2163173E+03  0.7546771E-02  0.1136659E+00
         21   -1    0    0  505  501  0.00000000000E+00  0.00000000000E+00  0.74860627774E+02  0.74860627774E+02  0.00000000000E+00 0. -1.
         21   -1    0    0  506  502 -0.00000000000E+00 -0.00000000000E+00 -0.15199761461E+04  0.15199761461E+04  0.00000000000E+00 0.  1.
         21    1    1    2  503  502 -0.43446391216E+02  0.90649144084E+01 -0.20071434628E+03  0.20556266778E+03  0.00000000000E+00 0. -1.
         21    1    1    2  504  501 -0.10639183674E+02 -0.33329766823E+02  0.21370433461E+02  0.40997085409E+02  0.00000000000E+00 0. -1.
         21    1    1    2  505  503 -0.42730332259E+02 -0.19771365842E+03 -0.77562051874E+03  0.80156332320E+03  0.00000000000E+00 0.  1.
         21    1    1    2  506  504  0.96815907149E+02  0.22197851083E+03 -0.49015108674E+03  0.54671369745E+03  0.00000000000E+00 0. -1.
<scales pt_clust_3="44.62403" pt_clust_4="34.98665" pt_clust_5="216.31731" pt_clust_6="14000.00000"></scales>
<clustering>
<clus scale="   34.987">  1  4  2 -1</clus>
<clus scale="   44.624">  2  3  1 -1</clus>
<clus scale="  216.317">  2  5  1 -1</clus>
<clus scale="   34.987">  1  3  2 -1</clus>
</clustering>
</event>
<event>
 6    0  0.8520634E+002  0.6127805E+02  0.7546771E-02  0.1392545E+00
         21   -1    0    0  503  501  0.00000000000E+00  0.00000000000E+00  0.98245961860E+02  0.98245961860E+02  0.00000000000E+00 0.  1.
         21   -1    0    0  504  502 -0.00000000000E+00 -0.00000000000E+00 -0.34867696329E+03  0.34867696329E+03  0.00000000000E+00 0.  1.
         21    1    1    2  503  506  0.10095223852E+03 -0.23634768718E+02 -0.10995693986E+03  0.15113068973E+03  0.00000000000E+00 0.  1.
         21    1    1    2  504  505 -0.66673704605E+02 -0.12350973382E+02 -0.13628919284E+03  0.15222573210E+03  0.00000000000E+00 0.  1.
         21    1    1    2  505  501 -0.55707451856E+02  0.13110069736E+02  0.53226806086E+02  0.78155530878E+02  0.00000000000E+00 0.  1.
         21    1    1    2  506  502  0.21428917937E+02  0.22875672364E+02 -0.57411674808E+02  0.65410972431E+02  0.00000000000E+00 0.  1.
<scales pt_clust_3="61.27805" pt_clust_4="55.91932" pt_clust_5="14000.00000" pt_clust_6="31.34477"></scales>
<clustering>
<clus scale="   31.345">  2  6  1 -1</clus>
<clus scale="   55.919">  2  4  1 -1</clus>
<clus scale="   61.278">  2  3  1 -1</clus>
<clus scale="   61.278">  1  3  2 -1</clus>
</clustering>
</event>
<event>
 6    0  0.8520634E+002  0.7832325E+02  0.7546771E-02  0.1333878E+00
         21   -1    0    0  506  501  0.00000000000E+00  0.00000000000E+00  0.38732553721E+03  0.38732553721E+03  0.00000000000E+00 0.  1.
         21   -1    0    0  504  502 -0.00000000000E+00 -0.00000000000E+00 -0.43632690364E+03  0.43632690364E+03  0.00000000000E+00 0.  1.
         21    1    1    2  503  501  0.26777645017E+01  0.49592422511E+02  0.21673310057E+03  0.22235065927E+03  0.00000000000E+00 0.  1.
         21    1    1    2  504  505  0.68495140146E+02 -0.36348075315E+02 -0.36985997447E+03  0.37790100227E+03  0.00000000000E+00 0.  1.
         21    1    1    2  505  503 -0.10311671428E+03 -0.11493818565E+02 -0.10602699020E+02  0.10429564639E+03  0.00000000000E+00 0.  1.
         21    1    1    2  506  502  0.31943809632E+02 -0.17505286310E+01  0.11472820649E+03  0.11910513293E+03  0.00000000000E+00 0.  1.
<scales pt_clust_3="56.02806" pt_clust_4="78.32325" pt_clust_5="14000.00000" pt_clust_6="31.99174"></scales>
<clustering>
<clus scale="   31.992">  1  6  2 -1</clus>
<clus scale="   56.028">  1  3  2 -1</clus>
<clus scale="   78.323">  2  4  1 -1</clus>
<clus scale="   31.992">  1  3  2 -1</clus>
</clustering>
</event>
<event>
 6    0  0.8520634E+002  0.9275774E+02  0.7546771E-02  0.1296308E+00
         21   -1    0    0  505  501  0.00000000000E+00  0.00000000000E+00  0.65924264892E+02  0.65924264892E+02  0.00000000000E+00 0. -1.
         21   -1    0    0  506  502 -0.00000000000E+00 -0.00000000000E+00 -0.12563670894E+04  0.12563670894E+04  0.00000000000E+00 0.  1.
         21    1    1    2  503  501 -0.11037164570E+03 -0.27164639990E+02 -0.10730022185E+03  0.15631108550E+03  0.00000000000E+00 0. -1.
         21    1    1    2  504  503  0.43425189106E+02  0.92682951897E+02 -0.18923755172E+03  0.21514350467E+03  0.00000000000E+00 0. -1.
         21    1    1    2  505  502  0.35158485963E+02 -0.85386901885E+01  0.15307955565E+02  0.39285644565E+02  0.00000000000E+00 0. -1.
         21    1    1    2  506  504  0.31787970635E+02 -0.56979621718E+02 -0.90921300647E+03  0.91155111953E+03  0.00000000000E+00 0.  1.
<scales pt_clust_3="92.75774" pt_clust_4="14000.00000" pt_clust_5="36.18050" pt_clust_6="65.99583"></scales>
<clustering>
<clus scale="   36.180">  1  5  2 -1</clus>
<clus scale="   65.996">  2  6  1 -1</clus>
<clus scale="   92.758">  1  3  2 -1</clus>
<clus scale="   36.180">  1  3  2 -1</clus>
</clustering>
</event>
<event>
 6    0  0.8520634E+002  0.1892615E+03  0.7546771E-02  0.1159129E+00
         21   -1    0    0  506  501  0.00000000000E+00  0.00000000000E+00  0.37758393667E+02  0.37758393667E+02  0.00000000000E+00 0.  1.
         21   -1    0    0  501  502 -0.00000000000E+00 -0.00000000000E+00 -0.16881820821E+04  0.16881820821E+04  0.00000000000E+00 0. -1.
         21    1    1    2  503  505  0.10723718419E+03 -0.12654438588E+03 -0.78542995771E+03  0.80275370678E+03  0.00000000000E+00 0. -1.
         21    1    1    2  504  503 -0.11419889261E+03  0.48965694988E+02 -0.14461640840E+03  0.19066444854E+03  0.00000000000E+00 0.  1.
         21    1    1    2  505  502  0.38460360011E+02  0.29526894586E+02 -0.56124041795E+03  0.56333102483E+03  0.00000000000E+00 0. -1.
         21    1    1    2  506  504 -0.31498651594E+02  0.48051796305E+02 -0.15913690437E+03  0.16919129562E+03  0.00000000000E+00 0. -1.
<scales pt_clust_3="170.96784" pt_clust_4="56.42723" pt_clust_5="48.48749" pt_clust_6="56.42723"></scales>
<clustering>
<clus scale="   48.487">  2  5  1 -1</clus>
<clus scale="   56.427">  4  6 -1 -1</clus>
<clus scale="  170.968">  2  3  1 -1</clus>
<clus scale="  189.261">  1  3  2 -1</clus>
</clustering>
</event>
<event>
 6    0  0.8520634E+002  0.1237867E+03  0.7546771E-02  0.1236978E+00
         21   -1    0    0  504  501  0.00000000000E+00  0.00000000000E+00  0.18765157736E+03  0.18765157736E+03  0.00000000000E+00 0.  1.
         21   -1    0    0  506  502 -0.00000000000E+00 -0.00000000000E+00 -0.24335846443E+04  0.24335846443E+04  0.00000000000E+00 0.  1.
         21    1    1    2  503  502  0.38840182078E+02  0.38725237968E+02 -0.13062200865E+04  0.13073710713E+04  0.00000000000E+00 0.  1.
         21    1    1    2  504  505  0.10974655838E+03 -0.97539890336E+01 -0.71301839017E+03  0.72148088824E+03  0.00000000000E+00 0.  1.
         21    1    1    2  505  503 -0.26698143322E+02 -0.52870164261E+02 -0.38592186106E+03  0.39044042820E+03  0.00000000000E+00 0.  1.
         21    1    1    2  506  501 -0.12188859714E+03  0.23898915327E+02  0.15922727082E+03  0.20194383387E+03  0.00000000000E+00 0.  1.
<scales pt_clust_3="54.84709" pt_clust_4="123.78665" pt_clust_5="41.71235" pt_clust_6="14000.00000"></scales>
<clustering>
<clus scale="   54.847">  2  3  1 -1</clus>
<clus scale="   41.712">  2  5  1 -1</clus>
<clus scale="  123.787">  2  4  1 -1</clus>
<clus scale="  123.787">  1  3  2 -1</clus>
</clustering>
</event>
<event>
 6    0  0.8520634E+002  0.9607402E+02  0.7546771E-02  0.1288775E+00
         21   -1    0    0  506  501  0.00000000000E+00  0.00000000000E+00  0.83474647437E+03  0.83474647437E+03  0.00000000000E+00 0.  1.
         21   -1    0    0  503  502 -0.00000000000E+00 -0.00000000000E+00 -0.22248458194E+03  0.22248458194E+03  0.00000000000E+00 0.  1.
         21    1    1    2  503  504  0.27137937119E+01  0.31263659353E+02 -0.18737261982E+03  0.18998231426E+03  0.00000000000E+00 0.  1.
         21    1    1    2  504  501  0.26526514827E+00 -0.10564702986E+03  0.26688388194E+03  0.28703374666E+03  0.00000000000E+00 0.  1.
         21    1    1    2  505  502  0.45371329037E+02  0.67386176036E+02  0.50839220238E+02  0.95833608582E+02  0.00000000000E+00 0.  1.
         21    1    1    2  506  505 -0.48350387897E+02  0.69971944688E+01  0.48191141006E+03  0.48438138681E+03  0.00000000000E+00 0.  1.
<scales pt_clust_3="31.38122" pt_clust_4="96.07402" pt_clust_5="14000.00000" pt_clust_6="48.93292"></scales>
<clustering>
<clus scale="   31.381">  2  3  1 -1</clus>
<clus scale="   48.933">  1  6  2 -1</clus>
<clus scale="   96.074">  1  4  2 -1</clus>
<clus scale="   48.933">  1  3  2 -1</clus>
</clustering>
</event>
<event>
 6    0  0.8520634E+002  0.1030242E+03  0.7546771E-02  0.1274062E+00
         21   -1    0    0  505  501  0.00000000000E+00  0.00000000000E+00  0.97806222146E+03  0.97806222146E+03  0.00000000000E+00 0.  1.
         21   -1    0    0  506  502 -0.00000000000E+00 -0.00000000000E+00 -0.10002931295E+03  0.10002931295E+03  0.00000000000E+00 0.  1.
         21    1    1    2  503  502 -0.83688018045E+02  0.10010453530E+03  0.29518950830E+02  0.13377582296E+03  0.00000000000E+00 0.  1.
         21    1    1    2  504  501  0.60312679825E+02  0.65026881611E+01  0.11489147458E+03  0.12992288186E+03  0.00000000000E+00 0.  1.
         21    1    1    2  505  503  0.29329559398E+00 -0.86990163791E+02  0.76549481370E+03  0.77042175750E+03  0.00000000000E+00 0.  1.
         21    1    1    2  506  504  0.23082042626E+02 -0.19617059665E+02 -0.31872330609E+02  0.43971072084E+02  0.00000000000E+00 0.  1.
<scales pt_clust_3="103.02420" pt_clust_4="63.24078" pt_clust_5="14000.00000" pt_clust_6="30.29207"></scales>
<clustering>
<clus scale="   30.292">  2  6  1 -1</clus>
<clus scale="   63.241">  1  4  2 -1</clus>
<clus scale="  103.024">  2  3  1 -1</clus>
<clus scale="   63.241">  1  3  2 -1</clus>
</clustering>
</event>
<event>
 6    0  0.8520634E+002  0.1824857E+03  0.7546771E-02  0.1165419E+00
         21   -1    0    0  503  501  0.00000000000E+00  0.00000000000E+00  0.26864981531E+03  0.26864981531E+03  0.00000000000E+00 0.  1.
         21   -1    0    0  504  502 -0.00000000000E+00 -0.00000000000E+00 -0.90040207122E+03  0.90040207122E+03  0.00000000000E+00 0.  1.
         21    1    1    2  503  506 -0.49347187089E+02  0.18259729251E+03  0.20205056206E+03  0.27676948122E+03  0.00000000000E+00 0.  1.
         21    1    1    2  504  505  0.36182194657E+02  0.25347690758E+02 -0.12404619386E+03  0.13167807277E+03  0.00000000000E+00 0.  1.
         21    1    1    2  505  501 -0.72884955524E+02 -0.13994597863E+03 -0.33816796126E+03  0.37316841198E+03  0.00000000000E+00 0.  1.
         21    1    1    2  506  502  0.86049947957E+02 -0.67999004637E+02 -0.37158866285E+03  0.38743592055E+03  0.00000000000E+00 0.  1.
<scales pt_clust_3="182.48575" pt_clust_4="44.17756" pt_clust_5="14000.00000" pt_clust_6="117.74970"></scales>
<clustering>
<clus scale="   44.178">  2  4  1 -1</clus>
<clus scale="  117.750">  2  6  1 -1</clus>
<clus scale="  182.486">  1  3  2 -1</clus>
<clus scale="  182.486">  1  3  2 -1</clus>
</clustering>
</event>
<event>
 6    0  0.8520634E+002  0.6602044E+02  0.7546771E-02  0.1374174E+00
         21   -1    0    0  503  501  0.00000000000E+00  0.00000000000E+00  0.18056732664E+04  0.18056732664E+04  0.00000000000E+00 0.  1.
         21   -1    0    0  506  502 -0.00000000000E+00 -0.00000000000E+00 -0.24382699353E+04  0.24382699353E+04  0.00000000000E+00 0.  1.
         21    1    1    2  503  502  0.27124871125E+02 -0.63181912792E+02  0.53798250422E+03  0.54235863374E+03  0.00000000000E+00 0.  1.
         21    1    1    2  504  505 -0.79559464189E+02  0.14990347418E+02 -0.53441617309E+03  0.54051370465E+03  0.00000000000E+00 0.  1.
         21    1    1    2  505  501  0.20092809097E+02  0.66929645968E+02  0.12613027081E+04  0.12632370403E+04  0.00000000000E+00 0.  1.
         21    1    1    2  506  504  0.32341783967E+02 -0.18738080594E+02 -0.18974657081E+04  0.18978338231E+04  0.00000000000E+00 0.  1.
<scales pt_clust_3="66.02044" pt_clust_4="47.54585" pt_clust_5="14000.00000" pt_clust_6="37.37789"></scales>
<clustering>
<clus scale="   37.378">  2  6  1 -1</clus>
<clus scale="   47.546">  2  4  1 -1</clus>
<clus scale="   66.020">  2  3  1 -1</clus>
<clus scale="   66.020">  1  3  2 -1</clus>
</clustering>
</event>
<event>
 6    0  0.8520634E+002  0.1131973E+03  0.7546771E-02  0.1254761E+00
         21   -1    0    0  505  501  0.00000000000E+00  0.00000000000E+00  0.11768441087E+04  0.11768441087E+04  0.00000000000E+00 0. -1.
         21   -1    0    0  504  502 -0.00000000000E+00 -0.00000000000E+00 -0.29136938141E+03  0.29136938141E+03  0.00000000000E+00 0. -1.
         21    1    1    2  503  506 -0.73546857271E+02  0.63147045192E+02 -0.48254447820E+02  0.10828287614E+03  0.00000000000E+00 0. -1.
         21    1    1    2  504  501 -0.42796509886E+02  0.15623291727E+01  0.93104162558E+03  0.93202601396E+03  0.00000000000E+00 0. -1.
         21    1    1    2  505  503  0.10808782304E+03 -0.93575340193E+02  0.19023579748E+03  0.23796844418E+03  0.00000000000E+00 0.  1.
         21    1    1    2  506  502  0.82555441197E+01  0.28865965828E+02 -0.18754824794E+03  0.18993615585E+03  0.00000000000E+00 0. -1.
<scales pt_clust_3="113.19729" pt_clust_4="42.79073" pt_clust_5="14000.00000" pt_clust_6="30.02329"></scales>
<clustering>
<clus scale="   30.023">  2  6  1 -1</clus>
<clus scale="   42.791">  1  4  2 -1</clus>
<clus scale="  113.197">  2  3  1 -1</clus>
<clus scale="   42.791">  1  3  2 -1</clus>
</clustering>
</event>
<event>
 6    0  0.8520634E+002  0.1144456E+03  0.7546771E-02  0.1252552E+00
         21   -1    0    0  505  501  0.00000000000E+00  0.00000000000E+00  0.12694068813E+03  0.12694068813E+03  0.00000000000E+00 0.  1.
         21   -1    0    0  504  502 -0.00000000000E+00 -0.00000000000E+00 -0.90132846878E+03  0.90132846878E+03  0.00000000000E+00 0. -1.
         21    1    1    2  503  506  0.13193637171E+03  0.42489986512E+02 -0.12374664731E+03  0.18581129636E+03  0.00000000000E+00 0.  1.
         21    1    1    2  504  501  0.27229339557E+02 -0.21253903913E+02  0.40669100193E+01  0.34780815421E+02  0.00000000000E+00 0.  1.
         21    1    1    2  505  503 -0.11371177323E+03 -0.33326904690E+02  0.29292013487E+02  0.12206175487E+03  0.00000000000E+00 0.  1.
         21    1    1    2  506  502 -0.45453938040E+02  0.12090822091E+02 -0.68400005685E+03  0.68561529026E+03  0.00000000000E+00 0. -1.
<scales pt_clust_3="14000.00000" pt_clust_4="34.54223" pt_clust_5="114.44557" pt_clust_6="46.79596"></scales>
<clustering>
<clus scale="   34.542">  1  4  2 -1</clus>
<clus scale="   46.796">  2  6  1 -1</clus>
<clus scale="  114.446">  1  5  2 -1</clus>
<clus scale="   34.542">  1  3  2 -1</clus>
</clustering>
</event>
<event>
 6    0  0.8520634E+002  0.1184092E+03  0.7546771E-02  0.1245745E+00
         21   -1    0    0  504  501  0.00000000000E+00  0.00000000000E+00  0.11153448051E+04  0.11153448051E+04  0.00000000000E+00 0.  1.
         21   -1    0    0  503  502 -0.00000000000E+00 -0.00000000000E+00 -0.30233228777E+02  0.30233228777E+02  0.00000000000E+00 0.  1.
         21    1    1    2  503  506  0.36527659072E+02  0.23609658179E+02  0.28109597999E+02  0.51786439695E+02  0.00000000000E+00 0.  1.
         21    1    1    2  504  502  0.25299569865E+02  0.10686701901E+03  0.40774106460E+03  0.42227171792E+03  0.00000000000E+00 0.  1.
         21    1    1    2  505  501  0.24532427541E+02 -0.24318482377E+02  0.12330497632E+03  0.12805212131E+03  0.00000000000E+00 0.  1.
         21    1    1    2  506  505 -0.86359656479E+02 -0.10615819481E+03  0.52595593739E+03  0.54346775495E+03  0.00000000000E+00 0.  1.
<scales pt_clust_3="43.81349" pt_clust_4="118.40922" pt_clust_5="34.54314" pt_clust_6="14000.00000"></scales>
<clustering>
<clus scale="   34.543">  1  5  2 -1</clus>
<clus scale="   43.813">  2  3  1 -1</clus>
<clus scale="  118.409">  1  4  2 -1</clus>
<clus scale="   34.543">  1  3  2 -1</clus>
</clustering>
</event>
<event>
 6    0  0.8520634E+002  0.1241931E+03  0.7546771E-02  0.1236336E+00
         21   -1    0    0  506  501  0.00000000000E+00  0.00000000000E+00  0.79247169088E+03  0.79247169088E+03  0.00000000000E+00 0. -1.
         21   -1    0    0  505  502 -0.00000000000E+00 -0.00000000000E+00 -0.17417901663E+03  0.17417901663E+03  0.00000000000E+00 0.  1.
         21    1    1    2  503  501  0.57517359536E+02 -0.13059140023E+03  0.68560662695E+03  0.70029908423E+03  0.00000000000E+00 0. -1.
         21    1    1    2  504  502 -0.93954445956E+02  0.75334862285E+02 -0.49631600960E+02  0.13025388748E+03  0.00000000000E+00 0.  1.
         21    1    1    2  505  503  0.19916334240E+02  0.24308211050E+02 -0.67911689570E+02  0.74830121437E+02  0.00000000000E+00 0. -1.
         21    1    1    2  506  504  0.16520752179E+02  0.30948326894E+02  0.50229337826E+02  0.61267614354E+02  0.00000000000E+00 0.  1.
<scales pt_clust_3="14000.00000" pt_clust_4="124.19311" pt_clust_5="31.42530" pt_clust_6="36.73800"></scales>
<clustering>
<clus scale="   31.425">  2  5  1 -1</clus>
<clus scale="   36.738">  1  6  2 -1</clus>
<clus scale="  124.193">  2  4  1 -1</clus>
<clus scale="   36.738">  1  3  2 -1</clus>
</clustering>
</event>
<event>
 6    0  0.8520634E+002  0.1986203E+03  0.7546771E-02  0.1150908E+00
         21   -1    0    0  502  501  0.00000000000E+00  0.00000000000E+00  0.22740847493E+03  0.22740847493E+03  0.00000000000E+00 0. -1.
         21   -1    0    0  503  502 -0.00000000000E+00 -0.00000000000E+00 -0.70568823776E+03  0.70568823776E+03  0.00000000000E+00 0.  1.
         21    1    1    2  503  504 -0.24701857706E+02 -0.49668041343E+02 -0.25633594542E+03  0.26226935204E+03  0.00000000000E+00 0.  1.
         21    1    1    2  504  506 -0.11102413842E+03 -0.86666466308E+02 -0.36531319095E+03  0.39152415402E+03  0.00000000000E+00 0.  1.
         21    1    1    2  505  501 -0.11489869896E+02  0.75502877138E+02  0.23356614602E+02  0.79863840453E+02  0.00000000000E+00 0. -1.
         21    1    1    2  506  505  0.14721586602E+03  0.60831630514E+02  0.12001275893E+03  0.19943936619E+03  0.00000000000E+00 0. -1.
<scales pt_clust_3="39.63981" pt_clust_4="39.63981" pt_clust_5="76.37213" pt_clust_6="188.30924"></scales>
<clustering>
<clus scale="   39.640">  3  4 -1 -1</clus>
<clus scale="   76.372">  1  5  2 -1</clus>
<clus scale="  188.309">  1  6  2 -1</clus>
<clus scale="   76.372">  1  3  2 -1</clus>
</clustering>
</event>
<event>
 6    0  0.8520634E+002  0.7104326E+02  0.7546771E-02  0.1356581E+00
         21   -1    0    0  503  501  0.00000000000E+00  0.00000000000E+00  0.64890840159E+02  0.64890840159E+02  0.00000000000E+00 0.  1.
         21   -1    0    0  504  502 -0.00000000000E+00 -0.00000000000E+00 -0.66113862312E+03  0.66113862312E+03  0.00000000000E+00 0. -1.
         21    1    1    2  503  506  0.26812217149E+01 -0.64661572009E+02  0.25057536230E+02  0.69398760555E+02  0.00000000000E+00 0.  1.
         21    1    1    2  504  501 -0.30732330788E+02 -0.88528631479E+01 -0.30396495962E+02  0.44122514755E+02  0.00000000000E+00 0. -1.
         21    1    1    2  505  502 -0.52855949971E+02  0.45040429796E+02 -0.34905247524E+03  0.35589327366E+03  0.00000000000E+00 0. -1.
         21    1    1    2  506  505  0.80907059044E+02  0.28474005362E+02 -0.24185634798E+03  0.25661491431E+03  0.00000000000E+00 0.  1.
<scales pt_clust_3="71.04326" pt_clust_4="31.98202" pt_clust_5="70.50131" pt_clust_6="14000.00000"></scales>
<clustering>
<clus scale="   31.982">  1  4  2 -1</clus>
<clus scale="   70.501">  2  5  1 -1</clus>
<clus scale="   71.043">  1  3  2 -1</clus>
<clus scale="   31.982">  1  3  2 -1</clus>
</clustering>
</event>
<event>
 6    0  0.8520634E+002  0.1231831E+03  0.7546771E-02  0.1237936E+00
         21   -1    0    0  504  501  0.00000000000E+00  0.00000000000E+00  0.14488596092E+03  0.14488596092E+03  0.00000000000E+00 0.  1.
         21   -1    0    0  506  502 -0.00000000000E+00 -0.00000000000E+00 -0.32748246696E+03  0.32748246696E+03  0.00000000000E+00 0.  1.
         21    1    1    2  503  502  0.97226866719E+01 -0.95618501199E+02 -0.16706885436E+02  0.97552798159E+02  0.00000000000E+00 0.  1.
         21    1    1    2  504  503 -0.13533807575E+02 -0.60014455296E+02  0.56940279474E+02  0.83827765201E+02  0.00000000000E+00 0.  1.
         21    1    1    2  505  501  0.26327614221E+02  0.21122284450E+02 -0.51945055290E+01  0.34150798800E+02  0.00000000000E+00 0.  1.
         21    1    1    2  506  505 -0.22516493318E+02  0.13451067204E+03 -0.21763539456E+03  0.25683706572E+03  0.00000000000E+00 0.  1.
<scales pt_clust_3="14000.00000" pt_clust_4="48.61898" pt_clust_5="33.75343" pt_clust_6="123.18311"></scales>
<clustering>
<clus scale="   33.753">  1  5  2 -1</clus>
<clus scale="   48.619">  1  4  2 -1</clus>
<clus scale="  123.183">  2  6  1 -1</clus>
<clus scale="   33.753">  1  3  2 -1</clus>
</clustering>
</event>
<event>
 6    0  0.8520634E+002  0.1423898E+03  0.7546771E-02  0.1210149E+00
         21   -1    0    0  505  501  0.00000000000E+00  0.00000000000E+00  0.27220054927E+04  0.27220054927E+04  0.00000000000E+00 0.  1.
         21   -1    0    0  504  502 -0.00000000000E+00 -0.00000000000E+00 -0.60856473695E+02  0.60856473695E+02  0.00000000000E+00 0.  1.
         21    1    1    2  503  501 -0.14875811671E+03 -0.28644648660E+02  0.12080531877E+04  0.12175146806E+04  0.00000000000E+00 0.  1.
         21    1    1    2  504  503  0.91063418701E+02 -0.11679537147E+03  0.27193360345E+03  0.30964752495E+03  0.00000000000E+00 0.  1.
         21    1    1    2  505  506  0.54051701539E+02 -0.59853337212E+01  0.10609020468E+04  0.10622949513E+04  0.00000000000E+00 0.  1.
         21    1    1    2  506  502  0.36429964696E+01  0.15142535386E+03  0.12026018113E+03  0.19340480961E+03  0.00000000000E+00 0.  1.
<scales pt_clust_3="114.15677" pt_clust_4="14000.00000" pt_clust_5="54.38208" pt_clust_6="142.38980"></scales>
<clustering>
<clus scale="   54.382">  1  5  2 -1</clus>
<clus scale="  114.157">  1  3  2 -1</clus>
<clus scale="  142.390">  2  6  1 -1</clus>
<clus scale="   54.382">  1  3  2 -1</clus>
</clustering>
</event>
<event>
 6    0  0.8520634E+002  0.1343350E+03  0.7546771E-02  0.1221162E+00
         21   -1    0    0  506  501  0.00000000000E+00  0.00000000000E+00  0.55369231885E+02  0.55369231885E+02  0.00000000000E+00 0. -1.
         21   -1    0    0  503  502 -0.00000000000E+00 -0.00000000000E+00 -0.10658770616E+04  0.10658770616E+04  0.00000000000E+00 0. -1.
         21    1    1    2  503  501  0.32566039362E+02 -0.13723656964E+03 -0.21447044951E+03  0.25669436433E+03  0.00000000000E+00 0. -1.
         21    1    1    2  504  502  0.66599215540E+02  0.12440611354E+03 -0.71006089581E+03  0.72394669166E+03  0.00000000000E+00 0. -1.
         21    1    1    2  505  504 -0.60136032299E+02 -0.10403768115E+02 -0.68994265819E+02  0.92112917051E+02  0.00000000000E+00 0. -1.
         21    1    1    2  506  505 -0.39029222603E+02  0.23234224212E+02 -0.16982218527E+02  0.48492320400E+02  0.00000000000E+00 0. -1.
<scales pt_clust_3="134.33500" pt_clust_4="14000.00000" pt_clust_5="111.25591" pt_clust_6="42.08282"></scales>
<clustering>
<clus scale="   42.083">  5  6 -1 -1</clus>
<clus scale="  111.256">  1  5  2 -1</clus>
<clus scale="  134.335">  1  3  2 -1</clus>
<clus scale="  111.256">  1  3  2 -1</clus>
</clustering>
</event>
<event>
 6    0  0.8520634E+002  0.1416205E+03  0.7546771E-02  0.1211165E+00
         21   -1    0    0  503  501  0.00000000000E+00  0.00000000000E+00  0.16522983013E+03  0.16522983013E+03  0.00000000000E+00 0. -1.
         21   -1    0    0  505  502 -0.00000000000E+00 -0.00000000000E+00 -0.52140644614E+03  0.52140644614E+03  0.00000000000E+00 0. -1.
         21    1    1    2  503  502 -0.20595335821E+02 -0.24313285763E+02 -0.62816668033E+02  0.70436052594E+02  0.00000000000E+00 0. -1.
         21    1    1    2  504  501 -0.45548791699E+02  0.30583021125E+02  0.66735737652E+02  0.86392547632E+02  0.00000000000E+00 0. -1.
         21    1    1    2  505  506  0.14799613215E+03 -0.13961579223E+02 -0.40829049164E+03  0.43450996121E+03  0.00000000000E+00 0. -1.
         21    1    1    2  506  504 -0.81852004629E+02  0.76918438614E+01  0.48194806016E+02  0.95297714824E+02  0.00000000000E+00 0. -1.
<scales pt_clust_3="31.86383" pt_clust_4="37.30391" pt_clust_5="133.97747" pt_clust_6="37.30391"></scales>
<clustering>
<clus scale="   31.864">  2  3  1 -1</clus>
<clus scale="   37.304">  4  6 -1 -1</clus>
<clus scale="  133.977">  2  5  1 -1</clus>
<clus scale="  141.620">  1  3  2 -1</clus>
</clustering>
</event>
<event>
 6    0  0.8520634E+002  0.1188093E+03  0.7546771E-02  0.1245074E+00
         21   -1    0    0  504  501  0.00000000000E+00  0.00000000000E+00  0.99060632873E+02  0.99060632873E+02  0.00000000000E+00 0.  1.
         21   -1    0    0  505  502 -0.00000000000E+00 -0.00000000000E+00 -0.74925145244E+03  0.74925145244E+03  0.00000000000E+00 0.  1.
         21    1    1    2  503  501  0.75506029941E+00  0.11252104022E+03 -0.12315380564E+01  0.11253031278E+03  0.00000000000E+00 0.  1.
         21    1    1    2  504  502  0.97785160458E+02 -0.11426346481E+02 -0.57155328168E+02  0.11383861620E+03  0.00000000000E+00 0.  1.
         21    1    1    2  505  506 -0.34742563385E+02 -0.74734637960E+01 -0.38074560039E+03  0.38240045840E+03  0.00000000000E+00 0.  1.
         21    1    1    2  506  503 -0.63797657372E+02 -0.93621229942E+02 -0.21105835296E+03  0.23954269794E+03  0.00000000000E+00 0.  1.
<scales pt_clust_3="14000.00000" pt_clust_4="90.66716" pt_clust_5="35.53728" pt_clust_6="118.80928"></scales>
<clustering>
<clus scale="   35.537">  2  5  1 -1</clus>
<clus scale="   90.667">  1  4  2 -1</clus>
<clus scale="  118.809">  2  6  1 -1</clus>
<clus scale="   90.667">  1  3  2 -1</clus>
</clustering>
</event>
<event>
 6    0  0.8520634E+002  0.8747956E+02  0.7546771E-02  0.1309073E+00
         21   -1    0    0  503  501  0.00000000000E+00  0.00000000000E+00  0.42618816485E+02  0.42618816485E+02  0.00000000000E+00 0.  1.
         21   -1    0    0  504  502 -0.00000000000E+00 -0.00000000000E+00 -0.15209651805E+04  0.15209651805E+04  0.00000000000E+00 0. -1.
         21    1    1    2  503  505 -0.73163666768E+02  0.50951456373E+02 -0.21929710957E+02  0.91814406626E+02  0.00000000000E+00 0.  1.
         21    1    1    2  504  501  0.54828243404E+02 -0.56153946504E+02 -0.34206909184E+03  0.35095678591E+03  0.00000000000E+00 0. -1.
         21    1    1    2  505  506  0.55636862594E+02  0.31144423214E+02 -0.40271777281E+03  0.40773403110E+03  0.00000000000E+00 0. -1.
         21    1    1    2  506  502 -0.37301439230E+02 -0.25941933083E+02 -0.71162978840E+03  0.71307877335E+03  0.00000000000E+00 0. -1.
<scales pt_clust_3="87.47956" pt_clust_4="14000.00000" pt_clust_5="41.15869" pt_clust_6="45.43546"></scales>
<clustering>
<clus scale="   45.435">  2  6  1 -1</clus>
<clus scale="   41.159">  2  5  1 -1</clus>
<clus scale="   87.480">  1  3  2 -1</clus>
<clus scale="   87.480">  1  3  2 -1</clus>
</clustering>
</event>
<event>
 6    0  0.8520634E+002  0.1038456E+03  0.7546771E-02  0.1272411E+00
         21   -1    0    0  503  501  0.00000000000E+00  0.00000000000E+00  0.38874190522E+03  0.38874190522E+03  0.00000000000E+00 0. -1.
         21   -1    0    0  505  502 -0.00000000000E+00 -0.00000000000E+00 -0.11788501960E+03  0.11788501960E+03  0.00000000000E+00 0. -1.
         21    1    1    2  503  504  0.41044023654E+02  0.86443242816E+02  0.80899527092E+02  0.12530674200E+03  0.00000000000E+00 0. -1.
         21    1    1    2  504  502 -0.26871279393E+02 -0.29103683538E+02 -0.39793983281E+02  0.56148474219E+02  0.00000000000E+00 0. -1.
         21    1    1    2  505  506  0.93432035467E+02 -0.31677587341E+01  0.42920673284E+02  0.10286770213E+03  0.00000000000E+00 0. -1.
         21    1    1    2  506  501 -0.10760477973E+03 -0.54171800544E+02  0.18683066852E+03  0.22230400647E+03  0.00000000000E+00 0. -1.
<scales pt_clust_3="103.84557" pt_clust_4="39.61174" pt_clust_5="83.39248" pt_clust_6="14000.00000"></scales>
<clustering>
<clus scale="   39.612">  2  4  1 -1</clus>
<clus scale="   83.392">  2  5  1 -1</clus>
<clus scale="  103.846">  2  3  1 -1</clus>
<clus scale="  103.846">  1  3  2 -1</clus>
</clustering>
</event>
<event>
 6    0  0.8520634E+002  0.1529675E+03  0.7546771E-02  0.1196873E+00
         21   -1    0    0  505  501  0.00000000000E+00  0.00000000000E+00  0.90462319780E+02  0.90462319780E+02  0.00000000000E+00 0.  1.
         21   -1    0    0  503  502 -0.00000000000E+00 -0.00000000000E+00 -0.27738715293E+04  0.27738715293E+04  0.00000000000E+00 0. -1.
         21    1    1    2  503  501  0.11017095566E+03  0.64039400531E+02  0.21618344899E+02  0.12925183607E+03  0.00000000000E+00 0.  1.
         21    1    1    2  504  502 -0.59739748572E+02  0.68387100315E+02 -0.14763937567E+04  0.14791836119E+04  0.00000000000E+00 0. -1.
         21    1    1    2  505  506  0.44336540558E+02 -0.23572531748E+02 -0.59354005436E+02  0.77745038703E+02  0.00000000000E+00 0.  1.
         21    1    1    2  506  504 -0.94767747646E+02 -0.10885396910E+03 -0.11692797923E+04  0.11781533624E+04  0.00000000000E+00 0. -1.
<scales pt_clust_3="152.96754" pt_clust_4="90.00060" pt_clust_5="50.21348" pt_clust_6="14000.00000"></scales>
<clustering>
<clus scale="   50.213">  1  5  2 -1</clus>
<clus scale="   90.001">  2  4  1 -1</clus>
<clus scale="  152.968">  1  3  2 -1</clus>
<clus scale="   50.213">  1  3  2 -1</clus>
</clustering>
</event>
<event>
 6    0  0.8520634E+002  0.7516135E+02  0.7546771E-02  0.1343372E+00
         21   -1    0    0  506  501  0.00000000000E+00  0.00000000000E+00  0.57462762922E+03  0.57462762922E+03  0.00000000000E+00 0. -1.
         21   -1    0    0  503  502 -0.00000000000E+00 -0.00000000000E+00 -0.30804358633E+03  0.30804358633E+03  0.00000000000E+00 0.  1.
         21    1    1    2  503  504  0.78242516648E+02  0.44472427903E+02 -0.60703701431E+02  0.10855702475E+03  0.00000000000E+00 0.  1.
         21    1    1    2  504  505  0.21079448625E+02 -0.96703938597E+02  0.22984581669E+03  0.25025006363E+03  0.00000000000E+00 0. -1.
         21    1    1    2  505  501 -0.60448861619E+02  0.32928621435E+02  0.30456272140E+03  0.31224479219E+03  0.00000000000E+00 0. -1.
         21    1    1    2  506  502 -0.38873103655E+02  0.19302889259E+02 -0.20712079378E+03  0.21161933498E+03  0.00000000000E+00 0.  1.
<scales pt_clust_3="75.16135" pt_clust_4="14000.00000" pt_clust_5="70.52405" pt_clust_6="43.40184"></scales>
<clustering>
<clus scale="   43.402">  2  6  1 -1</clus>
<clus scale="   70.524">  1  5  2 -1</clus>
<clus scale="   75.161">  2  3  1 -1</clus>
<clus scale="   70.524">  1  3  2 -1</clus>
</clustering>
</event>
<event>
 6    0  0.8520634E+002  0.1603157E+03  0.7546771E-02  0.1188341E+00
         21   -1    0    0  503  501  0.00000000000E+00  0.00000000000E+00  0.12493233347E+03  0.12493233347E+03  0.00000000000E+00 0. -1.
         21   -1    0    0  506  502 -0.00000000000E+00 -0.00000000000E+00 -0.91559425015E+03  0.91559425015E+03  0.00000000000E+00 0.  1.
         21    1    1    2  503  504 -0.60235283174E+02  0.12987730056E+03 -0.64247310712E+03  0.65823103536E+03  0.00000000000E+00 0.  1.
         21    1    1    2  504  502  0.23690018600E+02  0.32741667648E+02 -0.19083591867E+03  0.19506814614E+03  0.00000000000E+00 0.  1.
         21    1    1    2  505  501 -0.95834111333E+01 -0.28673877773E+02  0.33708340082E+02  0.45280075382E+02  0.00000000000E+00 0. -1.
         21    1    1    2  506  505  0.46128675707E+02 -0.13394509044E+03  0.89387690318E+01  0.14194732673E+03  0.00000000000E+00 0. -1.
<scales pt_clust_3="160.31568" pt_clust_4="39.69941" pt_clust_5="30.23298" pt_clust_6="14000.00000"></scales>
<clustering>
<clus scale="   30.233">  1  5  2 -1</clus>
<clus scale="   39.699">  2  4  1 -1</clus>
<clus scale="  160.316">  2  3  1 -1</clus>
<clus scale="   30.233">  1  3  2 -1</clus>
</clustering>
</event>
<event>
 6    0  0.8520634E+002  0.7550278E+02  0.7546771E-02  0.1342321E+00
         21   -1    0    0  505  501  0.00000000000E+00  0.00000000000E+00  0.36039120202E+03  0.36039120202E+03  0.00000000000E+00 0. -1.
         21   -1    0    0  503  502 -0.00000000000E+00 -0.00000000000E+00 -0.10752711577E+04  0.10752711577E+04  0.00000000000E+00 0. -1.
         21    1    1    2  503  506  0.37372280328E+02  0.21112872264E+02  0.10001725478E+02  0.44073520675E+02  0.00000000000E+00 0. -1.
         21    1    1    2  504  502  0.26638655912E+02  0.28831532687E+02 -0.10314426760E+04  0.10321893572E+04  0.00000000000E+00 0. -1.
         21    1    1    2  505  504 -0.72137672783E+02  0.38481526892E+02  0.22280629171E+03  0.23733376366E+03  0.00000000000E+00 0. -1.
         21    1    1    2  506  501  0.81267365428E+01 -0.88425931843E+02  0.83754703091E+02  0.12206571820E+03  0.00000000000E+00 0. -1.
<scales pt_clust_3="57.76774" pt_clust_4="39.25398" pt_clust_5="75.50278" pt_clust_6="14000.00000"></scales>
<clustering>
<clus scale="   39.254">  2  4  1 -1</clus>
<clus scale="   57.768">  2  3  1 -1</clus>
<clus scale="   75.503">  1  5  2 -1</clus>
<clus scale="   75.503">  1  3  2 -1</clus>
</clustering>
</event>
<event>
 6    0  0.8520634E+002  0.2296836E+03  0.7546771E-02  0.1126863E+00
         21   -1    0    0  506  501  0.00000000000E+00  0.00000000000E+00  0.71792008279E+03  0.71792008279E+03  0.00000000000E+00 0.  1.
         21   -1    0    0  505  502 -0.00000000000E+00 -0.00000000000E+00 -0.10990087085E+03  0.10990087085E+03  0.00000000000E+00 0.  1.
         21    1    1    2  503  504 -0.12475109088E+03 -0.52661077258E+01  0.48357402208E+02  0.13389923419E+03  0.00000000000E+00 0.  1.
         21    1    1    2  504  501 -0.70713279073E+02  0.69636655857E+02  0.61876014870E+02  0.11695414868E+03  0.00000000000E+00 0.  1.
         21    1    1    2  505  503 -0.14460061218E+02 -0.30604530552E+02 -0.19245027113E+01  0.33903309152E+02  0.00000000000E+00 0.  1.
         21    1    1    2  506  502  0.20992443117E+03 -0.33766017580E+02  0.49971029758E+03  0.54306426162E+03  0.00000000000E+00 0.  1.
<scales pt_clust_3="78.16598" pt_clust_4="78.16598" pt_clust_5="33.84864" pt_clust_6="210.54316"></scales>
<clustering>
<clus scale="   33.849">  2  5  1 -1</clus>
<clus scale="   78.166">  3  4 -1 -1</clus>
<clus scale="  210.543">  1  6  2 -1</clus>
<clus scale="  210.543">  1  3  2 -1</clus>
</clustering>
</event>
<event>
 6    0  0.8520634E+002  0.8471348E+02  0.7546771E-02  0.1316184E+00
         21   -1    0    0  505  501  0.00000000000E+00  0.00000000000E+00  0.37264015186E+03  0.37264015186E+03  0.00000000000E+00 0. -1.
         21   -1    0    0  504  502 -0.00000000000E+00 -0.00000000000E+00 -0.94427704423E+02  0.94427704423E+02  0.00000000000E+00 0. -1.
         21    1    1    2  503  502  0.44813293351E+02  0.64086207316E+01 -0.28607732505E+02  0.53550948075E+02  0.00000000000E+00 0. -1.
         21    1    1    2  504  506 -0.10717504231E+03 -0.54153917977E+02  0.77788439443E+02  0.14307402922E+03  0.00000000000E+00 0. -1.
         21    1    1    2  505  503  0.64817234523E+02 -0.11804845958E+00  0.41688067475E+02  0.77066093689E+02  0.00000000000E+00 0. -1.
         21    1    1    2  506  501 -0.24554855654E+01  0.47863345705E+02  0.18734367302E+03  0.19337678530E+03  0.00000000000E+00 0.  1.
<scales pt_clust_3="45.26921" pt_clust_4="14000.00000" pt_clust_5="84.71348" pt_clust_6="48.22578"></scales>
<clustering>
<clus scale="   45.269">  2  3  1 -1</clus>
<clus scale="   48.226">  1  6  2 -1</clus>
<clus scale="   84.713">  1  5  2 -1</clus>
<clus scale="   48.226">  1  3  2 -1</clus>
</clustering>
</event>
<event>
 6    0  0.8520634E+002  0.1397893E+03  0.7546771E-02  0.1213613E+00
         21   -1    0    0  504  501  0.00000000000E+00  0.00000000000E+00  0.45798762841E+03  0.45798762841E+03  0.00000000000E+00 0. -1.
         21   -1    0    0  506  502 -0.00000000000E+00 -0.00000000000E+00 -0.39021623229E+03  0.39021623229E+03  0.00000000000E+00 0. -1.
         21    1    1    2  503  505  0.70362880236E+01 -0.12494878825E+03  0.75672027564E+02  0.14624624710E+03  0.00000000000E+00 0. -1.
         21    1    1    2  504  502 -0.11996306678E+02 -0.95375644499E+02 -0.60768970320E+02  0.11372463538E+03  0.00000000000E+00 0. -1.
         21    1    1    2  505  501  0.70084379961E+02  0.12918485419E+02  0.27103493612E+03  0.28024746953E+03  0.00000000000E+00 0. -1.
         21    1    1    2  506  503 -0.65124361307E+02  0.20740594733E+03 -0.21816659723E+03  0.30798550870E+03  0.00000000000E+00 0. -1.
<scales pt_clust_3="14000.00000" pt_clust_4="93.51750" pt_clust_5="71.26505" pt_clust_6="139.78933"></scales>
<clustering>
<clus scale="   71.265">  1  5  2 -1</clus>
<clus scale="   93.518">  2  4  1 -1</clus>
<clus scale="  139.789">  2  6  1 -1</clus>
<clus scale="   71.265">  1  3  2 -1</clus>
</clustering>
</event>
<event>
 6    0  0.8520634E+002  0.6990011E+02  0.7546771E-02  0.1360433E+00
         21   -1    0    0  505  501  0.00000000000E+00  0.00000000000E+00  0.17656899733E+03  0.17656899733E+03  0.00000000000E+00 0. -1.
         21   -1    0    0  506  502 -0.00000000000E+00 -0.00000000000E+00 -0.32800784266E+03  0.32800784266E+03  0.00000000000E+00 0.  1.
         21    1    1    2  503  502 -0.14555720945E+02  0.94885308523E+02  0.74668151666E+02  0.12161588572E+03  0.00000000000E+00 0. -1.
         21    1    1    2  504  501 -0.39186933151E+02 -0.73150943754E+02 -0.18745750222E+03  0.20500485711E+03  0.00000000000E+00 0.  1.
         21    1    1    2  505  503  0.15113676413E+02 -0.28746176905E+02  0.61961121643E+02  0.69956747327E+02  0.00000000000E+00 0. -1.
         21    1    1    2  506  504  0.38628977684E+02  0.70118121365E+01 -0.10061061642E+03  0.10799934982E+03  0.00000000000E+00 0.  1.
<scales pt_clust_3="14000.00000" pt_clust_4="69.90011" pt_clust_5="32.47716" pt_clust_6="39.59893"></scales>
<clustering>
<clus scale="   32.477">  1  5  2 -1</clus>
<clus scale="   39.599">  2  6  1 -1</clus>
<clus scale="   69.900">  2  4  1 -1</clus>
<clus scale="   32.477">  1  3  2 -1</clus>
</clustering>
</event>
<event>
 6    0  0.8520634E+002  0.1218122E+03  0.7546771E-02  0.1240137E+00
         21   -1    0    0  503  501  0.00000000000E+00  0.00000000000E+00  0.65679913775E+03  0.65679913775E+03  0.00000000000E+00 0. -1.
         21   -1    0    0  505  502 -0.00000000000E+00 -0.00000000000E+00 -0.14865881247E+03  0.14865881247E+03  0.00000000000E+00 0. -1.
         21    1    1    2  503  504  0.23784613015E+02  0.90607596458E+02 -0.21818377357E+02  0.96184645047E+02  0.00000000000E+00 0. -1.
         21    1    1    2  504  502  0.79420179411E+01  0.34913915842E+02 -0.54299648525E+02  0.65042363105E+02  0.00000000000E+00 0. -1.
         21    1    1    2  505  506 -0.12289080918E+03 -0.11781905069E+03  0.29219775942E+03  0.33817600491E+03  0.00000000000E+00 0. -1.
         21    1    1    2  506  501  0.91164178228E+02 -0.77024616150E+01  0.29206059174E+03  0.30605493715E+03  0.00000000000E+00 0. -1.
<scales pt_clust_3="14000.00000" pt_clust_4="35.80583" pt_clust_5="121.81224" pt_clust_6="91.92243"></scales>
<clustering>
<clus scale="   35.806">  2  4  1 -1</clus>
<clus scale="   91.922">  1  6  2 -1</clus>
<clus scale="  121.812">  1  5  2 -1</clus>
<clus scale="   91.922">  1  3  2 -1</clus>
</clustering>
</event>
<event>
 6    0  0.8520634E+002  0.6147556E+02  0.7546771E-02  0.1391742E+00
         21   -1    0    0  506  501  0.00000000000E+00  0.00000000000E+00  0.34510669859E+03  0.34510669859E+03  0.00000000000E+00 0. -1.
         21   -1    0    0  504  502 -0.00000000000E+00 -0.00000000000E+00 -0.51323480345E+03  0.51323480345E+03  0.00000000000E+00 0. -1.
         21    1    1    2  503  502  0.31720545110E+02 -0.24910196414E+02 -0.33352866552E+03  0.33595845218E+03  0.00000000000E+00 0. -1.
         21    1    1    2  504  505  0.96085598902E+02 -0.35134275219E+02 -0.23503838484E+02  0.10497280617E+03  0.00000000000E+00 0. -1.
         21    1    1    2  505  501 -0.57534748864E+02  0.15304083620E+02  0.28446970280E+03  0.29063288546E+03  0.00000000000E+00 0. -1.
         21    1    1    2  506  503 -0.70271395148E+02  0.44740388013E+02 -0.95565303660E+02  0.12677735823E+03  0.00000000000E+00 0. -1.
<scales pt_clust_3="40.33250" pt_clust_4="14000.00000" pt_clust_5="61.47556" pt_clust_6="58.35962"></scales>
<clustering>
<clus scale="   40.333">  2  3  1 -1</clus>
<clus scale="   58.360">  2  6  1 -1</clus>
<clus scale="   61.476">  1  5  2 -1</clus>
<clus scale="   61.476">  1  3  2 -1</clus>
</clustering>
</event>
<event>
 6    0  0.8520634E+002  0.2293746E+03  0.7546771E-02  0.1127081E+00
         21   -1    0    0  506  501  0.00000000000E+00  0.00000000000E+00  0.24564605590E+04  0.24564605590E+04  0.00000000000E+00 0.  1.
         21   -1    0    0  505  502 -0.00000000000E+00 -0.00000000000E+00 -0.85871375714E+02  0.85871375714E+02  0.00000000000E+00 0. -1.
         21    1    1    2  503  504 -0.53281332519E+02  0.80748106705E+02  0.12065312908E+01  0.96750260202E+02  0.00000000000E+00 0. -1.
         21    1    1    2  504  502 -0.13182576207E+02  0.82843170678E+02  0.21555280761E+03  0.23130020345E+03  0.00000000000E+00 0. -1.
         21    1    1    2  505  501 -0.12536576869E+03 -0.32035031696E+00  0.15366780356E+03  0.19831911767E+03  0.00000000000E+00 0.  1.
         21    1    1    2  506  503  0.19182967742E+03 -0.16327092707E+03  0.20001620409E+04  0.20159623534E+04  0.00000000000E+00 0.  1.
<scales pt_clust_3="229.37464" pt_clust_4="83.88547" pt_clust_5="131.24062" pt_clust_6="14000.00000"></scales>
<clustering>
<clus scale="   83.885">  2  4  1 -1</clus>
<clus scale="  131.241">  2  5  1 -1</clus>
<clus scale="  229.375">  2  3  1 -1</clus>
<clus scale="  229.375">  1  3  2 -1</clus>
</clustering>
</event>
<event>
 6    0  0.8520634E+002  0.1452345E+03  0.7546771E-02  0.1206454E+00
         21   -1    0    0  505  501  0.00000000000E+00  0.00000000000E+00  0.50911232496E+03  0.50911232496E+03  0.00000000000E+00 0.  1.
         21   -1    0    0  503  502 -0.00000000000E+00 -0.00000000000E+00 -0.50799444468E+03  0.50799444468E+03  0.00000000000E+00 0.  1.
         21    1    1    2  503  504 -0.12398566974E+02  0.42709161545E+02 -0.36188946320E+03  0.36461182169E+03  0.00000000000E+00 0.  1.
         21    1    1    2  504  501  0.30274499482E+02  0.14463452109E+03  0.14186768060E+03  0.20484659824E+03  0.00000000000E+00 0.  1.
         21    1    1    2  505  506  0.28335210781E+02 -0.22431919133E+02  0.26773168691E+03  0.27015982555E+03  0.00000000000E+00 0.  1.
         21    1    1    2  506  502 -0.46211143288E+02 -0.16491176350E+03 -0.46592024024E+02  0.17748852416E+03  0.00000000000E+00 0.  1.
<scales pt_clust_3="44.30572" pt_clust_4="14000.00000" pt_clust_5="36.13966" pt_clust_6="145.23454"></scales>
<clustering>
<clus scale="   36.140">  1  5  2 -1</clus>
<clus scale="   44.306">  2  3  1 -1</clus>
<clus scale="  145.235">  2  6  1 -1</clus>
<clus scale="   36.140">  1  3  2 -1</clus>
</clustering>
</event>
<event>
 6    0  0.8520634E+002  0.1325147E+03  0.7546771E-02  0.1223771E+00
         21   -1    0    0  503  501  0.00000000000E+00  0.00000000000E+00  0.55669419862E+03  0.55669419862E+03  0.00000000000E+00 0.  1.
         21   -1    0    0  504  502 -0.00000000000E+00 -0.00000000000E+00 -0.36531102466E+03  0.36531102466E+03  0.00000000000E+00 0. -1.
         21    1    1    2  503  506 -0.11308248147E+03 -0.22601140302E+02  0.38617800124E+03  0.40302842059E+03  0.00000000000E+00 0.  1.
         21    1    1    2  504  505  0.11314776083E+00  0.57523911710E+02 -0.33739576121E+02  0.66688621351E+02  0.00000000000E+00 0. -1.
         21    1    1    2  505  501  0.45946145739E+01 -0.60348799099E+02  0.12851769395E+03  0.14205592453E+03  0.00000000000E+00 0. -1.
         21    1    1    2  506  502  0.10837471914E+03  0.25426027691E+02 -0.28957294511E+03  0.31023225682E+03  0.00000000000E+00 0. -1.
<scales pt_clust_3="132.51468" pt_clust_4="57.52402" pt_clust_5="59.29151" pt_clust_6="14000.00000"></scales>
<clustering>
<clus scale="   57.524">  2  4  1 -1</clus>
<clus scale="   59.292">  1  5  2 -1</clus>
<clus scale="  132.515">  1  3  2 -1</clus>
<clus scale="   59.292">  1  3  2 -1</clus>
</clustering>
</event>
<event>
 6    0  0.8520634E+002  0.1490485E+03  0.7546771E-02  0.1201647E+00
         21   -1    0    0  504  501  0.00000000000E+00  0.00000000000E+00  0.51075105992E+02  0.51075105992E+02  0.00000000000E+00 0. -1.
         21   -1    0    0  505  502 -0.00000000000E+00 -0.00000000000E+00 -0.20978227061E+04  0.20978227061E+04  0.00000000000E+00 0. -1.
         21    1    1    2  503  501  0.22454730603E+02  0.25535198445E+02 -0.60753515342E+02  0.69622201291E+02  0.00000000000E+00 0. -1.
         21    1    1    2  504  506  0.24061718981E+01 -0.17274323818E+03 -0.13743550595E+03  0.22075899596E+03  0.00000000000E+00 0. -1.
         21    1    1    2  505  503 -0.62655551668E+02  0.11842184345E+03 -0.15896151783E+04  0.15952510355E+04  0.00000000000E+00 0. -1.
         21    1    1    2  506  502  0.37794649167E+02  0.28786196278E+02 -0.25894340055E+03  0.26326557939E+03  0.00000000000E+00 0. -1.
<scales pt_clust_3="34.00384" pt_clust_4="149.04852" pt_clust_5="14000.00000" pt_clust_6="49.05432"></scales>
<clustering>
<clus scale="   34.004">  1  3  2 -1</clus>
<clus scale="   49.054">  2  6  1 -1</clus>
<clus scale="  149.049">  1  4  2 -1</clus>
<clus scale="   34.004">  1  3  2 -1</clus>
</clustering>
</event>
<event>
 6    0  0.8520634E+002  0.2138225E+03  0.7546771E-02  0.1138574E+00
         21   -1    0    0  504  501  0.00000000000E+00  0.00000000000E+00  0.19646035927E+04  0.19646035927E+04  0.00000000000E+00 0. -1.
         21   -1    0    0  503  502 -0.00000000000E+00 -0.00000000000E+00 -0.18287763674E+04  0.18287763674E+04  0.00000000000E+00 0. -1.
         21    1    1    2  503  506 -0.95298004140E+02  0.95079973470E+02 -0.17143884465E+04  0.17196655652E+04  0.00000000000E+00 0. -1.
         21    1    1    2  504  505  0.70509419470E+02  0.28088027347E+01  0.32787395854E+03  0.33538157417E+03  0.00000000000E+00 0. -1.
         21    1    1    2  505  502  0.28895460770E+03 -0.75592763362E+02  0.13832510947E+03  0.32915477681E+03  0.00000000000E+00 0. -1.
         21    1    1    2  506  501 -0.26416602303E+03 -0.22296012842E+02  0.13840166038E+04  0.14091780439E+04  0.00000000000E+00 0. -1.
<scales pt_clust_3="134.54023" pt_clust_4="70.56534" pt_clust_5="14000.00000" pt_clust_6="213.82251"></scales>
<clustering>
<clus scale="   70.565">  1  4  2 -1</clus>
<clus scale="  134.540">  2  3  1 -1</clus>
<clus scale="  213.823">  1  6  2 -1</clus>
<clus scale="   70.565">  1  3  2 -1</clus>
</clustering>
</event>
<event>
 6    0  0.8520634E+002  0.1679964E+03  0.7546771E-02  0.1179953E+00
         21   -1    0    0  504  501  0.00000000000E+00  0.00000000000E+00  0.15020522471E+03  0.15020522471E+03  0.00000000000E+00 0.  1.
         21   -1    0    0  503  502 -0.00000000000E+00 -0.00000000000E+00 -0.14576643122E+04  0.14576643122E+04  0.00000000000E+00 0.  1.
         21    1    1    2  503  505  0.17455153203E+03 -0.18253610838E+02 -0.11624751509E+04  0.11756487180E+04  0.00000000000E+00 0.  1.
         21    1    1    2  504  502 -0.32623999855E+02  0.97986533912E+02 -0.20451129686E+03  0.22910817694E+03  0.00000000000E+00 0.  1.
         21    1    1    2  505  506 -0.10957574665E+03 -0.49287833477E+02 -0.10041685324E+02  0.12056935857E+03  0.00000000000E+00 0.  1.
         21    1    1    2  506  501 -0.32351785522E+02 -0.30445089597E+02  0.69569045673E+02  0.82543283330E+02  0.00000000000E+00 0.  1.
<scales pt_clust_3="167.99645" pt_clust_4="100.40167" pt_clust_5="14000.00000" pt_clust_6="44.42456"></scales>
<clustering>
<clus scale="   44.425">  1  6  2 -1</clus>
<clus scale="  100.402">  1  4  2 -1</clus>
<clus scale="  167.996">  2  3  1 -1</clus>
<clus scale="   44.425">  1  3  2 -1</clus>
</clustering>
</event>
<event>
 6    0  0.8520634E+002  0.1184647E+03  0.7546771E-02  0.1245651E+00
         21   -1    0    0  505  501  0.00000000000E+00  0.00000000000E+00  0.66820151129E+03  0.66820151129E+03  0.00000000000E+00 0.  1.
         21   -1    0    0  506  502 -0.00000000000E+00 -0.00000000000E+00 -0.32688588160E+03  0.32688588160E+03  0.00000000000E+00 0.  1.
         21    1    1    2  503  501 -0.63950392725E+02  0.87547280066E+02  0.43070562694E+02  0.11665870026E+03  0.00000000000E+00 0.  1.
         21    1    1    2  504  502  0.50741406250E+02  0.37853680350E+02  0.26672488782E+02  0.68695073201E+02  0.00000000000E+00 0.  1.
         21    1    1    2  505  504  0.33572772377E+02 -0.15210144151E+01  0.52544368180E+03  0.52651733806E+03  0.00000000000E+00 0.  1.
         21    1    1    2  506  503 -0.20363785901E+02 -0.12387994600E+03 -0.25387110358E+03  0.28321628137E+03  0.00000000000E+00 0.  1.
<scales pt_clust_3="14000.00000" pt_clust_4="72.37585" pt_clust_5="33.60721" pt_clust_6="118.46473"></scales>
<clustering>
<clus scale="   33.607">  1  5  2 -1</clus>
<clus scale="   72.376">  1  4  2 -1</clus>
<clus scale="  118.465">  2  6  1 -1</clus>
<clus scale="   33.607">  1  3  2 -1</clus>
</clustering>
</event>
<event>
 6    0  0.8520634E+002  0.1013862E+03  0.7546771E-02  0.1277408E+00
         21   -1    0    0  505  501  0.00000000000E+00  0.00000000000E+00  0.47397861644E+03  0.47397861644E+03  0.00000000000E+00 0.  1.
         21   -1    0    0  506  502 -0.00000000000E+00 -0.00000000000E+00 -0.60228437567E+03  0.60228437567E+03  0.00000000000E+00 0. -1.
         21    1    1    2  503  502  0.93296478118E-01  0.31166342766E+02 -0.40254367836E+03  0.40374839023E+03  0.00000000000E+00 0. -1.
         21    1    1    2  504  501 -0.62435021386E+02  0.29547035736E+02  0.38171155125E+03  0.38791090159E+03  0.00000000000E+00 0.  1.
         21    1    1    2  505  503 -0.40358747605E+02  0.61697869550E+02 -0.10052915155E+03  0.12466581700E+03  0.00000000000E+00 0.  1.
         21    1    1    2  506  504  0.10270047251E+03 -0.12241124805E+03 -0.69444805662E+01  0.15993788330E+03  0.00000000000E+00 0.  1.
<scales pt_clust_3="31.16648" pt_clust_4="69.28117" pt_clust_5="14000.00000" pt_clust_6="101.38620"></scales>
<clustering>
<clus scale="   31.166">  2  3  1 -1</clus>
<clus scale="   69.281">  1  4  2 -1</clus>
<clus scale="  101.386">  1  6  2 -1</clus>
<clus scale="   69.281">  1  3  2 -1</clus>
</clustering>
</event>
<event>
 6    0  0.8520634E+002  0.1525174E+03  0.7546771E-02  0.1197413E+00
         21   -1    0    0  505  501  0.00000000000E+00  0.00000000000E+00  0.56249387356E+03  0.56249387356E+03  0.00000000000E+00 0. -1.
         21   -1    0    0  504  502 -0.00000000000E+00 -0.00000000000E+00 -0.22852466798E+03  0.22852466798E+03  0.00000000000E+00 0.  1.
         21    1    1    2  503  502 -0.37242049852E+02  0.18585753164E+02 -0.10830558362E+03  0.11602801361E+03  0.00000000000E+00 0.  1.
         21    1    1    2  504  506  0.13536793040E+01 -0.15936600183E+03 -0.20623610716E+02  0.16070061700E+03  0.00000000000E+00 0. -1.
         21    1    1    2  505  503  0.64401596951E+02  0.16856394861E+03  0.33732195349E+03  0.38255387956E+03  0.00000000000E+00 0. -1.
         21    1    1    2  506  501 -0.28513226403E+02 -0.27783699943E+02  0.12557644643E+03  0.13173603137E+03  0.00000000000E+00 0.  1.
<scales pt_clust_3="41.74010" pt_clust_4="152.51738" pt_clust_5="14000.00000" pt_clust_6="39.81128"></scales>
<clustering>
<clus scale="   39.811">  1  6  2 -1</clus>
<clus scale="   41.740">  2  3  1 -1</clus>
<clus scale="  152.517">  2  4  1 -1</clus>
<clus scale="   39.811">  1  3  2 -1</clus>
</clustering>
</event>
<event>
 6    0  0.8520634E+002  0.8940701E+02  0.7546771E-02  0.1304294E+00
         21   -1    0    0  505  501  0.00000000000E+00  0.00000000000E+00  0.44096692735E+03  0.44096692735E+03  0.00000000000E+00 0.  1.
         21   -1    0    0  503  502 -0.00000000000E+00 -0.00000000000E+00 -0.56907315658E+03  0.56907315658E+03  0.00000000000E+00 0. -1.
         21    1    1    2  503  506 -0.54497342555E+01 -0.51696737895E+02  0.15841187079E+02  0.54343311645E+02  0.00000000000E+00 0. -1.
         21    1    1    2  504  502 -0.79837140768E+02 -0.40222898501E+02 -0.53298568379E+03  0.54043092966E+03  0.00000000000E+00 0. -1.
         21    1    1    2  505  504  0.77876447774E+02  0.46028179711E+02  0.31596385843E+03  0.32865862879E+03  0.00000000000E+00 0.  1.
         21    1    1    2  506  501  0.74104272488E+01  0.45891456684E+02  0.73074409057E+02  0.86607213832E+02  0.00000000000E+00 0.  1.
<scales pt_clust_3="47.47345" pt_clust_4="89.40701" pt_clust_5="14000.00000" pt_clust_6="46.48591"></scales>
<clustering>
<clus scale="   46.486">  1  6  2 -1</clus>
<clus scale="   47.473">  1  3  2 -1</clus>
<clus scale="   89.407">  2  4  1 -1</clus>
<clus scale="   46.486">  1  3  2 -1</clus>
</clustering>
</event>
<event>
 6    0  0.8520634E+002  0.9554028E+02  0.7546771E-02  0.1289964E+00
         21   -1    0    0  503  501  0.00000000000E+00  0.00000000000E+00  0.10659187322E+04  0.10659187322E+04  0.00000000000E+00 0.  1.
         21   -1    0    0  505  502 -0.00000000000E+00 -0.00000000000E+00 -0.57195334665E+02  0.57195334665E+02  0.00000000000E+00 0.  1.
         21    1    1    2  503  502 -0.70075618222E+02 -0.55907119120E+01  0.26573865639E+03  0.27487975885E+03  0.00000000000E+00 0.  1.
         21    1    1    2  504  506 -0.18258888661E+02 -0.62904689201E+02 -0.32806907875E+01  0.65583152339E+02  0.00000000000E+00 0.  1.
         21    1    1    2  505  504 -0.29694480832E+02  0.11885634170E+02  0.81349350471E+01  0.33003146210E+02  0.00000000000E+00 0. -1.
         21    1    1    2  506  501  0.11802898771E+03  0.56609766943E+02  0.73813049689E+03  0.74964800946E+03  0.00000000000E+00 0.  1.
<scales pt_clust_3="95.54028" pt_clust_4="67.67291" pt_clust_5="31.98485" pt_clust_6="14000.00000"></scales>
<clustering>
<clus scale="   31.985">  2  5  1 -1</clus>
<clus scale="   67.673">  2  4  1 -1</clus>
<clus scale="   95.540">  1  3  2 -1</clus>
<clus scale="   95.540">  1  3  2 -1</clus>
</clustering>
</event>
<event>
 6    0  0.8520634E+002  0.1065186E+03  0.7546771E-02  0.1267156E+00
         21   -1    0    0  505  501  0.00000000000E+00  0.00000000000E+00  0.26238663684E+04  0.26238663684E+04  0.00000000000E+00 0.  1.
         21   -1    0    0  503  502 -0.00000000000E+00 -0.00000000000E+00 -0.42203080722E+02  0.42203080722E+02  0.00000000000E+00 0.  1.
         21    1    1    2  503  504 -0.31755376710E+02  0.90323436657E+02  0.82296488280E+02  0.12625149165E+03  0.00000000000E+00 0. -1.
         21    1    1    2  504  506  0.35654253804E+02 -0.75246258705E+02  0.73987280044E+03  0.74454347495E+03  0.00000000000E+00 0.  1.
         21    1    1    2  505  502 -0.41245427746E+02 -0.31831683647E+00  0.64231766831E+01  0.41743787972E+02  0.00000000000E+00 0.  1.
         21    1    1    2  506  501  0.37346550651E+02 -0.14758861115E+02  0.17530708223E+04  0.17535306945E+04  0.00000000000E+00 0.  1.
<scales pt_clust_3="106.51863" pt_clust_4="14000.00000" pt_clust_5="40.21883" pt_clust_6="40.15705"></scales>
<clustering>
<clus scale="   40.157">  1  6  2 -1</clus>
<clus scale="   40.219">  2  5  1 -1</clus>
<clus scale="  106.519">  2  3  1 -1</clus>
<clus scale="   40.157">  1  3  2 -1</clus>
</clustering>
</event>
<event>
 6    0  0.8520634E+002  0.7288443E+02  0.7546771E-02  0.1350550E+00
         21   -1    0    0  505  501  0.00000000000E+00  0.00000000000E+00  0.28623914906E+03  0.28623914906E+03  0.00000000000E+00 0.  1.
         21   -1    0    0  504  502 -0.00000000000E+00 -0.00000000000E+00 -0.57642001029E+03  0.57642001029E+03  0.00000000000E+00 0.  1.
         21    1    1    2  503  506  0.14580835412E+02  0.68580855000E+02 -0.49838230114E+01  0.70290631848E+02  0.00000000000E+00 0.  1.
         21    1    1    2  504  501 -0.28257082547E+02 -0.99848961610E+02 -0.13243115132E+03  0.16824472559E+03  0.00000000000E+00 0.  1.
         21    1    1    2  505  503 -0.22533719713E+02 -0.26586416192E+02  0.23136573214E+03  0.23397587068E+03  0.00000000000E+00 0.  1.
         21    1    1    2  506  502  0.36209966848E+02  0.57854522802E+02 -0.38413161903E+03  0.39014793123E+03  0.00000000000E+00 0.  1.
<scales pt_clust_3="52.38152" pt_clust_4="14000.00000" pt_clust_5="34.85120" pt_clust_6="72.88443"></scales>
<clustering>
<clus scale="   34.851">  1  5  2 -1</clus>
<clus scale="   52.382">  1  3  2 -1</clus>
<clus scale="   72.884">  2  6  1 -1</clus>
<clus scale="   34.851">  1  3  2 -1</clus>
</clustering>
</event>
<event>
 6    0  0.8520634E+002  0.9823383E+02  0.7546771E-02  0.1284054E+00
         21   -1    0    0  505  501  0.00000000000E+00  0.00000000000E+00  0.52148426660E+03  0.52148426660E+03  0.00000000000E+00 0. -1.
         21   -1    0    0  504  502 -0.00000000000E+00 -0.00000000000E+00 -0.36529444025E+03  0.36529444025E+03  0.00000000000E+00 0.  1.
         21    1    1    2  503  501  0.30013649771E+02 -0.48224227139E+01  0.66016995453E+02  0.72679561240E+02  0.00000000000E+00 0.  1.
         21    1    1    2  504  506  0.11666285971E+03 -0.88190073962E+02  0.97505802695E+02  0.17577000182E+03  0.00000000000E+00 0. -1.
         21    1    1    2  505  502 -0.93280985736E+02  0.23657674801E+02 -0.30930381723E+03  0.32392881816E+03  0.00000000000E+00 0.  1.
         21    1    1    2  506  503 -0.53395523740E+02  0.69354821876E+02  0.30197084543E+03  0.31440032564E+03  0.00000000000E+00 0. -1.
<scales pt_clust_3="30.39860" pt_clust_4="14000.00000" pt_clust_5="98.23383" pt_clust_6="73.82298"></scales>
<clustering>
<clus scale="   30.399">  1  3  2 -1</clus>
<clus scale="   73.823">  1  6  2 -1</clus>
<clus scale="   98.234">  2  5  1 -1</clus>
<clus scale="   30.399">  1  3  2 -1</clus>
</clustering>
</event>
<event>
 6    0  0.8520634E+002  0.9153119E+02  0.7546771E-02  0.1299185E+00
         21   -1    0    0  505  501  0.00000000000E+00  0.00000000000E+00  0.52312178932E+03  0.52312178932E+03  0.00000000000E+00 0.  1.
         21   -1    0    0  503  502 -0.00000000000E+00 -0.00000000000E+00 -0.46149013836E+02  0.46149013836E+02  0.00000000000E+00 0.  1.
         21    1    1    2  503  506  0.44743515252E+02 -0.79539129835E+02  0.52341858742E+02  0.10520515913E+03  0.00000000000E+00 0.  1.
         21    1    1    2  504  501  0.18003377623E+02 -0.28319026247E+02  0.73084209668E+02  0.80420088014E+02  0.00000000000E+00 0.  1.
         21    1    1    2  505  502 -0.49543990405E+02  0.10924713314E+02  0.77200894892E+02  0.92379297023E+02  0.00000000000E+00 0.  1.
         21    1    1    2  506  504 -0.13202902470E+02  0.96933442768E+02  0.27434581218E+03  0.29126625898E+03  0.00000000000E+00 0.  1.
<scales pt_clust_3="91.53119" pt_clust_4="33.55725" pt_clust_5="46.45632" pt_clust_6="14000.00000"></scales>
<clustering>
<clus scale="   33.557">  1  4  2 -1</clus>
<clus scale="   46.456">  1  5  2 -1</clus>
<clus scale="   91.531">  2  3  1 -1</clus>
<clus scale="   33.557">  1  3  2 -1</clus>
</clustering>
</event>
<event>
 6    0  0.8520634E+002  0.8999952E+02  0.7546771E-02  0.1302853E+00
         21   -1    0    0  506  501  0.00000000000E+00  0.00000000000E+00  0.38981166979E+03  0.38981166979E+03  0.00000000000E+00 0. -1.
         21   -1    0    0  503  502 -0.00000000000E+00 -0.00000000000E+00 -0.11677316832E+04  0.11677316832E+04  0.00000000000E+00 0. -1.
         21    1    1    2  503  505 -0.38121533011E+02  0.12063599797E+02 -0.91609810991E+03  0.91697029871E+03  0.00000000000E+00 0. -1.
         21    1    1    2  504  501 -0.17119159745E+02  0.85216634892E+02  0.32088915137E+03  0.33245268529E+03  0.00000000000E+00 0. -1.
         21    1    1    2  505  504 -0.61782182894E+01  0.68335984060E+02 -0.72996484994E+02  0.10018215370E+03  0.00000000000E+00 0. -1.
         21    1    1    2  506  502  0.61418911046E+02 -0.16561621875E+03 -0.10971456992E+03  0.20793821534E+03  0.00000000000E+00 0. -1.
<scales pt_clust_3="39.98477" pt_clust_4="89.99952" pt_clust_5="75.02438" pt_clust_6="14000.00000"></scales>
<clustering>
<clus scale="   39.985">  2  3  1 -1</clus>
<clus scale="   75.024">  2  5  1 -1</clus>
<clus scale="   90.000">  1  4  2 -1</clus>
<clus scale="   90.000">  1  3  2 -1</clus>
</clustering>
</event>
<event>
 6    0  0.8520634E+002  0.9882330E+02  0.7546771E-02  0.1282790E+00
         21   -1    0    0  503  501  0.00000000000E+00  0.00000000000E+00  0.52073747593E+02  0.52073747593E+02  0.00000000000E+00 0.  1.
         21   -1    0    0  504  502 -0.00000000000E+00 -0.00000000000E+00 -0.12785820976E+04  0.12785820976E+04  0.00000000000E+00 0.  1.
         21    1    1    2  503  505  0.19979337876E+02 -0.78915310843E+02 -0.96719527386E+02  0.12641782788E+03  0.00000000000E+00 0.  1.
         21    1    1    2  504  506 -0.84366369585E+02  0.37567434992E+02 -0.10035452666E+04  0.10077857405E+04  0.00000000000E+00 0.  1.
         21    1    1    2  505  502 -0.35899218801E+01  0.36274637582E+02 -0.12291372327E+03  0.12820499303E+03  0.00000000000E+00 0. -1.
         21    1    1    2  506  501  0.67976953590E+02  0.50732382683E+01 -0.33298327371E+01  0.68247283843E+02  0.00000000000E+00 0.  1.
<scales pt_clust_3="98.82330" pt_clust_4="14000.00000" pt_clust_5="36.45184" pt_clust_6="68.14807"></scales>
<clustering>
<clus scale="   36.452">  2  5  1 -1</clus>
<clus scale="   68.148">  1  6  2 -1</clus>
<clus scale="   98.823">  1  3  2 -1</clus>
<clus scale="   68.148">  1  3  2 -1</clus>
</clustering>
</event>
<event>
 6    0  0.8520634E+002  0.1402402E+03  0.7546771E-02  0.1213006E+00
         21   -1    0    0  503  501  0.00000000000E+00  0.00000000000E+00  0.54004104137E+03  0.54004104137E+03  0.00000000000E+00 0. -1.
         21   -1    0    0  506  502 -0.00000000000E+00 -0.00000000000E+00 -0.90934474535E+02  0.90934474535E+02  0.00000000000E+00 0. -1.
         21    1    1    2  503  505  0.56425076177E+02 -0.28635706191E+02  0.50834946507E+02  0.81166401159E+02  0.00000000000E+00 0. -1.
         21    1    1    2  504  501 -0.31976385920E+02  0.14890414189E+03  0.23075399319E+03  0.27648207555E+03  0.00000000000E+00 0. -1.
         21    1    1    2  505  502  0.51703514664E+02  0.70572805127E+01  0.37014259997E+01  0.52314043920E+02  0.00000000000E+00 0. -1.
         21    1    1    2  506  504 -0.76152204922E+02 -0.12732571621E+03  0.16381620114E+03  0.22101299527E+03  0.00000000000E+00 0. -1.
<scales pt_clust_3="121.83109" pt_clust_4="140.24018" pt_clust_5="47.05982" pt_clust_6="14000.00000"></scales>
<clustering>
<clus scale="   47.060">  3  5 -1 -1</clus>
<clus scale="  121.831">  2  3  1 -1</clus>
<clus scale="  140.240">  1  4  2 -1</clus>
<clus scale="  140.240">  1  3  2 -1</clus>
</clustering>
</event>
<event>
 6    0  0.8520634E+002  0.9548661E+02  0.7546771E-02  0.1290084E+00
         21   -1    0    0  505  501  0.00000000000E+00  0.00000000000E+00  0.72731837414E+03  0.72731837414E+03  0.00000000000E+00 0. -1.
         21   -1    0    0  506  502 -0.00000000000E+00 -0.00000000000E+00 -0.47035233874E+02  0.47035233874E+02  0.00000000000E+00 0.  1.
         21    1    1    2  503  501  0.23312823251E+02  0.21374991160E+02  0.22444592656E+03  0.22666352138E+03  0.00000000000E+00 0. -1.
         21    1    1    2  504  503 -0.41909051143E+02  0.71499893838E+02  0.33697482543E+03  0.34701676669E+03  0.00000000000E+00 0. -1.
         21    1    1    2  505  502 -0.33170394312E+02  0.15138950741E+02  0.77122018724E+01  0.37268498039E+02  0.00000000000E+00 0. -1.
         21    1    1    2  506  504  0.51766622204E+02 -0.10801383574E+03  0.11115018640E+03  0.16340482190E+03  0.00000000000E+00 0.  1.
<scales pt_clust_3="31.62875" pt_clust_4="14000.00000" pt_clust_5="35.93270" pt_clust_6="95.48661"></scales>
<clustering>
<clus scale="   31.629">  1  3  2 -1</clus>
<clus scale="   35.933">  2  5  1 -1</clus>
<clus scale="   95.487">  2  6  1 -1</clus>
<clus scale="   31.629">  1  3  2 -1</clus>
</clustering>
</event>
<event>
 6    0  0.8520634E+002  0.1298449E+03  0.7546771E-02  0.1227686E+00
         21   -1    0    0  504  501  0.00000000000E+00  0.00000000000E+00  0.30826687602E+02  0.30826687602E+02  0.00000000000E+00 0.  1.
         21   -1    0    0  505  502 -0.00000000000E+00 -0.00000000000E+00 -0.15363433002E+04  0.15363433002E+04  0.00000000000E+00 0. -1.
         21    1    1    2  503  502  0.49992781887E+02 -0.60800316532E+02 -0.12502365135E+03  0.14773919631E+03  0.00000000000E+00 0. -1.
         21    1    1    2  504  503  0.14090445588E+02 -0.45543582869E+02 -0.22148205006E+02  0.52567115028E+02  0.00000000000E+00 0.  1.
         21    1    1    2  505  506  0.12866611251E+02  0.48007606188E+02 -0.66085825426E+03  0.66272461261E+03  0.00000000000E+00 0. -1.
         21    1    1    2  506  501 -0.76949838726E+02  0.58336293213E+02 -0.69748650196E+03  0.70413906382E+03  0.00000000000E+00 0. -1.
<scales pt_clust_3="42.96100" pt_clust_4="42.96100" pt_clust_5="49.70191" pt_clust_6="117.52587"></scales>
<clustering>
<clus scale="   42.961">  3  4 -1 -1</clus>
<clus scale="   49.702">  2  5  1 -1</clus>
<clus scale="  117.526">  2  6  1 -1</clus>
<clus scale="  129.845">  1  3  2 -1</clus>
</clustering>
</event>
<event>
 6    0  0.8520634E+002  0.6910585E+02  0.7546771E-02  0.1363160E+00
         21   -1    0    0  504  501  0.00000000000E+00  0.00000000000E+00  0.13082034599E+03  0.13082034599E+03  0.00000000000E+00 0. -1.
         21   -1    0    0  503  502 -0.00000000000E+00 -0.00000000000E+00 -0.42272547428E+03  0.42272547428E+03  0.00000000000E+00 0. -1.
         21    1    1    2  503  506 -0.40303727088E+02  0.20396872524E+02 -0.24574864607E+03  0.24986560362E+03  0.00000000000E+00 0. -1.
         21    1    1    2  504  502 -0.51401127493E+02 -0.50869643909E+02  0.83362657531E+02  0.11035909228E+03  0.00000000000E+00 0. -1.
         21    1    1    2  505  501 -0.80657252801E+01  0.39244547845E+02 -0.19555114212E+02  0.44582428732E+02  0.00000000000E+00 0. -1.
         21    1    1    2  506  505  0.99770579861E+02 -0.87717764589E+01 -0.10996402554E+03  0.14873869564E+03  0.00000000000E+00 0. -1.
<scales pt_clust_3="45.60786" pt_clust_4="14000.00000" pt_clust_5="40.06483" pt_clust_6="69.10585"></scales>
<clustering>
<clus scale="   40.065">  1  5  2 -1</clus>
<clus scale="   45.608">  2  3  1 -1</clus>
<clus scale="   69.106">  2  6  1 -1</clus>
<clus scale="   40.065">  1  3  2 -1</clus>
</clustering>
</event>
<event>
 6    0  0.1088273E+003  0.7953419E+02  0.7546771E-02  0.1330379E+00
         21   -1    0    0  503  501  0.00000000000E+00  0.00000000000E+00  0.13224850700E+04  0.13224850700E+04  0.00000000000E+00 0. -1.
         21   -1    0    0  506  502 -0.00000000000E+00 -0.00000000000E+00 -0.14956593802E+04  0.14956593802E+04  0.00000000000E+00 0. -1.
         21    1    1    2  503  504 -0.76992396052E+02  0.19830503809E+02  0.12911057100E+04  0.12935513257E+04  0.00000000000E+00 0. -1.
         21    1    1    2  504  502  0.94046837706E+02  0.57565272815E+01 -0.42179806270E+03  0.43219388125E+03  0.00000000000E+00 0. -1.
         21    1    1    2  505  501  0.14685770192E+02 -0.80459966926E+02 -0.45871179699E+02  0.93774427489E+02  0.00000000000E+00 0. -1.
         21    1    1    2  506  505 -0.31740211846E+02  0.54872935836E+02 -0.99661077782E+03  0.99862481574E+03  0.00000000000E+00 0. -1.
<scales pt_clust_3="14000.00000" pt_clust_4="79.53419" pt_clust_5="73.48348" pt_clust_6="63.39148"></scales>
<clustering>
<clus scale="   63.391">  2  6  1 -1</clus>
<clus scale="   73.483">  2  5  1 -1</clus>
<clus scale="   79.534">  2  4  1 -1</clus>
<clus scale="   79.534">  1  3  2 -1</clus>
</clustering>
</event>
<event>
 6    0  0.8520634E+002  0.9561466E+02  0.7546771E-02  0.1289798E+00
         21   -1    0    0  505  501  0.00000000000E+00  0.00000000000E+00  0.24087614888E+03  0.24087614888E+03  0.00000000000E+00 0. -1.
         21   -1    0    0  503  502 -0.00000000000E+00 -0.00000000000E+00 -0.64403983911E+03  0.64403983911E+03  0.00000000000E+00 0.  1.
         21    1    1    2  503  504 -0.98929592016E+02  0.86053712101E+01 -0.16358656278E+03  0.19136791819E+03  0.00000000000E+00 0.  1.
         21    1    1    2  504  506  0.11366683167E+03  0.78299716664E+02  0.17192150185E+03  0.22047221378E+03  0.00000000000E+00 0. -1.
         21    1    1    2  505  502  0.89867210255E+01 -0.31928418267E+02 -0.41186423735E+03  0.41319769489E+03  0.00000000000E+00 0.  1.
         21    1    1    2  506  501 -0.23723960681E+02 -0.54976669608E+02  0.36560805398E+00  0.59878161134E+02  0.00000000000E+00 0.  1.
<scales pt_clust_3="95.61466" pt_clust_4="14000.00000" pt_clust_5="33.16904" pt_clust_6="63.24444"></scales>
<clustering>
<clus scale="   33.169">  2  5  1 -1</clus>
<clus scale="   63.244">  1  6  2 -1</clus>
<clus scale="   95.615">  2  3  1 -1</clus>
<clus scale="   63.244">  1  3  2 -1</clus>
</clustering>
</event>
<event>
 6    0  0.8520634E+002  0.1578699E+03  0.7546771E-02  0.1191123E+00
         21   -1    0    0  503  501  0.00000000000E+00  0.00000000000E+00  0.10991091946E+03  0.10991091946E+03  0.00000000000E+00 0. -1.
         21   -1    0    0  504  502 -0.00000000000E+00 -0.00000000000E+00 -0.90002659928E+03  0.90002659928E+03  0.00000000000E+00 0. -1.
         21    1    1    2  503  505 -0.61483707831E+02  0.32486840453E+01 -0.38588600087E+02  0.72662785064E+02  0.00000000000E+00 0. -1.
         21    1    1    2  504  501  0.23416590126E+02  0.14650024095E+03  0.19787374520E+02  0.14967363656E+03  0.00000000000E+00 0. -1.
         21    1    1    2  505  506 -0.22992087846E+01 -0.67089099997E+02 -0.34612942749E+03  0.35257880576E+03  0.00000000000E+00 0.  1.
         21    1    1    2  506  502  0.40366326490E+02 -0.82659824995E+02 -0.42518502677E+03  0.43502229135E+03  0.00000000000E+00 0. -1.
<scales pt_clust_3="61.56948" pt_clust_4="152.99425" pt_clust_5="33.25709" pt_clust_6="33.25709"></scales>
<clustering>
<clus scale="   33.257">  5  6 -1 -1</clus>
<clus scale="   61.569">  1  3  2 -1</clus>
<clus scale="  152.994">  1  4  2 -1</clus>
<clus scale="   61.569">  1  3  2 -1</clus>
</clustering>
</event>
<event>
 6    0  0.8520634E+002  0.1897335E+03  0.7546771E-02  0.1158702E+00
         21   -1    0    0  506  501  0.00000000000E+00  0.00000000000E+00  0.14134864789E+04  0.14134864789E+04  0.00000000000E+00 0. -1.
         21   -1    0    0  504  502 -0.00000000000E+00 -0.00000000000E+00 -0.17365480226E+03  0.17365480226E+03  0.00000000000E+00 0.  1.
         21    1    1    2  503  501  0.93369715666E+01  0.29701237671E+02  0.19991290090E+03  0.20232278790E+03  0.00000000000E+00 0. -1.
         21    1    1    2  504  505  0.38306083979E+02  0.28791209771E+02 -0.13740225066E+03  0.14551861845E+03  0.00000000000E+00 0.  1.
         21    1    1    2  505  503  0.16421874538E+03  0.48883872496E+01  0.44717127529E+03  0.47639672764E+03  0.00000000000E+00 0.  1.
         21    1    1    2  506  502 -0.21186180093E+03 -0.63380834691E+02  0.73014975113E+03  0.76290314718E+03  0.00000000000E+00 0. -1.
<scales pt_clust_3="31.13427" pt_clust_4="48.00437" pt_clust_5="14000.00000" pt_clust_6="189.73355"></scales>
<clustering>
<clus scale="   31.134">  1  3  2 -1</clus>
<clus scale="   48.004">  2  4  1 -1</clus>
<clus scale="  189.734">  1  6  2 -1</clus>
<clus scale="   31.134">  1  3  2 -1</clus>
</clustering>
</event>
<event>
 6    0  0.8520634E+002  0.1223374E+03  0.7546771E-02  0.1239290E+00
         21   -1    0    0  504  501  0.00000000000E+00  0.00000000000E+00  0.49573995936E+03  0.49573995936E+03  0.00000000000E+00 0. -1.
         21   -1    0    0  503  502 -0.00000000000E+00 -0.00000000000E+00 -0.35348836227E+03  0.35348836227E+03  0.00000000000E+00 0. -1.
         21    1    1    2  503  505 -0.83699863415E+02  0.10797025330E+03  0.15824713974E+03  0.20905836498E+03  0.00000000000E+00 0. -1.
         21    1    1    2  504  506  0.99633496620E+02 -0.32570848962E+02  0.10260855394E+02  0.10532321209E+03  0.00000000000E+00 0.  1.
         21    1    1    2  505  501 -0.34662970487E+02 -0.32637496062E+02  0.25009173251E+03  0.25458319336E+03  0.00000000000E+00 0. -1.
         21    1    1    2  506  502  0.18729337282E+02 -0.42761908276E+02 -0.27634813055E+03  0.28026355120E+03  0.00000000000E+00 0. -1.
<scales pt_clust_3="14000.00000" pt_clust_4="122.33742" pt_clust_5="48.09641" pt_clust_6="46.68371"></scales>
<clustering>
<clus scale="   46.684">  2  6  1 -1</clus>
<clus scale="   48.096">  1  5  2 -1</clus>
<clus scale="  122.337">  2  4  1 -1</clus>
<clus scale="   48.096">  1  3  2 -1</clus>
</clustering>
</event>
<event>
 6    0  0.8520634E+002  0.6501154E+02  0.7546771E-02  0.1377928E+00
         21   -1    0    0  504  501  0.00000000000E+00  0.00000000000E+00  0.70736600642E+03  0.70736600642E+03  0.00000000000E+00 0. -1.
         21   -1    0    0  503  502 -0.00000000000E+00 -0.00000000000E+00 -0.18362344146E+03  0.18362344146E+03  0.00000000000E+00 0.  1.
         21    1    1    2  503  501  0.25360288896E+02 -0.36875086903E+02  0.47510798471E+02  0.65270148295E+02  0.00000000000E+00 0. -1.
         21    1    1    2  504  505 -0.37087357024E+02 -0.51454420384E+02  0.56831001587E+03  0.57183852927E+03  0.00000000000E+00 0. -1.
         21    1    1    2  505  506  0.13830956674E+02  0.12703539224E+03  0.25300877304E+02  0.13026672881E+03  0.00000000000E+00 0.  1.
         21    1    1    2  506  502 -0.21038885468E+01 -0.38705884950E+02 -0.11737912668E+03  0.12361404150E+03  0.00000000000E+00 0.  1.
<scales pt_clust_3="49.18507" pt_clust_4="65.01154" pt_clust_5="14000.00000" pt_clust_6="38.76302"></scales>
<clustering>
<clus scale="   38.763">  2  6  1 -1</clus>
<clus scale="   49.185">  2  3  1 -1</clus>
<clus scale="   65.012">  1  4  2 -1</clus>
<clus scale="   65.012">  1  3  2 -1</clus>
</clustering>
</event>
<event>
 6    0  0.8520634E+002  0.9683257E+02  0.7546771E-02  0.1287101E+00
         21   -1    0    0  503  501  0.00000000000E+00  0.00000000000E+00  0.44444819097E+03  0.44444819097E+03  0.00000000000E+00 0. -1.
         21   -1    0    0  505  502 -0.00000000000E+00 -0.00000000000E+00 -0.74280026550E+03  0.74280026550E+03  0.00000000000E+00 0. -1.
         21    1    1    2  503  506 -0.27371349898E+01  0.77288586218E+02  0.34267961470E+03  0.35129807258E+03  0.00000000000E+00 0. -1.
         21    1    1    2  504  502  0.12151840079E+02 -0.66984666622E+02 -0.22304675659E+03  0.23320477783E+03  0.00000000000E+00 0. -1.
         21    1    1    2  505  501 -0.92828856165E+02 -0.84955419102E+02  0.39401501023E+02  0.13186014582E+03  0.00000000000E+00 0. -1.
         21    1    1    2  506  504  0.83414151076E+02  0.74651499506E+02 -0.45738643365E+03  0.47088546024E+03  0.00000000000E+00 0. -1.
<scales pt_clust_3="76.77299" pt_clust_4="68.07799" pt_clust_5="14000.00000" pt_clust_6="96.83257"></scales>
<clustering>
<clus scale="   68.078">  2  4  1 -1</clus>
<clus scale="   76.773">  1  3  2 -1</clus>
<clus scale="   96.833">  2  6  1 -1</clus>
<clus scale="   76.773">  1  3  2 -1</clus>
</clustering>
</event>
<event>
 6    0  0.8520634E+002  0.1151569E+03  0.7546771E-02  0.1251307E+00
         21   -1    0    0  503  501  0.00000000000E+00  0.00000000000E+00  0.91320134813E+02  0.91320134813E+02  0.00000000000E+00 0. -1.
         21   -1    0    0  505  502 -0.00000000000E+00 -0.00000000000E+00 -0.45536360153E+03  0.45536360153E+03  0.00000000000E+00 0. -1.
         21    1    1    2  503  502 -0.85862944665E+01 -0.11441624062E+03 -0.93699826691E+02  0.14813661969E+03  0.00000000000E+00 0. -1.
         21    1    1    2  504  501 -0.75997269601E+01 -0.37409880362E+02  0.28942643117E+02  0.47905444254E+02  0.00000000000E+00 0. -1.
         21    1    1    2  505  506 -0.30407065558E+02  0.42935320903E+02 -0.15660751370E+03  0.16520879143E+03  0.00000000000E+00 0. -1.
         21    1    1    2  506  504  0.46593086984E+02  0.10889080008E+03 -0.14267876944E+03  0.18543288097E+03  0.00000000000E+00 0. -1.
<scales pt_clust_3="14000.00000" pt_clust_4="38.17401" pt_clust_5="50.53771" pt_clust_6="115.15691"></scales>
<clustering>
<clus scale="   38.174">  1  4  2 -1</clus>
<clus scale="   50.538">  2  5  1 -1</clus>
<clus scale="  115.157">  1  6  2 -1</clus>
<clus scale="   38.174">  1  3  2 -1</clus>
</clustering>
</event>
<event>
 6    0  0.8520634E+002  0.9972252E+02  0.7546771E-02  0.1280881E+00
         21   -1    0    0  506  501  0.00000000000E+00  0.00000000000E+00  0.12250979329E+03  0.12250979329E+03  0.00000000000E+00 0.  1.
         21   -1    0    0  505  502 -0.00000000000E+00 -0.00000000000E+00 -0.65754905260E+03  0.65754905260E+03  0.00000000000E+00 0.  1.
         21    1    1    2  503  502  0.59731493923E+02 -0.10118753973E+03 -0.14550181455E+02  0.11839965095E+03  0.00000000000E+00 0.  1.
         21    1    1    2  504  503 -0.98586266665E+02  0.19828381458E+02 -0.40139997387E+02  0.10827574094E+03  0.00000000000E+00 0.  1.
         21    1    1    2  505  501 -0.22712485487E+02  0.48889719439E+02 -0.48076478302E+03  0.48377767441E+03  0.00000000000E+00 0.  1.
         21    1    1    2  506  504  0.61567258229E+02  0.32469438837E+02  0.41570255181E+00  0.69605779594E+02  0.00000000000E+00 0.  1.
<scales pt_clust_3="14000.00000" pt_clust_4="99.72252" pt_clust_5="53.90790" pt_clust_6="70.94108"></scales>
<clustering>
<clus scale="   53.908">  2  5  1 -1</clus>
<clus scale="   70.941">  1  6  2 -1</clus>
<clus scale="   99.723">  1  4  2 -1</clus>
<clus scale="   70.941">  1  3  2 -1</clus>
</clustering>
</event>
<event>
 6    0  0.8520634E+002  0.9504630E+02  0.7546771E-02  0.1291072E+00
         21   -1    0    0  503  501  0.00000000000E+00  0.00000000000E+00  0.12631836549E+03  0.12631836549E+03  0.00000000000E+00 0. -1.
         21   -1    0    0  504  502 -0.00000000000E+00 -0.00000000000E+00 -0.11248851360E+04  0.11248851360E+04  0.00000000000E+00 0. -1.
         21    1    1    2  503  502  0.76139314247E+02  0.11572300902E+03 -0.63024578132E+03  0.64528966741E+03  0.00000000000E+00 0. -1.
         21    1    1    2  504  505 -0.36674626585E+02  0.11253116900E+02 -0.22368337169E+03  0.22694913890E+03  0.00000000000E+00 0. -1.
         21    1    1    2  505  506  0.16561052236E+01 -0.42693785136E+02 -0.24084963743E+03  0.24460999535E+03  0.00000000000E+00 0. -1.
         21    1    1    2  506  501 -0.41120792886E+02 -0.84282340780E+02  0.96212019959E+02  0.13435469980E+03  0.00000000000E+00 0. -1.
<scales pt_clust_3="95.04630" pt_clust_4="38.36223" pt_clust_5="40.50433" pt_clust_6="14000.00000"></scales>
<clustering>
<clus scale="   38.362">  2  4  1 -1</clus>
<clus scale="   40.504">  2  5  1 -1</clus>
<clus scale="   95.046">  2  3  1 -1</clus>
<clus scale="   95.046">  1  3  2 -1</clus>
</clustering>
</event>
<event>
 6    0  0.8520634E+002  0.1539968E+03  0.7546771E-02  0.1195646E+00
         21   -1    0    0  503  501  0.00000000000E+00  0.00000000000E+00  0.12173334758E+04  0.12173334758E+04  0.00000000000E+00 0.  1.
         21   -1    0    0  505  502 -0.00000000000E+00 -0.00000000000E+00 -0.16228228684E+03  0.16228228684E+03  0.00000000000E+00 0. -1.
         21    1    1    2  503  504 -0.84424548473E+01 -0.10257005974E+03  0.98593907847E+03  0.99129599952E+03  0.00000000000E+00 0.  1.
         21    1    1    2  504  506 -0.22472050400E+01 -0.40229326802E+02  0.15945119756E+03  0.16446316630E+03  0.00000000000E+00 0.  1.
         21    1    1    2  505  501 -0.33790364156E+02  0.13705215652E+03 -0.23102651340E+02  0.14303431342E+03  0.00000000000E+00 0. -1.
         21    1    1    2  506  502  0.44480024044E+02  0.57472300250E+01 -0.67236435774E+02  0.80822283360E+02  0.00000000000E+00 0. -1.
<scales pt_clust_3="36.23896" pt_clust_4="36.23896" pt_clust_5="142.69053" pt_clust_6="44.84978"></scales>
<clustering>
<clus scale="   36.239">  3  4 -1 -1</clus>
<clus scale="   44.850">  2  6  1 -1</clus>
<clus scale="  142.691">  2  5  1 -1</clus>
<clus scale="  153.997">  1  3  2 -1</clus>
</clustering>
</event>
<event>
 6    0  0.8520634E+002  0.2458170E+03  0.7546771E-02  0.1115977E+00
         21   -1    0    0  504  501  0.00000000000E+00  0.00000000000E+00  0.18682593910E+04  0.18682593910E+04  0.00000000000E+00 0.  1.
         21   -1    0    0  501  502 -0.00000000000E+00 -0.00000000000E+00 -0.14367737726E+03  0.14367737726E+03  0.00000000000E+00 0.  1.
         21    1    1    2  503  505  0.16036707112E+03 -0.20312379642E+03  0.10453222519E+04  0.10768822983E+04  0.00000000000E+00 0.  1.
         21    1    1    2  504  506  0.28875646374E+02  0.12778691738E+02  0.12094046687E+03  0.12499477766E+03  0.00000000000E+00 0. -1.
         21    1    1    2  505  502  0.90841457650E+01  0.25151617925E+03  0.44072153075E+02  0.25550981352E+03  0.00000000000E+00 0.  1.
         21    1    1    2  506  503 -0.19832686326E+03 -0.61171074572E+02  0.51424714185E+03  0.55454987869E+03  0.00000000000E+00 0.  1.
<scales pt_clust_3="245.81702" pt_clust_4="31.57686" pt_clust_5="14000.00000" pt_clust_6="197.94745"></scales>
<clustering>
<clus scale="   31.577">  1  4  2 -1</clus>
<clus scale="  197.947">  1  6  2 -1</clus>
<clus scale="  245.817">  1  3  2 -1</clus>
<clus scale="   31.577">  1  3  2 -1</clus>
</clustering>
</event>
<event>
 6    0  0.8520634E+002  0.1344600E+03  0.7546771E-02  0.1220984E+00
         21   -1    0    0  502  501  0.00000000000E+00  0.00000000000E+00  0.42322889272E+03  0.42322889272E+03  0.00000000000E+00 0. -1.
         21   -1    0    0  506  502 -0.00000000000E+00 -0.00000000000E+00 -0.10948199211E+04  0.10948199211E+04  0.00000000000E+00 0.  1.
         21    1    1    2  503  501  0.35733625815E+02 -0.82568419382E+01  0.87803184734E+02  0.95154961521E+02  0.00000000000E+00 0. -1.
         21    1    1    2  504  503  0.47206579068E+01 -0.49245193699E+02  0.17792212090E+03  0.18467174884E+03  0.00000000000E+00 0.  1.
         21    1    1    2  505  504 -0.67471468961E+02 -0.75620037369E+02  0.12857280390E+03  0.16371241577E+03  0.00000000000E+00 0. -1.
         21    1    1    2  506  505  0.27017185239E+02  0.13312207301E+03 -0.10658891379E+04  0.10745096877E+04  0.00000000000E+00 0.  1.
<scales pt_clust_3="36.67516" pt_clust_4="58.97337" pt_clust_5="134.46002" pt_clust_6="14000.00000"></scales>
<clustering>
<clus scale="   36.675">  1  3  2 -1</clus>
<clus scale="   58.973">  1  4  2 -1</clus>
<clus scale="  134.460">  1  5  2 -1</clus>
<clus scale="   36.675">  1  3  2 -1</clus>
</clustering>
</event>
<event>
 6    0  0.8520634E+002  0.1915857E+03  0.7546771E-02  0.1157039E+00
         21   -1    0    0  503  501  0.00000000000E+00  0.00000000000E+00  0.65892003475E+03  0.65892003475E+03  0.00000000000E+00 0. -1.
         21   -1    0    0  504  502 -0.00000000000E+00 -0.00000000000E+00 -0.72515348326E+02  0.72515348326E+02  0.00000000000E+00 0. -1.
         21    1    1    2  503  506  0.93646415320E+02 -0.71550171578E+02  0.11283300030E+03  0.16315748255E+03  0.00000000000E+00 0. -1.
         21    1    1    2  504  505 -0.14305868643E+03  0.97901155055E+02  0.28456016823E+03  0.33320401148E+03  0.00000000000E+00 0. -1.
         21    1    1    2  505  501  0.10365334618E+02  0.50011586015E+02  0.94708207974E+02  0.10760224698E+03  0.00000000000E+00 0.  1.
         21    1    1    2  506  502  0.39046936492E+02 -0.76362569493E+02  0.94303309917E+02  0.12747164206E+03  0.00000000000E+00 0. -1.
<scales pt_clust_3="38.85160" pt_clust_4="186.09391" pt_clust_5="51.07444" pt_clust_6="38.85160"></scales>
<clustering>
<clus scale="   38.852">  3  6 -1 -1</clus>
<clus scale="   51.074">  1  5  2 -1</clus>
<clus scale="  186.094">  1  4  2 -1</clus>
<clus scale="   51.074">  1  3  2 -1</clus>
</clustering>
</event>
<event>
 6    0  0.8520634E+002  0.9372616E+02  0.7546771E-02  0.1294071E+00
         21   -1    0    0  503  501  0.00000000000E+00  0.00000000000E+00  0.41118087566E+03  0.41118087566E+03  0.00000000000E+00 0.  1.
         21   -1    0    0  505  502 -0.00000000000E+00 -0.00000000000E+00 -0.28308003318E+03  0.28308003318E+03  0.00000000000E+00 0.  1.
         21    1    1    2  503  506  0.10030052697E+03  0.12990616486E+02  0.22854583754E+03  0.24992429191E+03  0.00000000000E+00 0.  1.
         21    1    1    2  504  502 -0.64414513395E+01 -0.30360742809E+02 -0.94561705993E+02  0.99524787061E+02  0.00000000000E+00 0.  1.
         21    1    1    2  505  501 -0.21028027806E+02  0.40432489209E+02  0.15776204276E+03  0.16421274699E+03  0.00000000000E+00 0.  1.
         21    1    1    2  506  504 -0.72831047824E+02 -0.23062362886E+02 -0.16364533183E+03  0.18059908288E+03  0.00000000000E+00 0.  1.
<scales pt_clust_3="93.72616" pt_clust_4="31.03654" pt_clust_5="45.15956" pt_clust_6="14000.00000"></scales>
<clustering>
<clus scale="   31.037">  2  4  1 -1</clus>
<clus scale="   45.160">  1  5  2 -1</clus>
<clus scale="   93.726">  1  3  2 -1</clus>
<clus scale="   45.160">  1  3  2 -1</clus>
</clustering>
</event>
<event>
 6    0  0.8520634E+002  0.1197746E+03  0.7546771E-02  0.1243469E+00
         21   -1    0    0  503  501  0.00000000000E+00  0.00000000000E+00  0.72024469298E+03  0.72024469298E+03  0.00000000000E+00 0.  1.
         21   -1    0    0  506  502 -0.00000000000E+00 -0.00000000000E+00 -0.10706531522E+03  0.10706531522E+03  0.00000000000E+00 0.  1.
         21    1    1    2  503  504  0.25778092849E+02  0.19080706816E+02  0.45463985666E+02  0.55637733923E+02  0.00000000000E+00 0.  1.
         21    1    1    2  504  502  0.98230021487E+02 -0.87119329163E+02 -0.16320497661E+02  0.13230749517E+03  0.00000000000E+00 0.  1.
         21    1    1    2  505  501 -0.25108364822E+00  0.10044718518E+03  0.41722353611E+03  0.42914470652E+03  0.00000000000E+00 0.  1.
         21    1    1    2  506  505 -0.12375703069E+03 -0.32408562834E+02  0.16681235364E+03  0.21022007258E+03  0.00000000000E+00 0.  1.
<scales pt_clust_3="32.07154" pt_clust_4="119.77462" pt_clust_5="113.64185" pt_clust_6="14000.00000"></scales>
<clustering>
<clus scale="   32.072">  1  3  2 -1</clus>
<clus scale="  113.642">  1  5  2 -1</clus>
<clus scale="  119.775">  2  4  1 -1</clus>
<clus scale="   32.072">  1  3  2 -1</clus>
</clustering>
</event>
<event>
 6    0  0.8520634E+002  0.2229584E+03  0.7546771E-02  0.1131696E+00
         21   -1    0    0  504  501  0.00000000000E+00  0.00000000000E+00  0.40906662855E+03  0.40906662855E+03  0.00000000000E+00 0. -1.
         21   -1    0    0  503  502 -0.00000000000E+00 -0.00000000000E+00 -0.72572892551E+03  0.72572892551E+03  0.00000000000E+00 0. -1.
         21    1    1    2  503  501  0.38418026250E+02 -0.80771907965E+02  0.21899307822E+03  0.23655446342E+03  0.00000000000E+00 0. -1.
         21    1    1    2  504  505  0.11296417106E+03 -0.10981911976E+03  0.11205912896E+03  0.19333492026E+03  0.00000000000E+00 0. -1.
         21    1    1    2  505  506 -0.14648027541E+03  0.15361221753E+03 -0.38567906422E+03  0.44022894616E+03  0.00000000000E+00 0.  1.
         21    1    1    2  506  502 -0.49019218929E+01  0.36978810194E+02 -0.26203543993E+03  0.26467722422E+03  0.00000000000E+00 0. -1.
<scales pt_clust_3="88.76909" pt_clust_4="222.95838" pt_clust_5="14000.00000" pt_clust_6="37.30230"></scales>
<clustering>
<clus scale="   37.302">  2  6  1 -1</clus>
<clus scale="   88.769">  1  3  2 -1</clus>
<clus scale="  222.958">  1  4  2 -1</clus>
<clus scale="   88.769">  1  3  2 -1</clus>
</clustering>
</event>
<event>
 6    0  0.8520634E+002  0.9554762E+02  0.7546771E-02  0.1289947E+00
         21   -1    0    0  504  501  0.00000000000E+00  0.00000000000E+00  0.99881192639E+02  0.99881192639E+02  0.00000000000E+00 0. -1.
         21   -1    0    0  505  502 -0.00000000000E+00 -0.00000000000E+00 -0.66507913716E+03  0.66507913716E+03  0.00000000000E+00 0. -1.
         21    1    1    2  503  501  0.52146510999E+01  0.58503765579E+02  0.30620011312E+02  0.66237966951E+02  0.00000000000E+00 0. -1.
         21    1    1    2  504  506  0.39889252136E+02 -0.11937072070E+01  0.16140918997E+02  0.43047725131E+02  0.00000000000E+00 0. -1.
         21    1    1    2  505  503 -0.10517726676E+03  0.12396779644E+01 -0.52272155185E+03  0.53319941392E+03  0.00000000000E+00 0. -1.
         21    1    1    2  506  502  0.60073363521E+02 -0.58549736337E+02 -0.89237322983E+02  0.12247522379E+03  0.00000000000E+00 0. -1.
<scales pt_clust_3="66.30506" pt_clust_4="39.90711" pt_clust_5="95.54762" pt_clust_6="14000.00000"></scales>
<clustering>
<clus scale="   39.907">  1  4  2 -1</clus>
<clus scale="   66.305">  1  3  2 -1</clus>
<clus scale="   95.548">  2  5  1 -1</clus>
<clus scale="   39.907">  1  3  2 -1</clus>
</clustering>
</event>
<event>
 6    0  0.8520634E+002  0.7711312E+02  0.7546771E-02  0.1337450E+00
         21   -1    0    0  504  501  0.00000000000E+00  0.00000000000E+00  0.22742355213E+03  0.22742355213E+03  0.00000000000E+00 0. -1.
         21   -1    0    0  505  502 -0.00000000000E+00 -0.00000000000E+00 -0.23170487937E+04  0.23170487937E+04  0.00000000000E+00 0.  1.
         21    1    1    2  503  501  0.13764545944E+02  0.33924408360E+02  0.15311942202E+03  0.15743533786E+03  0.00000000000E+00 0. -1.
         21    1    1    2  504  506  0.19651234611E+02 -0.65555559852E+02  0.99004323964E+01  0.69149989232E+02  0.00000000000E+00 0. -1.
         21    1    1    2  505  503  0.72607819588E+02  0.24618758565E+02 -0.21962603638E+04  0.21975981353E+04  0.00000000000E+00 0.  1.
         21    1    1    2  506  502 -0.10602360014E+03  0.70123929275E+01 -0.56384732118E+02  0.12028888335E+03  0.00000000000E+00 0. -1.
<scales pt_clust_3="36.61049" pt_clust_4="54.27341" pt_clust_5="77.11312" pt_clust_6="14000.00000"></scales>
<clustering>
<clus scale="   36.610">  1  3  2 -1</clus>
<clus scale="   54.273">  1  4  2 -1</clus>
<clus scale="   77.113">  2  5  1 -1</clus>
<clus scale="   36.610">  1  3  2 -1</clus>
</clustering>
</event>
<event>
 6    0  0.8520634E+002  0.7795877E+02  0.7546771E-02  0.1334946E+00
         21   -1    0    0  503  501  0.00000000000E+00  0.00000000000E+00  0.84069595171E+03  0.84069595171E+03  0.00000000000E+00 0. -1.
         21   -1    0    0  506  502 -0.00000000000E+00 -0.00000000000E+00 -0.14475171002E+03  0.14475171002E+03  0.00000000000E+00 0. -1.
         21    1    1    2  503  502  0.35921770561E+02  0.19742240338E+02 -0.12283624492E+03  0.12949468221E+03  0.00000000000E+00 0. -1.
         21    1    1    2  504  505  0.79794939737E+02  0.90456955079E-01  0.25765224936E+03  0.26972564244E+03  0.00000000000E+00 0. -1.
         21    1    1    2  505  501 -0.29422207461E+02 -0.47680977857E+02  0.37526490722E+03  0.37942442269E+03  0.00000000000E+00 0. -1.
         21    1    1    2  506  504 -0.86294502837E+02  0.27848280564E+02  0.18586333004E+03  0.20680291440E+03  0.00000000000E+00 0. -1.
<scales pt_clust_3="40.98938" pt_clust_4="14000.00000" pt_clust_5="52.08632" pt_clust_6="77.95877"></scales>
<clustering>
<clus scale="   40.989">  2  3  1 -1</clus>
<clus scale="   52.086">  1  5  2 -1</clus>
<clus scale="   77.959">  2  6  1 -1</clus>
<clus scale="   52.086">  1  3  2 -1</clus>
</clustering>
</event>
<event>
 6    0  0.8520634E+002  0.1143386E+03  0.7546771E-02  0.1252740E+00
         21   -1    0    0  503  501  0.00000000000E+00  0.00000000000E+00  0.85293227690E+03  0.85293227690E+03  0.00000000000E+00 0.  1.
         21   -1    0    0  506  502 -0.00000000000E+00 -0.00000000000E+00 -0.93553134049E+02  0.93553134049E+02  0.00000000000E+00 0.  1.
         21    1    1    2  503  504 -0.19780427959E+02 -0.44276836458E+02  0.11945111993E+02  0.49943861259E+02  0.00000000000E+00 0.  1.
         21    1    1    2  504  502  0.20746741114E+02 -0.73188047786E+02  0.23369223611E+02  0.79580388400E+02  0.00000000000E+00 0.  1.
         21    1    1    2  505  501  0.25513783784E+02  0.20357701357E+02  0.71517172290E+03  0.71591618392E+03  0.00000000000E+00 0.  1.
         21    1    1    2  506  505 -0.26480096939E+02  0.97107182888E+02  0.88930843483E+01  0.10104497737E+03  0.00000000000E+00 0.  1.
<scales pt_clust_3="31.75968" pt_clust_4="31.75968" pt_clust_5="32.64030" pt_clust_6="106.50270"></scales>
<clustering>
<clus scale="   32.640">  1  5  2 -1</clus>
<clus scale="   31.760">  3  4 -1 -1</clus>
<clus scale="  106.503">  2  6  1 -1</clus>
<clus scale="   32.640">  1  3  2 -1</clus>
</clustering>
</event>
<event>
 6    0  0.8520634E+002  0.1725866E+03  0.7546771E-02  0.1175177E+00
         21   -1    0    0  505  501  0.00000000000E+00  0.00000000000E+00  0.72156063881E+03  0.72156063881E+03  0.00000000000E+00 0.  1.
         21   -1    0    0  506  502 -0.00000000000E+00 -0.00000000000E+00 -0.25991466522E+03  0.25991466522E+03  0.00000000000E+00 0. -1.
         21    1    1    2  503  501 -0.12064517886E+02 -0.42958387562E+02  0.12561000112E+03  0.13329984259E+03  0.00000000000E+00 0.  1.
         21    1    1    2  504  503  0.55278032375E+02 -0.10623216775E+03  0.39856439759E+03  0.41616644909E+03  0.00000000000E+00 0.  1.
         21    1    1    2  505  502  0.13651932825E+02 -0.41556954794E+02 -0.19044649797E+03  0.19540528230E+03  0.00000000000E+00 0. -1.
         21    1    1    2  506  504 -0.56865447314E+02  0.19074751011E+03  0.12791807285E+03  0.23660373005E+03  0.00000000000E+00 0. -1.
<scales pt_clust_3="33.59575" pt_clust_4="33.59575" pt_clust_5="43.74192" pt_clust_6="163.57553"></scales>
<clustering>
<clus scale="   33.596">  3  4 -1 -1</clus>
<clus scale="   43.742">  2  5  1 -1</clus>
<clus scale="  163.576">  2  6  1 -1</clus>
<clus scale="  172.587">  1  3  2 -1</clus>
</clustering>
</event>
<event>
 6    0  0.8520634E+002  0.1169513E+03  0.7546771E-02  0.1248213E+00
         21   -1    0    0  506  501  0.00000000000E+00  0.00000000000E+00  0.57797035078E+03  0.57797035078E+03  0.00000000000E+00 0.  1.
         21   -1    0    0  503  502 -0.00000000000E+00 -0.00000000000E+00 -0.11602221248E+03  0.11602221248E+03  0.00000000000E+00 0.  1.
         21    1    1    2  503  504  0.11484345015E+03 -0.94177965974E+02 -0.27279043014E+02  0.15100547509E+03  0.00000000000E+00 0.  1.
         21    1    1    2  504  501  0.80455581747E+01  0.67682888623E+02  0.23439546806E+03  0.24410436265E+03  0.00000000000E+00 0.  1.
         21    1    1    2  505  502 -0.62163903620E+02  0.41880781609E+02  0.65793655356E+02  0.99735429344E+02  0.00000000000E+00 0.  1.
         21    1    1    2  506  505 -0.60725104709E+02 -0.15385704258E+02  0.18903805790E+03  0.19914729617E+03  0.00000000000E+00 0.  1.
<scales pt_clust_3="14000.00000" pt_clust_4="65.29162" pt_clust_5="116.95134" pt_clust_6="62.64390"></scales>
<clustering>
<clus scale="   62.644">  1  6  2 -1</clus>
<clus scale="   65.292">  1  4  2 -1</clus>
<clus scale="  116.951">  1  5  2 -1</clus>
<clus scale="   62.644">  1  3  2 -1</clus>
</clustering>
</event>
<event>
 6    0  0.8520634E+002  0.9089710E+02  0.7546771E-02  0.1300694E+00
         21   -1    0    0  503  501  0.00000000000E+00  0.00000000000E+00  0.72490803061E+03  0.72490803061E+03  0.00000000000E+00 0. -1.
         21   -1    0    0  506  502 -0.00000000000E+00 -0.00000000000E+00 -0.23094626585E+03  0.23094626585E+03  0.00000000000E+00 0.  1.
         21    1    1    2  503  505 -0.19510223112E+02 -0.14771764797E+03  0.26599660453E+03  0.30488579165E+03  0.00000000000E+00 0. -1.
         21    1    1    2  504  501  0.41907916080E+02  0.69363096204E+02  0.41516771702E+03  0.42300324561E+03  0.00000000000E+00 0. -1.
         21    1    1    2  505  502  0.19153115006E+02  0.50898968095E+02 -0.28026980831E+02  0.61180539570E+02  0.00000000000E+00 0. -1.
         21    1    1    2  506  504 -0.41550807974E+02  0.27455583668E+02 -0.15917557596E+03  0.16678471963E+03  0.00000000000E+00 0.  1.
<scales pt_clust_3="14000.00000" pt_clust_4="90.89710" pt_clust_5="69.39325" pt_clust_6="49.80240"></scales>
<clustering>
<clus scale="   49.802">  2  6  1 -1</clus>
<clus scale="   69.393">  2  5  1 -1</clus>
<clus scale="   90.897">  1  4  2 -1</clus>
<clus scale="   90.897">  1  3  2 -1</clus>
</clustering>
</event>
<event>
 6    0  0.8520634E+002  0.1231411E+03  0.7546771E-02  0.1238003E+00
         21   -1    0    0  504  501  0.00000000000E+00  0.00000000000E+00  0.66438730692E+03  0.66438730692E+03  0.00000000000E+00 0. -1.
         21   -1    0    0  506  502 -0.00000000000E+00 -0.00000000000E+00 -0.41923616577E+02  0.41923616577E+02  0.00000000000E+00 0.  1.
         21    1    1    2  503  502 -0.21376992921E+02 -0.26547207615E+02  0.35854623444E+01  0.34272227805E+02  0.00000000000E+00 0.  1.
         21    1    1    2  504  505 -0.33235729039E+01  0.41160993758E+02  0.44603085298E+02  0.60784116035E+02  0.00000000000E+00 0.  1.
         21    1    1    2  505  503 -0.68229903469E+02  0.46314532346E+02  0.13544970582E+03  0.15857798851E+03  0.00000000000E+00 0.  1.
         21    1    1    2  506  501  0.92930469294E+02 -0.60928318489E+02  0.43882543688E+03  0.45267659115E+03  0.00000000000E+00 0. -1.
<scales pt_clust_3="34.08416" pt_clust_4="34.49021" pt_clust_5="34.49021" pt_clust_6="110.61130"></scales>
<clustering>
<clus scale="   34.084">  2  3  1 -1</clus>
<clus scale="   34.490">  4  5 -1 -1</clus>
<clus scale="  110.611">  1  6  2 -1</clus>
<clus scale="  110.611">  1  3  2 -1</clus>
</clustering>
</event>
<event>
 6    0  0.8520634E+002  0.1735815E+03  0.7546771E-02  0.1174164E+00
         21   -1    0    0  503  501  0.00000000000E+00  0.00000000000E+00  0.21808340895E+03  0.21808340895E+03  0.00000000000E+00 0.  1.
         21   -1    0    0  506  502 -0.00000000000E+00 -0.00000000000E+00 -0.74481807671E+03  0.74481807671E+03  0.00000000000E+00 0.  1.
         21    1    1    2  503  505 -0.19401904574E+03  0.44160785955E+02 -0.16069132222E+03  0.25576408301E+03  0.00000000000E+00 0.  1.
         21    1    1    2  504  501  0.15941176550E+03 -0.54500942048E+02  0.12000809315E+03  0.20684391721E+03  0.00000000000E+00 0.  1.
         21    1    1    2  505  502 -0.76472804710E+01  0.47489977457E+02 -0.11001372946E+03  0.12006997763E+03  0.00000000000E+00 0.  1.
         21    1    1    2  506  504  0.42254560705E+02 -0.37149821364E+02 -0.37603770923E+03  0.38022350781E+03  0.00000000000E+00 0.  1.
<scales pt_clust_3="173.58148" pt_clust_4="14000.00000" pt_clust_5="48.10176" pt_clust_6="38.64037"></scales>
<clustering>
<clus scale="   48.102">  2  5  1 -1</clus>
<clus scale="   38.640">  2  6  1 -1</clus>
<clus scale="  173.581">  2  3  1 -1</clus>
<clus scale="  173.581">  1  3  2 -1</clus>
</clustering>
</event>
<event>
 6    0  0.8520634E+002  0.8063782E+02  0.7546771E-02  0.1327251E+00
         21   -1    0    0  505  501  0.00000000000E+00  0.00000000000E+00  0.69639149461E+02  0.69639149461E+02  0.00000000000E+00 0.  1.
         21   -1    0    0  503  502 -0.00000000000E+00 -0.00000000000E+00 -0.37022030462E+03  0.37022030462E+03  0.00000000000E+00 0.  1.
         21    1    1    2  503  506  0.57184088510E+02 -0.91782809077E+01 -0.78204808173E+02  0.97315224094E+02  0.00000000000E+00 0.  1.
         21    1    1    2  504  502  0.37528146166E+02  0.69794589742E+02 -0.13516001656E+03  0.15667761993E+03  0.00000000000E+00 0.  1.
         21    1    1    2  505  504  0.18229124649E+01 -0.67241612369E+02 -0.39040620953E+02  0.77774851516E+02  0.00000000000E+00 0.  1.
         21    1    1    2  506  501 -0.96535147141E+02  0.66253035353E+01 -0.48175709475E+02  0.10809175854E+03  0.00000000000E+00 0.  1.
<scales pt_clust_3="57.91598" pt_clust_4="80.63782" pt_clust_5="70.47360" pt_clust_6="14000.00000"></scales>
<clustering>
<clus scale="   57.916">  2  3  1 -1</clus>
<clus scale="   70.474">  1  5  2 -1</clus>
<clus scale="   80.638">  2  4  1 -1</clus>
<clus scale="   70.474">  1  3  2 -1</clus>
</clustering>
</event>
<event>
 6    0  0.8520634E+002  0.1952464E+03  0.7546771E-02  0.1153813E+00
         21   -1    0    0  505  501  0.00000000000E+00  0.00000000000E+00  0.16776959593E+04  0.16776959593E+04  0.00000000000E+00 0. -1.
         21   -1    0    0  506  502 -0.00000000000E+00 -0.00000000000E+00 -0.92576916005E+02  0.92576916005E+02  0.00000000000E+00 0. -1.
         21    1    1    2  503  501  0.54545211263E+02 -0.15539075559E+03  0.35016899079E+03  0.38696225799E+03  0.00000000000E+00 0. -1.
         21    1    1    2  504  503 -0.24873980720E+02  0.90732976443E+02  0.22720074726E+02  0.96785276394E+02  0.00000000000E+00 0. -1.
         21    1    1    2  505  502 -0.58707727731E+02 -0.42993469455E+02  0.11619296175E+04  0.11642059404E+04  0.00000000000E+00 0. -1.
         21    1    1    2  506  504  0.29036497189E+02  0.10765124861E+03  0.50300360298E+02  0.12231940051E+03  0.00000000000E+00 0. -1.
<scales pt_clust_3="186.60090" pt_clust_4="52.77825" pt_clust_5="72.76700" pt_clust_6="52.77825"></scales>
<clustering>
<clus scale="   52.778">  4  6 -1 -1</clus>
<clus scale="   72.767">  1  5  2 -1</clus>
<clus scale="  186.601">  1  3  2 -1</clus>
<clus scale="   72.767">  1  3  2 -1</clus>
</clustering>
</event>
<event>
 6    0  0.8520634E+002  0.8173910E+02  0.7546771E-02  0.1324187E+00
         21   -1    0    0  504  501  0.00000000000E+00  0.00000000000E+00  0.14014235804E+03  0.14014235804E+03  0.00000000000E+00 0.  1.
         21   -1    0    0  503  502 -0.00000000000E+00 -0.00000000000E+00 -0.13554066118E+04  0.13554066118E+04  0.00000000000E+00 0.  1.
         21    1    1    2  503  501 -0.29552826014E+02  0.10883888711E+03 -0.84287860021E+03  0.85039026780E+03  0.00000000000E+00 0.  1.
         21    1    1    2  504  505 -0.35282880589E+02 -0.13993308034E+02  0.62902674280E+02  0.73467276824E+02  0.00000000000E+00 0.  1.
         21    1    1    2  505  506  0.49464383549E+02 -0.65695657512E+02  0.42636989661E+02  0.92631298939E+02  0.00000000000E+00 0.  1.
         21    1    1    2  506  502  0.15371323054E+02 -0.29149921568E+02 -0.47792531753E+03  0.47906012633E+03  0.00000000000E+00 0. -1.
<scales pt_clust_3="14000.00000" pt_clust_4="37.93566" pt_clust_5="81.73910" pt_clust_6="32.95445"></scales>
<clustering>
<clus scale="   32.954">  2  6  1 -1</clus>
<clus scale="   37.936">  1  4  2 -1</clus>
<clus scale="   81.739">  1  5  2 -1</clus>
<clus scale="   37.936">  1  3  2 -1</clus>
</clustering>
</event>
<event>
 6    0  0.8520634E+002  0.1370334E+03  0.7546771E-02  0.1217377E+00
         21   -1    0    0  505  501  0.00000000000E+00  0.00000000000E+00  0.17201032637E+03  0.17201032637E+03  0.00000000000E+00 0.  1.
         21   -1    0    0  504  502 -0.00000000000E+00 -0.00000000000E+00 -0.30380279473E+03  0.30380279473E+03  0.00000000000E+00 0.  1.
         21    1    1    2  503  506  0.63979896079E+02 -0.50250166614E+02 -0.16741867867E+03  0.18613844394E+03  0.00000000000E+00 0.  1.
         21    1    1    2  504  501 -0.30456973296E+02  0.18132125353E+02  0.96731277368E+02  0.10302107170E+03  0.00000000000E+00 0.  1.
         21    1    1    2  505  503 -0.85110132987E+02  0.61204148033E+02 -0.48060634455E+01  0.10494179682E+03  0.00000000000E+00 0.  1.
         21    1    1    2  506  502  0.51587210203E+02 -0.29086106772E+02 -0.56299003622E+02  0.81711808648E+02  0.00000000000E+00 0. -1.
<scales pt_clust_3="37.55316" pt_clust_4="35.44575" pt_clust_5="129.35991" pt_clust_6="37.55316"></scales>
<clustering>
<clus scale="   35.446">  1  4  2 -1</clus>
<clus scale="   37.553">  3  6 -1 -1</clus>
<clus scale="  129.360">  1  5  2 -1</clus>
<clus scale="   35.446">  1  3  2 -1</clus>
</clustering>
</event>
<event>
 6    0  0.8520634E+002  0.1253782E+03  0.7546771E-02  0.1234479E+00
         21   -1    0    0  502  501  0.00000000000E+00  0.00000000000E+00  0.12214838839E+03  0.12214838839E+03  0.00000000000E+00 0.  1.
         21   -1    0    0  503  502 -0.00000000000E+00 -0.00000000000E+00 -0.77019510399E+03  0.77019510399E+03  0.00000000000E+00 0.  1.
         21    1    1    2  503  505  0.22018048258E+02  0.98584578730E+02 -0.59387599412E+03  0.60240551957E+03  0.00000000000E+00 0.  1.
         21    1    1    2  504  506 -0.51023736435E+02 -0.83970540008E+02 -0.80480397973E+02  0.12701010876E+03  0.00000000000E+00 0.  1.
         21    1    1    2  505  504 -0.18105646379E+01 -0.78816071509E+02 -0.15501304196E+02  0.80346385757E+02  0.00000000000E+00 0.  1.
         21    1    1    2  506  501  0.30816252815E+02  0.64202032787E+02  0.41810980686E+02  0.82581478296E+02  0.00000000000E+00 0.  1.
<scales pt_clust_3="105.95470" pt_clust_4="60.04329" pt_clust_5="60.04329" pt_clust_6="71.21476"></scales>
<clustering>
<clus scale="   60.043">  4  5 -1 -1</clus>
<clus scale="   71.215">  1  6  2 -1</clus>
<clus scale="  105.955">  2  3  1 -1</clus>
<clus scale="   71.215">  1  3  2 -1</clus>
</clustering>
</event>
<event>
 6    0  0.8520634E+002  0.1073384E+03  0.7546771E-02  0.1265580E+00
         21   -1    0    0  505  501  0.00000000000E+00  0.00000000000E+00  0.12488697657E+04  0.12488697657E+04  0.00000000000E+00 0. -1.
         21   -1    0    0  503  502 -0.00000000000E+00 -0.00000000000E+00 -0.30351615571E+03  0.30351615571E+03  0.00000000000E+00 0. -1.
         21    1    1    2  503  506 -0.29106737546E+02  0.12321870194E+03 -0.64056466273E+02  0.14189179522E+03  0.00000000000E+00 0. -1.
         21    1    1    2  504  502  0.36220516715E+02 -0.17851654724E+02 -0.18816562872E+03  0.19244976289E+03  0.00000000000E+00 0. -1.
         21    1    1    2  505  504  0.72211347151E+02  0.60311164851E+01  0.23842261271E+03  0.24919108185E+03  0.00000000000E+00 0. -1.
         21    1    1    2  506  501 -0.79325126319E+02 -0.11139816370E+03  0.95915309224E+03  0.96885328141E+03  0.00000000000E+00 0. -1.
<scales pt_clust_3="14000.00000" pt_clust_4="40.38078" pt_clust_5="74.11539" pt_clust_6="107.33844"></scales>
<clustering>
<clus scale="   40.381">  2  4  1 -1</clus>
<clus scale="   74.115">  1  5  2 -1</clus>
<clus scale="  107.338">  1  6  2 -1</clus>
<clus scale="   74.115">  1  3  2 -1</clus>
</clustering>
</event>
<event>
 6    0  0.8520634E+002  0.1885738E+03  0.7546771E-02  0.1159754E+00
         21   -1    0    0  503  501  0.00000000000E+00  0.00000000000E+00  0.71691114202E+03  0.71691114202E+03  0.00000000000E+00 0.  1.
         21   -1    0    0  505  502 -0.00000000000E+00 -0.00000000000E+00 -0.31634790875E+03  0.31634790875E+03  0.00000000000E+00 0.  1.
         21    1    1    2  503  506  0.10428025275E+02 -0.65803564678E+02  0.88446635358E+02  0.11073238073E+03  0.00000000000E+00 0.  1.
         21    1    1    2  504  501 -0.14852976657E+03  0.19631151373E+03  0.50297762552E+03  0.55998731571E+03  0.00000000000E+00 0.  1.
         21    1    1    2  505  504  0.54797756993E+02  0.36726734860E+01 -0.19697116756E+03  0.20448453133E+03  0.00000000000E+00 0.  1.
         21    1    1    2  506  502  0.83303984301E+02 -0.13418062253E+03  0.61101399453E+01  0.15805482300E+03  0.00000000000E+00 0.  1.
<scales pt_clust_3="67.30846" pt_clust_4="188.57380" pt_clust_5="54.92069" pt_clust_6="14000.00000"></scales>
<clustering>
<clus scale="   54.921">  2  5  1 -1</clus>
<clus scale="   67.308">  1  3  2 -1</clus>
<clus scale="  188.574">  1  4  2 -1</clus>
<clus scale="   67.308">  1  3  2 -1</clus>
</clustering>
</event>
<event>
 6    0  0.8520634E+002  0.1174388E+03  0.7546771E-02  0.1247383E+00
         21   -1    0    0  504  501  0.00000000000E+00  0.00000000000E+00  0.37141692336E+03  0.37141692336E+03  0.00000000000E+00 0. -1.
         21   -1    0    0  505  502 -0.00000000000E+00 -0.00000000000E+00 -0.67322722713E+02  0.67322722713E+02  0.00000000000E+00 0. -1.
         21    1    1    2  503  502 -0.60032420958E+01 -0.60082769931E+02  0.19427444453E+02  0.63430306292E+02  0.00000000000E+00 0. -1.
         21    1    1    2  504  503  0.73841967820E+02 -0.57271638525E+02  0.14939641304E+03  0.17621567756E+03  0.00000000000E+00 0. -1.
         21    1    1    2  505  506 -0.19418717076E+02  0.34687880644E+02  0.77818093190E+02  0.87384159114E+02  0.00000000000E+00 0. -1.
         21    1    1    2  506  501 -0.48420008648E+02  0.82666527812E+02  0.57452249972E+02  0.11170950311E+03  0.00000000000E+00 0. -1.
<scales pt_clust_3="60.38194" pt_clust_4="104.04713" pt_clust_5="35.08230" pt_clust_6="35.08230"></scales>
<clustering>
<clus scale="   35.082">  5  6 -1 -1</clus>
<clus scale="   60.382">  2  3  1 -1</clus>
<clus scale="  104.047">  1  4  2 -1</clus>
<clus scale="  104.047">  1  3  2 -1</clus>
</clustering>
</event>
<event>
 6    0  0.8520634E+002  0.1419761E+03  0.7546771E-02  0.1210694E+00
         21   -1    0    0  506  501  0.00000000000E+00  0.00000000000E+00  0.77168326124E+03  0.77168326124E+03  0.00000000000E+00 0.  1.
         21   -1    0    0  504  502 -0.00000000000E+00 -0.00000000000E+00 -0.14280152949E+03  0.14280152949E+03  0.00000000000E+00 0.  1.
         21    1    1    2  503  505 -0.20903764851E+02 -0.26685041848E+02 -0.84424618866E+01  0.34933279349E+02  0.00000000000E+00 0.  1.
         21    1    1    2  504  503 -0.10452003662E+03 -0.21775736964E+01 -0.83584025204E+02  0.13384868005E+03  0.00000000000E+00 0.  1.
         21    1    1    2  505  501 -0.17423186740E+02  0.33639963266E+02  0.73311995814E+02  0.82521895852E+02  0.00000000000E+00 0. -1.
         21    1    1    2  506  502  0.14284698821E+03 -0.47773477213E+01  0.64759622303E+03  0.66318093547E+03  0.00000000000E+00 0.  1.
<scales pt_clust_3="33.46712" pt_clust_4="33.46712" pt_clust_5="37.88423" pt_clust_6="129.23979"></scales>
<clustering>
<clus scale="   33.467">  3  4 -1 -1</clus>
<clus scale="   37.884">  1  5  2 -1</clus>
<clus scale="  129.240">  1  6  2 -1</clus>
<clus scale="   37.884">  1  3  2 -1</clus>
</clustering>
</event>
<event>
 6    0  0.8520634E+002  0.1271515E+03  0.7546771E-02  0.1231745E+00
         21   -1    0    0  505  501  0.00000000000E+00  0.00000000000E+00  0.58489096395E+03  0.58489096395E+03  0.00000000000E+00 0. -1.
         21   -1    0    0  503  502 -0.00000000000E+00 -0.00000000000E+00 -0.42584892474E+03  0.42584892474E+03  0.00000000000E+00 0. -1.
         21    1    1    2  503  504 -0.93011460233E+02 -0.31258079904E+02 -0.85367930847E+02  0.13006107377E+03  0.00000000000E+00 0. -1.
         21    1    1    2  504  501 -0.44711099603E+02  0.90727148297E+02  0.47303764962E+03  0.48373041648E+03  0.00000000000E+00 0. -1.
         21    1    1    2  505  506 -0.22170669375E+02 -0.32343392227E+02  0.56589126056E+02  0.68847387670E+02  0.00000000000E+00 0.  1.
         21    1    1    2  506  502  0.15989322921E+03 -0.27125676165E+02 -0.28521680563E+03  0.32810101077E+03  0.00000000000E+00 0. -1.
<scales pt_clust_3="127.15150" pt_clust_4="89.22252" pt_clust_5="39.21267" pt_clust_6="14000.00000"></scales>
<clustering>
<clus scale="   39.213">  1  5  2 -1</clus>
<clus scale="   89.223">  1  4  2 -1</clus>
<clus scale="  127.151">  1  3  2 -1</clus>
<clus scale="   39.213">  1  3  2 -1</clus>
</clustering>
</event>
<event>
 6    0  0.8520634E+002  0.1106452E+03  0.7546771E-02  0.1259380E+00
         21   -1    0    0  504  501  0.00000000000E+00  0.00000000000E+00  0.14613563699E+04  0.14613563699E+04  0.00000000000E+00 0. -1.
         21   -1    0    0  506  502 -0.00000000000E+00 -0.00000000000E+00 -0.60330347863E+02  0.60330347863E+02  0.00000000000E+00 0.  1.
         21    1    1    2  503  502  0.41454548806E+02 -0.40533956640E+00 -0.15430867744E+02  0.44235230261E+02  0.00000000000E+00 0.  1.
         21    1    1    2  504  505  0.53691301837E+01 -0.76836549366E+02  0.22023139809E+03  0.23331213338E+03  0.00000000000E+00 0. -1.
         21    1    1    2  505  503 -0.21218943065E+02 -0.49127311094E+02  0.14558707563E+02  0.55458923592E+02  0.00000000000E+00 0.  1.
         21    1    1    2  506  501 -0.25604735925E+02  0.12636920003E+03  0.11816667841E+04  0.11886804305E+04  0.00000000000E+00 0. -1.
<scales pt_clust_3="41.45653" pt_clust_4="14000.00000" pt_clust_5="49.83523" pt_clust_6="110.64523"></scales>
<clustering>
<clus scale="   41.457">  2  3  1 -1</clus>
<clus scale="   49.835">  2  5  1 -1</clus>
<clus scale="  110.645">  1  6  2 -1</clus>
<clus scale="  110.645">  1  3  2 -1</clus>
</clustering>
</event>
<event>
 6    0  0.8520634E+002  0.1215695E+03  0.7546771E-02  0.1240530E+00
         21   -1    0    0  504  501  0.00000000000E+00  0.00000000000E+00  0.14687142567E+04  0.14687142567E+04  0.00000000000E+00 0. -1.
         21   -1    0    0  503  502 -0.00000000000E+00 -0.00000000000E+00 -0.77534490531E+03  0.77534490531E+03  0.00000000000E+00 0. -1.
         21    1    1    2  503  501  0.32613780357E+02  0.11699947825E+03 -0.61497797458E+02  0.13614152810E+03  0.00000000000E+00 0.  1.
         21    1    1    2  504  505  0.10566617534E+03  0.59636202614E+02  0.13998735462E+04  0.14051219743E+04  0.00000000000E+00 0. -1.
         21    1    1    2  505  506 -0.86808372046E+02 -0.13971039407E+03 -0.22875022362E+03  0.28174696533E+03  0.00000000000E+00 0.  1.
         21    1    1    2  506  502 -0.51471583649E+02 -0.36925286798E+02 -0.41625617377E+03  0.42104869426E+03  0.00000000000E+00 0. -1.
<scales pt_clust_3="108.33558" pt_clust_4="121.56954" pt_clust_5="14000.00000" pt_clust_6="63.34667"></scales>
<clustering>
<clus scale="   63.347">  2  6  1 -1</clus>
<clus scale="  108.336">  2  3  1 -1</clus>
<clus scale="  121.570">  1  4  2 -1</clus>
<clus scale="  121.570">  1  3  2 -1</clus>
</clustering>
</event>
<event>
 6    0  0.8520634E+002  0.1515391E+03  0.7546771E-02  0.1198594E+00
         21   -1    0    0  504  501  0.00000000000E+00  0.00000000000E+00  0.48652535947E+03  0.48652535947E+03  0.00000000000E+00 0.  1.
         21   -1    0    0  505  502 -0.00000000000E+00 -0.00000000000E+00 -0.17566661229E+03  0.17566661229E+03  0.00000000000E+00 0.  1.
         21    1    1    2  503  501 -0.28486623648E+02 -0.23396151127E+02  0.12340426101E+03  0.12879238816E+03  0.00000000000E+00 0. -1.
         21    1    1    2  504  502 -0.13214483182E+02 -0.13160231977E+03  0.18590597763E+03  0.22815526654E+03  0.00000000000E+00 0.  1.
         21    1    1    2  505  506 -0.63990056893E+02  0.94595459888E+01 -0.84040335850E+02  0.10605181960E+03  0.00000000000E+00 0.  1.
         21    1    1    2  506  503  0.10569116372E+03  0.14553892491E+03  0.85588844402E+02  0.19919249745E+03  0.00000000000E+00 0.  1.
<scales pt_clust_3="36.86282" pt_clust_4="14000.00000" pt_clust_5="65.44681" pt_clust_6="151.53907"></scales>
<clustering>
<clus scale="   36.863">  1  3  2 -1</clus>
<clus scale="   65.447">  2  5  1 -1</clus>
<clus scale="  151.539">  2  6  1 -1</clus>
<clus scale="   36.863">  1  3  2 -1</clus>
</clustering>
</event>
<event>
 6    0  0.8520634E+002  0.9984676E+02  0.7546771E-02  0.1280619E+00
         21   -1    0    0  506  501  0.00000000000E+00  0.00000000000E+00  0.12613356172E+03  0.12613356172E+03  0.00000000000E+00 0. -1.
         21   -1    0    0  504  502 -0.00000000000E+00 -0.00000000000E+00 -0.73018973230E+03  0.73018973230E+03  0.00000000000E+00 0.  1.
         21    1    1    2  503  502 -0.15548233452E+02  0.36170984996E+02 -0.55527688366E+03  0.55667091288E+03  0.00000000000E+00 0.  1.
         21    1    1    2  504  501 -0.21247745465E+02  0.86260217678E+02 -0.10601334384E+03  0.13831529530E+03  0.00000000000E+00 0.  1.
         21    1    1    2  505  503  0.34859436137E+02 -0.19587488222E+02 -0.62364450027E+01  0.40469040375E+02  0.00000000000E+00 0.  1.
         21    1    1    2  506  505  0.19365427799E+01 -0.10284371445E+03  0.63470501929E+02  0.12086804547E+03  0.00000000000E+00 0. -1.
<scales pt_clust_3="39.37115" pt_clust_4="99.84676" pt_clust_5="35.93682" pt_clust_6="14000.00000"></scales>
<clustering>
<clus scale="   39.371">  2  3  1 -1</clus>
<clus scale="   35.937">  2  5  1 -1</clus>
<clus scale="   99.847">  2  4  1 -1</clus>
<clus scale="   99.847">  1  3  2 -1</clus>
</clustering>
</event>
<event>
 6    0  0.8520634E+002  0.3736384E+03  0.7546771E-02  0.1053310E+00
         21   -1    0    0  505  501  0.00000000000E+00  0.00000000000E+00  0.14257345386E+04  0.14257345386E+04  0.00000000000E+00 0. -1.
         21   -1    0    0  504  502 -0.00000000000E+00 -0.00000000000E+00 -0.11959393799E+03  0.11959393799E+03  0.00000000000E+00 0. -1.
         21    1    1    2  503  501 -0.21773421655E+02  0.23344320873E+03  0.38980304561E+03  0.45488045458E+03  0.00000000000E+00 0. -1.
         21    1    1    2  504  503  0.99905112002E+01  0.10686646730E+03  0.40599715035E+02  0.11475447271E+03  0.00000000000E+00 0. -1.
         21    1    1    2  505  506  0.79964073733E+02  0.17790254888E+00  0.21258167874E+03  0.22712387561E+03  0.00000000000E+00 0.  1.
         21    1    1    2  506  502 -0.68181163279E+02 -0.34048757858E+03  0.66315616127E+03  0.74856967373E+03  0.00000000000E+00 0. -1.
<scales pt_clust_3="103.73871" pt_clust_4="103.73871" pt_clust_5="79.96427" pt_clust_6="341.05387"></scales>
<clustering>
<clus scale="   79.964">  1  5  2 -1</clus>
<clus scale="  103.739">  3  4 -1 -1</clus>
<clus scale="  341.054">  1  6  2 -1</clus>
<clus scale="   79.964">  1  3  2 -1</clus>
</clustering>
</event>
<event>
 6    0  0.8520634E+002  0.1032968E+03  0.7546771E-02  0.1273512E+00
         21   -1    0    0  506  501  0.00000000000E+00  0.00000000000E+00  0.16037331555E+04  0.16037331555E+04  0.00000000000E+00 0. -1.
         21   -1    0    0  503  502 -0.00000000000E+00 -0.00000000000E+00 -0.15823480985E+03  0.15823480985E+03  0.00000000000E+00 0. -1.
         21    1    1    2  503  505 -0.66916811268E+02 -0.61069898133E+02  0.29984497881E+03  0.31323218769E+03  0.00000000000E+00 0. -1.
         21    1    1    2  504  502  0.33151182547E+02  0.40285421195E+01 -0.85469366341E+02  0.91761880095E+02  0.00000000000E+00 0. -1.
         21    1    1    2  505  501  0.33276460710E+02 -0.43024691625E+02  0.12532990954E+04  0.12544788039E+04  0.00000000000E+00 0. -1.
         21    1    1    2  506  504  0.48916801133E+00  0.10006604764E+03 -0.22176362253E+02  0.10249509363E+03  0.00000000000E+00 0. -1.
<scales pt_clust_3="103.29676" pt_clust_4="33.39506" pt_clust_5="54.53699" pt_clust_6="14000.00000"></scales>
<clustering>
<clus scale="   33.395">  2  4  1 -1</clus>
<clus scale="   54.537">  1  5  2 -1</clus>
<clus scale="  103.297">  1  3  2 -1</clus>
<clus scale="   54.537">  1  3  2 -1</clus>
</clustering>
</event>
<event>
 6    0  0.8520634E+002  0.9733467E+02  0.7546771E-02  0.1286003E+00
         21   -1    0    0  506  501  0.00000000000E+00  0.00000000000E+00  0.61945853341E+03  0.61945853341E+03  0.00000000000E+00 0. -1.
         21   -1    0    0  503  502 -0.00000000000E+00 -0.00000000000E+00 -0.48033741115E+02  0.48033741115E+02  0.00000000000E+00 0. -1.
         21    1    1    2  503  505 -0.10835017873E+03 -0.37606827491E+02  0.17223774962E+03  0.20692964287E+03  0.00000000000E+00 0. -1.
         21    1    1    2  504  502 -0.26505524565E+01  0.30470553052E+02  0.22979835538E+01  0.30671823552E+02  0.00000000000E+00 0. -1.
         21    1    1    2  505  501  0.30700764866E+02  0.58837076742E+02  0.12197911855E+03  0.13886412036E+03  0.00000000000E+00 0. -1.
         21    1    1    2  506  504  0.80299966317E+02 -0.51700802303E+02  0.27490994058E+03  0.29102668774E+03  0.00000000000E+00 0. -1.
<scales pt_clust_3="97.33467" pt_clust_4="30.58562" pt_clust_5="72.91304" pt_clust_6="14000.00000"></scales>
<clustering>
<clus scale="   30.586">  2  4  1 -1</clus>
<clus scale="   72.913">  1  5  2 -1</clus>
<clus scale="   97.335">  2  3  1 -1</clus>
<clus scale="   72.913">  1  3  2 -1</clus>
</clustering>
</event>
<event>
 6    0  0.8520634E+002  0.1743005E+03  0.7546771E-02  0.1173436E+00
         21   -1    0    0  504  501  0.00000000000E+00  0.00000000000E+00  0.10760128063E+04  0.10760128063E+04  0.00000000000E+00 0. -1.
         21   -1    0    0  505  502 -0.00000000000E+00 -0.00000000000E+00 -0.73615976472E+03  0.73615976472E+03  0.00000000000E+00 0. -1.
         21    1    1    2  503  506 -0.69119025080E+02  0.60025921117E+02 -0.27429946399E+03  0.28917252079E+03  0.00000000000E+00 0. -1.
         21    1    1    2  504  503 -0.13014245306E+03 -0.90998088721E+02  0.59925956590E+02  0.16973164264E+03  0.00000000000E+00 0. -1.
         21    1    1    2  505  501  0.18060140425E+03  0.11137632056E+01  0.94439764560E+03  0.96151184116E+03  0.00000000000E+00 0. -1.
         21    1    1    2  506  502  0.18660073890E+02  0.29858404398E+02 -0.39017109664E+03  0.39175656641E+03  0.00000000000E+00 0. -1.
<scales pt_clust_3="100.13301" pt_clust_4="174.30052" pt_clust_5="14000.00000" pt_clust_6="35.20970"></scales>
<clustering>
<clus scale="   35.210">  2  6  1 -1</clus>
<clus scale="  100.133">  2  3  1 -1</clus>
<clus scale="  174.301">  2  4  1 -1</clus>
<clus scale="  174.301">  1  3  2 -1</clus>
</clustering>
</event>
<event>
 6    0  0.8520634E+002  0.1420677E+03  0.7546771E-02  0.1210573E+00
         21   -1    0    0  504  501  0.00000000000E+00  0.00000000000E+00  0.56530965788E+03  0.56530965788E+03  0.00000000000E+00 0.  1.
         21   -1    0    0  503  502 -0.00000000000E+00 -0.00000000000E+00 -0.80509944039E+03  0.80509944039E+03  0.00000000000E+00 0.  1.
         21    1    1    2  503  505  0.57438134216E+02  0.62235795922E+02 -0.30929141599E+03  0.32067680547E+03  0.00000000000E+00 0.  1.
         21    1    1    2  504  506 -0.68549885949E+02 -0.14571216593E+03 -0.33951906376E+02  0.16457172938E+03  0.00000000000E+00 0. -1.
         21    1    1    2  505  501  0.64095859724E+02 -0.12129172268E+02  0.48443579420E+03  0.48880817787E+03  0.00000000000E+00 0.  1.
         21    1    1    2  506  502 -0.52984107991E+02  0.95605542277E+02 -0.38098225434E+03  0.39635238555E+03  0.00000000000E+00 0.  1.
<scales pt_clust_3="87.28213" pt_clust_4="142.06772" pt_clust_5="65.23340" pt_clust_6="14000.00000"></scales>
<clustering>
<clus scale="   65.233">  1  5  2 -1</clus>
<clus scale="   87.282">  2  3  1 -1</clus>
<clus scale="  142.068">  1  4  2 -1</clus>
<clus scale="   65.233">  1  3  2 -1</clus>
</clustering>
</event>
<event>
 6    0  0.8520634E+002  0.1550314E+03  0.7546771E-02  0.1194423E+00
         21   -1    0    0  503  501  0.00000000000E+00  0.00000000000E+00  0.29566975499E+03  0.29566975499E+03  0.00000000000E+00 0.  1.
         21   -1    0    0  506  502 -0.00000000000E+00 -0.00000000000E+00 -0.64646256534E+03  0.64646256534E+03  0.00000000000E+00 0. -1.
         21    1    1    2  503  505  0.51735499813E+02  0.11752977669E+02  0.23380039890E+02  0.57976897901E+02  0.00000000000E+00 0.  1.
         21    1    1    2  504  501  0.95157036833E+02  0.45557128154E+02  0.21791375235E+03  0.24210889502E+03  0.00000000000E+00 0.  1.
         21    1    1    2  505  502  0.52252530254E+01  0.45243081888E+02 -0.24760480588E+03  0.25175857408E+03  0.00000000000E+00 0.  1.
         21    1    1    2  506  504 -0.15211778967E+03 -0.10255318771E+03 -0.34448179672E+03  0.39028795333E+03  0.00000000000E+00 0. -1.
<scales pt_clust_3="53.74544" pt_clust_4="155.03141" pt_clust_5="45.54382" pt_clust_6="14000.00000"></scales>
<clustering>
<clus scale="   45.544">  2  5  1 -1</clus>
<clus scale="   53.745">  1  3  2 -1</clus>
<clus scale="  155.031">  1  4  2 -1</clus>
<clus scale="   53.745">  1  3  2 -1</clus>
</clustering>
</event>
<event>
 6    0  0.8520634E+002  0.8657358E+02  0.7546771E-02  0.1311368E+00
         21   -1    0    0  505  501  0.00000000000E+00  0.00000000000E+00  0.12909443972E+04  0.12909443972E+04  0.00000000000E+00 0. -1.
         21   -1    0    0  503  502 -0.00000000000E+00 -0.00000000000E+00 -0.14217550942E+03  0.14217550942E+03  0.00000000000E+00 0.  1.
         21    1    1    2  503  501  0.33593721345E+02  0.62393573582E+02  0.61298583290E+03  0.61706817085E+03  0.00000000000E+00 0. -1.
         21    1    1    2  504  506 -0.35024923810E+02 -0.10540992047E+03  0.12324327171E+03  0.16591232818E+03  0.00000000000E+00 0. -1.
         21    1    1    2  505  504 -0.12812725966E+02 -0.39914439129E+02  0.51548137317E+03  0.51718311504E+03  0.00000000000E+00 0. -1.
         21    1    1    2  506  502  0.14243928430E+02  0.82930786016E+02 -0.10294159002E+03  0.13295629252E+03  0.00000000000E+00 0.  1.
<scales pt_clust_3="38.61551" pt_clust_4="14000.00000" pt_clust_5="41.92050" pt_clust_6="86.57358"></scales>
<clustering>
<clus scale="   41.921">  1  5  2 -1</clus>
<clus scale="   38.616">  1  3  2 -1</clus>
<clus scale="   86.574">  2  6  1 -1</clus>
<clus scale="   41.921">  1  3  2 -1</clus>
</clustering>
</event>
<event>
 6    0  0.8520634E+002  0.8048348E+02  0.7546771E-02  0.1327685E+00
         21   -1    0    0  503  501  0.00000000000E+00  0.00000000000E+00  0.30530609202E+03  0.30530609202E+03  0.00000000000E+00 0.  1.
         21   -1    0    0  506  502 -0.00000000000E+00 -0.00000000000E+00 -0.12467647177E+03  0.12467647177E+03  0.00000000000E+00 0.  1.
         21    1    1    2  503  502 -0.65373762140E+02  0.96583789347E+02  0.83040355003E+01  0.11692353975E+03  0.00000000000E+00 0.  1.
         21    1    1    2  504  501  0.32386885972E+02 -0.38544787079E+01  0.15723226998E+03  0.16057943241E+03  0.00000000000E+00 0.  1.
         21    1    1    2  505  504  0.49073754989E+02 -0.19103191893E+02  0.47053103453E+02  0.70619826634E+02  0.00000000000E+00 0.  1.
         21    1    1    2  506  505 -0.16086878821E+02 -0.73626118746E+02 -0.31959788686E+02  0.81859764993E+02  0.00000000000E+00 0.  1.
<scales pt_clust_3="14000.00000" pt_clust_4="32.61545" pt_clust_5="65.43424" pt_clust_6="80.48348"></scales>
<clustering>
<clus scale="   32.615">  1  4  2 -1</clus>
<clus scale="   65.434">  1  5  2 -1</clus>
<clus scale="   80.483">  2  6  1 -1</clus>
<clus scale="   32.615">  1  3  2 -1</clus>
</clustering>
</event>
<event>
 6    0  0.8520634E+002  0.6843407E+02  0.7546771E-02  0.1365500E+00
         21   -1    0    0  503  501  0.00000000000E+00  0.00000000000E+00  0.10020763929E+04  0.10020763929E+04  0.00000000000E+00 0. -1.
         21   -1    0    0  505  502 -0.00000000000E+00 -0.00000000000E+00 -0.31251252247E+03  0.31251252247E+03  0.00000000000E+00 0.  1.
         21    1    1    2  503  502  0.61314582898E+02 -0.24134101340E+02  0.84429870252E+03  0.84686612401E+03  0.00000000000E+00 0. -1.
         21    1    1    2  504  506 -0.84554079592E+01 -0.60086307865E+02 -0.12261785523E+03  0.13681007542E+03  0.00000000000E+00 0.  1.
         21    1    1    2  505  504  0.45603123465E+02  0.27086362497E+02 -0.15474953294E+03  0.16358708338E+03  0.00000000000E+00 0.  1.
         21    1    1    2  506  501 -0.98462298403E+02  0.57134046709E+02  0.12263255613E+03  0.16732563259E+03  0.00000000000E+00 0. -1.
<scales pt_clust_3="68.43407" pt_clust_4="47.84490" pt_clust_5="53.04070" pt_clust_6="14000.00000"></scales>
<clustering>
<clus scale="   53.041">  2  5  1 -1</clus>
<clus scale="   47.845">  2  4  1 -1</clus>
<clus scale="   68.434">  1  3  2 -1</clus>
<clus scale="   68.434">  1  3  2 -1</clus>
</clustering>
</event>
<event>
 6    0  0.8520634E+002  0.9705934E+02  0.7546771E-02  0.1286604E+00
         21   -1    0    0  506  501  0.00000000000E+00  0.00000000000E+00  0.15265876198E+03  0.15265876198E+03  0.00000000000E+00 0.  1.
         21   -1    0    0  503  502 -0.00000000000E+00 -0.00000000000E+00 -0.10362718693E+04  0.10362718693E+04  0.00000000000E+00 0.  1.
         21    1    1    2  503  504 -0.13020043449E+03  0.22828895116E+02 -0.17129918396E+03  0.21637172186E+03  0.00000000000E+00 0.  1.
         21    1    1    2  504  501 -0.21313954569E+01  0.49537043478E+02  0.11124054924E+03  0.12179048123E+03  0.00000000000E+00 0.  1.
         21    1    1    2  505  502  0.63036102577E+02 -0.31744410390E+02 -0.69903634252E+03  0.70259025468E+03  0.00000000000E+00 0.  1.
         21    1    1    2  506  505  0.69295727366E+02 -0.40621528204E+02 -0.12451813006E+03  0.14817817349E+03  0.00000000000E+00 0.  1.
<scales pt_clust_3="97.05934" pt_clust_4="49.58288" pt_clust_5="69.42165" pt_clust_6="14000.00000"></scales>
<clustering>
<clus scale="   49.583">  1  4  2 -1</clus>
<clus scale="   69.422">  2  5  1 -1</clus>
<clus scale="   97.059">  2  3  1 -1</clus>
<clus scale="   49.583">  1  3  2 -1</clus>
</clustering>
</event>
<event>
 6    0  0.8520634E+002  0.1574614E+03  0.7546771E-02  0.1191593E+00
         21   -1    0    0  506  501  0.00000000000E+00  0.00000000000E+00  0.17957875360E+03  0.17957875360E+03  0.00000000000E+00 0. -1.
         21   -1    0    0  504  502 -0.00000000000E+00 -0.00000000000E+00 -0.17914531051E+03  0.17914531051E+03  0.00000000000E+00 0. -1.
         21    1    1    2  503  505  0.64923755421E+02  0.10209661224E+03 -0.50776255581E+02  0.13121372024E+03  0.00000000000E+00 0. -1.
         21    1    1    2  504  503 -0.10284605155E+02  0.36195094086E+02  0.21075264318E+01  0.37686862522E+02  0.00000000000E+00 0. -1.
         21    1    1    2  505  501 -0.36247661258E+02  0.83920245814E+00  0.32156794011E+02  0.48462940568E+02  0.00000000000E+00 0. -1.
         21    1    1    2  506  502 -0.18391489008E+02 -0.13913090878E+03  0.16945378229E+02  0.14136054078E+03  0.00000000000E+00 0. -1.
<scales pt_clust_3="35.48443" pt_clust_4="35.48443" pt_clust_5="36.25737" pt_clust_6="144.03246"></scales>
<clustering>
<clus scale="   35.484">  3  4 -1 -1</clus>
<clus scale="   36.257">  1  5  2 -1</clus>
<clus scale="  144.032">  1  6  2 -1</clus>
<clus scale="   36.257">  1  3  2 -1</clus>
</clustering>
</event>
<event>
 6    0  0.8520634E+002  0.1065801E+03  0.7546771E-02  0.1267037E+00
         21   -1    0    0  504  501  0.00000000000E+00  0.00000000000E+00  0.17412227867E+03  0.17412227867E+03  0.00000000000E+00 0.  1.
         21   -1    0    0  505  502 -0.00000000000E+00 -0.00000000000E+00 -0.67775696912E+03  0.67775696912E+03  0.00000000000E+00 0. -1.
         21    1    1    2  503  501  0.33009552200E+02 -0.21403110245E+02  0.40518636045E+02  0.56475512672E+02  0.00000000000E+00 0. -1.
         21    1    1    2  504  502  0.94024483749E+01  0.12150012292E+03  0.86607478780E+02  0.14950431862E+03  0.00000000000E+00 0.  1.
         21    1    1    2  505  506  0.24140888139E+02 -0.46556914563E+02 -0.20072867418E+03  0.20746645370E+03  0.00000000000E+00 0. -1.
         21    1    1    2  506  503 -0.66552888714E+02 -0.53540098112E+02 -0.43003213109E+03  0.43843296280E+03  0.00000000000E+00 0. -1.
<scales pt_clust_3="39.34112" pt_clust_4="106.58015" pt_clust_5="53.36315" pt_clust_6="14000.00000"></scales>
<clustering>
<clus scale="   39.341">  1  3  2 -1</clus>
<clus scale="   53.363">  2  5  1 -1</clus>
<clus scale="  106.580">  1  4  2 -1</clus>
<clus scale="   39.341">  1  3  2 -1</clus>
</clustering>
</event>
<event>
 6    0  0.8520634E+002  0.1043190E+03  0.7546771E-02  0.1271467E+00
         21   -1    0    0  502  501  0.00000000000E+00  0.00000000000E+00  0.67814444084E+03  0.67814444084E+03  0.00000000000E+00 0. -1.
         21   -1    0    0  504  502 -0.00000000000E+00 -0.00000000000E+00 -0.30196881143E+03  0.30196881143E+03  0.00000000000E+00 0. -1.
         21    1    1    2  503  505 -0.42640442007E+01  0.10043761183E+03 -0.22515082155E+03  0.24657410323E+03  0.00000000000E+00 0. -1.
         21    1    1    2  504  503 -0.34320292751E+02  0.56697166299E+00 -0.50972081391E+02  0.61452071020E+02  0.00000000000E+00 0. -1.
         21    1    1    2  505  506  0.62992255643E+02 -0.50194408653E+02  0.19003779793E+03  0.20640219857E+03  0.00000000000E+00 0. -1.
         21    1    1    2  506  501 -0.24407918692E+02 -0.50810174840E+02  0.46226073442E+03  0.46568487945E+03  0.00000000000E+00 0. -1.
<scales pt_clust_3="104.31900" pt_clust_4="34.32498" pt_clust_5="14000.00000" pt_clust_6="56.46900"></scales>
<clustering>
<clus scale="   34.325">  2  4  1 -1</clus>
<clus scale="   56.469">  1  6  2 -1</clus>
<clus scale="  104.319">  2  3  1 -1</clus>
<clus scale="   56.469">  1  3  2 -1</clus>
</clustering>
</event>
<event>
 6    0  0.8520634E+002  0.1063240E+03  0.7546771E-02  0.1267533E+00
         21   -1    0    0  506  501  0.00000000000E+00  0.00000000000E+00  0.14595347262E+04  0.14595347262E+04  0.00000000000E+00 0.  1.
         21   -1    0    0  503  502 -0.00000000000E+00 -0.00000000000E+00 -0.66038167609E+02  0.66038167609E+02  0.00000000000E+00 0.  1.
         21    1    1    2  503  501  0.27060156141E+02 -0.79193435817E+02  0.76698564779E+02  0.11351881855E+03  0.00000000000E+00 0.  1.
         21    1    1    2  504  502 -0.10784941752E+03 -0.25522025080E+01  0.26277942294E+02  0.11103396259E+03  0.00000000000E+00 0.  1.
         21    1    1    2  505  504  0.49043759855E+02  0.89692700263E+02  0.52838798672E+03  0.53818578146E+03  0.00000000000E+00 0.  1.
         21    1    1    2  506  505  0.31745501527E+02 -0.79470619383E+01  0.76213206476E+03  0.76283433116E+03  0.00000000000E+00 0.  1.
<scales pt_clust_3="86.19719" pt_clust_4="14000.00000" pt_clust_5="106.32401" pt_clust_6="32.72511"></scales>
<clustering>
<clus scale="   32.725">  1  6  2 -1</clus>
<clus scale="   86.197">  2  3  1 -1</clus>
<clus scale="  106.324">  1  5  2 -1</clus>
<clus scale="   32.725">  1  3  2 -1</clus>
</clustering>
</event>
<event>
 6    0  0.8520634E+002  0.9216735E+02  0.7546771E-02  0.1297686E+00
         21   -1    0    0  505  501  0.00000000000E+00  0.00000000000E+00  0.24095900976E+03  0.24095900976E+03  0.00000000000E+00 0.  1.
         21   -1    0    0  506  502 -0.00000000000E+00 -0.00000000000E+00 -0.53528887868E+03  0.53528887868E+03  0.00000000000E+00 0.  1.
         21    1    1    2  503  501  0.38287519129E+02 -0.27302276346E+02  0.16173712135E+03  0.16843469012E+03  0.00000000000E+00 0.  1.
         21    1    1    2  504  502  0.31695270075E+02  0.24297800994E+02 -0.37885929132E+03  0.38095844380E+03  0.00000000000E+00 0.  1.
         21    1    1    2  505  504 -0.12450356493E+02  0.79948440740E+02 -0.99481790225E+02  0.12823178678E+03  0.00000000000E+00 0.  1.
         21    1    1    2  506  503 -0.57532432711E+02 -0.76943965388E+02  0.22274091282E+02  0.98622967740E+02  0.00000000000E+00 0. -1.
<scales pt_clust_3="47.28428" pt_clust_4="39.93712" pt_clust_5="92.16735" pt_clust_6="14000.00000"></scales>
<clustering>
<clus scale="   39.937">  2  4  1 -1</clus>
<clus scale="   47.284">  1  3  2 -1</clus>
<clus scale="   92.167">  2  5  1 -1</clus>
<clus scale="   47.284">  1  3  2 -1</clus>
</clustering>
</event>
<event>
 6    0  0.8520634E+002  0.8676898E+02  0.7546771E-02  0.1310870E+00
         21   -1    0    0  505  501  0.00000000000E+00  0.00000000000E+00  0.23862434350E+03  0.23862434350E+03  0.00000000000E+00 0.  1.
         21   -1    0    0  503  502 -0.00000000000E+00 -0.00000000000E+00 -0.19710521307E+03  0.19710521307E+03  0.00000000000E+00 0.  1.
         21    1    1    2  503  504  0.60998700007E+02 -0.62236093558E+01 -0.66420923452E+02  0.90395319504E+02  0.00000000000E+00 0.  1.
         21    1    1    2  504  506  0.72642068334E+02 -0.35552267405E+02  0.20543514110E+02  0.83443812122E+02  0.00000000000E+00 0.  1.
         21    1    1    2  505  502 -0.46339266682E+02  0.21481455052E+02 -0.66466771961E+02  0.83824890831E+02  0.00000000000E+00 0.  1.
         21    1    1    2  506  501 -0.87301501658E+02  0.20294421709E+02  0.15386331173E+03  0.17806553412E+03  0.00000000000E+00 0.  1.
<scales pt_clust_3="32.11603" pt_clust_4="14000.00000" pt_clust_5="51.07622" pt_clust_6="86.76898"></scales>
<clustering>
<clus scale="   51.076">  2  5  1 -1</clus>
<clus scale="   32.116">  2  3  1 -1</clus>
<clus scale="   86.769">  1  6  2 -1</clus>
<clus scale="   86.769">  1  3  2 -1</clus>
</clustering>
</event>
<event>
 6    0  0.8520634E+002  0.1862995E+03  0.7546771E-02  0.1161842E+00
         21   -1    0    0  505  501  0.00000000000E+00  0.00000000000E+00  0.97742532488E+03  0.97742532488E+03  0.00000000000E+00 0.  1.
         21   -1    0    0  503  502 -0.00000000000E+00 -0.00000000000E+00 -0.94455899377E+02  0.94455899377E+02  0.00000000000E+00 0.  1.
         21    1    1    2  503  506  0.12785138481E+03  0.47763326753E+02  0.42099399233E+03  0.44256440611E+03  0.00000000000E+00 0.  1.
         21    1    1    2  504  502  0.21903474883E+02 -0.40299433214E+02 -0.39300576638E+02  0.60401505390E+02  0.00000000000E+00 0.  1.
         21    1    1    2  505  504 -0.18134631714E+03 -0.27395429222E+02  0.22571323250E+03  0.29083235654E+03  0.00000000000E+00 0.  1.
         21    1    1    2  506  501  0.31591457453E+02  0.19931535683E+02  0.27556277731E+03  0.27808295621E+03  0.00000000000E+00 0.  1.
<scales pt_clust_3="33.64758" pt_clust_4="45.86727" pt_clust_5="174.84512" pt_clust_6="33.64758"></scales>
<clustering>
<clus scale="   33.648">  3  6 -1 -1</clus>
<clus scale="   45.867">  2  4  1 -1</clus>
<clus scale="  174.845">  2  5  1 -1</clus>
<clus scale="  186.299">  1  3  2 -1</clus>
</clustering>
</event>
<event>
 6    0  0.8520634E+002  0.1260566E+03  0.7546771E-02  0.1233427E+00
         21   -1    0    0  503  501  0.00000000000E+00  0.00000000000E+00  0.14356777977E+04  0.14356777977E+04  0.00000000000E+00 0. -1.
         21   -1    0    0  505  502 -0.00000000000E+00 -0.00000000000E+00 -0.77674343104E+02  0.77674343104E+02  0.00000000000E+00 0.  1.
         21    1    1    2  503  504  0.24025377136E+02  0.50413241766E+02  0.65432234739E+03  0.65670118622E+03  0.00000000000E+00 0. -1.
         21    1    1    2  504  506  0.52380094835E+02 -0.19810045902E+02  0.54311173252E+03  0.54599126939E+03  0.00000000000E+00 0. -1.
         21    1    1    2  505  501 -0.71226994152E+01 -0.13786422162E+03  0.89517951913E+02  0.16453188191E+03  0.00000000000E+00 0.  1.
         21    1    1    2  506  502 -0.69282772556E+02  0.10726102575E+03  0.71051422810E+02  0.14612780332E+03  0.00000000000E+00 0.  1.
<scales pt_clust_3="55.84544" pt_clust_4="70.83900" pt_clust_5="126.05658" pt_clust_6="14000.00000"></scales>
<clustering>
<clus scale="   55.845">  1  3  2 -1</clus>
<clus scale="   70.839">  1  4  2 -1</clus>
<clus scale="  126.057">  1  5  2 -1</clus>
<clus scale="   55.845">  1  3  2 -1</clus>
</clustering>
</event>
<event>
 6    0  0.8520634E+002  0.2636605E+03  0.7546771E-02  0.1104964E+00
         21   -1    0    0  504  501  0.00000000000E+00  0.00000000000E+00  0.28474668291E+03  0.28474668291E+03  0.00000000000E+00 0. -1.
         21   -1    0    0  505  502 -0.00000000000E+00 -0.00000000000E+00 -0.44705223612E+03  0.44705223612E+03  0.00000000000E+00 0. -1.
         21    1    1    2  503  506  0.16738904097E+03 -0.18647162109E+03 -0.13269417034E+02  0.25093193089E+03  0.00000000000E+00 0. -1.
         21    1    1    2  504  503 -0.17314573773E+02 -0.28064518699E+02  0.51088996685E+02  0.60807049402E+02  0.00000000000E+00 0. -1.
         21    1    1    2  505  501  0.40395101399E+02  0.11256067238E+02 -0.12455020274E+03  0.13141999950E+03  0.00000000000E+00 0. -1.
         21    1    1    2  506  502 -0.19046956860E+03  0.20328007256E+03 -0.75574930124E+02  0.28863993924E+03  0.00000000000E+00 0. -1.
<scales pt_clust_3="14000.00000" pt_clust_4="32.97593" pt_clust_5="41.57190" pt_clust_6="263.66049"></scales>
<clustering>
<clus scale="   32.976">  1  4  2 -1</clus>
<clus scale="   41.572">  2  5  1 -1</clus>
<clus scale="  263.660">  2  6  1 -1</clus>
<clus scale="   32.976">  1  3  2 -1</clus>
</clustering>
</event>
<event>
 6    0  0.8520634E+002  0.9824834E+02  0.7546771E-02  0.1284023E+00
         21   -1    0    0  505  501  0.00000000000E+00  0.00000000000E+00  0.63686658326E+03  0.63686658326E+03  0.00000000000E+00 0. -1.
         21   -1    0    0  503  502 -0.00000000000E+00 -0.00000000000E+00 -0.18301488979E+03  0.18301488979E+03  0.00000000000E+00 0.  1.
         21    1    1    2  503  506 -0.34076383349E+02  0.93007263785E+02 -0.12336705918E+03  0.15821182734E+03  0.00000000000E+00 0.  1.
         21    1    1    2  504  502  0.10556641064E+03 -0.55410945953E+02  0.10460525812E+03  0.15860926837E+03  0.00000000000E+00 0. -1.
         21    1    1    2  505  504 -0.32368932854E+00  0.34344420615E+02  0.30744591134E+03  0.30935842061E+03  0.00000000000E+00 0. -1.
         21    1    1    2  506  501 -0.71166337961E+02 -0.71940738448E+02  0.16516758319E+03  0.19370195674E+03  0.00000000000E+00 0. -1.
<scales pt_clust_3="98.24834" pt_clust_4="14000.00000" pt_clust_5="34.34595" pt_clust_6="88.98228"></scales>
<clustering>
<clus scale="   34.346">  1  5  2 -1</clus>
<clus scale="   88.982">  1  6  2 -1</clus>
<clus scale="   98.248">  2  3  1 -1</clus>
<clus scale="   34.346">  1  3  2 -1</clus>
</clustering>
</event>
<event>
 6    0  0.8520634E+002  0.1518510E+03  0.7546771E-02  0.1198217E+00
         21   -1    0    0  503  501  0.00000000000E+00  0.00000000000E+00  0.24436795412E+03  0.24436795412E+03  0.00000000000E+00 0.  1.
         21   -1    0    0  505  502 -0.00000000000E+00 -0.00000000000E+00 -0.41062180651E+03  0.41062180651E+03  0.00000000000E+00 0. -1.
         21    1    1    2  503  506  0.41148212421E+02 -0.60102231534E+01  0.19029851975E+02  0.45732192534E+02  0.00000000000E+00 0. -1.
         21    1    1    2  504  501 -0.99211884856E+02 -0.12906302154E+03  0.14590604631E+03  0.21860657808E+03  0.00000000000E+00 0.  1.
         21    1    1    2  505  504 -0.30537074709E+02 -0.12560588020E+02 -0.75363138093E+02  0.82279304120E+02  0.00000000000E+00 0. -1.
         21    1    1    2  506  502  0.88600747145E+02  0.14763383272E+03 -0.25582661259E+03  0.30837168590E+03  0.00000000000E+00 0. -1.
<scales pt_clust_3="40.44769" pt_clust_4="151.85098" pt_clust_5="33.01941" pt_clust_6="14000.00000"></scales>
<clustering>
<clus scale="   33.019">  2  5  1 -1</clus>
<clus scale="   40.448">  1  3  2 -1</clus>
<clus scale="  151.851">  1  4  2 -1</clus>
<clus scale="   40.448">  1  3  2 -1</clus>
</clustering>
</event>
<event>
 6    0  0.4095353E+003  0.1110149E+03  0.7546771E-02  0.1258702E+00
         21   -1    0    0  506  501  0.00000000000E+00  0.00000000000E+00  0.10329541340E+04  0.10329541340E+04  0.00000000000E+00 0.  1.
         21   -1    0    0  505  502 -0.00000000000E+00 -0.00000000000E+00 -0.74472648013E+03  0.74472648013E+03  0.00000000000E+00 0. -1.
         21    1    1    2  503  501  0.42570695116E+02  0.20769920318E+02  0.11483904619E+03  0.12422423356E+03  0.00000000000E+00 0. -1.
         21    1    1    2  504  503 -0.29145829234E+02 -0.40733149980E+02  0.70793670149E+02  0.86720312512E+02  0.00000000000E+00 0. -1.
         21    1    1    2  505  504 -0.63790066802E+02  0.91006757939E+02 -0.72555630770E+03  0.73401863618E+03  0.00000000000E+00 0. -1.
         21    1    1    2  506  502  0.50365200921E+02 -0.71043528277E+02  0.82815124521E+03  0.83271743185E+03  0.00000000000E+00 0.  1.
<scales pt_clust_3="47.36722" pt_clust_4="46.53489" pt_clust_5="111.01493" pt_clust_6="14000.00000"></scales>
<clustering>
<clus scale="   47.367">  1  3  2 -1</clus>
<clus scale="   46.535">  1  4  2 -1</clus>
<clus scale="  111.015">  2  5  1 -1</clus>
<clus scale="   47.367">  1  3  2 -1</clus>
</clustering>
</event>
<event>
 6    0  0.8520634E+002  0.8580180E+02  0.7546771E-02  0.1313349E+00
         21   -1    0    0  504  501  0.00000000000E+00  0.00000000000E+00  0.12509368253E+04  0.12509368253E+04  0.00000000000E+00 0. -1.
         21   -1    0    0  506  502 -0.00000000000E+00 -0.00000000000E+00 -0.44022664640E+02  0.44022664640E+02  0.00000000000E+00 0. -1.
         21    1    1    2  503  502 -0.12554682830E+03 -0.23935110976E+02  0.46282352289E+03  0.48014634121E+03  0.00000000000E+00 0. -1.
         21    1    1    2  504  505  0.23377024886E+02  0.21014671256E+02  0.46515515005E+03  0.46621606077E+03  0.00000000000E+00 0. -1.
         21    1    1    2  505  503  0.44027458505E+02  0.46343989942E+02  0.26762441763E+03  0.27515270563E+03  0.00000000000E+00 0. -1.
         21    1    1    2  506  501  0.58142344911E+02 -0.43423550222E+02  0.11311070061E+02  0.73444382301E+02  0.00000000000E+00 0. -1.
<scales pt_clust_3="14000.00000" pt_clust_4="31.43409" pt_clust_5="85.80180" pt_clust_6="72.91930"></scales>
<clustering>
<clus scale="   31.434">  1  4  2 -1</clus>
<clus scale="   72.919">  2  6  1 -1</clus>
<clus scale="   85.802">  1  5  2 -1</clus>
<clus scale="   31.434">  1  3  2 -1</clus>
</clustering>
</event>
<event>
 6    0  0.8520634E+002  0.1884100E+03  0.7546771E-02  0.1159903E+00
         21   -1    0    0  502  501  0.00000000000E+00  0.00000000000E+00  0.15495095902E+04  0.15495095902E+04  0.00000000000E+00 0.  1.
         21   -1    0    0  505  502 -0.00000000000E+00 -0.00000000000E+00 -0.11334960388E+03  0.11334960388E+03  0.00000000000E+00 0.  1.
         21    1    1    2  503  501 -0.27096374541E+02 -0.47013205155E+02  0.11637910604E+04  0.11650554010E+04  0.00000000000E+00 0.  1.
         21    1    1    2  504  503  0.13754481791E+03 -0.96197977437E+02  0.25295702921E+03  0.30357846831E+03  0.00000000000E+00 0.  1.
         21    1    1    2  505  506 -0.71476685809E+02  0.12860771733E+03  0.32335786110E+02  0.15064682086E+03  0.00000000000E+00 0.  1.
         21    1    1    2  506  504 -0.38971757560E+02  0.14603465264E+02 -0.12923889458E+02  0.43578503918E+02  0.00000000000E+00 0. -1.
<scales pt_clust_3="54.26283" pt_clust_4="175.67003" pt_clust_5="36.22128" pt_clust_6="36.22128"></scales>
<clustering>
<clus scale="   36.221">  5  6 -1 -1</clus>
<clus scale="   54.263">  1  3  2 -1</clus>
<clus scale="  175.670">  1  4  2 -1</clus>
<clus scale="   54.263">  1  3  2 -1</clus>
</clustering>
</event>
<event>
 6    0  0.8520634E+002  0.7538106E+02  0.7546771E-02  0.1342695E+00
         21   -1    0    0  506  501  0.00000000000E+00  0.00000000000E+00  0.86865939736E+02  0.86865939736E+02  0.00000000000E+00 0.  1.
         21   -1    0    0  503  502 -0.00000000000E+00 -0.00000000000E+00 -0.15314970688E+04  0.15314970688E+04  0.00000000000E+00 0. -1.
         21    1    1    2  503  505  0.68588475888E+02 -0.32938915038E+02 -0.13951306454E+04  0.13972039468E+04  0.00000000000E+00 0. -1.
         21    1    1    2  504  502 -0.78945029230E+02 -0.19499389927E+02 -0.79736218880E+02  0.11388770104E+03  0.00000000000E+00 0.  1.
         21    1    1    2  505  501  0.42795912660E+02  0.10154232233E+02 -0.36201758211E+01  0.44132802376E+02  0.00000000000E+00 0.  1.
         21    1    1    2  506  504 -0.32439359317E+02  0.42284072733E+02  0.33855911025E+02  0.63138558355E+02  0.00000000000E+00 0.  1.
<scales pt_clust_3="75.38106" pt_clust_4="14000.00000" pt_clust_5="43.98407" pt_clust_6="49.69368"></scales>
<clustering>
<clus scale="   43.984">  1  5  2 -1</clus>
<clus scale="   49.694">  1  6  2 -1</clus>
<clus scale="   75.381">  2  3  1 -1</clus>
<clus scale="   43.984">  1  3  2 -1</clus>
</clustering>
</event>
<event>
 6    0  0.8520634E+002  0.1080087E+03  0.7546771E-02  0.1264302E+00
         21   -1    0    0  504  501  0.00000000000E+00  0.00000000000E+00  0.85575132666E+03  0.85575132666E+03  0.00000000000E+00 0.  1.
         21   -1    0    0  505  502 -0.00000000000E+00 -0.00000000000E+00 -0.26596583315E+02  0.26596583315E+02  0.00000000000E+00 0.  1.
         21    1    1    2  503  502 -0.18475713045E+02 -0.38811863585E+02  0.59624589753E+02  0.73503771540E+02  0.00000000000E+00 0.  1.
         21    1    1    2  504  503 -0.62233229704E+02 -0.61735331437E+02  0.48098242835E+03  0.48890522845E+03  0.00000000000E+00 0.  1.
         21    1    1    2  505  506  0.60490277358E+02  0.59017061689E+02  0.13214315970E+03  0.15685630966E+03  0.00000000000E+00 0.  1.
         21    1    1    2  506  501  0.20218665391E+02  0.41530133332E+02  0.15640456555E+03  0.16308260033E+03  0.00000000000E+00 0.  1.
<scales pt_clust_3="42.98503" pt_clust_4="95.85634" pt_clust_5="36.79774" pt_clust_6="36.79774"></scales>
<clustering>
<clus scale="   36.798">  5  6 -1 -1</clus>
<clus scale="   42.985">  2  3  1 -1</clus>
<clus scale="   95.856">  1  4  2 -1</clus>
<clus scale="   95.856">  1  3  2 -1</clus>
</clustering>
</event>
<event>
 6    0  0.8520634E+002  0.7350750E+02  0.7546771E-02  0.1348556E+00
         21   -1    0    0  506  501  0.00000000000E+00  0.00000000000E+00  0.30423567564E+03  0.30423567564E+03  0.00000000000E+00 0. -1.
         21   -1    0    0  504  502 -0.00000000000E+00 -0.00000000000E+00 -0.17483073702E+04  0.17483073702E+04  0.00000000000E+00 0. -1.
         21    1    1    2  503  501 -0.32797215314E+02 -0.65701006101E+02  0.29489293122E+03  0.30389820733E+03  0.00000000000E+00 0. -1.
         21    1    1    2  504  505 -0.36746704529E+02 -0.18667168539E+02 -0.32817993788E+03  0.33075800081E+03  0.00000000000E+00 0. -1.
         21    1    1    2  505  503  0.43251203762E+02 -0.54988911068E+01 -0.29840671886E+03  0.30157498950E+03  0.00000000000E+00 0. -1.
         21    1    1    2  506  502  0.26292716081E+02  0.89867065747E+02 -0.11123779690E+04  0.11163118482E+04  0.00000000000E+00 0. -1.
<scales pt_clust_3="73.50750" pt_clust_4="41.21630" pt_clust_5="36.71748" pt_clust_6="14000.00000"></scales>
<clustering>
<clus scale="   41.216">  2  4  1 -1</clus>
<clus scale="   36.717">  2  5  1 -1</clus>
<clus scale="   73.507">  1  3  2 -1</clus>
<clus scale="   73.507">  1  3  2 -1</clus>
</clustering>
</event>
<event>
 6    0  0.8520634E+002  0.8296458E+02  0.7546771E-02  0.1320843E+00
         21   -1    0    0  506  501  0.00000000000E+00  0.00000000000E+00  0.66769324584E+03  0.66769324584E+03  0.00000000000E+00 0.  1.
         21   -1    0    0  504  502 -0.00000000000E+00 -0.00000000000E+00 -0.10153700228E+03  0.10153700228E+03  0.00000000000E+00 0.  1.
         21    1    1    2  503  501 -0.57057462270E+02  0.64224207006E+02  0.32921439598E+03  0.34023877099E+03  0.00000000000E+00 0.  1.
         21    1    1    2  504  503 -0.27425348687E+02 -0.75513325667E+02 -0.41850094549E+02  0.90586105544E+02  0.00000000000E+00 0.  1.
         21    1    1    2  505  502  0.99871191271E+02  0.62177183981E+02  0.10861367646E+03  0.16011616960E+03  0.00000000000E+00 0.  1.
         21    1    1    2  506  505 -0.15388380315E+02 -0.50888065321E+02  0.17017826566E+03  0.17828920199E+03  0.00000000000E+00 0. -1.
<scales pt_clust_3="73.74347" pt_clust_4="14000.00000" pt_clust_5="82.96458" pt_clust_6="53.16387"></scales>
<clustering>
<clus scale="   53.164">  1  6  2 -1</clus>
<clus scale="   73.743">  1  3  2 -1</clus>
<clus scale="   82.965">  1  5  2 -1</clus>
<clus scale="   53.164">  1  3  2 -1</clus>
</clustering>
</event>
<event>
 6    0  0.8520634E+002  0.8555487E+02  0.7546771E-02  0.1313988E+00
         21   -1    0    0  504  501  0.00000000000E+00  0.00000000000E+00  0.24797580974E+03  0.24797580974E+03  0.00000000000E+00 0. -1.
         21   -1    0    0  506  502 -0.00000000000E+00 -0.00000000000E+00 -0.16003556433E+04  0.16003556433E+04  0.00000000000E+00 0.  1.
         21    1    1    2  503  502 -0.44956103896E+02  0.73271341625E+02 -0.13126203108E+04  0.13154321803E+04  0.00000000000E+00 0.  1.
         21    1    1    2  504  505  0.20659226213E+00 -0.38977449731E+02  0.21940790072E+03  0.22284324348E+03  0.00000000000E+00 0. -1.
         21    1    1    2  505  503  0.45510428966E+02  0.60271554552E+02 -0.10969483084E+03  0.13317963562E+03  0.00000000000E+00 0.  1.
         21    1    1    2  506  501 -0.76091733305E+00 -0.94565446446E+02 -0.14947259266E+03  0.17687639360E+03  0.00000000000E+00 0.  1.
<scales pt_clust_3="14000.00000" pt_clust_4="38.97800" pt_clust_5="62.83216" pt_clust_6="85.55487"></scales>
<clustering>
<clus scale="   38.978">  1  4  2 -1</clus>
<clus scale="   62.832">  1  5  2 -1</clus>
<clus scale="   85.555">  1  6  2 -1</clus>
<clus scale="   38.978">  1  3  2 -1</clus>
</clustering>
</event>
<event>
 6    0  0.8520634E+002  0.9341557E+02  0.7546771E-02  0.1294785E+00
         21   -1    0    0  506  501  0.00000000000E+00  0.00000000000E+00  0.12090831615E+03  0.12090831615E+03  0.00000000000E+00 0. -1.
         21   -1    0    0  504  502 -0.00000000000E+00 -0.00000000000E+00 -0.30133253487E+04  0.30133253487E+04  0.00000000000E+00 0. -1.
         21    1    1    2  503  502 -0.27762420771E+02 -0.34779831345E+02 -0.19413769484E+03  0.19917287273E+03  0.00000000000E+00 0. -1.
         21    1    1    2  504  501  0.22207568435E+02  0.13427505345E+03 -0.27727011320E+04  0.27760393609E+04  0.00000000000E+00 0. -1.
         21    1    1    2  505  503 -0.11353005674E+02 -0.52933402788E+02 -0.15539487368E+02  0.56323277037E+02  0.00000000000E+00 0. -1.
         21    1    1    2  506  505  0.16907858011E+02 -0.46561819315E+02  0.89961281619E+02  0.10269815418E+03  0.00000000000E+00 0. -1.
<scales pt_clust_3="44.50156" pt_clust_4="93.41557" pt_clust_5="14000.00000" pt_clust_6="49.58920"></scales>
<clustering>
<clus scale="   44.502">  2  3  1 -1</clus>
<clus scale="   49.589">  1  6  2 -1</clus>
<clus scale="   93.416">  2  4  1 -1</clus>
<clus scale="   49.589">  1  3  2 -1</clus>
</clustering>
</event>
<event>
 6    0  0.8520634E+002  0.9730598E+02  0.7546771E-02  0.1286065E+00
         21   -1    0    0  502  501  0.00000000000E+00  0.00000000000E+00  0.47498247385E+03  0.47498247385E+03  0.00000000000E+00 0.  1.
         21   -1    0    0  506  502 -0.00000000000E+00 -0.00000000000E+00 -0.32766099258E+03  0.32766099258E+03  0.00000000000E+00 0.  1.
         21    1    1    2  503  504 -0.24095736514E+02 -0.87272405732E+02  0.40220813441E+03  0.41227231377E+03  0.00000000000E+00 0.  1.
         21    1    1    2  504  501  0.32926720282E+02 -0.11453404232E+02  0.23283707997E+02  0.41922314286E+02  0.00000000000E+00 0.  1.
         21    1    1    2  505  503  0.49854849397E+02  0.94825076755E+02 -0.60631790329E+02  0.12309961490E+03  0.00000000000E+00 0.  1.
         21    1    1    2  506  505 -0.58685833165E+02  0.39007332087E+01 -0.21753857080E+03  0.22534922348E+03  0.00000000000E+00 0.  1.
<scales pt_clust_3="97.30598" pt_clust_4="34.86186" pt_clust_5="14000.00000" pt_clust_6="58.51864"></scales>
<clustering>
<clus scale="   34.862">  1  4  2 -1</clus>
<clus scale="   58.519">  2  6  1 -1</clus>
<clus scale="   97.306">  1  3  2 -1</clus>
<clus scale="   34.862">  1  3  2 -1</clus>
</clustering>
</event>
<event>
 6    0  0.8520634E+002  0.1354485E+03  0.7546771E-02  0.1219588E+00
         21   -1    0    0  504  501  0.00000000000E+00  0.00000000000E+00  0.12315676064E+03  0.12315676064E+03  0.00000000000E+00 0.  1.
         21   -1    0    0  503  502 -0.00000000000E+00 -0.00000000000E+00 -0.34272596822E+03  0.34272596822E+03  0.00000000000E+00 0. -1.
         21    1    1    2  503  506 -0.23497537378E+02  0.20133530304E+02 -0.46287794147E+02  0.55678121308E+02  0.00000000000E+00 0. -1.
         21    1    1    2  504  502 -0.11477055588E+03 -0.51115473608E+02 -0.17354082280E+03  0.21424632859E+03  0.00000000000E+00 0. -1.
         21    1    1    2  505  501 -0.81170795902E+01  0.42422235454E+02  0.20372966538E+02  0.47755531696E+02  0.00000000000E+00 0.  1.
         21    1    1    2  506  505  0.14638517284E+03 -0.11440292150E+02 -0.20113557176E+02  0.14820274726E+03  0.00000000000E+00 0.  1.
<scales pt_clust_3="30.94339" pt_clust_4="14000.00000" pt_clust_5="44.33632" pt_clust_6="135.44849"></scales>
<clustering>
<clus scale="   30.943">  2  3  1 -1</clus>
<clus scale="   44.336">  1  5  2 -1</clus>
<clus scale="  135.448">  1  6  2 -1</clus>
<clus scale="   44.336">  1  3  2 -1</clus>
</clustering>
</event>
<event>
 6    0  0.8520634E+002  0.8333885E+02  0.7546771E-02  0.1319835E+00
         21   -1    0    0  504  501  0.00000000000E+00  0.00000000000E+00  0.11302654854E+04  0.11302654854E+04  0.00000000000E+00 0. -1.
         21   -1    0    0  503  502 -0.00000000000E+00 -0.00000000000E+00 -0.43852682529E+02  0.43852682529E+02  0.00000000000E+00 0. -1.
         21    1    1    2  503  506  0.42153255378E+02  0.37290619056E+02  0.63009286115E+01  0.56632048435E+02  0.00000000000E+00 0. -1.
         21    1    1    2  504  502  0.43117628304E+02 -0.13274469275E+02  0.12586942024E+03  0.13371033003E+03  0.00000000000E+00 0.  1.
         21    1    1    2  505  501  0.20970022495E+02 -0.51177529707E+02  0.74931611835E+03  0.75135446136E+03  0.00000000000E+00 0. -1.
         21    1    1    2  506  505 -0.10624090618E+03  0.27161379926E+02  0.20492633565E+03  0.23242132808E+03  0.00000000000E+00 0. -1.
<scales pt_clust_3="57.03238" pt_clust_4="45.11476" pt_clust_5="14000.00000" pt_clust_6="83.33885"></scales>
<clustering>
<clus scale="   45.115">  1  4  2 -1</clus>
<clus scale="   57.032">  2  3  1 -1</clus>
<clus scale="   83.339">  2  6  1 -1</clus>
<clus scale="   45.115">  1  3  2 -1</clus>
</clustering>
</event>
<event>
 6    0  0.8520634E+002  0.1079173E+03  0.7546771E-02  0.1264476E+00
         21   -1    0    0  505  501  0.00000000000E+00  0.00000000000E+00  0.19528365902E+03  0.19528365902E+03  0.00000000000E+00 0.  1.
         21   -1    0    0  506  502 -0.00000000000E+00 -0.00000000000E+00 -0.88690404729E+03  0.88690404729E+03  0.00000000000E+00 0.  1.
         21    1    1    2  503  501  0.74012876534E+02  0.76523838280E+01 -0.32984007512E+03  0.33812858504E+03  0.00000000000E+00 0.  1.
         21    1    1    2  504  502 -0.14167325645E+03 -0.59982138502E+02  0.29729863884E+02  0.15669407563E+03  0.00000000000E+00 0.  1.
         21    1    1    2  505  504  0.38963089688E+02  0.21195293098E+02  0.91931642075E+02  0.10207247240E+03  0.00000000000E+00 0.  1.
         21    1    1    2  506  503  0.28697290224E+02  0.31134461576E+02 -0.48344181912E+03  0.48529257323E+03  0.00000000000E+00 0.  1.
<scales pt_clust_3="14000.00000" pt_clust_4="107.91732" pt_clust_5="44.86023" pt_clust_6="42.34252"></scales>
<clustering>
<clus scale="   42.343">  2  6  1 -1</clus>
<clus scale="   44.860">  1  5  2 -1</clus>
<clus scale="  107.917">  1  4  2 -1</clus>
<clus scale="   44.860">  1  3  2 -1</clus>
</clustering>
</event>
<event>
 6    0  0.8520634E+002  0.8987622E+02  0.7546771E-02  0.1303152E+00
         21   -1    0    0  503  501  0.00000000000E+00  0.00000000000E+00  0.62835455715E+03  0.62835455715E+03  0.00000000000E+00 0.  1.
         21   -1    0    0  504  502 -0.00000000000E+00 -0.00000000000E+00 -0.97550417526E+03  0.97550417526E+03  0.00000000000E+00 0. -1.
         21    1    1    2  503  506  0.34486083331E+02  0.84084476233E+02  0.30939219376E+02  0.96003772751E+02  0.00000000000E+00 0. -1.
         21    1    1    2  504  501  0.49820994211E+02 -0.38890881544E+02  0.55185690097E+03  0.55546437445E+03  0.00000000000E+00 0.  1.
         21    1    1    2  505  502 -0.40843350291E+02  0.33251000867E+02 -0.74488876975E+03  0.74674834290E+03  0.00000000000E+00 0. -1.
         21    1    1    2  506  505 -0.43463727251E+02 -0.78444595556E+02 -0.18505696870E+03  0.20564224231E+03  0.00000000000E+00 0. -1.
<scales pt_clust_3="14000.00000" pt_clust_4="62.78959" pt_clust_5="52.66696" pt_clust_6="89.87622"></scales>
<clustering>
<clus scale="   52.667">  2  5  1 -1</clus>
<clus scale="   62.790">  1  4  2 -1</clus>
<clus scale="   89.876">  2  6  1 -1</clus>
<clus scale="   62.790">  1  3  2 -1</clus>
</clustering>
</event>
<event>
 6    0  0.8520634E+002  0.2277360E+03  0.7546771E-02  0.1128244E+00
         21   -1    0    0  503  501  0.00000000000E+00  0.00000000000E+00  0.20865324152E+04  0.20865324152E+04  0.00000000000E+00 0.  1.
         21   -1    0    0  505  502 -0.00000000000E+00 -0.00000000000E+00 -0.32701685227E+03  0.32701685227E+03  0.00000000000E+00 0. -1.
         21    1    1    2  503  504 -0.27100305160E+02 -0.77994552355E+02  0.15714832438E+04  0.15736509023E+04  0.00000000000E+00 0.  1.
         21    1    1    2  504  502 -0.47379237452E+02 -0.64610993780E+02 -0.57745388829E+02  0.98761847845E+02  0.00000000000E+00 0.  1.
         21    1    1    2  505  506 -0.16392645795E+03  0.15842841763E+03 -0.15420234922E+03  0.27522683669E+03  0.00000000000E+00 0. -1.
         21    1    1    2  506  501  0.23840600057E+03 -0.15822871497E+02  0.39998005720E+03  0.46590968065E+03  0.00000000000E+00 0. -1.
<scales pt_clust_3="82.90234" pt_clust_4="80.12099" pt_clust_5="14000.00000" pt_clust_6="227.73596"></scales>
<clustering>
<clus scale="   80.121">  2  4  1 -1</clus>
<clus scale="   82.902">  1  3  2 -1</clus>
<clus scale="  227.736">  1  6  2 -1</clus>
<clus scale="   82.902">  1  3  2 -1</clus>
</clustering>
</event>
<event>
 6    0  0.8520634E+002  0.6772446E+02  0.7546771E-02  0.1368007E+00
         21   -1    0    0  503  501  0.00000000000E+00  0.00000000000E+00  0.16264875532E+04  0.16264875532E+04  0.00000000000E+00 0.  1.
         21   -1    0    0  501  502 -0.00000000000E+00 -0.00000000000E+00 -0.63102548846E+02  0.63102548846E+02  0.00000000000E+00 0. -1.
         21    1    1    2  503  505  0.32468902611E+02  0.41828577653E+02  0.88867258979E+03  0.89024874691E+03  0.00000000000E+00 0.  1.
         21    1    1    2  504  506 -0.46673862122E+02  0.95108687157E+02  0.89532219113E+02  0.13870879582E+03  0.00000000000E+00 0. -1.
         21    1    1    2  505  504 -0.87042865465E+01 -0.94487728252E+02  0.60208729476E+03  0.60951850333E+03  0.00000000000E+00 0.  1.
         21    1    1    2  506  502  0.22909246057E+02 -0.42449536558E+02 -0.16907099326E+02  0.51114055959E+02  0.00000000000E+00 0. -1.
<scales pt_clust_3="52.43727" pt_clust_4="14000.00000" pt_clust_5="67.72446" pt_clust_6="48.23688"></scales>
<clustering>
<clus scale="   48.237">  2  6  1 -1</clus>
<clus scale="   52.437">  1  3  2 -1</clus>
<clus scale="   67.724">  1  5  2 -1</clus>
<clus scale="   52.437">  1  3  2 -1</clus>
</clustering>
</event>
<event>
 6    0  0.8520634E+002  0.1209192E+03  0.7546771E-02  0.1241588E+00
         21   -1    0    0  504  501  0.00000000000E+00  0.00000000000E+00  0.56078571338E+03  0.56078571338E+03  0.00000000000E+00 0. -1.
         21   -1    0    0  506  502 -0.00000000000E+00 -0.00000000000E+00 -0.16559242172E+04  0.16559242172E+04  0.00000000000E+00 0. -1.
         21    1    1    2  503  501 -0.17124479974E+02  0.27460638723E+02  0.19253110430E+03  0.19523206862E+03  0.00000000000E+00 0. -1.
         21    1    1    2  504  505  0.73966243166E+02  0.33067806844E+02 -0.20918415480E+03  0.22432676077E+03  0.00000000000E+00 0.  1.
         21    1    1    2  505  502  0.30490946746E+02 -0.73280417231E+02 -0.14312826271E+04  0.14334816623E+04  0.00000000000E+00 0. -1.
         21    1    1    2  506  503 -0.87332709938E+02  0.12751971663E+02  0.35279717377E+03  0.36366943895E+03  0.00000000000E+00 0. -1.
<scales pt_clust_3="30.03137" pt_clust_4="110.28077" pt_clust_5="79.37076" pt_clust_6="30.03137"></scales>
<clustering>
<clus scale="   30.031">  3  6 -1 -1</clus>
<clus scale="   79.371">  2  5  1 -1</clus>
<clus scale="  110.281">  2  4  1 -1</clus>
<clus scale="  120.919">  1  3  2 -1</clus>
</clustering>
</event>
<event>
 6    0  0.8520634E+002  0.7728575E+02  0.7546771E-02  0.1336935E+00
         21   -1    0    0  504  501  0.00000000000E+00  0.00000000000E+00  0.11836063654E+03  0.11836063654E+03  0.00000000000E+00 0.  1.
         21   -1    0    0  503  502 -0.00000000000E+00 -0.00000000000E+00 -0.10706634757E+04  0.10706634757E+04  0.00000000000E+00 0. -1.
         21    1    1    2  503  501 -0.57097018108E+02  0.11586024449E+03 -0.60122629217E+02  0.14247244040E+03  0.00000000000E+00 0.  1.
         21    1    1    2  504  505  0.19270260875E+02 -0.30822543869E+02  0.39999335728E+02  0.54049227778E+02  0.00000000000E+00 0.  1.
         21    1    1    2  505  506 -0.30521802605E+02 -0.51188888066E+02 -0.24482624803E+01  0.59647939486E+02  0.00000000000E+00 0.  1.
         21    1    1    2  506  502  0.68348559838E+02 -0.33848812554E+02 -0.92973128315E+03  0.93285450453E+03  0.00000000000E+00 0. -1.
<scales pt_clust_3="14000.00000" pt_clust_4="36.35068" pt_clust_5="67.51125" pt_clust_6="77.28575"></scales>
<clustering>
<clus scale="   36.351">  1  4  2 -1</clus>
<clus scale="   67.511">  1  5  2 -1</clus>
<clus scale="   77.286">  2  6  1 -1</clus>
<clus scale="   36.351">  1  3  2 -1</clus>
</clustering>
</event>
<event>
 6    0  0.8520634E+002  0.8992929E+02  0.7546771E-02  0.1303023E+00
         21   -1    0    0  503  501  0.00000000000E+00  0.00000000000E+00  0.12469793597E+03  0.12469793597E+03  0.00000000000E+00 0.  1.
         21   -1    0    0  505  502 -0.00000000000E+00 -0.00000000000E+00 -0.25368932104E+03  0.25368932104E+03  0.00000000000E+00 0. -1.
         21    1    1    2  503  502 -0.15983045842E+02  0.46513166878E+02  0.10959152636E+02  0.50388842752E+02  0.00000000000E+00 0. -1.
         21    1    1    2  504  506  0.70134235119E+02  0.10646613758E+02 -0.66751787221E+02  0.97406172378E+02  0.00000000000E+00 0. -1.
         21    1    1    2  505  504  0.36109399770E+02 -0.18460963498E+02 -0.11643023926E+03  0.12329110486E+03  0.00000000000E+00 0. -1.
         21    1    1    2  506  501 -0.90260589047E+02 -0.38698817138E+02  0.43231488771E+02  0.10730113701E+03  0.00000000000E+00 0.  1.
<scales pt_clust_3="45.07319" pt_clust_4="14000.00000" pt_clust_5="40.55485" pt_clust_6="89.92929"></scales>
<clustering>
<clus scale="   40.555">  2  5  1 -1</clus>
<clus scale="   45.073">  1  3  2 -1</clus>
<clus scale="   89.929">  1  6  2 -1</clus>
<clus scale="   45.073">  1  3  2 -1</clus>
</clustering>
</event>
<event>
 6    0  0.8520634E+002  0.8179960E+02  0.7546771E-02  0.1324021E+00
         21   -1    0    0  503  501  0.00000000000E+00  0.00000000000E+00  0.10582954261E+04  0.10582954261E+04  0.00000000000E+00 0. -1.
         21   -1    0    0  506  502 -0.00000000000E+00 -0.00000000000E+00 -0.21948883794E+03  0.21948883794E+03  0.00000000000E+00 0.  1.
         21    1    1    2  503  505  0.30281439811E+02  0.37349189028E+02  0.11176887679E+03  0.12167254964E+03  0.00000000000E+00 0. -1.
         21    1    1    2  504  501 -0.69031854051E+02 -0.68268421594E+02  0.90437676345E+03  0.90957314413E+03  0.00000000000E+00 0. -1.
         21    1    1    2  505  502  0.46795367748E+01 -0.63784670630E+02 -0.37152324602E+02  0.73964028386E+02  0.00000000000E+00 0.  1.
         21    1    1    2  506  504  0.34070877465E+02  0.94703903196E+02 -0.14018672744E+03  0.17257454193E+03  0.00000000000E+00 0.  1.
<scales pt_clust_3="48.08251" pt_clust_4="51.30131" pt_clust_5="14000.00000" pt_clust_6="81.79960"></scales>
<clustering>
<clus scale="   48.083">  1  3  2 -1</clus>
<clus scale="   51.301">  1  4  2 -1</clus>
<clus scale="   81.800">  2  6  1 -1</clus>
<clus scale="   48.083">  1  3  2 -1</clus>
</clustering>
</event>
<event>
 6    0  0.8520634E+002  0.1544208E+03  0.7546771E-02  0.1195144E+00
         21   -1    0    0  504  501  0.00000000000E+00  0.00000000000E+00  0.97904133793E+03  0.97904133793E+03  0.00000000000E+00 0.  1.
         21   -1    0    0  503  502 -0.00000000000E+00 -0.00000000000E+00 -0.33422200076E+03  0.33422200076E+03  0.00000000000E+00 0.  1.
         21    1    1    2  503  505 -0.16986664428E+03  0.88781464238E+02  0.25631106181E+02  0.19337471095E+03  0.00000000000E+00 0.  1.
         21    1    1    2  504  506  0.27142101916E+02 -0.14801922193E+02  0.78392125406E+03  0.78453063877E+03  0.00000000000E+00 0.  1.
         21    1    1    2  505  501  0.10393897633E+03 -0.69621783279E+02  0.36545224951E+02  0.13033056808E+03  0.00000000000E+00 0. -1.
         21    1    1    2  506  502  0.38785566026E+02 -0.43577587667E+01 -0.20127824802E+03  0.20502742090E+03  0.00000000000E+00 0.  1.
<scales pt_clust_3="154.42082" pt_clust_4="30.91586" pt_clust_5="14000.00000" pt_clust_6="39.30521"></scales>
<clustering>
<clus scale="   30.916">  1  4  2 -1</clus>
<clus scale="   39.305">  2  6  1 -1</clus>
<clus scale="  154.421">  2  3  1 -1</clus>
<clus scale="   30.916">  1  3  2 -1</clus>
</clustering>
</event>
<event>
 6    0  0.8520634E+002  0.1690049E+03  0.7546771E-02  0.1178890E+00
         21   -1    0    0  504  501  0.00000000000E+00  0.00000000000E+00  0.13542255100E+03  0.13542255100E+03  0.00000000000E+00 0.  1.
         21   -1    0    0  505  502 -0.00000000000E+00 -0.00000000000E+00 -0.10707685688E+04  0.10707685688E+04  0.00000000000E+00 0.  1.
         21    1    1    2  503  501 -0.40005721500E+02  0.46450512549E+02  0.62134307185E+02  0.87285623090E+02  0.00000000000E+00 0.  1.
         21    1    1    2  504  502 -0.88301673168E+02 -0.17317151807E+03 -0.17353193625E+03  0.26057416037E+03  0.00000000000E+00 0.  1.
         21    1    1    2  505  506  0.25716510926E+02  0.23912463536E+02 -0.52291231420E+03  0.52409010026E+03  0.00000000000E+00 0.  1.
         21    1    1    2  506  503  0.10259088374E+03  0.10280854198E+03 -0.30103607457E+03  0.33424123612E+03  0.00000000000E+00 0.  1.
<scales pt_clust_3="61.33942" pt_clust_4="169.00487" pt_clust_5="35.11616" pt_clust_6="14000.00000"></scales>
<clustering>
<clus scale="   35.116">  2  5  1 -1</clus>
<clus scale="   61.339">  1  3  2 -1</clus>
<clus scale="  169.005">  1  4  2 -1</clus>
<clus scale="   61.339">  1  3  2 -1</clus>
</clustering>
</event>
<event>
 6    0  0.8520634E+002  0.8125430E+02  0.7546771E-02  0.1325529E+00
         21   -1    0    0  503  501  0.00000000000E+00  0.00000000000E+00  0.31230138887E+03  0.31230138887E+03  0.00000000000E+00 0.  1.
         21   -1    0    0  504  502 -0.00000000000E+00 -0.00000000000E+00 -0.12345171331E+04  0.12345171331E+04  0.00000000000E+00 0.  1.
         21    1    1    2  503  502  0.15929733333E+02  0.11556081131E+03  0.12075503365E+03  0.16789828964E+03  0.00000000000E+00 0.  1.
         21    1    1    2  504  506 -0.38963595973E+02 -0.32683467730E+02 -0.11940252994E+04  0.11951078556E+04  0.00000000000E+00 0.  1.
         21    1    1    2  505  501  0.23489547245E+02 -0.26382166698E+02  0.10544010699E+03  0.11119979187E+03  0.00000000000E+00 0.  1.
         21    1    1    2  506  505 -0.45568460481E+00 -0.56495176878E+02  0.45614414582E+02  0.72612584836E+02  0.00000000000E+00 0.  1.
<scales pt_clust_3="14000.00000" pt_clust_4="50.85370" pt_clust_5="35.32389" pt_clust_6="81.25430"></scales>
<clustering>
<clus scale="   35.324">  1  5  2 -1</clus>
<clus scale="   50.854">  2  4  1 -1</clus>
<clus scale="   81.254">  2  6  1 -1</clus>
<clus scale="   35.324">  1  3  2 -1</clus>
</clustering>
</event>
<event>
 6    0  0.8520634E+002  0.8339338E+02  0.7546771E-02  0.1319688E+00
         21   -1    0    0  503  501  0.00000000000E+00  0.00000000000E+00  0.48431712966E+03  0.48431712966E+03  0.00000000000E+00 0. -1.
         21   -1    0    0  505  502 -0.00000000000E+00 -0.00000000000E+00 -0.83999314597E+02  0.83999314597E+02  0.00000000000E+00 0. -1.
         21    1    1    2  503  502  0.13125294232E+02  0.40736987507E+02 -0.13920937245E+02  0.45006310597E+02  0.00000000000E+00 0.  1.
         21    1    1    2  504  506  0.41040860330E+02 -0.53898322789E+02  0.12279812431E+03  0.14024535910E+03  0.00000000000E+00 0. -1.
         21    1    1    2  505  504 -0.10433030069E+03 -0.37496314958E+01  0.19730626379E+02  0.10624579519E+03  0.00000000000E+00 0. -1.
         21    1    1    2  506  501  0.50164146132E+02  0.16910966778E+02  0.27171000161E+03  0.27681897936E+03  0.00000000000E+00 0. -1.
<scales pt_clust_3="42.79925" pt_clust_4="14000.00000" pt_clust_5="83.39338" pt_clust_6="54.15404"></scales>
<clustering>
<clus scale="   42.799">  2  3  1 -1</clus>
<clus scale="   54.154">  1  6  2 -1</clus>
<clus scale="   83.393">  2  5  1 -1</clus>
<clus scale="   54.154">  1  3  2 -1</clus>
</clustering>
</event>
<event>
 6    0  0.8520634E+002  0.1367869E+03  0.7546771E-02  0.1217719E+00
         21   -1    0    0  506  501  0.00000000000E+00  0.00000000000E+00  0.62493797017E+03  0.62493797017E+03  0.00000000000E+00 0.  1.
         21   -1    0    0  505  502 -0.00000000000E+00 -0.00000000000E+00 -0.84471108990E+03  0.84471108990E+03  0.00000000000E+00 0. -1.
         21    1    1    2  503  504 -0.37276671498E+02  0.18648592626E+02 -0.12129472201E+03  0.12825650015E+03  0.00000000000E+00 0.  1.
         21    1    1    2  504  502 -0.27757961018E+02  0.61228073280E+02 -0.39517797517E+03  0.40085535223E+03  0.00000000000E+00 0. -1.
         21    1    1    2  505  501  0.29096313866E+02  0.42251601959E+02 -0.31326059793E+03  0.31743345060E+03  0.00000000000E+00 0. -1.
         21    1    1    2  506  503  0.35938318650E+02 -0.12212826786E+03  0.60996017537E+03  0.62310375709E+03  0.00000000000E+00 0.  1.
<scales pt_clust_3="40.19272" pt_clust_4="40.19272" pt_clust_5="51.30101" pt_clust_6="126.90597"></scales>
<clustering>
<clus scale="   40.193">  3  4 -1 -1</clus>
<clus scale="   51.301">  2  5  1 -1</clus>
<clus scale="  126.906">  1  6  2 -1</clus>
<clus scale="  126.906">  1  3  2 -1</clus>
</clustering>
</event>
<event>
 6    0  0.8520634E+002  0.1316724E+03  0.7546771E-02  0.1224995E+00
         21   -1    0    0  505  501  0.00000000000E+00  0.00000000000E+00  0.15744642871E+04  0.15744642871E+04  0.00000000000E+00 0.  1.
         21   -1    0    0  503  502 -0.00000000000E+00 -0.00000000000E+00 -0.12895808496E+03  0.12895808496E+03  0.00000000000E+00 0. -1.
         21    1    1    2  503  504  0.15797390198E+02 -0.51209465233E+02 -0.82149555074E+02  0.98084230462E+02  0.00000000000E+00 0. -1.
         21    1    1    2  504  506  0.44939368149E+02  0.12152768903E+03  0.39782913384E+03  0.41839759290E+03  0.00000000000E+00 0. -1.
         21    1    1    2  505  502 -0.13999678620E+03  0.38115506681E+02  0.19792901150E+03  0.24541349920E+03  0.00000000000E+00 0. -1.
         21    1    1    2  506  501  0.79260027856E+02 -0.10843373048E+03  0.93189761185E+03  0.94152704947E+03  0.00000000000E+00 0.  1.
<scales pt_clust_3="53.59073" pt_clust_4="118.61792" pt_clust_5="14000.00000" pt_clust_6="131.67239"></scales>
<clustering>
<clus scale="   53.591">  2  3  1 -1</clus>
<clus scale="  118.618">  2  4  1 -1</clus>
<clus scale="  131.672">  1  6  2 -1</clus>
<clus scale="  131.672">  1  3  2 -1</clus>
</clustering>
</event>
<event>
 6    0  0.8520634E+002  0.1062655E+03  0.7546771E-02  0.1267646E+00
         21   -1    0    0  503  501  0.00000000000E+00  0.00000000000E+00  0.49028060890E+02  0.49028060890E+02  0.00000000000E+00 0. -1.
         21   -1    0    0  505  502 -0.00000000000E+00 -0.00000000000E+00 -0.10223803622E+04  0.10223803622E+04  0.00000000000E+00 0. -1.
         21    1    1    2  503  504 -0.47990521227E+02  0.37729251321E+02 -0.18150835218E+02  0.63687042262E+02  0.00000000000E+00 0. -1.
         21    1    1    2  504  502  0.33431676902E+02 -0.87661459586E+02 -0.41336685508E+03  0.42388013093E+03  0.00000000000E+00 0. -1.
         21    1    1    2  505  506  0.54133340425E+01 -0.38787124851E+02 -0.46345198637E+03  0.46510373994E+03  0.00000000000E+00 0. -1.
         21    1    1    2  506  501  0.91455102828E+01  0.88719333116E+02 -0.78382624666E+02  0.11873750998E+03  0.00000000000E+00 0. -1.
<scales pt_clust_3="59.00973" pt_clust_4="106.26546" pt_clust_5="39.16306" pt_clust_6="14000.00000"></scales>
<clustering>
<clus scale="   39.163">  2  5  1 -1</clus>
<clus scale="   59.010">  1  3  2 -1</clus>
<clus scale="  106.265">  2  4  1 -1</clus>
<clus scale="   59.010">  1  3  2 -1</clus>
</clustering>
</event>
<event>
 6    0  0.8520634E+002  0.8235092E+02  0.7546771E-02  0.1322509E+00
         21   -1    0    0  505  501  0.00000000000E+00  0.00000000000E+00  0.89067897958E+03  0.89067897958E+03  0.00000000000E+00 0. -1.
         21   -1    0    0  506  502 -0.00000000000E+00 -0.00000000000E+00 -0.24213896087E+03  0.24213896087E+03  0.00000000000E+00 0.  1.
         21    1    1    2  503  501  0.68046713862E+02  0.21946619655E+02 -0.34983086528E+02  0.79597900253E+02  0.00000000000E+00 0.  1.
         21    1    1    2  504  502 -0.15623082496E+02 -0.10304319561E+03  0.43128705499E+03  0.44370091804E+03  0.00000000000E+00 0. -1.
         21    1    1    2  505  504 -0.52134567298E+02  0.50743587887E+02  0.42648513126E+03  0.43264591990E+03  0.00000000000E+00 0. -1.
         21    1    1    2  506  503 -0.28906406843E+00  0.30352988064E+02 -0.17424908102E+03  0.17687320226E+03  0.00000000000E+00 0.  1.
<scales pt_clust_3="82.35092" pt_clust_4="14000.00000" pt_clust_5="73.74833" pt_clust_6="30.35436"></scales>
<clustering>
<clus scale="   30.354">  2  6  1 -1</clus>
<clus scale="   73.748">  1  5  2 -1</clus>
<clus scale="   82.351">  2  3  1 -1</clus>
<clus scale="   73.748">  1  3  2 -1</clus>
</clustering>
</event>
<event>
 6    0  0.8520634E+002  0.1083309E+03  0.7546771E-02  0.1263692E+00
         21   -1    0    0  504  501  0.00000000000E+00  0.00000000000E+00  0.16096163234E+03  0.16096163234E+03  0.00000000000E+00 0. -1.
         21   -1    0    0  505  502 -0.00000000000E+00 -0.00000000000E+00 -0.15773190097E+03  0.15773190097E+03  0.00000000000E+00 0. -1.
         21    1    1    2  503  501 -0.31029071388E+02  0.41336022900E+01  0.14004464320E+02  0.34293074519E+02  0.00000000000E+00 0. -1.
         21    1    1    2  504  506  0.52008774956E+02 -0.12863177653E+03  0.11037576429E+02  0.13918647456E+03  0.00000000000E+00 0. -1.
         21    1    1    2  505  503  0.17898619937E+02  0.37849726912E+02  0.13346141122E+02  0.43944077028E+02  0.00000000000E+00 0. -1.
         21    1    1    2  506  502 -0.38878323505E+02  0.86648447333E+02 -0.35158450505E+02  0.10126990721E+03  0.00000000000E+00 0. -1.
<scales pt_clust_3="31.30319" pt_clust_4="108.33093" pt_clust_5="40.35927" pt_clust_6="14000.00000"></scales>
<clustering>
<clus scale="   31.303">  1  3  2 -1</clus>
<clus scale="   40.359">  1  5  2 -1</clus>
<clus scale="  108.331">  1  4  2 -1</clus>
<clus scale="   31.303">  1  3  2 -1</clus>
</clustering>
</event>
<event>
 6    0  0.8520634E+002  0.1450615E+03  0.7546771E-02  0.1206676E+00
         21   -1    0    0  504  501  0.00000000000E+00  0.00000000000E+00  0.38894831677E+03  0.38894831677E+03  0.00000000000E+00 0.  1.
         21   -1    0    0  505  502 -0.00000000000E+00 -0.00000000000E+00 -0.61938269746E+03  0.61938269746E+03  0.00000000000E+00 0.  1.
         21    1    1    2  503  506 -0.65728406461E+02  0.24249785601E+02 -0.31405588031E+03  0.32177534317E+03  0.00000000000E+00 0.  1.
         21    1    1    2  504  503 -0.12348466693E+03 -0.41842014061E+01  0.10643776584E+03  0.16307963853E+03  0.00000000000E+00 0.  1.
         21    1    1    2  505  501  0.16574073342E+03  0.12477253619E+02  0.22091830537E+03  0.27646079328E+03  0.00000000000E+00 0.  1.
         21    1    1    2  506  502  0.23472339967E+02 -0.32542837813E+02 -0.24373457159E+03  0.24701523925E+03  0.00000000000E+00 0. -1.
<scales pt_clust_3="45.90337" pt_clust_4="145.06150" pt_clust_5="14000.00000" pt_clust_6="40.12464"></scales>
<clustering>
<clus scale="   40.125">  2  6  1 -1</clus>
<clus scale="   45.903">  2  3  1 -1</clus>
<clus scale="  145.062">  2  4  1 -1</clus>
<clus scale="  145.062">  1  3  2 -1</clus>
</clustering>
</event>
<event>
 6    0  0.8520634E+002  0.1201296E+03  0.7546771E-02  0.1242883E+00
         21   -1    0    0  506  501  0.00000000000E+00  0.00000000000E+00  0.40240626424E+03  0.40240626424E+03  0.00000000000E+00 0.  1.
         21   -1    0    0  503  502 -0.00000000000E+00 -0.00000000000E+00 -0.57213703525E+03  0.57213703525E+03  0.00000000000E+00 0.  1.
         21    1    1    2  503  505  0.10908665961E+03  0.12407404491E+03 -0.10401881302E+03  0.19522853630E+03  0.00000000000E+00 0.  1.
         21    1    1    2  504  502 -0.68994999677E+02 -0.84484883433E+01 -0.37774657219E+03  0.38408873940E+03  0.00000000000E+00 0.  1.
         21    1    1    2  505  501 -0.75207405372E+02 -0.60745886810E+02  0.23586801147E+02  0.99511576088E+02  0.00000000000E+00 0.  1.
         21    1    1    2  506  504  0.35115745439E+02 -0.54879669756E+02  0.28844781304E+03  0.29571444770E+03  0.00000000000E+00 0.  1.
<scales pt_clust_3="14000.00000" pt_clust_4="68.72095" pt_clust_5="120.12958" pt_clust_6="65.15285"></scales>
<clustering>
<clus scale="   65.153">  1  6  2 -1</clus>
<clus scale="   68.721">  2  4  1 -1</clus>
<clus scale="  120.130">  1  5  2 -1</clus>
<clus scale="   65.153">  1  3  2 -1</clus>
</clustering>
</event>
<event>
 6    0  0.8520634E+002  0.1994358E+03  0.7546771E-02  0.1150216E+00
         21   -1    0    0  504  501  0.00000000000E+00  0.00000000000E+00  0.25100919878E+03  0.25100919878E+03  0.00000000000E+00 0.  1.
         21   -1    0    0  503  502 -0.00000000000E+00 -0.00000000000E+00 -0.35168204111E+03  0.35168204111E+03  0.00000000000E+00 0.  1.
         21    1    1    2  503  505  0.10106728257E+03  0.15690178395E+03 -0.37256605798E+02  0.19031768201E+03  0.00000000000E+00 0.  1.
         21    1    1    2  504  506 -0.67966867759E+02 -0.13033585128E+03 -0.10520400887E+03  0.18076175681E+03  0.00000000000E+00 0.  1.
         21    1    1    2  505  501 -0.26987922002E+02  0.13804802623E+02  0.13048917829E+03  0.13396397336E+03  0.00000000000E+00 0.  1.
         21    1    1    2  506  502 -0.61124928087E+01 -0.40370735287E+02 -0.88701405952E+02  0.97647827697E+02  0.00000000000E+00 0. -1.
<scales pt_clust_3="185.71633" pt_clust_4="38.09768" pt_clust_5="30.31370" pt_clust_6="38.09768"></scales>
<clustering>
<clus scale="   30.314">  1  5  2 -1</clus>
<clus scale="   38.098">  4  6 -1 -1</clus>
<clus scale="  185.716">  1  3  2 -1</clus>
<clus scale="   30.314">  1  3  2 -1</clus>
</clustering>
</event>
<event>
 6    0  0.8520634E+002  0.8171305E+02  0.7546771E-02  0.1324259E+00
         21   -1    0    0  505  501  0.00000000000E+00  0.00000000000E+00  0.59836910998E+03  0.59836910998E+03  0.00000000000E+00 0.  1.
         21   -1    0    0  504  502 -0.00000000000E+00 -0.00000000000E+00 -0.40839707822E+02  0.40839707822E+02  0.00000000000E+00 0. -1.
         21    1    1    2  503  501 -0.32086209842E+02  0.32079245461E+02  0.20003349319E+03  0.20511460515E+03  0.00000000000E+00 0.  1.
         21    1    1    2  504  506  0.38013743984E+02  0.28039631830E+02  0.28709866767E+02  0.55276777535E+02  0.00000000000E+00 0. -1.
         21    1    1    2  505  502  0.53167548217E+02 -0.99650729737E+02  0.23854237526E+03  0.26393090178E+03  0.00000000000E+00 0.  1.
         21    1    1    2  506  503 -0.59095082359E+02  0.39531852447E+02  0.90243666940E+02  0.11488653333E+03  0.00000000000E+00 0.  1.
<scales pt_clust_3="45.37183" pt_clust_4="46.75990" pt_clust_5="14000.00000" pt_clust_6="81.71305"></scales>
<clustering>
<clus scale="   45.372">  1  3  2 -1</clus>
<clus scale="   46.760">  2  4  1 -1</clus>
<clus scale="   81.713">  2  6  1 -1</clus>
<clus scale="   45.372">  1  3  2 -1</clus>
</clustering>
</event>
<event>
 6    0  0.8520634E+002  0.8951222E+02  0.7546771E-02  0.1304037E+00
         21   -1    0    0  506  501  0.00000000000E+00  0.00000000000E+00  0.63704775671E+03  0.63704775671E+03  0.00000000000E+00 0.  1.
         21   -1    0    0  505  502 -0.00000000000E+00 -0.00000000000E+00 -0.14432936476E+03  0.14432936476E+03  0.00000000000E+00 0.  1.
         21    1    1    2  503  502 -0.16374762222E+01  0.88258879130E+02 -0.28734917326E+02  0.92833218986E+02  0.00000000000E+00 0.  1.
         21    1    1    2  504  501  0.36093387266E+02  0.44661327268E+00  0.44286791424E+03  0.44433649583E+03  0.00000000000E+00 0.  1.
         21    1    1    2  505  504  0.50736976621E+02 -0.15248417810E+02  0.11446834641E+03  0.12613388669E+03  0.00000000000E+00 0.  1.
         21    1    1    2  506  503 -0.85192887664E+02 -0.73457074592E+02 -0.35882951364E+02  0.11807351996E+03  0.00000000000E+00 0.  1.
<scales pt_clust_3="14000.00000" pt_clust_4="36.09615" pt_clust_5="74.69850" pt_clust_6="89.51222"></scales>
<clustering>
<clus scale="   36.096">  1  4  2 -1</clus>
<clus scale="   74.699">  1  5  2 -1</clus>
<clus scale="   89.512">  1  6  2 -1</clus>
<clus scale="   36.096">  1  3  2 -1</clus>
</clustering>
</event>
<event>
 6    0  0.8520634E+002  0.1819852E+03  0.7546771E-02  0.1165895E+00
         21   -1    0    0  504  501  0.00000000000E+00  0.00000000000E+00  0.16870290140E+03  0.16870290140E+03  0.00000000000E+00 0. -1.
         21   -1    0    0  503  502 -0.00000000000E+00 -0.00000000000E+00 -0.24920365355E+03  0.24920365355E+03  0.00000000000E+00 0. -1.
         21    1    1    2  503  505 -0.52678936939E+01 -0.46685083068E+02 -0.45852315735E+02  0.65648172429E+02  0.00000000000E+00 0. -1.
         21    1    1    2  504  506  0.25196334268E+02  0.32604826694E+02  0.32234221779E+02  0.52316106869E+02  0.00000000000E+00 0. -1.
         21    1    1    2  505  501 -0.12520579403E+03 -0.82156212698E+02 -0.34748521581E+02  0.15373221490E+03  0.00000000000E+00 0. -1.
         21    1    1    2  506  502  0.10527735346E+03  0.96236469073E+02 -0.32134136614E+02  0.14621006076E+03  0.00000000000E+00 0. -1.
<scales pt_clust_3="46.98135" pt_clust_4="40.89542" pt_clust_5="165.31618" pt_clust_6="40.89542"></scales>
<clustering>
<clus scale="   40.895">  4  6 -1 -1</clus>
<clus scale="   46.981">  2  3  1 -1</clus>
<clus scale="  165.316">  2  5  1 -1</clus>
<clus scale="  181.985">  1  3  2 -1</clus>
</clustering>
</event>
<event>
 6    0  0.8520634E+002  0.9445490E+02  0.7546771E-02  0.1292409E+00
         21   -1    0    0  502  501  0.00000000000E+00  0.00000000000E+00  0.72448579929E+02  0.72448579929E+02  0.00000000000E+00 0. -1.
         21   -1    0    0  505  502 -0.00000000000E+00 -0.00000000000E+00 -0.37313079685E+03  0.37313079685E+03  0.00000000000E+00 0. -1.
         21    1    1    2  503  506  0.27798112465E+02 -0.21723213993E+02  0.10979383327E+02  0.36948341520E+02  0.00000000000E+00 0. -1.
         21    1    1    2  504  503  0.34601275409E+02  0.78634998542E+02 -0.33467102198E+02  0.92199556317E+02  0.00000000000E+00 0. -1.
         21    1    1    2  505  504 -0.94479402565E+02 -0.42373938020E+02 -0.25228390059E+03  0.27270693910E+03  0.00000000000E+00 0. -1.
         21    1    1    2  506  501  0.32080014691E+02 -0.14537846528E+02 -0.25910597460E+02  0.43724539848E+02  0.00000000000E+00 0. -1.
<scales pt_clust_3="48.28983" pt_clust_4="94.45490" pt_clust_5="14000.00000" pt_clust_6="35.22040"></scales>
<clustering>
<clus scale="   35.220">  1  6  2 -1</clus>
<clus scale="   48.290">  1  3  2 -1</clus>
<clus scale="   94.455">  1  4  2 -1</clus>
<clus scale="   35.220">  1  3  2 -1</clus>
</clustering>
</event>
<event>
 6    0  0.8520634E+002  0.1049474E+03  0.7546771E-02  0.1270223E+00
         21   -1    0    0  505  501  0.00000000000E+00  0.00000000000E+00  0.47274833700E+03  0.47274833700E+03  0.00000000000E+00 0. -1.
         21   -1    0    0  503  502 -0.00000000000E+00 -0.00000000000E+00 -0.22698648404E+03  0.22698648404E+03  0.00000000000E+00 0.  1.
         21    1    1    2  503  504  0.10894785514E+02  0.71213728844E+02 -0.14262552775E+03  0.15978777391E+03  0.00000000000E+00 0.  1.
         21    1    1    2  504  501  0.19649684383E+02 -0.67800776367E+02  0.17807962016E+03  0.19156045127E+03  0.00000000000E+00 0. -1.
         21    1    1    2  505  506 -0.91924263390E+02 -0.21672995821E+02  0.25391505317E+03  0.27091076607E+03  0.00000000000E+00 0. -1.
         21    1    1    2  506  502  0.61379793493E+02  0.18260043344E+02 -0.43607292626E+02  0.77475829794E+02  0.00000000000E+00 0.  1.
<scales pt_clust_3="104.94738" pt_clust_4="70.62006" pt_clust_5="14000.00000" pt_clust_6="64.03833"></scales>
<clustering>
<clus scale="   64.038">  2  6  1 -1</clus>
<clus scale="   70.620">  1  4  2 -1</clus>
<clus scale="  104.947">  2  3  1 -1</clus>
<clus scale="   70.620">  1  3  2 -1</clus>
</clustering>
</event>
<event>
 6    0  0.8520634E+002  0.2485473E+03  0.7546771E-02  0.1114226E+00
         21   -1    0    0  503  501  0.00000000000E+00  0.00000000000E+00  0.87737150153E+03  0.87737150153E+03  0.00000000000E+00 0. -1.
         21   -1    0    0  504  502 -0.00000000000E+00 -0.00000000000E+00 -0.15995534405E+03  0.15995534405E+03  0.00000000000E+00 0. -1.
         21    1    1    2  503  505 -0.43291707615E+02  0.88847697467E+02  0.47592884772E+03  0.48608266106E+03  0.00000000000E+00 0. -1.
         21    1    1    2  504  506  0.13278453636E+03 -0.11976250537E+03  0.42662250300E-01  0.17881496752E+03  0.00000000000E+00 0. -1.
         21    1    1    2  505  502 -0.10991681868E+03  0.73729400321E+02  0.28103523730E+03  0.31064213511E+03  0.00000000000E+00 0. -1.
         21    1    1    2  506  501  0.20423989935E+02 -0.42814592420E+02 -0.39590589788E+02  0.61787081892E+02  0.00000000000E+00 0.  1.
<scales pt_clust_3="94.15377" pt_clust_4="237.32953" pt_clust_5="94.15377" pt_clust_6="41.27251"></scales>
<clustering>
<clus scale="   41.273">  4  6 -1 -1</clus>
<clus scale="   94.154">  3  5 -1 -1</clus>
<clus scale="  237.330">  2  4  1 -1</clus>
<clus scale="  248.547">  1  3  2 -1</clus>
</clustering>
</event>
<event>
 6    0  0.8520634E+002  0.2097151E+03  0.7546771E-02  0.1141792E+00
         21   -1    0    0  505  501  0.00000000000E+00  0.00000000000E+00  0.41624844183E+02  0.41624844183E+02  0.00000000000E+00 0.  1.
         21   -1    0    0  504  502 -0.00000000000E+00 -0.00000000000E+00 -0.16515521105E+04  0.16515521105E+04  0.00000000000E+00 0.  1.
         21    1    1    2  503  501  0.13594398360E+02  0.31518274411E+02 -0.80873939184E+02  0.87856720447E+02  0.00000000000E+00 0.  1.
         21    1    1    2  504  503  0.21301013859E+03  0.19945938609E+02 -0.68068540762E+03  0.71351509007E+03  0.00000000000E+00 0.  1.
         21    1    1    2  505  506 -0.20575908551E+02 -0.39145817728E+02 -0.48059306372E+02  0.65310489106E+02  0.00000000000E+00 0.  1.
         21    1    1    2  506  502 -0.20602862839E+03 -0.12318395291E+02 -0.80030861318E+03  0.82649465510E+03  0.00000000000E+00 0.  1.
<scales pt_clust_3="34.32505" pt_clust_4="14000.00000" pt_clust_5="36.48755" pt_clust_6="209.71513"></scales>
<clustering>
<clus scale="   34.325">  1  3  2 -1</clus>
<clus scale="   36.488">  1  5  2 -1</clus>
<clus scale="  209.715">  2  6  1 -1</clus>
<clus scale="   34.325">  1  3  2 -1</clus>
</clustering>
</event>
<event>
 6    0  0.8520634E+002  0.2329189E+03  0.7546771E-02  0.1124602E+00
         21   -1    0    0  504  501  0.00000000000E+00  0.00000000000E+00  0.22666166513E+03  0.22666166513E+03  0.00000000000E+00 0. -1.
         21   -1    0    0  506  502 -0.00000000000E+00 -0.00000000000E+00 -0.49615984888E+03  0.49615984888E+03  0.00000000000E+00 0. -1.
         21    1    1    2  503  502 -0.22994906536E+02 -0.62606172683E+02 -0.16992897808E+03  0.18254905142E+03  0.00000000000E+00 0. -1.
         21    1    1    2  504  505  0.12486459270E+03 -0.90776889617E+02 -0.12268654300E+03  0.19718924421E+03  0.00000000000E+00 0. -1.
         21    1    1    2  505  503  0.64824433967E+02 -0.11662782561E+02 -0.64964642391E+02  0.92512877466E+02  0.00000000000E+00 0. -1.
         21    1    1    2  506  501 -0.16669412013E+03  0.16504584486E+03  0.88081979717E+02  0.25057034091E+03  0.00000000000E+00 0. -1.
<scales pt_clust_3="66.69557" pt_clust_4="30.90452" pt_clust_5="30.90452" pt_clust_6="228.06291"></scales>
<clustering>
<clus scale="   30.905">  4  5 -1 -1</clus>
<clus scale="   66.696">  2  3  1 -1</clus>
<clus scale="  228.063">  1  6  2 -1</clus>
<clus scale="  228.063">  1  3  2 -1</clus>
</clustering>
</event>
<event>
 6    0  0.8520634E+002  0.8764477E+02  0.7546771E-02  0.1308658E+00
         21   -1    0    0  503  501  0.00000000000E+00  0.00000000000E+00  0.60972532686E+03  0.60972532686E+03  0.00000000000E+00 0.  1.
         21   -1    0    0  506  502 -0.00000000000E+00 -0.00000000000E+00 -0.53885388205E+02  0.53885388205E+02  0.00000000000E+00 0.  1.
         21    1    1    2  503  505  0.82254830670E+02 -0.12311398131E+01  0.33849294677E+03  0.34834587394E+03  0.00000000000E+00 0.  1.
         21    1    1    2  504  501 -0.49307708313E+01  0.63650751496E+02  0.60512231918E+02  0.87962838055E+02  0.00000000000E+00 0.  1.
         21    1    1    2  505  502 -0.11045104734E+03 -0.60656092806E+02  0.14494547941E+03  0.19206193650E+03  0.00000000000E+00 0.  1.
         21    1    1    2  506  504  0.33126987499E+02 -0.17635188769E+01  0.11889280555E+02  0.35240066568E+02  0.00000000000E+00 0.  1.
<scales pt_clust_3="14000.00000" pt_clust_4="63.34718" pt_clust_5="87.64477" pt_clust_6="33.17389"></scales>
<clustering>
<clus scale="   33.174">  2  6  1 -1</clus>
<clus scale="   63.347">  2  4  1 -1</clus>
<clus scale="   87.645">  2  5  1 -1</clus>
<clus scale="   87.645">  1  3  2 -1</clus>
</clustering>
</event>
<event>
 6    0  0.8520634E+002  0.2072175E+03  0.7546771E-02  0.1143789E+00
         21   -1    0    0  504  501  0.00000000000E+00  0.00000000000E+00  0.51051089978E+03  0.51051089978E+03  0.00000000000E+00 0.  1.
         21   -1    0    0  503  502 -0.00000000000E+00 -0.00000000000E+00 -0.48875563413E+03  0.48875563413E+03  0.00000000000E+00 0.  1.
         21    1    1    2  503  505  0.54857618514E+02  0.38867345471E+02 -0.26795361350E+03  0.27625924028E+03  0.00000000000E+00 0.  1.
         21    1    1    2  504  502 -0.28288296665E+02 -0.18836899207E+03  0.44728548254E+03  0.48615574438E+03  0.00000000000E+00 0.  1.
         21    1    1    2  505  506 -0.54554363176E+02  0.60735393863E+02 -0.55527220037E+02  0.98733169575E+02  0.00000000000E+00 0.  1.
         21    1    1    2  506  501  0.27985041327E+02  0.88766252738E+02 -0.10204938335E+03  0.13811837968E+03  0.00000000000E+00 0.  1.
<scales pt_clust_3="67.23116" pt_clust_4="186.35311" pt_clust_5="73.62406" pt_clust_6="73.62406"></scales>
<clustering>
<clus scale="   67.231">  2  3  1 -1</clus>
<clus scale="   73.624">  5  6 -1 -1</clus>
<clus scale="  186.353">  1  4  2 -1</clus>
<clus scale="  186.353">  1  3  2 -1</clus>
</clustering>
</event>
<event>
 6    0  0.8520634E+002  0.6504407E+02  0.7546771E-02  0.1377806E+00
         21   -1    0    0  505  501  0.00000000000E+00  0.00000000000E+00  0.64756863032E+03  0.64756863032E+03  0.00000000000E+00 0. -1.
         21   -1    0    0  504  502 -0.00000000000E+00 -0.00000000000E+00 -0.28245026511E+03  0.28245026511E+03  0.00000000000E+00 0. -1.
         21    1    1    2  503  502  0.20676432522E+02 -0.22194562961E+02  0.11205156399E+02  0.32336805915E+02  0.00000000000E+00 0. -1.
         21    1    1    2  504  501 -0.56188047306E+02 -0.32244697677E+02  0.59874081151E+03  0.60223531659E+03  0.00000000000E+00 0. -1.
         21    1    1    2  505  506  0.52533854844E+02  0.10086249814E+03 -0.19150636380E+03  0.22272794350E+03  0.00000000000E+00 0. -1.
         21    1    1    2  506  503 -0.17022240060E+02 -0.46423237506E+02 -0.53321238882E+02  0.72718829426E+02  0.00000000000E+00 0. -1.
<scales pt_clust_3="30.33337" pt_clust_4="65.04407" pt_clust_5="14000.00000" pt_clust_6="52.99805"></scales>
<clustering>
<clus scale="   30.333">  2  3  1 -1</clus>
<clus scale="   52.998">  2  6  1 -1</clus>
<clus scale="   65.044">  1  4  2 -1</clus>
<clus scale="   65.044">  1  3  2 -1</clus>
</clustering>
</event>
<event>
 6    0  0.8520634E+002  0.6569663E+02  0.7546771E-02  0.1375370E+00
         21   -1    0    0  505  501  0.00000000000E+00  0.00000000000E+00  0.96652403281E+03  0.96652403281E+03  0.00000000000E+00 0.  1.
         21   -1    0    0  504  502 -0.00000000000E+00 -0.00000000000E+00 -0.47580567104E+02  0.47580567104E+02  0.00000000000E+00 0. -1.
         21    1    1    2  503  502 -0.99122273512E+02 -0.44029859236E+02  0.60875040639E+02  0.12437694394E+03  0.00000000000E+00 0. -1.
         21    1    1    2  504  506  0.54880795526E+02  0.88824480260E+01  0.58322444274E+02  0.80574854059E+02  0.00000000000E+00 0. -1.
         21    1    1    2  505  503  0.36459026479E+02  0.73546716161E+02  0.47352839758E+03  0.48059080659E+03  0.00000000000E+00 0.  1.
         21    1    1    2  506  501  0.77824515068E+01 -0.38399304951E+02  0.32621758321E+03  0.32856199532E+03  0.00000000000E+00 0.  1.
<scales pt_clust_3="14000.00000" pt_clust_4="55.92513" pt_clust_5="65.69663" pt_clust_6="39.18001"></scales>
<clustering>
<clus scale="   39.180">  1  6  2 -1</clus>
<clus scale="   55.925">  2  4  1 -1</clus>
<clus scale="   65.697">  1  5  2 -1</clus>
<clus scale="   39.180">  1  3  2 -1</clus>
</clustering>
</event>
<event>
 6    0  0.8520634E+002  0.7995629E+02  0.7546771E-02  0.1329176E+00
         21   -1    0    0  505  501  0.00000000000E+00  0.00000000000E+00  0.16794502133E+04  0.16794502133E+04  0.00000000000E+00 0. -1.
         21   -1    0    0  504  502 -0.00000000000E+00 -0.00000000000E+00 -0.71040638942E+02  0.71040638942E+02  0.00000000000E+00 0. -1.
         21    1    1    2  503  502 -0.50353012838E+02 -0.13917137066E+02  0.10540597977E+03  0.11764154529E+03  0.00000000000E+00 0.  1.
         21    1    1    2  504  501 -0.54077566257E+02 -0.52332337142E+02 -0.19172489741E+02  0.77657202151E+02  0.00000000000E+00 0. -1.
         21    1    1    2  505  506  0.48918563773E+02  0.63399234335E+02  0.14875506686E+04  0.14897044943E+04  0.00000000000E+00 0. -1.
         21    1    1    2  506  503  0.55512015322E+02  0.28502398737E+01  0.34625415761E+02  0.65487610500E+02  0.00000000000E+00 0.  1.
<scales pt_clust_3="52.24091" pt_clust_4="79.95629" pt_clust_5="14000.00000" pt_clust_6="43.54634"></scales>
<clustering>
<clus scale="   52.241">  2  3  1 -1</clus>
<clus scale="   43.546">  2  6  1 -1</clus>
<clus scale="   79.956">  2  4  1 -1</clus>
<clus scale="   79.956">  1  3  2 -1</clus>
</clustering>
</event>
<event>
 6    0  0.8520634E+002  0.1214532E+03  0.7546771E-02  0.1240719E+00
         21   -1    0    0  505  501  0.00000000000E+00  0.00000000000E+00  0.25146994057E+03  0.25146994057E+03  0.00000000000E+00 0.  1.
         21   -1    0    0  506  502 -0.00000000000E+00 -0.00000000000E+00 -0.11503638538E+04  0.11503638538E+04  0.00000000000E+00 0.  1.
         21    1    1    2  503  504 -0.42294223476E+02  0.47898732266E+02 -0.66330368990E+02  0.92102159272E+02  0.00000000000E+00 0.  1.
         21    1    1    2  504  502  0.32159857463E+02  0.11923318373E+02 -0.58654143890E+03  0.58754342946E+03  0.00000000000E+00 0.  1.
         21    1    1    2  505  503 -0.10073811030E+03 -0.69334506603E+02  0.21531456544E+03  0.24762027938E+03  0.00000000000E+00 0.  1.
         21    1    1    2  506  501  0.11087247631E+03  0.95124559640E+01 -0.46133667076E+03  0.47456792623E+03  0.00000000000E+00 0.  1.
<scales pt_clust_3="62.32521" pt_clust_4="34.29901" pt_clust_5="14000.00000" pt_clust_6="121.45319"></scales>
<clustering>
<clus scale="   34.299">  2  4  1 -1</clus>
<clus scale="   62.325">  2  3  1 -1</clus>
<clus scale="  121.453">  2  6  1 -1</clus>
<clus scale="  121.453">  1  3  2 -1</clus>
</clustering>
</event>
<event>
 6    0  0.8520634E+002  0.9112788E+02  0.7546771E-02  0.1300143E+00
         21   -1    0    0  506  501  0.00000000000E+00  0.00000000000E+00  0.21022485390E+04  0.21022485390E+04  0.00000000000E+00 0. -1.
         21   -1    0    0  504  502 -0.00000000000E+00 -0.00000000000E+00 -0.83581953575E+02  0.83581953575E+02  0.00000000000E+00 0.  1.
         21    1    1    2  503  502 -0.22869419524E+02  0.89268829111E+02 -0.35254695800E+02  0.98665230837E+02  0.00000000000E+00 0.  1.
         21    1    1    2  504  501  0.13287927769E+02 -0.56521855362E+02  0.15934984971E+04  0.15945559725E+04  0.00000000000E+00 0. -1.
         21    1    1    2  505  503  0.71065629294E+02 -0.66907585466E+02  0.19554149994E+03  0.21854845426E+03  0.00000000000E+00 0.  1.
         21    1    1    2  506  505 -0.61484137539E+02  0.34160611716E+02  0.26488128422E+03  0.27406083502E+03  0.00000000000E+00 0.  1.
<scales pt_clust_3="91.12788" pt_clust_4="58.06280" pt_clust_5="14000.00000" pt_clust_6="54.59968"></scales>
<clustering>
<clus scale="   58.063">  1  4  2 -1</clus>
<clus scale="   54.600">  1  6  2 -1</clus>
<clus scale="   91.128">  2  3  1 -1</clus>
<clus scale="   58.063">  1  3  2 -1</clus>
</clustering>
</event>
<event>
 6    0  0.8520634E+002  0.2712881E+03  0.7546771E-02  0.1100545E+00
         21   -1    0    0  503  501  0.00000000000E+00  0.00000000000E+00  0.65412822811E+03  0.65412822811E+03  0.00000000000E+00 0.  1.
         21   -1    0    0  501  502 -0.00000000000E+00 -0.00000000000E+00 -0.89848836574E+03  0.89848836574E+03  0.00000000000E+00 0.  1.
         21    1    1    2  503  505  0.34776472546E+02  0.65295979991E+01  0.32803280247E+03  0.32993568796E+03  0.00000000000E+00 0. -1.
         21    1    1    2  504  506  0.15736578883E+03 -0.48926123019E+02 -0.47030733985E+03  0.49834400861E+03  0.00000000000E+00 0.  1.
         21    1    1    2  505  504 -0.28731777438E+03  0.90176754838E+00  0.23527664886E+03  0.37135888054E+03  0.00000000000E+00 0.  1.
         21    1    1    2  506  502  0.95175512997E+02  0.41494757472E+02 -0.33736224911E+03  0.35297801673E+03  0.00000000000E+00 0.  1.
<scales pt_clust_3="35.38416" pt_clust_4="73.54454" pt_clust_5="254.97169" pt_clust_6="73.54454"></scales>
<clustering>
<clus scale="   35.384">  1  3  2 -1</clus>
<clus scale="   73.545">  4  6 -1 -1</clus>
<clus scale="  254.972">  1  5  2 -1</clus>
<clus scale="   35.384">  1  3  2 -1</clus>
</clustering>
</event>
<event>
 6    0  0.8520634E+002  0.6949351E+02  0.7546771E-02  0.1361824E+00
         21   -1    0    0  503  501  0.00000000000E+00  0.00000000000E+00  0.40745968861E+03  0.40745968861E+03  0.00000000000E+00 0.  1.
         21   -1    0    0  506  502 -0.00000000000E+00 -0.00000000000E+00 -0.17837608117E+03  0.17837608117E+03  0.00000000000E+00 0.  1.
         21    1    1    2  503  505  0.11812106162E+03  0.38325560948E+02  0.27471639417E+03  0.30148056496E+03  0.00000000000E+00 0.  1.
         21    1    1    2  504  501 -0.92928757403E+01  0.33246135379E+02  0.14951074098E+02  0.37619113145E+02  0.00000000000E+00 0. -1.
         21    1    1    2  505  502 -0.50538551700E+02 -0.45840964731E+02 -0.13348645331E+03  0.14991388352E+03  0.00000000000E+00 0.  1.
         21    1    1    2  506  504 -0.58289634183E+02 -0.25730731596E+02  0.72902592475E+02  0.96822208151E+02  0.00000000000E+00 0.  1.
<scales pt_clust_3="69.49351" pt_clust_4="34.52047" pt_clust_5="14000.00000" pt_clust_6="63.08016"></scales>
<clustering>
<clus scale="   34.520">  1  4  2 -1</clus>
<clus scale="   63.080">  1  6  2 -1</clus>
<clus scale="   69.494">  1  3  2 -1</clus>
<clus scale="   34.520">  1  3  2 -1</clus>
</clustering>
</event>
<event>
 6    0  0.8520634E+002  0.7251874E+02  0.7546771E-02  0.1351732E+00
         21   -1    0    0  503  501  0.00000000000E+00  0.00000000000E+00  0.19816371013E+03  0.19816371013E+03  0.00000000000E+00 0.  1.
         21   -1    0    0  504  502 -0.00000000000E+00 -0.00000000000E+00 -0.14215587611E+03  0.14215587611E+03  0.00000000000E+00 0.  1.
         21    1    1    2  503  506 -0.44340089081E+02  0.63183308753E+01  0.79456576485E+02  0.91210264508E+02  0.00000000000E+00 0.  1.
         21    1    1    2  504  501 -0.10229861866E+02  0.73829008388E+02 -0.32188708962E+02  0.81187964243E+02  0.00000000000E+00 0.  1.
         21    1    1    2  505  502  0.89212781270E+02 -0.37086363950E+02 -0.29147324012E+02  0.10091523785E+03  0.00000000000E+00 0.  1.
         21    1    1    2  506  505 -0.34642830323E+02 -0.43060975313E+02  0.37887290504E+02  0.67006119641E+02  0.00000000000E+00 0.  1.
<scales pt_clust_3="44.78800" pt_clust_4="72.51874" pt_clust_5="14000.00000" pt_clust_6="68.28522"></scales>
<clustering>
<clus scale="   44.788">  1  3  2 -1</clus>
<clus scale="   68.285">  1  6  2 -1</clus>
<clus scale="   72.519">  2  4  1 -1</clus>
<clus scale="   44.788">  1  3  2 -1</clus>
</clustering>
</event>
<event>
 6    0  0.8520634E+002  0.1578585E+03  0.7546771E-02  0.1191136E+00
         21   -1    0    0  504  501  0.00000000000E+00  0.00000000000E+00  0.26845600924E+04  0.26845600924E+04  0.00000000000E+00 0.  1.
         21   -1    0    0  503  502 -0.00000000000E+00 -0.00000000000E+00 -0.11335801481E+03  0.11335801481E+03  0.00000000000E+00 0.  1.
         21    1    1    2  503  505  0.55872881978E+02  0.19550043114E+02  0.35528733599E+02  0.69038207084E+02  0.00000000000E+00 0. -1.
         21    1    1    2  504  506 -0.15603507570E+03  0.83209730857E+02  0.21941550510E+04  0.22012694501E+04  0.00000000000E+00 0.  1.
         21    1    1    2  505  501 -0.22785988290E+01 -0.57575525003E+02  0.39804030371E+03  0.40218927941E+03  0.00000000000E+00 0.  1.
         21    1    1    2  506  502  0.10244079255E+03 -0.45184248968E+02 -0.56522010738E+02  0.12542117059E+03  0.00000000000E+00 0.  1.
<scales pt_clust_3="58.72284" pt_clust_4="157.85852" pt_clust_5="57.62060" pt_clust_6="14000.00000"></scales>
<clustering>
<clus scale="   57.621">  1  5  2 -1</clus>
<clus scale="   58.723">  2  3  1 -1</clus>
<clus scale="  157.859">  1  4  2 -1</clus>
<clus scale="   57.621">  1  3  2 -1</clus>
</clustering>
</event>
<event>
 6    0  0.8520634E+002  0.7138804E+02  0.7546771E-02  0.1355436E+00
         21   -1    0    0  505  501  0.00000000000E+00  0.00000000000E+00  0.34227953630E+03  0.34227953630E+03  0.00000000000E+00 0.  1.
         21   -1    0    0  503  502 -0.00000000000E+00 -0.00000000000E+00 -0.96974262766E+03  0.96974262766E+03  0.00000000000E+00 0. -1.
         21    1    1    2  503  506 -0.20302694853E+02 -0.41430072299E+02 -0.52601026723E+03  0.52802978282E+03  0.00000000000E+00 0. -1.
         21    1    1    2  504  502 -0.50915918513E+02  0.49772737351E+02 -0.41273147916E+03  0.41882816289E+03  0.00000000000E+00 0.  1.
         21    1    1    2  505  504 -0.33751989456E+02  0.12923424108E+02  0.17648816237E+00  0.36141981559E+02  0.00000000000E+00 0. -1.
         21    1    1    2  506  501  0.10497060282E+03 -0.21266089161E+02  0.31110216687E+03  0.32902223669E+03  0.00000000000E+00 0.  1.
<scales pt_clust_3="46.14755" pt_clust_4="71.38804" pt_clust_5="36.14155" pt_clust_6="14000.00000"></scales>
<clustering>
<clus scale="   36.142">  1  5  2 -1</clus>
<clus scale="   46.148">  2  3  1 -1</clus>
<clus scale="   71.388">  2  4  1 -1</clus>
<clus scale="   36.142">  1  3  2 -1</clus>
</clustering>
</event>
<event>
 6    0  0.8520634E+002  0.2131346E+03  0.7546771E-02  0.1139107E+00
         21   -1    0    0  503  501  0.00000000000E+00  0.00000000000E+00  0.16712647585E+03  0.16712647585E+03  0.00000000000E+00 0.  1.
         21   -1    0    0  501  502 -0.00000000000E+00 -0.00000000000E+00 -0.14712822932E+04  0.14712822932E+04  0.00000000000E+00 0.  1.
         21    1    1    2  503  504  0.13023960165E+03  0.77139827982E+02  0.53091496575E+02  0.16041076618E+03  0.00000000000E+00 0.  1.
         21    1    1    2  504  506  0.88960506839E+01  0.57288119083E+02  0.36197693629E+02  0.68347211574E+02  0.00000000000E+00 0.  1.
         21    1    1    2  505  502 -0.60050673172E+02 -0.79455414522E+01 -0.52556479864E+03  0.52904401759E+03  0.00000000000E+00 0.  1.
         21    1    1    2  506  505 -0.79084979163E+02 -0.12648240561E+03 -0.86788020894E+03  0.88060677372E+03  0.00000000000E+00 0.  1.
<scales pt_clust_3="210.61257" pt_clust_4="51.51157" pt_clust_5="56.98453" pt_clust_6="56.98453"></scales>
<clustering>
<clus scale="   51.512">  3  4 -1 -1</clus>
<clus scale="   56.985">  5  6 -1 -1</clus>
<clus scale="  210.613">  1  3  2 -1</clus>
<clus scale="  210.613">  1  3  2 -1</clus>
</clustering>
</event>
<event>
 6    0  0.8520634E+002  0.8982114E+02  0.7546771E-02  0.1303285E+00
         21   -1    0    0  506  501  0.00000000000E+00  0.00000000000E+00  0.37095682486E+03  0.37095682486E+03  0.00000000000E+00 0.  1.
         21   -1    0    0  503  502 -0.00000000000E+00 -0.00000000000E+00 -0.30509805906E+03  0.30509805906E+03  0.00000000000E+00 0.  1.
         21    1    1    2  503  504  0.42973447695E+02  0.25865092940E+02 -0.48705251982E+02  0.69913673986E+02  0.00000000000E+00 0. -1.
         21    1    1    2  504  505  0.64940677347E+02  0.14532471112E+02  0.22773153068E+02  0.70335629603E+02  0.00000000000E+00 0.  1.
         21    1    1    2  505  501  0.75297433157E+01  0.45620954850E+02  0.28842176092E+03  0.29210457156E+03  0.00000000000E+00 0.  1.
         21    1    1    2  506  502 -0.11544386836E+03 -0.86018518902E+02 -0.19663089620E+03  0.24370100877E+03  0.00000000000E+00 0.  1.
<scales pt_clust_3="54.29382" pt_clust_4="89.82114" pt_clust_5="46.23817" pt_clust_6="14000.00000"></scales>
<clustering>
<clus scale="   46.238">  1  5  2 -1</clus>
<clus scale="   54.294">  2  3  1 -1</clus>
<clus scale="   89.821">  1  4  2 -1</clus>
<clus scale="   46.238">  1  3  2 -1</clus>
</clustering>
</event>
<event>
 6    0  0.8520634E+002  0.6607448E+02  0.7546771E-02  0.1373975E+00
         21   -1    0    0  505  501  0.00000000000E+00  0.00000000000E+00  0.24810499673E+03  0.24810499673E+03  0.00000000000E+00 0. -1.
         21   -1    0    0  504  502 -0.00000000000E+00 -0.00000000000E+00 -0.11374148150E+04  0.11374148150E+04  0.00000000000E+00 0. -1.
         21    1    1    2  503  502 -0.25384713188E+02 -0.92666161249E+02 -0.91115116118E+03  0.91620294675E+03  0.00000000000E+00 0. -1.
         21    1    1    2  504  506  0.96651031462E+01  0.29654928011E+02 -0.19849902554E+03  0.20093454684E+03  0.00000000000E+00 0. -1.
         21    1    1    2  505  503  0.13829232309E+02 -0.33355952653E+02  0.10724318669E+02  0.37668000406E+02  0.00000000000E+00 0.  1.
         21    1    1    2  506  501  0.18903777329E+01  0.96367185892E+02  0.20961604983E+03  0.23071431770E+03  0.00000000000E+00 0. -1.
<scales pt_clust_3="14000.00000" pt_clust_4="31.19021" pt_clust_5="35.76990" pt_clust_6="66.07448"></scales>
<clustering>
<clus scale="   31.190">  2  4  1 -1</clus>
<clus scale="   35.770">  1  5  2 -1</clus>
<clus scale="   66.074">  1  6  2 -1</clus>
<clus scale="   35.770">  1  3  2 -1</clus>
</clustering>
</event>
<event>
 6    0  0.8520634E+002  0.1451340E+03  0.7546771E-02  0.1206583E+00
         21   -1    0    0  504  501  0.00000000000E+00  0.00000000000E+00  0.32043898117E+03  0.32043898117E+03  0.00000000000E+00 0.  1.
         21   -1    0    0  505  502 -0.00000000000E+00 -0.00000000000E+00 -0.92579080949E+03  0.92579080949E+03  0.00000000000E+00 0.  1.
         21    1    1    2  503  501 -0.50439498726E+02  0.20188763811E+00  0.14227853966E+03  0.15095484967E+03  0.00000000000E+00 0.  1.
         21    1    1    2  504  502  0.34945501433E+02 -0.11180489410E+03 -0.21497548030E+03  0.24481825820E+03  0.00000000000E+00 0.  1.
         21    1    1    2  505  506  0.43632648491E+02 -0.20137259907E+02 -0.66197618350E+03  0.66371815161E+03  0.00000000000E+00 0.  1.
         21    1    1    2  506  503 -0.28138651198E+02  0.13174026637E+03  0.12932129582E+03  0.18673853118E+03  0.00000000000E+00 0.  1.
<scales pt_clust_3="49.71980" pt_clust_4="145.13399" pt_clust_5="48.05536" pt_clust_6="14000.00000"></scales>
<clustering>
<clus scale="   48.055">  2  5  1 -1</clus>
<clus scale="   49.720">  1  3  2 -1</clus>
<clus scale="  145.134">  2  4  1 -1</clus>
<clus scale="   49.720">  1  3  2 -1</clus>
</clustering>
</event>
<event>
 6    0  0.8520634E+002  0.1649855E+03  0.7546771E-02  0.1183180E+00
         21   -1    0    0  503  501  0.00000000000E+00  0.00000000000E+00  0.98285896709E+03  0.98285896709E+03  0.00000000000E+00 0. -1.
         21   -1    0    0  505  502 -0.00000000000E+00 -0.00000000000E+00 -0.54041749570E+02  0.54041749570E+02  0.00000000000E+00 0. -1.
         21    1    1    2  503  504  0.48730823075E+02 -0.20476889201E+02  0.29534619583E+03  0.30003894997E+03  0.00000000000E+00 0. -1.
         21    1    1    2  504  506 -0.16616825877E+03 -0.81749703213E+02  0.24617290730E+03  0.30805195096E+03  0.00000000000E+00 0. -1.
         21    1    1    2  505  501  0.12723878587E+03  0.64933082402E+02  0.33166419299E+03  0.36111930263E+03  0.00000000000E+00 0. -1.
         21    1    1    2  506  502 -0.98013501705E+01  0.37293510012E+02  0.55633921402E+02  0.67690513107E+02  0.00000000000E+00 0. -1.
<scales pt_clust_3="51.73225" pt_clust_4="14000.00000" pt_clust_5="164.98551" pt_clust_6="38.55998"></scales>
<clustering>
<clus scale="   38.560">  2  6  1 -1</clus>
<clus scale="   51.732">  1  3  2 -1</clus>
<clus scale="  164.986">  1  5  2 -1</clus>
<clus scale="   51.732">  1  3  2 -1</clus>
</clustering>
</event>
<event>
 6    0  0.8520634E+002  0.8102239E+02  0.7546771E-02  0.1326175E+00
         21   -1    0    0  504  501  0.00000000000E+00  0.00000000000E+00  0.74268876533E+02  0.74268876533E+02  0.00000000000E+00 0.  1.
         21   -1    0    0  505  502 -0.00000000000E+00 -0.00000000000E+00 -0.36491432022E+03  0.36491432022E+03  0.00000000000E+00 0.  1.
         21    1    1    2  503  502 -0.14875601302E+02 -0.30317292064E+02 -0.13772941310E+03  0.14180907215E+03  0.00000000000E+00 0.  1.
         21    1    1    2  504  503  0.18033862115E+02 -0.74791885952E+02 -0.35528435577E+02  0.84742646416E+02  0.00000000000E+00 0.  1.
         21    1    1    2  505  506  0.47269843069E+02  0.34484824997E+02 -0.11117100979E+03  0.12562895620E+03  0.00000000000E+00 0.  1.
         21    1    1    2  506  501 -0.50428103882E+02  0.70624353019E+02 -0.62165852261E+01  0.87002521988E+02  0.00000000000E+00 0.  1.
<scales pt_clust_3="33.77013" pt_clust_4="81.02239" pt_clust_5="43.58731" pt_clust_6="14000.00000"></scales>
<clustering>
<clus scale="   33.770">  2  3  1 -1</clus>
<clus scale="   43.587">  2  5  1 -1</clus>
<clus scale="   81.022">  2  4  1 -1</clus>
<clus scale="   81.022">  1  3  2 -1</clus>
</clustering>
</event>
<event>
 6    0  0.8520634E+002  0.8391361E+02  0.7546771E-02  0.1318298E+00
         21   -1    0    0  503  501  0.00000000000E+00  0.00000000000E+00  0.19428409359E+03  0.19428409359E+03  0.00000000000E+00 0.  1.
         21   -1    0    0  504  502 -0.00000000000E+00 -0.00000000000E+00 -0.11775813232E+04  0.11775813232E+04  0.00000000000E+00 0.  1.
         21    1    1    2  503  505 -0.71707780677E+02 -0.10967427761E+02  0.13236011981E+03  0.15093538882E+03  0.00000000000E+00 0.  1.
         21    1    1    2  504  501  0.31430181272E+02 -0.32226148739E+02  0.28799707767E+02  0.53439724221E+02  0.00000000000E+00 0. -1.
         21    1    1    2  505  506  0.73685213107E+02  0.10943897817E+03 -0.44602556906E+03  0.46512923884E+03  0.00000000000E+00 0.  1.
         21    1    1    2  506  502 -0.33407613702E+02 -0.66245401670E+02 -0.69843148815E+03  0.70236106494E+03  0.00000000000E+00 0.  1.
<scales pt_clust_3="58.99554" pt_clust_4="45.01534" pt_clust_5="14000.00000" pt_clust_6="83.91361"></scales>
<clustering>
<clus scale="   45.015">  1  4  2 -1</clus>
<clus scale="   58.996">  1  3  2 -1</clus>
<clus scale="   83.914">  2  6  1 -1</clus>
<clus scale="   45.015">  1  3  2 -1</clus>
</clustering>
</event>
<event>
 6    0  0.8520634E+002  0.2476298E+03  0.7546771E-02  0.1114812E+00
         21   -1    0    0  504  501  0.00000000000E+00  0.00000000000E+00  0.49127829954E+03  0.49127829954E+03  0.00000000000E+00 0.  1.
         21   -1    0    0  505  502 -0.00000000000E+00 -0.00000000000E+00 -0.85094988318E+03  0.85094988318E+03  0.00000000000E+00 0.  1.
         21    1    1    2  503  501  0.16257369408E+02 -0.80763777198E+02 -0.75856237723E+00  0.82387287759E+02  0.00000000000E+00 0.  1.
         21    1    1    2  504  506  0.66234476734E+02 -0.15824784484E+03  0.39838964626E+03  0.43375534181E+03  0.00000000000E+00 0.  1.
         21    1    1    2  505  503  0.60676718535E+02  0.13627356854E+02 -0.12147290270E+03  0.13646624167E+03  0.00000000000E+00 0.  1.
         21    1    1    2  506  502 -0.14316856468E+03  0.22538426518E+03 -0.63582976483E+03  0.68961931147E+03  0.00000000000E+00 0.  1.
<scales pt_clust_3="82.38183" pt_clust_4="247.62981" pt_clust_5="62.18817" pt_clust_6="14000.00000"></scales>
<clustering>
<clus scale="   62.188">  2  5  1 -1</clus>
<clus scale="   82.382">  1  3  2 -1</clus>
<clus scale="  247.630">  1  4  2 -1</clus>
<clus scale="   82.382">  1  3  2 -1</clus>
</clustering>
</event>
<event>
 6    0  0.8520634E+002  0.8513127E+02  0.7546771E-02  0.1315090E+00
         21   -1    0    0  504  501  0.00000000000E+00  0.00000000000E+00  0.98875889485E+02  0.98875889485E+02  0.00000000000E+00 0. -1.
         21   -1    0    0  503  502 -0.00000000000E+00 -0.00000000000E+00 -0.80316099328E+03  0.80316099328E+03  0.00000000000E+00 0. -1.
         21    1    1    2  503  505  0.43803655330E+02  0.75496824463E+02 -0.71009708012E+03  0.71544139796E+03  0.00000000000E+00 0. -1.
         21    1    1    2  504  506  0.34638983912E+02 -0.26652150556E+02  0.31248510559E+02  0.53727700006E+02  0.00000000000E+00 0. -1.
         21    1    1    2  505  501 -0.64031816332E+02  0.99066883504E+01 -0.31549927891E+02  0.72066732455E+02  0.00000000000E+00 0. -1.
         21    1    1    2  506  502 -0.14410822910E+02 -0.58751362257E+02  0.61133936560E+01  0.60801052343E+02  0.00000000000E+00 0. -1.
<scales pt_clust_3="14000.00000" pt_clust_4="43.70579" pt_clust_5="51.58816" pt_clust_6="85.13127"></scales>
<clustering>
<clus scale="   43.706">  1  4  2 -1</clus>
<clus scale="   51.588">  1  5  2 -1</clus>
<clus scale="   85.131">  1  6  2 -1</clus>
<clus scale="   43.706">  1  3  2 -1</clus>
</clustering>
</event>
<event>
 6    0  0.8520634E+002  0.1815995E+03  0.7546771E-02  0.1166264E+00
         21   -1    0    0  506  501  0.00000000000E+00  0.00000000000E+00  0.10795187665E+04  0.10795187665E+04  0.00000000000E+00 0.  1.
         21   -1    0    0  505  502 -0.00000000000E+00 -0.00000000000E+00 -0.50503975874E+03  0.50503975874E+03  0.00000000000E+00 0. -1.
         21    1    1    2  503  502  0.78090322076E+02  0.49515695781E+01 -0.39817191119E+03  0.40578749033E+03  0.00000000000E+00 0. -1.
         21    1    1    2  504  501 -0.13012552770E+03 -0.11754518002E+03  0.46943297757E+03  0.50111559817E+03  0.00000000000E+00 0.  1.
         21    1    1    2  505  504  0.92051913060E+02  0.95756872965E+02 -0.35262493442E+02  0.13742771504E+03  0.00000000000E+00 0. -1.
         21    1    1    2  506  503 -0.40016707432E+02  0.16836737477E+02  0.53848043483E+03  0.54022772170E+03  0.00000000000E+00 0.  1.
<scales pt_clust_3="77.97325" pt_clust_4="14000.00000" pt_clust_5="181.59948" pt_clust_6="43.41443"></scales>
<clustering>
<clus scale="   43.414">  1  6  2 -1</clus>
<clus scale="   77.973">  2  3  1 -1</clus>
<clus scale="  181.599">  2  5  1 -1</clus>
<clus scale="   43.414">  1  3  2 -1</clus>
</clustering>
</event>
<event>
 6    0  0.8520634E+002  0.1917307E+03  0.7546771E-02  0.1156910E+00
         21   -1    0    0  506  501  0.00000000000E+00  0.00000000000E+00  0.88136742433E+03  0.88136742433E+03  0.00000000000E+00 0.  1.
         21   -1    0    0  501  502 -0.00000000000E+00 -0.00000000000E+00 -0.16045964037E+03  0.16045964037E+03  0.00000000000E+00 0.  1.
         21    1    1    2  503  505  0.87399896067E+01 -0.12170739390E+03 -0.65128024302E+02  0.13831390638E+03  0.00000000000E+00 0.  1.
         21    1    1    2  504  503 -0.58499169397E+02  0.12687367903E+03  0.41311051113E+03  0.43609560610E+03  0.00000000000E+00 0.  1.
         21    1    1    2  505  502  0.54033024373E+02 -0.49360005466E+02 -0.16868312723E+02  0.75103380994E+02  0.00000000000E+00 0.  1.
         21    1    1    2  506  504 -0.42738445828E+01  0.44193720337E+02  0.38979360985E+03  0.39231417123E+03  0.00000000000E+00 0.  1.
<scales pt_clust_3="58.07373" pt_clust_4="176.46993" pt_clust_5="58.07373" pt_clust_6="44.39989"></scales>
<clustering>
<clus scale="   44.400">  1  6  2 -1</clus>
<clus scale="   58.074">  3  5 -1 -1</clus>
<clus scale="  176.470">  1  4  2 -1</clus>
<clus scale="   44.400">  1  3  2 -1</clus>
</clustering>
</event>
<event>
 6    0  0.8520634E+002  0.8384463E+02  0.7546771E-02  0.1318482E+00
         21   -1    0    0  503  501  0.00000000000E+00  0.00000000000E+00  0.19006290131E+04  0.19006290131E+04  0.00000000000E+00 0.  1.
         21   -1    0    0  504  502 -0.00000000000E+00 -0.00000000000E+00 -0.51524501237E+03  0.51524501237E+03  0.00000000000E+00 0.  1.
         21    1    1    2  503  502  0.40652617535E+02  0.36869340737E+02  0.47221060532E+03  0.47538914521E+03  0.00000000000E+00 0.  1.
         21    1    1    2  504  506 -0.76968537819E+02  0.51819426654E+01 -0.33314825584E+03  0.34196311016E+03  0.00000000000E+00 0.  1.
         21    1    1    2  505  501 -0.73551526100E+02 -0.32346662770E+02  0.14038895053E+04  0.14061869992E+04  0.00000000000E+00 0.  1.
         21    1    1    2  506  505  0.10986744638E+03 -0.97046206329E+01 -0.15756785411E+03  0.19233477087E+03  0.00000000000E+00 0.  1.
<scales pt_clust_3="54.88154" pt_clust_4="83.84463" pt_clust_5="33.75282" pt_clust_6="14000.00000"></scales>
<clustering>
<clus scale="   54.882">  1  3  2 -1</clus>
<clus scale="   33.753">  1  5  2 -1</clus>
<clus scale="   83.845">  2  4  1 -1</clus>
<clus scale="   54.882">  1  3  2 -1</clus>
</clustering>
</event>
<event>
 6    0  0.8520634E+002  0.9956281E+02  0.7546771E-02  0.1281218E+00
         21   -1    0    0  503  501  0.00000000000E+00  0.00000000000E+00  0.13907548283E+04  0.13907548283E+04  0.00000000000E+00 0.  1.
         21   -1    0    0  505  502 -0.00000000000E+00 -0.00000000000E+00 -0.80271919361E+03  0.80271919361E+03  0.00000000000E+00 0.  1.
         21    1    1    2  503  506  0.25544340288E+02  0.95087513327E+02  0.11726270392E+04  0.11767532968E+04  0.00000000000E+00 0.  1.
         21    1    1    2  504  501  0.23415741860E+02 -0.22853883661E+02  0.12195956969E+03  0.12627245783E+03  0.00000000000E+00 0.  1.
         21    1    1    2  505  504 -0.54963499516E+02 -0.16889698905E+03 -0.32818798585E+00  0.17761555927E+03  0.00000000000E+00 0.  1.
         21    1    1    2  506  502  0.60034173676E+01  0.96663359380E+02 -0.70622278613E+03  0.71283270808E+03  0.00000000000E+00 0.  1.
<scales pt_clust_3="87.71350" pt_clust_4="32.71998" pt_clust_5="14000.00000" pt_clust_6="99.56281"></scales>
<clustering>
<clus scale="   32.720">  1  4  2 -1</clus>
<clus scale="   87.713">  1  3  2 -1</clus>
<clus scale="   99.563">  2  6  1 -1</clus>
<clus scale="   32.720">  1  3  2 -1</clus>
</clustering>
</event>
<event>
 6    0  0.8520634E+002  0.9416419E+02  0.7546771E-02  0.1293070E+00
         21   -1    0    0  506  501  0.00000000000E+00  0.00000000000E+00  0.14174022540E+03  0.14174022540E+03  0.00000000000E+00 0. -1.
         21   -1    0    0  505  502 -0.00000000000E+00 -0.00000000000E+00 -0.11474028021E+04  0.11474028021E+04  0.00000000000E+00 0.  1.
         21    1    1    2  503  501 -0.13945380675E+02  0.72797935102E+02  0.45644351119E+02  0.87048376127E+02  0.00000000000E+00 0. -1.
         21    1    1    2  504  502  0.53600200844E+02 -0.39814698043E+01 -0.88976374313E+03  0.89138563608E+03  0.00000000000E+00 0.  1.
         21    1    1    2  505  503  0.39206665776E+02 -0.57709168246E+02 -0.20739324826E+03  0.21881377965E+03  0.00000000000E+00 0.  1.
         21    1    1    2  506  504 -0.78861485946E+02 -0.11107297052E+02  0.45850063534E+02  0.91895235673E+02  0.00000000000E+00 0. -1.
<scales pt_clust_3="73.11329" pt_clust_4="53.74787" pt_clust_5="14000.00000" pt_clust_6="94.16419"></scales>
<clustering>
<clus scale="   53.748">  2  4  1 -1</clus>
<clus scale="   73.113">  1  3  2 -1</clus>
<clus scale="   94.164">  1  6  2 -1</clus>
<clus scale="   73.113">  1  3  2 -1</clus>
</clustering>
</event>
<event>
 6    0  0.8520634E+002  0.2144838E+03  0.7546771E-02  0.1138064E+00
         21   -1    0    0  505  501  0.00000000000E+00  0.00000000000E+00  0.12314151820E+03  0.12314151820E+03  0.00000000000E+00 0.  1.
         21   -1    0    0  506  502 -0.00000000000E+00 -0.00000000000E+00 -0.52830739452E+03  0.52830739452E+03  0.00000000000E+00 0.  1.
         21    1    1    2  503  504 -0.76650874950E+01  0.53974870143E+02 -0.16277192813E+03  0.17165879167E+03  0.00000000000E+00 0.  1.
         21    1    1    2  504  502 -0.29850536312E+01  0.48442494835E+02 -0.60961674334E+02  0.77922471653E+02  0.00000000000E+00 0.  1.
         21    1    1    2  505  503  0.67525448270E+02  0.78514461010E+02 -0.18518079052E+03  0.21217005427E+03  0.00000000000E+00 0.  1.
         21    1    1    2  506  501 -0.56875307144E+02 -0.18093182599E+03  0.37485166521E+01  0.18969759512E+03  0.00000000000E+00 0.  1.
<scales pt_clust_3="83.05351" pt_clust_4="38.10950" pt_clust_5="83.05351" pt_clust_6="189.66056"></scales>
<clustering>
<clus scale="   38.110">  3  4 -1 -1</clus>
<clus scale="   83.054">  3  5 -1 -1</clus>
<clus scale="  189.661">  1  6  2 -1</clus>
<clus scale="  189.661">  1  3  2 -1</clus>
</clustering>
</event>
<event>
 6    0  0.8520634E+002  0.1254188E+03  0.7546771E-02  0.1234416E+00
         21   -1    0    0  503  501  0.00000000000E+00  0.00000000000E+00  0.11165548930E+03  0.11165548930E+03  0.00000000000E+00 0.  1.
         21   -1    0    0  506  502 -0.00000000000E+00 -0.00000000000E+00 -0.63296982564E+03  0.63296982564E+03  0.00000000000E+00 0. -1.
         21    1    1    2  503  504  0.33822612798E+02  0.12754283608E+01 -0.10758797280E+02  0.35515455409E+02  0.00000000000E+00 0.  1.
         21    1    1    2  504  502  0.33430228603E+02  0.64250936601E+01 -0.85112663784E+02  0.91668029048E+02  0.00000000000E+00 0.  1.
         21    1    1    2  505  501 -0.80949618725E+01 -0.12464869020E+03  0.42148496057E+02  0.13183064930E+03  0.00000000000E+00 0.  1.
         21    1    1    2  506  505 -0.59157879528E+02  0.11694816818E+03 -0.46759137133E+03  0.48561118118E+03  0.00000000000E+00 0. -1.
<scales pt_clust_3="33.84665" pt_clust_4="35.14702" pt_clust_5="125.41884" pt_clust_6="14000.00000"></scales>
<clustering>
<clus scale="   33.847">  1  3  2 -1</clus>
<clus scale="   35.147">  2  4  1 -1</clus>
<clus scale="  125.419">  1  5  2 -1</clus>
<clus scale="   33.847">  1  3  2 -1</clus>
</clustering>
</event>
<event>
 6    0  0.8520634E+002  0.7246881E+02  0.7546771E-02  0.1351893E+00
         21   -1    0    0  505  501  0.00000000000E+00  0.00000000000E+00  0.77241468440E+03  0.77241468440E+03  0.00000000000E+00 0.  1.
         21   -1    0    0  506  502 -0.00000000000E+00 -0.00000000000E+00 -0.13252697037E+04  0.13252697037E+04  0.00000000000E+00 0. -1.
         21    1    1    2  503  502  0.71398919974E+02 -0.94561177438E+01 -0.12707832448E+04  0.12728225639E+04  0.00000000000E+00 0. -1.
         21    1    1    2  504  501  0.61815336410E+02 -0.20952536548E+02  0.30300130751E+02  0.71960006439E+02  0.00000000000E+00 0.  1.
         21    1    1    2  505  503  0.82875498180E+01  0.29059606469E+02  0.56454864372E+03  0.56535680356E+03  0.00000000000E+00 0.  1.
         21    1    1    2  506  504 -0.14150180620E+03  0.13490478227E+01  0.12307945102E+03  0.18754501420E+03  0.00000000000E+00 0.  1.
<scales pt_clust_3="14000.00000" pt_clust_4="65.32998" pt_clust_5="30.21828" pt_clust_6="72.46881"></scales>
<clustering>
<clus scale="   30.218">  1  5  2 -1</clus>
<clus scale="   65.330">  1  4  2 -1</clus>
<clus scale="   72.469">  1  6  2 -1</clus>
<clus scale="   30.218">  1  3  2 -1</clus>
</clustering>
</event>
<event>
 6    0  0.8520634E+002  0.1270266E+03  0.7546771E-02  0.1231936E+00
         21   -1    0    0  506  501  0.00000000000E+00  0.00000000000E+00  0.37938883371E+03  0.37938883371E+03  0.00000000000E+00 0. -1.
         21   -1    0    0  505  502 -0.00000000000E+00 -0.00000000000E+00 -0.90210023568E+03  0.90210023568E+03  0.00000000000E+00 0. -1.
         21    1    1    2  503  501  0.74799001685E+02 -0.37625929179E+01  0.13318928795E+03  0.15280194430E+03  0.00000000000E+00 0.  1.
         21    1    1    2  504  503  0.33135237497E+02  0.27798434734E+02  0.12652916375E+03  0.13371733701E+03  0.00000000000E+00 0. -1.
         21    1    1    2  505  504  0.22992505885E+02  0.32181611555E+02 -0.84026373593E+03  0.84119406641E+03  0.00000000000E+00 0. -1.
         21    1    1    2  506  502 -0.13092674507E+03 -0.56217453371E+02  0.57833882254E+02  0.15377572167E+03  0.00000000000E+00 0. -1.
<scales pt_clust_3="37.32299" pt_clust_4="37.32299" pt_clust_5="39.55138" pt_clust_6="117.14795"></scales>
<clustering>
<clus scale="   37.323">  3  4 -1 -1</clus>
<clus scale="   39.551">  2  5  1 -1</clus>
<clus scale="  117.148">  2  6  1 -1</clus>
<clus scale="  127.027">  1  3  2 -1</clus>
</clustering>
</event>
<event>
 6    0  0.8520634E+002  0.7051275E+02  0.7546771E-02  0.1358358E+00
         21   -1    0    0  505  501  0.00000000000E+00  0.00000000000E+00  0.14336083556E+03  0.14336083556E+03  0.00000000000E+00 0. -1.
         21   -1    0    0  503  502 -0.00000000000E+00 -0.00000000000E+00 -0.25092479350E+03  0.25092479350E+03  0.00000000000E+00 0. -1.
         21    1    1    2  503  504  0.21539050386E+02 -0.36271011795E+02 -0.63718862196E+02  0.76417343501E+02  0.00000000000E+00 0. -1.
         21    1    1    2  504  501 -0.11309707026E+03 -0.12271219715E+02 -0.10838580376E+03  0.15712737697E+03  0.00000000000E+00 0. -1.
         21    1    1    2  505  506  0.65123878963E+02  0.15522102074E+02  0.89392360090E+02  0.11168280667E+03  0.00000000000E+00 0. -1.
         21    1    1    2  506  502  0.26434140917E+02  0.33020129436E+02 -0.24851652071E+02  0.49058101926E+02  0.00000000000E+00 0. -1.
<scales pt_clust_3="42.18432" pt_clust_4="14000.00000" pt_clust_5="70.51275" pt_clust_6="40.08271"></scales>
<clustering>
<clus scale="   42.184">  2  3  1 -1</clus>
<clus scale="   40.083">  2  6  1 -1</clus>
<clus scale="   70.513">  1  5  2 -1</clus>
<clus scale="   70.513">  1  3  2 -1</clus>
</clustering>
</event>
<event>
 6    0  0.8520634E+002  0.1283237E+03  0.7546771E-02  0.1229964E+00
         21   -1    0    0  504  501  0.00000000000E+00  0.00000000000E+00  0.90258521567E+02  0.90258521567E+02  0.00000000000E+00 0.  1.
         21   -1    0    0  503  502 -0.00000000000E+00 -0.00000000000E+00 -0.34315374349E+03  0.34315374349E+03  0.00000000000E+00 0.  1.
         21    1    1    2  503  505  0.25789698309E+02  0.92871476089E+02 -0.81630871044E+02  0.12630842694E+03  0.00000000000E+00 0.  1.
         21    1    1    2  504  506 -0.27111646396E+02 -0.87002188745E+02 -0.87571592747E+02  0.12638514973E+03  0.00000000000E+00 0.  1.
         21    1    1    2  505  501  0.24841797412E+02  0.35532801879E+02  0.33129973110E+02  0.54564549172E+02  0.00000000000E+00 0.  1.
         21    1    1    2  506  502 -0.23519849325E+02 -0.41402089222E+02 -0.11682273124E+03  0.12615413921E+03  0.00000000000E+00 0.  1.
<scales pt_clust_3="116.27181" pt_clust_4="39.24669" pt_clust_5="43.35545" pt_clust_6="39.24669"></scales>
<clustering>
<clus scale="   39.247">  4  6 -1 -1</clus>
<clus scale="   43.355">  1  5  2 -1</clus>
<clus scale="  116.272">  1  3  2 -1</clus>
<clus scale="   43.355">  1  3  2 -1</clus>
</clustering>
</event>
<event>
 6    0  0.8520634E+002  0.7755442E+02  0.7546771E-02  0.1336138E+00
         21   -1    0    0  503  501  0.00000000000E+00  0.00000000000E+00  0.48877885403E+03  0.48877885403E+03  0.00000000000E+00 0. -1.
         21   -1    0    0  505  502 -0.00000000000E+00 -0.00000000000E+00 -0.18729661559E+03  0.18729661559E+03  0.00000000000E+00 0.  1.
         21    1    1    2  503  504 -0.71884952187E+02 -0.33939189923E+02  0.31291188740E+03  0.32285161334E+03  0.00000000000E+00 0. -1.
         21    1    1    2  504  502  0.30980688298E+02 -0.66565208291E+02 -0.14615135463E+03  0.16355717185E+03  0.00000000000E+00 0.  1.
         21    1    1    2  505  506 -0.64221239648E+01  0.36120640668E+02  0.46079742198E+01  0.36975367272E+02  0.00000000000E+00 0.  1.
         21    1    1    2  506  501  0.47326387854E+02  0.64383757546E+02  0.13011373146E+03  0.15269131716E+03  0.00000000000E+00 0.  1.
<scales pt_clust_3="14000.00000" pt_clust_4="42.20302" pt_clust_5="36.68711" pt_clust_6="77.55442"></scales>
<clustering>
<clus scale="   36.687">  2  5  1 -1</clus>
<clus scale="   42.203">  2  4  1 -1</clus>
<clus scale="   77.554">  2  6  1 -1</clus>
<clus scale="   77.554">  1  3  2 -1</clus>
</clustering>
</event>
<event>
 6    0  0.1220221E+003  0.1058980E+03  0.7546771E-02  0.1268360E+00
         21   -1    0    0  503  501  0.00000000000E+00  0.00000000000E+00  0.78586646536E+03  0.78586646536E+03  0.00000000000E+00 0.  1.
         21   -1    0    0  504  502 -0.00000000000E+00 -0.00000000000E+00 -0.11008539135E+04  0.11008539135E+04  0.00000000000E+00 0.  1.
         21    1    1    2  503  502  0.65215592743E+01 -0.44161098333E+02  0.59462229418E+03  0.59629556939E+03  0.00000000000E+00 0.  1.
         21    1    1    2  504  506  0.43709676400E+02 -0.19050603358E+02 -0.93451080550E+03  0.93572640600E+03  0.00000000000E+00 0.  1.
         21    1    1    2  505  501 -0.11693207729E+03  0.33436898226E+02  0.16008442156E+03  0.20104267927E+03  0.00000000000E+00 0. -1.
         21    1    1    2  506  505  0.66700841614E+02  0.29774803465E+02 -0.13518335835E+03  0.15365572416E+03  0.00000000000E+00 0.  1.
<scales pt_clust_3="44.64004" pt_clust_4="47.75639" pt_clust_5="105.89797" pt_clust_6="14000.00000"></scales>
<clustering>
<clus scale="   44.640">  1  3  2 -1</clus>
<clus scale="   47.756">  2  4  1 -1</clus>
<clus scale="  105.898">  1  5  2 -1</clus>
<clus scale="   44.640">  1  3  2 -1</clus>
</clustering>
</event>
<event>
 6    0  0.8520634E+002  0.8157659E+02  0.7546771E-02  0.1324636E+00
         21   -1    0    0  506  501  0.00000000000E+00  0.00000000000E+00  0.41800618394E+03  0.41800618394E+03  0.00000000000E+00 0. -1.
         21   -1    0    0  503  502 -0.00000000000E+00 -0.00000000000E+00 -0.33179541461E+03  0.33179541461E+03  0.00000000000E+00 0.  1.
         21    1    1    2  503  501  0.27989956806E+02  0.87846752116E+02  0.21285138277E+03  0.23196163624E+03  0.00000000000E+00 0. -1.
         21    1    1    2  504  502  0.62604642509E+02  0.11202266867E+02 -0.94503325609E+02  0.11391097663E+03  0.00000000000E+00 0.  1.
         21    1    1    2  505  504 -0.15118456853E+02 -0.81928852532E+02 -0.20132378365E+03  0.21788109252E+03  0.00000000000E+00 0.  1.
         21    1    1    2  506  505 -0.75476142462E+02 -0.17120166451E+02  0.16918649582E+03  0.18604789316E+03  0.00000000000E+00 0. -1.
<scales pt_clust_3="14000.00000" pt_clust_4="63.59899" pt_clust_5="81.57659" pt_clust_6="75.04009"></scales>
<clustering>
<clus scale="   63.599">  2  4  1 -1</clus>
<clus scale="   75.040">  1  6  2 -1</clus>
<clus scale="   81.577">  2  5  1 -1</clus>
<clus scale="   75.040">  1  3  2 -1</clus>
</clustering>
</event>
<event>
 6    0  0.8520634E+002  0.1177876E+03  0.7546771E-02  0.1246792E+00
         21   -1    0    0  504  501  0.00000000000E+00  0.00000000000E+00  0.86538650940E+03  0.86538650940E+03  0.00000000000E+00 0.  1.
         21   -1    0    0  505  502 -0.00000000000E+00 -0.00000000000E+00 -0.25234787417E+03  0.25234787417E+03  0.00000000000E+00 0.  1.
         21    1    1    2  503  501  0.38417156503E+02  0.15854356534E+03  0.98873842406E+02  0.19075632817E+03  0.00000000000E+00 0.  1.
         21    1    1    2  504  502  0.33614297744E+02 -0.10960383396E+03  0.57949914446E+03  0.59073020903E+03  0.00000000000E+00 0.  1.
         21    1    1    2  505  506 -0.72315741529E+01  0.36330197212E+02 -0.17740571097E+03  0.18123179958E+03  0.00000000000E+00 0.  1.
         21    1    1    2  506  503 -0.64799880094E+02 -0.85269928592E+02  0.11207135933E+03  0.15501604679E+03  0.00000000000E+00 0.  1.
<scales pt_clust_3="117.78762" pt_clust_4="14000.00000" pt_clust_5="37.04293" pt_clust_6="100.21214"></scales>
<clustering>
<clus scale="   37.043">  2  5  1 -1</clus>
<clus scale="  100.212">  2  6  1 -1</clus>
<clus scale="  117.788">  2  3  1 -1</clus>
<clus scale="  117.788">  1  3  2 -1</clus>
</clustering>
</event>
<event>
 6    0  0.8520634E+002  0.1392057E+03  0.7546771E-02  0.1214402E+00
         21   -1    0    0  506  501  0.00000000000E+00  0.00000000000E+00  0.38698428605E+03  0.38698428605E+03  0.00000000000E+00 0. -1.
         21   -1    0    0  503  502 -0.00000000000E+00 -0.00000000000E+00 -0.10470778185E+03  0.10470778185E+03  0.00000000000E+00 0. -1.
         21    1    1    2  503  505 -0.27063426268E+02  0.50509378528E+02  0.11706607593E+02  0.58486502905E+02  0.00000000000E+00 0. -1.
         21    1    1    2  504  501 -0.28475341181E+02 -0.13039805409E+02  0.61833830309E+02  0.69313087878E+02  0.00000000000E+00 0. -1.
         21    1    1    2  505  504 -0.24672202414E+02 -0.15328198597E+03  0.88667493805E+02  0.17879040593E+03  0.00000000000E+00 0. -1.
         21    1    1    2  506  502  0.80210969863E+02  0.11581241285E+03  0.12006857250E+03  0.18510207119E+03  0.00000000000E+00 0. -1.
<scales pt_clust_3="57.61756" pt_clust_4="31.31903" pt_clust_5="14000.00000" pt_clust_6="139.20573"></scales>
<clustering>
<clus scale="   31.319">  1  4  2 -1</clus>
<clus scale="   57.618">  2  3  1 -1</clus>
<clus scale="  139.206">  1  6  2 -1</clus>
<clus scale="   31.319">  1  3  2 -1</clus>
</clustering>
</event>
<event>
 6    0  0.8520634E+002  0.2414474E+03  0.7546771E-02  0.1118832E+00
         21   -1    0    0  504  501  0.00000000000E+00  0.00000000000E+00  0.79256754122E+03  0.79256754122E+03  0.00000000000E+00 0.  1.
         21   -1    0    0  503  502 -0.00000000000E+00 -0.00000000000E+00 -0.11836625191E+04  0.11836625191E+04  0.00000000000E+00 0. -1.
         21    1    1    2  503  505 -0.47145993481E+02 -0.37468220031E+02 -0.85884913064E+03  0.86095786274E+03  0.00000000000E+00 0. -1.
         21    1    1    2  504  502  0.91984412530E+02  0.20179391129E+03  0.74337447472E+03  0.77574965321E+03  0.00000000000E+00 0.  1.
         21    1    1    2  505  506 -0.48790803588E+02 -0.35980521444E+02 -0.14101455869E+03  0.15349347283E+03  0.00000000000E+00 0. -1.
         21    1    1    2  506  501  0.39523845388E+01 -0.12834516981E+03 -0.13460576331E+03  0.18602907158E+03  0.00000000000E+00 0. -1.
<scales pt_clust_3="60.22136" pt_clust_4="219.09188" pt_clust_5="78.19595" pt_clust_6="78.19595"></scales>
<clustering>
<clus scale="   60.221">  2  3  1 -1</clus>
<clus scale="   78.196">  5  6 -1 -1</clus>
<clus scale="  219.092">  1  4  2 -1</clus>
<clus scale="  219.092">  1  3  2 -1</clus>
</clustering>
</event>
<event>
 6    0  0.8520634E+002  0.1122093E+03  0.7546771E-02  0.1256532E+00
         21   -1    0    0  503  501  0.00000000000E+00  0.00000000000E+00  0.34820296471E+03  0.34820296471E+03  0.00000000000E+00 0.  1.
         21   -1    0    0  504  502 -0.00000000000E+00 -0.00000000000E+00 -0.12469962503E+03  0.12469962503E+03  0.00000000000E+00 0.  1.
         21    1    1    2  503  505  0.38591983462E+02  0.70792543735E+01  0.52353279421E+02  0.65424176695E+02  0.00000000000E+00 0.  1.
         21    1    1    2  504  506  0.79588197959E+02  0.72872551444E+02 -0.46005885103E+02  0.11730827538E+03  0.00000000000E+00 0.  1.
         21    1    1    2  505  502  0.23015942731E+02 -0.32522216428E+02  0.24966918596E+02  0.47018881370E+02  0.00000000000E+00 0.  1.
         21    1    1    2  506  501 -0.14119612415E+03 -0.47429589390E+02  0.19218902677E+03  0.24315125629E+03  0.00000000000E+00 0.  1.
<scales pt_clust_3="39.23592" pt_clust_4="112.20935" pt_clust_5="42.13045" pt_clust_6="14000.00000"></scales>
<clustering>
<clus scale="   39.236">  1  3  2 -1</clus>
<clus scale="   42.130">  1  5  2 -1</clus>
<clus scale="  112.209">  2  4  1 -1</clus>
<clus scale="   39.236">  1  3  2 -1</clus>
</clustering>
</event>
<event>
 6    0  0.8520634E+002  0.7152395E+02  0.7546771E-02  0.1354986E+00
         21   -1    0    0  505  501  0.00000000000E+00  0.00000000000E+00  0.12423302729E+04  0.12423302729E+04  0.00000000000E+00 0. -1.
         21   -1    0    0  503  502 -0.00000000000E+00 -0.00000000000E+00 -0.48614545825E+02  0.48614545825E+02  0.00000000000E+00 0. -1.
         21    1    1    2  503  506 -0.25244948980E+02 -0.25036814464E+02 -0.40982381803E+01  0.35790293149E+02  0.00000000000E+00 0. -1.
         21    1    1    2  504  502  0.92395411948E+02  0.52251720265E+02  0.90475726524E+02  0.13947405318E+03  0.00000000000E+00 0. -1.
         21    1    1    2  505  504 -0.57143627170E+02  0.27743132788E+02  0.31301944941E+03  0.31939982976E+03  0.00000000000E+00 0. -1.
         21    1    1    2  506  501 -0.10006835798E+02 -0.54958038589E+02  0.79431878929E+03  0.79628064261E+03  0.00000000000E+00 0. -1.
<scales pt_clust_3="35.55488" pt_clust_4="71.52395" pt_clust_5="14000.00000" pt_clust_6="56.86338"></scales>
<clustering>
<clus scale="   35.555">  2  3  1 -1</clus>
<clus scale="   56.863">  1  6  2 -1</clus>
<clus scale="   71.524">  2  4  1 -1</clus>
<clus scale="   56.863">  1  3  2 -1</clus>
</clustering>
</event>
<event>
 6    0  0.8520634E+002  0.1048862E+03  0.7546771E-02  0.1270344E+00
         21   -1    0    0  506  501  0.00000000000E+00  0.00000000000E+00  0.46755531169E+03  0.46755531169E+03  0.00000000000E+00 0. -1.
         21   -1    0    0  503  502 -0.00000000000E+00 -0.00000000000E+00 -0.33175113607E+03  0.33175113607E+03  0.00000000000E+00 0. -1.
         21    1    1    2  503  505  0.18103032293E+02  0.10968548857E+03 -0.24090494840E+03  0.26531833775E+03  0.00000000000E+00 0. -1.
         21    1    1    2  504  501 -0.69220367663E+02 -0.54576692934E+01  0.34710785920E+03  0.35398462025E+03  0.00000000000E+00 0. -1.
         21    1    1    2  505  504  0.85443156436E+02 -0.96628490442E+02  0.51160740350E+02  0.13876245710E+03  0.00000000000E+00 0. -1.
         21    1    1    2  506  502 -0.34325821066E+02 -0.75993288379E+01 -0.21559475533E+02  0.41241032672E+02  0.00000000000E+00 0. -1.
<scales pt_clust_3="104.88615" pt_clust_4="69.83379" pt_clust_5="14000.00000" pt_clust_6="35.15696"></scales>
<clustering>
<clus scale="   35.157">  2  6  1 -1</clus>
<clus scale="   69.834">  1  4  2 -1</clus>
<clus scale="  104.886">  2  3  1 -1</clus>
<clus scale="   69.834">  1  3  2 -1</clus>
</clustering>
</event>
<event>
 6    0  0.8520634E+002  0.1324321E+03  0.7546771E-02  0.1223891E+00
         21   -1    0    0  506  501  0.00000000000E+00  0.00000000000E+00  0.51373006272E+02  0.51373006272E+02  0.00000000000E+00 0. -1.
         21   -1    0    0  505  502 -0.00000000000E+00 -0.00000000000E+00 -0.10355506886E+04  0.10355506886E+04  0.00000000000E+00 0.  1.
         21    1    1    2  503  501  0.62106019797E+01 -0.30470007291E+02  0.56795926127E+01  0.31610926806E+02  0.00000000000E+00 0. -1.
         21    1    1    2  504  503 -0.14495339550E+03 -0.25237311311E+02 -0.23033374591E+03  0.27331674528E+03  0.00000000000E+00 0. -1.
         21    1    1    2  505  504  0.47814126229E+02 -0.21740378841E+02 -0.39318643325E+03  0.39667922309E+03  0.00000000000E+00 0.  1.
         21    1    1    2  506  502  0.90928667293E+02  0.77447697443E+02 -0.36633709574E+03  0.38531679965E+03  0.00000000000E+00 0. -1.
<scales pt_clust_3="31.09651" pt_clust_4="132.43214" pt_clust_5="53.51613" pt_clust_6="14000.00000"></scales>
<clustering>
<clus scale="   31.097">  1  3  2 -1</clus>
<clus scale="   53.516">  2  5  1 -1</clus>
<clus scale="  132.432">  1  4  2 -1</clus>
<clus scale="   31.097">  1  3  2 -1</clus>
</clustering>
</event>
<event>
 6    0  0.8520634E+002  0.1294317E+03  0.7546771E-02  0.1228301E+00
         21   -1    0    0  503  501  0.00000000000E+00  0.00000000000E+00  0.57414674525E+02  0.57414674525E+02  0.00000000000E+00 0. -1.
         21   -1    0    0  506  502 -0.00000000000E+00 -0.00000000000E+00 -0.19117692609E+04  0.19117692609E+04  0.00000000000E+00 0. -1.
         21    1    1    2  503  505 -0.12337345117E+03  0.27759220306E+02 -0.45137894531E+02  0.13427215753E+03  0.00000000000E+00 0. -1.
         21    1    1    2  504  502  0.15292778558E+02  0.26469024656E+02 -0.78018419531E+03  0.78078284878E+03  0.00000000000E+00 0.  1.
         21    1    1    2  505  504  0.14844452001E+03 -0.61530319358E+01 -0.50654157267E+03  0.52788066849E+03  0.00000000000E+00 0. -1.
         21    1    1    2  506  501 -0.40363847402E+02 -0.48075213026E+02 -0.52249092385E+03  0.52624826061E+03  0.00000000000E+00 0. -1.
<scales pt_clust_3="129.43170" pt_clust_4="30.56924" pt_clust_5="14000.00000" pt_clust_6="48.88097"></scales>
<clustering>
<clus scale="   30.569">  2  4  1 -1</clus>
<clus scale="   48.881">  2  6  1 -1</clus>
<clus scale="  129.432">  1  3  2 -1</clus>
<clus scale="  129.432">  1  3  2 -1</clus>
</clustering>
</event>
<event>
 6    0  0.8520634E+002  0.8844350E+02  0.7546771E-02  0.1306665E+00
         21   -1    0    0  506  501  0.00000000000E+00  0.00000000000E+00  0.48928577900E+03  0.48928577900E+03  0.00000000000E+00 0.  1.
         21   -1    0    0  505  502 -0.00000000000E+00 -0.00000000000E+00 -0.87276047131E+02  0.87276047131E+02  0.00000000000E+00 0.  1.
         21    1    1    2  503  502 -0.89380112370E+02 -0.64635798773E+02  0.43369761354E+01  0.11038750080E+03  0.00000000000E+00 0.  1.
         21    1    1    2  504  501  0.11443337785E+03 -0.15168439852E+02  0.28872081107E+03  0.31094177313E+03  0.00000000000E+00 0.  1.
         21    1    1    2  505  504  0.25608795779E+02  0.25131349921E+02  0.31587843629E+02  0.47803629938E+02  0.00000000000E+00 0.  1.
         21    1    1    2  506  503 -0.50662061257E+02  0.54672888704E+02  0.77364101040E+02  0.10742892227E+03  0.00000000000E+00 0.  1.
<scales pt_clust_3="88.44350" pt_clust_4="14000.00000" pt_clust_5="35.88029" pt_clust_6="75.04184"></scales>
<clustering>
<clus scale="   35.880">  2  5  1 -1</clus>
<clus scale="   75.042">  1  6  2 -1</clus>
<clus scale="   88.443">  2  3  1 -1</clus>
<clus scale="   75.042">  1  3  2 -1</clus>
</clustering>
</event>
<event>
 6    0  0.8520634E+002  0.9995686E+02  0.7546771E-02  0.1280387E+00
         21   -1    0    0  505  501  0.00000000000E+00  0.00000000000E+00  0.34603366213E+03  0.34603366213E+03  0.00000000000E+00 0.  1.
         21   -1    0    0  504  502 -0.00000000000E+00 -0.00000000000E+00 -0.34397233599E+03  0.34397233599E+03  0.00000000000E+00 0.  1.
         21    1    1    2  503  501  0.14890204109E+02  0.32405353655E+02  0.24474480847E+03  0.24732942889E+03  0.00000000000E+00 0.  1.
         21    1    1    2  504  506 -0.87988306570E+02 -0.49046542808E+02 -0.25045122780E+03  0.26995059356E+03  0.00000000000E+00 0.  1.
         21    1    1    2  505  502  0.98838425722E+01 -0.62203564430E+02 -0.23058080782E+02  0.67071967774E+02  0.00000000000E+00 0. -1.
         21    1    1    2  506  503  0.63214259888E+02  0.78844753584E+02  0.30825826247E+02  0.10565400790E+03  0.00000000000E+00 0.  1.
<scales pt_clust_3="35.66266" pt_clust_4="99.95686" pt_clust_5="56.62262" pt_clust_6="14000.00000"></scales>
<clustering>
<clus scale="   35.663">  1  3  2 -1</clus>
<clus scale="   56.623">  1  5  2 -1</clus>
<clus scale="   99.957">  2  4  1 -1</clus>
<clus scale="   35.663">  1  3  2 -1</clus>
</clustering>
</event>
<event>
 6    0  0.8520634E+002  0.9764382E+02  0.7546771E-02  0.1285330E+00
         21   -1    0    0  504  501  0.00000000000E+00  0.00000000000E+00  0.46804101129E+03  0.46804101129E+03  0.00000000000E+00 0.  1.
         21   -1    0    0  503  502 -0.00000000000E+00 -0.00000000000E+00 -0.29544236039E+03  0.29544236039E+03  0.00000000000E+00 0. -1.
         21    1    1    2  503  501  0.95018067622E+02  0.35393641341E+02  0.18373692812E+01  0.10141261730E+03  0.00000000000E+00 0. -1.
         21    1    1    2  504  506 -0.95441697199E+02 -0.19033436708E+02  0.37814087272E+03  0.39046371009E+03  0.00000000000E+00 0.  1.
         21    1    1    2  505  502  0.24964742621E+02  0.18300987611E+02 -0.22390580653E+03  0.22603533954E+03  0.00000000000E+00 0. -1.
         21    1    1    2  506  505 -0.24541113044E+02 -0.34661192244E+02  0.16526215432E+02  0.45571704749E+02  0.00000000000E+00 0.  1.
<scales pt_clust_3="97.64382" pt_clust_4="14000.00000" pt_clust_5="30.95423" pt_clust_6="36.47461"></scales>
<clustering>
<clus scale="   30.954">  2  5  1 -1</clus>
<clus scale="   36.475">  2  6  1 -1</clus>
<clus scale="   97.644">  2  3  1 -1</clus>
<clus scale="   97.644">  1  3  2 -1</clus>
</clustering>
</event>
<event>
 6    0  0.8520634E+002  0.7979007E+02  0.7546771E-02  0.1329648E+00
         21   -1    0    0  506  501  0.00000000000E+00  0.00000000000E+00  0.12964271091E+03  0.12964271091E+03  0.00000000000E+00 0. -1.
         21   -1    0    0  503  502 -0.00000000000E+00 -0.00000000000E+00 -0.20543066266E+03  0.20543066266E+03  0.00000000000E+00 0. -1.
         21    1    1    2  503  504 -0.41454089553E+02  0.95997892759E+02  0.26574650223E+01  0.10459970877E+03  0.00000000000E+00 0. -1.
         21    1    1    2  504  501  0.57750441030E+02  0.29984700454E+02  0.52139858504E+01  0.65279256651E+02  0.00000000000E+00 0. -1.
         21    1    1    2  505  502 -0.20241838176E+02 -0.74836861741E+02 -0.83439003470E+02  0.11389624747E+03  0.00000000000E+00 0. -1.
         21    1    1    2  506  505  0.39454866993E+01 -0.51145731472E+02 -0.22039915747E+00  0.51298160677E+02  0.00000000000E+00 0.  1.
<scales pt_clust_3="79.79007" pt_clust_4="60.42906" pt_clust_5="14000.00000" pt_clust_6="51.29769"></scales>
<clustering>
<clus scale="   51.298">  1  6  2 -1</clus>
<clus scale="   60.429">  1  4  2 -1</clus>
<clus scale="   79.790">  1  3  2 -1</clus>
<clus scale="   51.298">  1  3  2 -1</clus>
</clustering>
</event>
<event>
 6    0  0.8520634E+002  0.1172774E+03  0.7546771E-02  0.1247657E+00
         21   -1    0    0  505  501  0.00000000000E+00  0.00000000000E+00  0.51774862581E+03  0.51774862581E+03  0.00000000000E+00 0.  1.
         21   -1    0    0  504  502 -0.00000000000E+00 -0.00000000000E+00 -0.16289304650E+03  0.16289304650E+03  0.00000000000E+00 0.  1.
         21    1    1    2  503  506 -0.81626300873E+02 -0.37060857441E+02  0.18617205621E+03  0.20663105929E+03  0.00000000000E+00 0.  1.
         21    1    1    2  504  501  0.94532306523E+02  0.71642086901E+02 -0.11303915122E+03  0.16384991700E+03  0.00000000000E+00 0.  1.
         21    1    1    2  505  503 -0.32736117910E+02 -0.11642174623E+02  0.27735828755E+03  0.27952605123E+03  0.00000000000E+00 0.  1.
         21    1    1    2  506  502  0.19830112261E+02 -0.22939054837E+02  0.43643867595E+01  0.30634644781E+02  0.00000000000E+00 0.  1.
<scales pt_clust_3="117.27739" pt_clust_4="14000.00000" pt_clust_5="34.66570" pt_clust_6="30.32216"></scales>
<clustering>
<clus scale="   30.322">  2  6  1 -1</clus>
<clus scale="   34.666">  1  5  2 -1</clus>
<clus scale="  117.277">  1  3  2 -1</clus>
<clus scale="   34.666">  1  3  2 -1</clus>
</clustering>
</event>
<event>
 6    0  0.8520634E+002  0.1010509E+03  0.7546771E-02  0.1278101E+00
         21   -1    0    0  502  501  0.00000000000E+00  0.00000000000E+00  0.40102187849E+03  0.40102187849E+03  0.00000000000E+00 0.  1.
         21   -1    0    0  503  502 -0.00000000000E+00 -0.00000000000E+00 -0.24964157648E+03  0.24964157648E+03  0.00000000000E+00 0. -1.
         21    1    1    2  503  504 -0.47313103392E+00 -0.36673148283E+02 -0.16149774420E+03  0.16560997869E+03  0.00000000000E+00 0. -1.
         21    1    1    2  504  505  0.73605649196E+02 -0.57127565253E+02 -0.27651249083E+02  0.97190235524E+02  0.00000000000E+00 0. -1.
         21    1    1    2  505  506 -0.30309713774E+02  0.91642413989E+02  0.84553127386E+02  0.12832085622E+03  0.00000000000E+00 0.  1.
         21    1    1    2  506  501 -0.42822804388E+02  0.21582995464E+01  0.25597616791E+03  0.25954238453E+03  0.00000000000E+00 0.  1.
<scales pt_clust_3="36.67620" pt_clust_4="14000.00000" pt_clust_5="101.05094" pt_clust_6="42.85544"></scales>
<clustering>
<clus scale="   36.676">  2  3  1 -1</clus>
<clus scale="   42.855">  1  6  2 -1</clus>
<clus scale="  101.051">  1  5  2 -1</clus>
<clus scale="   42.855">  1  3  2 -1</clus>
</clustering>
</event>
<event>
 6    0  0.8520634E+002  0.1746409E+03  0.7546771E-02  0.1173093E+00
         21   -1    0    0  505  501  0.00000000000E+00  0.00000000000E+00  0.38410990425E+03  0.38410990425E+03  0.00000000000E+00 0.  1.
         21   -1    0    0  506  502 -0.00000000000E+00 -0.00000000000E+00 -0.40086276373E+03  0.40086276373E+03  0.00000000000E+00 0.  1.
         21    1    1    2  503  502 -0.38123131380E+02 -0.58328169832E+02 -0.19162886089E+03  0.20390480344E+03  0.00000000000E+00 0.  1.
         21    1    1    2  504  503  0.23362785400E+03  0.82302925556E+02 -0.91093456288E+01  0.24786836405E+03  0.00000000000E+00 0.  1.
         21    1    1    2  505  504 -0.65279697314E+02 -0.58917425777E+02  0.17764591046E+03  0.19821899870E+03  0.00000000000E+00 0.  1.
         21    1    1    2  506  501 -0.13022502531E+03  0.34942670052E+02  0.63394365794E+01  0.13498050179E+03  0.00000000000E+00 0.  1.
<scales pt_clust_3="69.68177" pt_clust_4="14000.00000" pt_clust_5="91.35298" pt_clust_6="174.64090"></scales>
<clustering>
<clus scale="   69.682">  2  3  1 -1</clus>
<clus scale="   91.353">  1  5  2 -1</clus>
<clus scale="  174.641">  2  6  1 -1</clus>
<clus scale="   91.353">  1  3  2 -1</clus>
</clustering>
</event>
<event>
 6    0  0.8520634E+002  0.1637150E+03  0.7546771E-02  0.1184565E+00
         21   -1    0    0  506  501  0.00000000000E+00  0.00000000000E+00  0.42011489894E+03  0.42011489894E+03  0.00000000000E+00 0. -1.
         21   -1    0    0  504  502 -0.00000000000E+00 -0.00000000000E+00 -0.20136274157E+04  0.20136274157E+04  0.00000000000E+00 0. -1.
         21    1    1    2  503  505 -0.16588232819E+03  0.11450518791E+03 -0.19717504258E+03  0.28196876118E+03  0.00000000000E+00 0. -1.
         21    1    1    2  504  503  0.12016376045E+03 -0.10646644264E+03 -0.17469801976E+04  0.17543415413E+04  0.00000000000E+00 0. -1.
         21    1    1    2  505  501  0.27739535588E+02  0.17516144050E+02  0.36252260737E+03  0.36400403568E+03  0.00000000000E+00 0. -1.
         21    1    1    2  506  502  0.17979032153E+02 -0.25554889328E+02 -0.11879883883E+02  0.33427976409E+02  0.00000000000E+00 0. -1.
<scales pt_clust_3="163.71496" pt_clust_4="14000.00000" pt_clust_5="43.99863" pt_clust_6="31.24577"></scales>
<clustering>
<clus scale="   31.246">  1  6  2 -1</clus>
<clus scale="   43.999">  1  5  2 -1</clus>
<clus scale="  163.715">  1  3  2 -1</clus>
<clus scale="   31.246">  1  3  2 -1</clus>
</clustering>
</event>
<event>
 6    0  0.8520634E+002  0.1434769E+03  0.7546771E-02  0.1208726E+00
         21   -1    0    0  504  501  0.00000000000E+00  0.00000000000E+00  0.65282903067E+03  0.65282903067E+03  0.00000000000E+00 0.  1.
         21   -1    0    0  503  502 -0.00000000000E+00 -0.00000000000E+00 -0.59627980355E+03  0.59627980355E+03  0.00000000000E+00 0. -1.
         21    1    1    2  503  506 -0.21621769577E+02  0.26703719823E+02 -0.45719475697E+03  0.45848406229E+03  0.00000000000E+00 0. -1.
         21    1    1    2  504  502  0.55004342084E+02 -0.14099178887E+03  0.11111220887E+03  0.18775006028E+03  0.00000000000E+00 0.  1.
         21    1    1    2  505  501  0.62242682374E+02  0.33225086123E+02  0.45973723235E+03  0.46511974874E+03  0.00000000000E+00 0.  1.
         21    1    1    2  506  505 -0.95625254881E+02  0.81062982925E+02 -0.57105457129E+02  0.13775496291E+03  0.00000000000E+00 0. -1.
<scales pt_clust_3="34.35971" pt_clust_4="14000.00000" pt_clust_5="70.43206" pt_clust_6="143.47689"></scales>
<clustering>
<clus scale="   34.360">  2  3  1 -1</clus>
<clus scale="   70.432">  1  5  2 -1</clus>
<clus scale="  143.477">  2  6  1 -1</clus>
<clus scale="   70.432">  1  3  2 -1</clus>
</clustering>
</event>
<event>
 6    0  0.8520634E+002  0.7739454E+02  0.7546771E-02  0.1336612E+00
         21   -1    0    0  506  501  0.00000000000E+00  0.00000000000E+00  0.11705900405E+03  0.11705900405E+03  0.00000000000E+00 0. -1.
         21   -1    0    0  505  502 -0.00000000000E+00 -0.00000000000E+00 -0.12185121731E+04  0.12185121731E+04  0.00000000000E+00 0. -1.
         21    1    1    2  503  502  0.24410802891E+02  0.24120704636E+02 -0.10697772887E+04  0.10703275869E+04  0.00000000000E+00 0. -1.
         21    1    1    2  504  503 -0.11780297809E+03 -0.17877393563E+02 -0.52469762742E+02  0.13019300614E+03  0.00000000000E+00 0. -1.
         21    1    1    2  505  501  0.51724935462E+02 -0.20358843263E+02 -0.33707723325E+02  0.65008938303E+02  0.00000000000E+00 0. -1.
         21    1    1    2  506  504  0.41667239733E+02  0.14115532189E+02  0.54501605777E+02  0.70041645814E+02  0.00000000000E+00 0. -1.
<scales pt_clust_3="34.31757" pt_clust_4="77.39454" pt_clust_5="14000.00000" pt_clust_6="45.61514"></scales>
<clustering>
<clus scale="   34.318">  2  3  1 -1</clus>
<clus scale="   45.615">  1  6  2 -1</clus>
<clus scale="   77.395">  1  4  2 -1</clus>
<clus scale="   45.615">  1  3  2 -1</clus>
</clustering>
</event>
<event>
 6    0  0.8520634E+002  0.1012296E+03  0.7546771E-02  0.1277731E+00
         21   -1    0    0  504  501  0.00000000000E+00  0.00000000000E+00  0.19549419517E+03  0.19549419517E+03  0.00000000000E+00 0. -1.
         21   -1    0    0  506  502 -0.00000000000E+00 -0.00000000000E+00 -0.37617570050E+03  0.37617570050E+03  0.00000000000E+00 0. -1.
         21    1    1    2  503  505 -0.79876788818E+01 -0.79741667343E+02 -0.47386092012E+02  0.93101977641E+02  0.00000000000E+00 0. -1.
         21    1    1    2  504  503 -0.33924804028E+02 -0.17751491951E+02 -0.37193018104E+02  0.53379100690E+02  0.00000000000E+00 0. -1.
         21    1    1    2  505  502 -0.58129265210E+01  0.82149594411E+02 -0.25006137574E+03  0.26327369336E+03  0.00000000000E+00 0. -1.
         21    1    1    2  506  501  0.47725409431E+02  0.15343564883E+02  0.15395898052E+03  0.16191512398E+03  0.00000000000E+00 0. -1.
<scales pt_clust_3="38.11991" pt_clust_4="38.11991" pt_clust_5="84.88774" pt_clust_6="50.13122"></scales>
<clustering>
<clus scale="   38.120">  3  4 -1 -1</clus>
<clus scale="   50.131">  1  6  2 -1</clus>
<clus scale="   84.888">  2  5  1 -1</clus>
<clus scale="   50.131">  1  3  2 -1</clus>
</clustering>
</event>
<event>
 6    0  0.8520634E+002  0.8340255E+02  0.7546771E-02  0.1319664E+00
         21   -1    0    0  503  501  0.00000000000E+00  0.00000000000E+00  0.18461432123E+03  0.18461432123E+03  0.00000000000E+00 0.  1.
         21   -1    0    0  505  502 -0.00000000000E+00 -0.00000000000E+00 -0.85942266872E+03  0.85942266872E+03  0.00000000000E+00 0.  1.
         21    1    1    2  503  504 -0.26173832498E+02  0.79595127942E+02  0.12707328154E+03  0.15221061980E+03  0.00000000000E+00 0.  1.
         21    1    1    2  504  502  0.75308693329E+02 -0.53196653798E+02 -0.18472623840E+03  0.20645838908E+03  0.00000000000E+00 0.  1.
         21    1    1    2  505  506 -0.73454417730E+01  0.68466035030E+02 -0.56526663494E+03  0.56944527572E+03  0.00000000000E+00 0.  1.
         21    1    1    2  506  501 -0.41789419059E+02 -0.94864509174E+02 -0.51888755685E+02  0.11592270534E+03  0.00000000000E+00 0. -1.
<scales pt_clust_3="14000.00000" pt_clust_4="70.77186" pt_clust_5="68.85894" pt_clust_6="83.40255"></scales>
<clustering>
<clus scale="   68.859">  2  5  1 -1</clus>
<clus scale="   70.772">  2  4  1 -1</clus>
<clus scale="   83.403">  2  6  1 -1</clus>
<clus scale="   83.403">  1  3  2 -1</clus>
</clustering>
</event>
<event>
 6    0  0.8520634E+002  0.9083340E+02  0.7546771E-02  0.1300846E+00
         21   -1    0    0  505  501  0.00000000000E+00  0.00000000000E+00  0.99411142396E+03  0.99411142396E+03  0.00000000000E+00 0.  1.
         21   -1    0    0  504  502 -0.00000000000E+00 -0.00000000000E+00 -0.11929430043E+03  0.11929430043E+03  0.00000000000E+00 0.  1.
         21    1    1    2  503  501  0.42610004961E+02 -0.80487410929E+02  0.85453827979E+03  0.85937739525E+03  0.00000000000E+00 0.  1.
         21    1    1    2  504  503 -0.95608954020E+02  0.44637220807E+02 -0.11622658670E+02  0.10615384951E+03  0.00000000000E+00 0.  1.
         21    1    1    2  505  506  0.38703756863E+02  0.70355064111E+02  0.60743424531E+02  0.10068554745E+03  0.00000000000E+00 0. -1.
         21    1    1    2  506  502  0.14295192196E+02 -0.34504873989E+02 -0.28841922124E+02  0.47188932185E+02  0.00000000000E+00 0. -1.
<scales pt_clust_3="90.83340" pt_clust_4="14000.00000" pt_clust_5="74.90632" pt_clust_6="37.34888"></scales>
<clustering>
<clus scale="   37.349">  2  6  1 -1</clus>
<clus scale="   74.906">  2  5  1 -1</clus>
<clus scale="   90.833">  1  3  2 -1</clus>
<clus scale="   90.833">  1  3  2 -1</clus>
</clustering>
</event>
<event>
 6    0  0.8520634E+002  0.1139022E+03  0.7546771E-02  0.1253510E+00
         21   -1    0    0  506  501  0.00000000000E+00  0.00000000000E+00  0.20640328896E+03  0.20640328896E+03  0.00000000000E+00 0.  1.
         21   -1    0    0  504  502 -0.00000000000E+00 -0.00000000000E+00 -0.92360548099E+03  0.92360548099E+03  0.00000000000E+00 0.  1.
         21    1    1    2  503  505 -0.89030567892E+02  0.77157645904E+02  0.10806967127E+02  0.11830695195E+03  0.00000000000E+00 0.  1.
         21    1    1    2  504  503  0.18004141063E+02 -0.35928628065E+02 -0.48346252600E+02  0.62867921475E+02  0.00000000000E+00 0.  1.
         21    1    1    2  505  501 -0.27778312391E+02 -0.59572254068E+02  0.12323644124E+03  0.13966999872E+03  0.00000000000E+00 0.  1.
         21    1    1    2  506  502  0.98804739220E+02  0.18343236229E+02 -0.80289934780E+03  0.80916389780E+03  0.00000000000E+00 0.  1.
<scales pt_clust_3="113.90220" pt_clust_4="40.18725" pt_clust_5="65.96732" pt_clust_6="14000.00000"></scales>
<clustering>
<clus scale="   40.187">  2  4  1 -1</clus>
<clus scale="   65.967">  1  5  2 -1</clus>
<clus scale="  113.902">  1  3  2 -1</clus>
<clus scale="   65.967">  1  3  2 -1</clus>
</clustering>
</event>
<event>
 6    0  0.8520634E+002  0.9105984E+02  0.7546771E-02  0.1300305E+00
         21   -1    0    0  504  501  0.00000000000E+00  0.00000000000E+00  0.77543566098E+03  0.77543566098E+03  0.00000000000E+00 0.  1.
         21   -1    0    0  506  502 -0.00000000000E+00 -0.00000000000E+00 -0.73139440997E+02  0.73139440997E+02  0.00000000000E+00 0.  1.
         21    1    1    2  503  501  0.55350256898E+02 -0.75221801805E+02  0.46329719912E+03  0.47261640377E+03  0.00000000000E+00 0.  1.
         21    1    1    2  504  505 -0.78630094664E+02 -0.22632984060E+02  0.15623991313E+03  0.17636851819E+03  0.00000000000E+00 0.  1.
         21    1    1    2  505  502  0.60502721510E+02  0.11325785820E+02  0.85502893995E+02  0.10535462788E+03  0.00000000000E+00 0. -1.
         21    1    1    2  506  503 -0.37222883744E+02  0.86529000045E+02 -0.27437862538E+01  0.94235552134E+02  0.00000000000E+00 0.  1.
<scales pt_clust_3="91.05984" pt_clust_4="72.07302" pt_clust_5="61.55366" pt_clust_6="14000.00000"></scales>
<clustering>
<clus scale="   61.554">  2  5  1 -1</clus>
<clus scale="   72.073">  1  4  2 -1</clus>
<clus scale="   91.060">  1  3  2 -1</clus>
<clus scale="   72.073">  1  3  2 -1</clus>
</clustering>
</event>
<event>
 6    0  0.8520634E+002  0.9286100E+02  0.7546771E-02  0.1296068E+00
         21   -1    0    0  504  501  0.00000000000E+00  0.00000000000E+00  0.28882318488E+03  0.28882318488E+03  0.00000000000E+00 0.  1.
         21   -1    0    0  505  502 -0.00000000000E+00 -0.00000000000E+00 -0.95092360100E+02  0.95092360100E+02  0.00000000000E+00 0.  1.
         21    1    1    2  503  501  0.29076520096E+02  0.15483497042E+02  0.11246515297E+03  0.11719041486E+03  0.00000000000E+00 0. -1.
         21    1    1    2  504  502  0.19039069846E+02  0.23334639657E+02 -0.29058650483E+02  0.41849692429E+02  0.00000000000E+00 0.  1.
         21    1    1    2  505  506 -0.36138569261E+02 -0.11410388620E+03  0.65464746904E+02  0.13642333423E+03  0.00000000000E+00 0.  1.
         21    1    1    2  506  503 -0.11977020681E+02  0.75285749505E+02  0.44859575382E+02  0.88452103459E+02  0.00000000000E+00 0.  1.
<scales pt_clust_3="34.04548" pt_clust_4="30.11630" pt_clust_5="92.86100" pt_clust_6="14000.00000"></scales>
<clustering>
<clus scale="   30.116">  2  4  1 -1</clus>
<clus scale="   34.045">  1  3  2 -1</clus>
<clus scale="   92.861">  2  5  1 -1</clus>
<clus scale="   34.045">  1  3  2 -1</clus>
</clustering>
</event>
<event>
 6    0  0.8520634E+002  0.1386982E+03  0.7546771E-02  0.1215091E+00
         21   -1    0    0  506  501  0.00000000000E+00  0.00000000000E+00  0.28225683182E+03  0.28225683182E+03  0.00000000000E+00 0. -1.
         21   -1    0    0  503  502 -0.00000000000E+00 -0.00000000000E+00 -0.97334273436E+03  0.97334273436E+03  0.00000000000E+00 0.  1.
         21    1    1    2  503  505  0.16141737305E+03 -0.91583724078E+02 -0.83341173222E+03  0.85382566267E+03  0.00000000000E+00 0.  1.
         21    1    1    2  504  502 -0.36800932766E+02  0.35664881271E+02 -0.52721857082E+02  0.73524734768E+02  0.00000000000E+00 0. -1.
         21    1    1    2  505  501 -0.44001831759E+02 -0.44782817530E+02 -0.29437648594E+02  0.69341452961E+02  0.00000000000E+00 0. -1.
         21    1    1    2  506  504 -0.80614608521E+02  0.10070166034E+03  0.22448533536E+03  0.25890771578E+03  0.00000000000E+00 0. -1.
<scales pt_clust_3="138.69820" pt_clust_4="51.24736" pt_clust_5="62.86332" pt_clust_6="14000.00000"></scales>
<clustering>
<clus scale="   51.247">  2  4  1 -1</clus>
<clus scale="   62.863">  1  5  2 -1</clus>
<clus scale="  138.698">  2  3  1 -1</clus>
<clus scale="   62.863">  1  3  2 -1</clus>
</clustering>
</event>
<event>
 6    0  0.8520634E+002  0.1941718E+03  0.7546771E-02  0.1154752E+00
         21   -1    0    0  502  501  0.00000000000E+00  0.00000000000E+00  0.14605853929E+03  0.14605853929E+03  0.00000000000E+00 0. -1.
         21   -1    0    0  503  502 -0.00000000000E+00 -0.00000000000E+00 -0.65324992862E+03  0.65324992862E+03  0.00000000000E+00 0. -1.
         21    1    1    2  503  505 -0.16476511889E+02 -0.38807353926E+02 -0.49326722901E+02  0.64889226802E+02  0.00000000000E+00 0.  1.
         21    1    1    2  504  506 -0.99244432047E+02  0.14482449144E+03  0.94345728987E+01  0.17581979917E+03  0.00000000000E+00 0. -1.
         21    1    1    2  505  504  0.16611496088E+03 -0.10022159454E+03 -0.46931445782E+03  0.50783324878E+03  0.00000000000E+00 0. -1.
         21    1    1    2  506  501 -0.50394016948E+02 -0.57955429813E+01  0.20152184946E+01  0.50766193162E+02  0.00000000000E+00 0. -1.
<scales pt_clust_3="42.16024" pt_clust_4="194.17175" pt_clust_5="14000.00000" pt_clust_6="51.59855"></scales>
<clustering>
<clus scale="   42.160">  2  3  1 -1</clus>
<clus scale="   51.599">  1  6  2 -1</clus>
<clus scale="  194.172">  1  4  2 -1</clus>
<clus scale="   51.599">  1  3  2 -1</clus>
</clustering>
</event>
<event>
 6    0  0.8520634E+002  0.1493129E+03  0.7546771E-02  0.1201320E+00
         21   -1    0    0  506  501  0.00000000000E+00  0.00000000000E+00  0.42115359727E+03  0.42115359727E+03  0.00000000000E+00 0. -1.
         21   -1    0    0  505  502 -0.00000000000E+00 -0.00000000000E+00 -0.25760785177E+03  0.25760785177E+03  0.00000000000E+00 0. -1.
         21    1    1    2  503  504  0.49360185498E+02 -0.11097895171E+03 -0.70053979444E+02  0.14021524764E+03  0.00000000000E+00 0. -1.
         21    1    1    2  504  501  0.93084621187E+02  0.16175739235E+02  0.14506839124E+03  0.17312203608E+03  0.00000000000E+00 0. -1.
         21    1    1    2  505  503  0.26179901655E+02 -0.23080595369E+02 -0.87783376933E+02  0.94467043984E+02  0.00000000000E+00 0. -1.
         21    1    1    2  506  502 -0.16862470834E+03  0.11788380784E+03  0.17631471064E+03  0.27095712133E+03  0.00000000000E+00 0. -1.
<scales pt_clust_3="14000.00000" pt_clust_4="96.34719" pt_clust_5="34.90131" pt_clust_6="149.31286"></scales>
<clustering>
<clus scale="   34.901">  2  5  1 -1</clus>
<clus scale="   96.347">  1  4  2 -1</clus>
<clus scale="  149.313">  1  6  2 -1</clus>
<clus scale="   96.347">  1  3  2 -1</clus>
</clustering>
</event>
<event>
 6    0  0.8520634E+002  0.7822363E+02  0.7546771E-02  0.1334169E+00
         21   -1    0    0  503  501  0.00000000000E+00  0.00000000000E+00  0.53813759831E+03  0.53813759831E+03  0.00000000000E+00 0. -1.
         21   -1    0    0  506  502 -0.00000000000E+00 -0.00000000000E+00 -0.12729706234E+04  0.12729706234E+04  0.00000000000E+00 0.  1.
         21    1    1    2  503  504  0.19029465565E+02 -0.35053589025E+02  0.49325125635E+03  0.49486127001E+03  0.00000000000E+00 0. -1.
         21    1    1    2  504  502  0.77095782947E+02  0.17669395066E+00 -0.10081206635E+04  0.10110643219E+04  0.00000000000E+00 0.  1.
         21    1    1    2  505  501 -0.11013839009E+02 -0.44340868808E+02  0.10651898726E+02  0.46913540080E+02  0.00000000000E+00 0.  1.
         21    1    1    2  506  505 -0.85111409503E+02  0.79217763883E+02 -0.23061551675E+03  0.25826908972E+03  0.00000000000E+00 0.  1.
<scales pt_clust_3="39.88577" pt_clust_4="14000.00000" pt_clust_5="67.24377" pt_clust_6="78.22363"></scales>
<clustering>
<clus scale="   39.886">  1  3  2 -1</clus>
<clus scale="   67.244">  1  5  2 -1</clus>
<clus scale="   78.224">  1  6  2 -1</clus>
<clus scale="   39.886">  1  3  2 -1</clus>
</clustering>
</event>
<event>
 6    0  0.8520634E+002  0.9264948E+02  0.7546771E-02  0.1296560E+00
         21   -1    0    0  503  501  0.00000000000E+00  0.00000000000E+00  0.25642786383E+04  0.25642786383E+04  0.00000000000E+00 0. -1.
         21   -1    0    0  505  502 -0.00000000000E+00 -0.00000000000E+00 -0.17222672678E+02  0.17222672678E+02  0.00000000000E+00 0. -1.
         21    1    1    2  503  502  0.19259519991E+02  0.31132430213E+02  0.31317874160E+02  0.48176410858E+02  0.00000000000E+00 0. -1.
         21    1    1    2  504  501 -0.32208047990E+02  0.55140401192E+02  0.10565750794E+04  0.10585030565E+04  0.00000000000E+00 0. -1.
         21    1    1    2  505  506  0.59040240664E+02  0.37988663634E+02  0.29993106401E+03  0.30803819851E+03  0.00000000000E+00 0. -1.
         21    1    1    2  506  504 -0.46091712665E+02 -0.12426149504E+03  0.11592319480E+04  0.11667836451E+04  0.00000000000E+00 0. -1.
<scales pt_clust_3="36.60816" pt_clust_4="65.83543" pt_clust_5="14000.00000" pt_clust_6="92.64948"></scales>
<clustering>
<clus scale="   36.608">  2  3  1 -1</clus>
<clus scale="   65.835">  1  4  2 -1</clus>
<clus scale="   92.649">  1  6  2 -1</clus>
<clus scale="   65.835">  1  3  2 -1</clus>
</clustering>
</event>
<event>
 6    0  0.8520634E+002  0.6414705E+02  0.7546771E-02  0.1381209E+00
         21   -1    0    0  504  501  0.00000000000E+00  0.00000000000E+00  0.11451679814E+04  0.11451679814E+04  0.00000000000E+00 0. -1.
         21   -1    0    0  506  502 -0.00000000000E+00 -0.00000000000E+00 -0.12655965622E+03  0.12655965622E+03  0.00000000000E+00 0. -1.
         21    1    1    2  503  505 -0.83096602885E+02  0.27049715501E+02  0.56187594106E+03  0.56863108045E+03  0.00000000000E+00 0. -1.
         21    1    1    2  504  502 -0.19415706277E+02 -0.66455136144E+02  0.55499555149E+02  0.88732493439E+02  0.00000000000E+00 0. -1.
         21    1    1    2  505  501  0.53443819025E+02  0.26408767744E+02  0.49988060882E+03  0.50342257387E+03  0.00000000000E+00 0. -1.
         21    1    1    2  506  503  0.49068490137E+02  0.12996652899E+02 -0.98647779823E+02  0.11094148987E+03  0.00000000000E+00 0. -1.
<scales pt_clust_3="14000.00000" pt_clust_4="59.34313" pt_clust_5="64.14705" pt_clust_6="50.76051"></scales>
<clustering>
<clus scale="   50.761">  2  6  1 -1</clus>
<clus scale="   59.343">  2  4  1 -1</clus>
<clus scale="   64.147">  1  5  2 -1</clus>
<clus scale="   64.147">  1  3  2 -1</clus>
</clustering>
</event>
<event>
 6    0  0.8520634E+002  0.7378821E+02  0.7546771E-02  0.1347665E+00
         21   -1    0    0  505  501  0.00000000000E+00  0.00000000000E+00  0.10308832057E+04  0.10308832057E+04  0.00000000000E+00 0.  1.
         21   -1    0    0  506  502 -0.00000000000E+00 -0.00000000000E+00 -0.12102760719E+03  0.12102760719E+03  0.00000000000E+00 0.  1.
         21    1    1    2  503  502  0.50820612065E+02 -0.51348216416E+02 -0.33143810004E+02  0.79485131197E+02  0.00000000000E+00 0.  1.
         21    1    1    2  504  503  0.63187266324E+02  0.66779466123E+01  0.89033156220E+02  0.10938065872E+03  0.00000000000E+00 0.  1.
         21    1    1    2  505  504 -0.71681552636E+02  0.26267116738E+02  0.89682015911E+03  0.90006366674E+03  0.00000000000E+00 0.  1.
         21    1    1    2  506  501 -0.42326325753E+02  0.18403153066E+02 -0.42853906850E+02  0.62981356184E+02  0.00000000000E+00 0.  1.
<scales pt_clust_3="39.44552" pt_clust_4="73.78821" pt_clust_5="14000.00000" pt_clust_6="46.15402"></scales>
<clustering>
<clus scale="   46.154">  2  6  1 -1</clus>
<clus scale="   39.446">  2  3  1 -1</clus>
<clus scale="   73.788">  2  4  1 -1</clus>
<clus scale="   73.788">  1  3  2 -1</clus>
</clustering>
</event>
<event>
 6    0  0.8520634E+002  0.8468174E+02  0.7546771E-02  0.1316267E+00
         21   -1    0    0  505  501  0.00000000000E+00  0.00000000000E+00  0.23875274150E+03  0.23875274150E+03  0.00000000000E+00 0.  1.
         21   -1    0    0  506  502 -0.00000000000E+00 -0.00000000000E+00 -0.11415837649E+04  0.11415837649E+04  0.00000000000E+00 0.  1.
         21    1    1    2  503  502  0.81672400340E+02 -0.10762391769E+03 -0.36814208529E+03  0.39215033290E+03  0.00000000000E+00 0.  1.
         21    1    1    2  504  503 -0.83913030842E+02  0.51231766504E+02  0.72914316234E+02  0.12240338294E+03  0.00000000000E+00 0.  1.
         21    1    1    2  505  504  0.39473442190E+02  0.15637586212E+02  0.12453123977E+03  0.13157019579E+03  0.00000000000E+00 0.  1.
         21    1    1    2  506  501 -0.37232811688E+02  0.40754564970E+02 -0.73213449407E+03  0.73421259472E+03  0.00000000000E+00 0.  1.
<scales pt_clust_3="14000.00000" pt_clust_4="84.68174" pt_clust_5="42.45806" pt_clust_6="55.06133"></scales>
<clustering>
<clus scale="   42.458">  1  5  2 -1</clus>
<clus scale="   55.061">  2  6  1 -1</clus>
<clus scale="   84.682">  1  4  2 -1</clus>
<clus scale="   42.458">  1  3  2 -1</clus>
</clustering>
</event>
<event>
 6    0  0.8520634E+002  0.1112695E+03  0.7546771E-02  0.1258237E+00
         21   -1    0    0  503  501  0.00000000000E+00  0.00000000000E+00  0.26139681516E+03  0.26139681516E+03  0.00000000000E+00 0. -1.
         21   -1    0    0  506  502 -0.00000000000E+00 -0.00000000000E+00 -0.40534815334E+03  0.40534815334E+03  0.00000000000E+00 0. -1.
         21    1    1    2  503  504  0.42684907530E+02 -0.65134501531E+02 -0.24481168288E+01  0.77913399981E+02  0.00000000000E+00 0. -1.
         21    1    1    2  504  502  0.50454877512E+02  0.11108835226E+03 -0.32172240212E+03  0.34408083454E+03  0.00000000000E+00 0. -1.
         21    1    1    2  505  501 -0.59489683090E+02 -0.49774943494E+02  0.19342697035E+03  0.20840000061E+03  0.00000000000E+00 0. -1.
         21    1    1    2  506  505 -0.33650101952E+02  0.38210927661E+01 -0.13207789580E+02  0.36350733375E+02  0.00000000000E+00 0.  1.
<scales pt_clust_3="75.64015" pt_clust_4="111.26951" pt_clust_5="14000.00000" pt_clust_6="33.86636"></scales>
<clustering>
<clus scale="   33.866">  2  6  1 -1</clus>
<clus scale="   75.640">  1  3  2 -1</clus>
<clus scale="  111.270">  2  4  1 -1</clus>
<clus scale="   75.640">  1  3  2 -1</clus>
</clustering>
</event>
<event>
 6    0  0.8520634E+002  0.1052411E+03  0.7546771E-02  0.1269645E+00
         21   -1    0    0  504  501  0.00000000000E+00  0.00000000000E+00  0.42694682507E+04  0.42694682507E+04  0.00000000000E+00 0.  1.
         21   -1    0    0  506  502 -0.00000000000E+00 -0.00000000000E+00 -0.83800683998E+02  0.83800683998E+02  0.00000000000E+00 0.  1.
         21    1    1    2  503  502 -0.87617071256E+02 -0.19568646645E+02  0.72973984147E+02  0.11569306578E+03  0.00000000000E+00 0.  1.
         21    1    1    2  504  505  0.78344507697E+01  0.54245247816E+02  0.39453712184E+04  0.39457518898E+04  0.00000000000E+00 0.  1.
         21    1    1    2  505  503  0.11676140503E+03 -0.18308646419E+02  0.20495032203E+03  0.23658627758E+03  0.00000000000E+00 0.  1.
         21    1    1    2  506  501 -0.36978784545E+02 -0.16367954752E+02 -0.37627957872E+02  0.55237701462E+02  0.00000000000E+00 0.  1.
<scales pt_clust_3="14000.00000" pt_clust_4="54.69892" pt_clust_5="105.24105" pt_clust_6="40.43934"></scales>
<clustering>
<clus scale="   40.439">  2  6  1 -1</clus>
<clus scale="   54.699">  1  4  2 -1</clus>
<clus scale="  105.241">  1  5  2 -1</clus>
<clus scale="   54.699">  1  3  2 -1</clus>
</clustering>
</event>
<event>
 6    0  0.8520634E+002  0.6894152E+02  0.7546771E-02  0.1363730E+00
         21   -1    0    0  503  501  0.00000000000E+00  0.00000000000E+00  0.82983196652E+03  0.82983196652E+03  0.00000000000E+00 0. -1.
         21   -1    0    0  504  502 -0.00000000000E+00 -0.00000000000E+00 -0.37113338325E+02  0.37113338325E+02  0.00000000000E+00 0. -1.
         21    1    1    2  503  502 -0.55300544322E+02 -0.38091156705E+02  0.10404857116E+03  0.12383534060E+03  0.00000000000E+00 0. -1.
         21    1    1    2  504  506 -0.27539463186E+01  0.40210633131E+02  0.28542182055E+02  0.49387603643E+02  0.00000000000E+00 0. -1.
         21    1    1    2  505  501  0.29047949583E+02  0.64921120927E+02  0.58363930281E+03  0.58795694664E+03  0.00000000000E+00 0. -1.
         21    1    1    2  506  505  0.29006541058E+02 -0.67040597353E+02  0.76488572171E+02  0.10576541396E+03  0.00000000000E+00 0. -1.
<scales pt_clust_3="68.94152" pt_clust_4="40.30483" pt_clust_5="14000.00000" pt_clust_6="52.72459"></scales>
<clustering>
<clus scale="   40.305">  2  4  1 -1</clus>
<clus scale="   52.725">  2  6  1 -1</clus>
<clus scale="   68.942">  2  3  1 -1</clus>
<clus scale="   68.942">  1  3  2 -1</clus>
</clustering>
</event>
<event>
 6    0  0.8520634E+002  0.7077567E+02  0.7546771E-02  0.1357475E+00
         21   -1    0    0  504  501  0.00000000000E+00  0.00000000000E+00  0.98847775652E+03  0.98847775652E+03  0.00000000000E+00 0.  1.
         21   -1    0    0  503  502 -0.00000000000E+00 -0.00000000000E+00 -0.17841011099E+03  0.17841011099E+03  0.00000000000E+00 0. -1.
         21    1    1    2  503  505 -0.35447411473E+02 -0.28661612467E+02  0.12427249554E+02  0.47248741156E+02  0.00000000000E+00 0.  1.
         21    1    1    2  504  506 -0.70108427461E+02  0.10258487866E+01  0.23004501095E+03  0.24049314134E+03  0.00000000000E+00 0.  1.
         21    1    1    2  505  501  0.64096785869E+02 -0.35459308496E+02  0.71223301836E+03  0.71598996708E+03  0.00000000000E+00 0.  1.
         21    1    1    2  506  502  0.41459053066E+02  0.63095072176E+02 -0.14463763333E+03  0.16315601794E+03  0.00000000000E+00 0. -1.
<scales pt_clust_3="45.58516" pt_clust_4="70.77567" pt_clust_5="14000.00000" pt_clust_6="36.49281"></scales>
<clustering>
<clus scale="   45.585">  2  3  1 -1</clus>
<clus scale="   36.493">  2  6  1 -1</clus>
<clus scale="   70.776">  2  4  1 -1</clus>
<clus scale="   70.776">  1  3  2 -1</clus>
</clustering>
</event>
<event>
 6    0  0.8520634E+002  0.1126719E+03  0.7546771E-02  0.1255700E+00
         21   -1    0    0  506  501  0.00000000000E+00  0.00000000000E+00  0.61520627864E+03  0.61520627864E+03  0.00000000000E+00 0.  1.
         21   -1    0    0  505  502 -0.00000000000E+00 -0.00000000000E+00 -0.38358859571E+03  0.38358859571E+03  0.00000000000E+00 0. -1.
         21    1    1    2  503  504 -0.14308295180E+03 -0.57279377299E+01  0.19252410950E+03  0.23993972807E+03  0.00000000000E+00 0.  1.
         21    1    1    2  504  501  0.14904359100E+02 -0.50684828688E+02  0.44574125457E+02  0.69122676739E+02  0.00000000000E+00 0. -1.
         21    1    1    2  505  503  0.40444969741E+02  0.52045191647E+02 -0.33873861041E+03  0.34509179030E+03  0.00000000000E+00 0. -1.
         21    1    1    2  506  502  0.87733622961E+02  0.43675747702E+01  0.33325805838E+03  0.34464067924E+03  0.00000000000E+00 0.  1.
<scales pt_clust_3="14000.00000" pt_clust_4="52.83078" pt_clust_5="65.73760" pt_clust_6="112.67189"></scales>
<clustering>
<clus scale="   52.831">  1  4  2 -1</clus>
<clus scale="   65.738">  2  5  1 -1</clus>
<clus scale="  112.672">  1  6  2 -1</clus>
<clus scale="   52.831">  1  3  2 -1</clus>
</clustering>
</event>
<event>
 6    0  0.8520634E+002  0.6813541E+02  0.7546771E-02  0.1366551E+00
         21   -1    0    0  505  501  0.00000000000E+00  0.00000000000E+00  0.33247550084E+03  0.33247550084E+03  0.00000000000E+00 0. -1.
         21   -1    0    0  504  502 -0.00000000000E+00 -0.00000000000E+00 -0.48908983064E+03  0.48908983064E+03  0.00000000000E+00 0.  1.
         21    1    1    2  503  502  0.32139799253E+02  0.57875068992E+02 -0.29560965509E+03  0.30293160695E+03  0.00000000000E+00 0.  1.
         21    1    1    2  504  506 -0.81902707370E+02 -0.10442733058E+02 -0.15868821205E+03  0.17888279066E+03  0.00000000000E+00 0. -1.
         21    1    1    2  505  503  0.85542965926E+02 -0.27641678915E+02  0.28195803751E+03  0.29594255583E+03  0.00000000000E+00 0. -1.
         21    1    1    2  506  501 -0.35780057809E+02 -0.19790657020E+02  0.15725499837E+02  0.43808378048E+02  0.00000000000E+00 0. -1.
<scales pt_clust_3="65.78157" pt_clust_4="14000.00000" pt_clust_5="68.13541" pt_clust_6="40.88866"></scales>
<clustering>
<clus scale="   40.889">  1  6  2 -1</clus>
<clus scale="   65.782">  2  3  1 -1</clus>
<clus scale="   68.135">  1  5  2 -1</clus>
<clus scale="   40.889">  1  3  2 -1</clus>
</clustering>
</event>
<event>
 6    0  0.8520634E+002  0.6638178E+02  0.7546771E-02  0.1372848E+00
         21   -1    0    0  503  501  0.00000000000E+00  0.00000000000E+00  0.14531633601E+03  0.14531633601E+03  0.00000000000E+00 0.  1.
         21   -1    0    0  506  502 -0.00000000000E+00 -0.00000000000E+00 -0.25850739322E+03  0.25850739322E+03  0.00000000000E+00 0. -1.
         21    1    1    2  503  505 -0.20817658529E+02 -0.53204476296E+02  0.54366735697E+02  0.78865918843E+02  0.00000000000E+00 0. -1.
         21    1    1    2  504  501  0.83450889273E+02  0.69650516583E+02  0.22559470337E+02  0.11101430125E+03  0.00000000000E+00 0.  1.
         21    1    1    2  505  502 -0.21044821942E+02 -0.36600015441E+02 -0.45266906176E+02  0.61899422094E+02  0.00000000000E+00 0. -1.
         21    1    1    2  506  504 -0.41588408803E+02  0.20153975155E+02 -0.14485035707E+03  0.15204408704E+03  0.00000000000E+00 0. -1.
<scales pt_clust_3="66.38178" pt_clust_4="14000.00000" pt_clust_5="42.21902" pt_clust_6="57.18794"></scales>
<clustering>
<clus scale="   42.219">  2  5  1 -1</clus>
<clus scale="   57.188">  2  6  1 -1</clus>
<clus scale="   66.382">  1  3  2 -1</clus>
<clus scale="   66.382">  1  3  2 -1</clus>
</clustering>
</event>
<event>
 6    0  0.8520634E+002  0.8052957E+02  0.7546771E-02  0.1327555E+00
         21   -1    0    0  502  501  0.00000000000E+00  0.00000000000E+00  0.43063376207E+03  0.43063376207E+03  0.00000000000E+00 0. -1.
         21   -1    0    0  506  502 -0.00000000000E+00 -0.00000000000E+00 -0.16744313999E+04  0.16744313999E+04  0.00000000000E+00 0.  1.
         21    1    1    2  503  501  0.25345994565E+02  0.25561352516E+02  0.22872667313E+03  0.23154199011E+03  0.00000000000E+00 0. -1.
         21    1    1    2  504  503  0.23490955047E+02 -0.58574840162E+02  0.16786093547E+03  0.17933245809E+03  0.00000000000E+00 0. -1.
         21    1    1    2  505  504 -0.86258769612E+02  0.10204057780E+03 -0.14664227130E+03  0.19838551002E+03  0.00000000000E+00 0. -1.
         21    1    1    2  506  505  0.37421820000E+02 -0.69027090155E+02 -0.14937429751E+04  0.14958052037E+04  0.00000000000E+00 0.  1.
<scales pt_clust_3="35.99725" pt_clust_4="58.24558" pt_clust_5="14000.00000" pt_clust_6="80.52957"></scales>
<clustering>
<clus scale="   35.997">  1  3  2 -1</clus>
<clus scale="   58.246">  1  4  2 -1</clus>
<clus scale="   80.530">  2  6  1 -1</clus>
<clus scale="   35.997">  1  3  2 -1</clus>
</clustering>
</event>
<event>
 6    0  0.8520634E+002  0.3314177E+03  0.7546771E-02  0.1070511E+00
         21   -1    0    0  505  501  0.00000000000E+00  0.00000000000E+00  0.32881794397E+03  0.32881794397E+03  0.00000000000E+00 0. -1.
         21   -1    0    0  501  502 -0.00000000000E+00 -0.00000000000E+00 -0.69617971304E+03  0.69617971304E+03  0.00000000000E+00 0. -1.
         21    1    1    2  503  504 -0.19753364267E+02  0.50103466186E+02 -0.15536751502E+03  0.16443727511E+03  0.00000000000E+00 0. -1.
         21    1    1    2  504  502 -0.17738210074E+03  0.19711879595E+03 -0.34048488505E+03  0.43156712841E+03  0.00000000000E+00 0. -1.
         21    1    1    2  505  506 -0.35071661067E+02 -0.24303444704E+02  0.96506296111E+02  0.10551845347E+03  0.00000000000E+00 0. -1.
         21    1    1    2  506  503  0.23220712607E+03 -0.22291881744E+03  0.31984334886E+02  0.32347480002E+03  0.00000000000E+00 0. -1.
<scales pt_clust_3="43.44908" pt_clust_4="43.44908" pt_clust_5="42.66941" pt_clust_6="316.96579"></scales>
<clustering>
<clus scale="   42.669">  1  5  2 -1</clus>
<clus scale="   43.449">  3  4 -1 -1</clus>
<clus scale="  316.966">  1  6  2 -1</clus>
<clus scale="   42.669">  1  3  2 -1</clus>
</clustering>
</event>
<event>
 6    0  0.8520634E+002  0.8134073E+02  0.7546771E-02  0.1325289E+00
         21   -1    0    0  505  501  0.00000000000E+00  0.00000000000E+00  0.37403731188E+03  0.37403731188E+03  0.00000000000E+00 0. -1.
         21   -1    0    0  503  502 -0.00000000000E+00 -0.00000000000E+00 -0.28225472384E+03  0.28225472384E+03  0.00000000000E+00 0. -1.
         21    1    1    2  503  501  0.28778746524E+02  0.37634399615E+02  0.31294704361E+03  0.31651290083E+03  0.00000000000E+00 0. -1.
         21    1    1    2  504  506  0.59810003466E+02  0.12711228612E+02 -0.16462879211E+03  0.17561734265E+03  0.00000000000E+00 0. -1.
         21    1    1    2  505  504 -0.84693873289E+02 -0.84291614913E+02 -0.49145866221E+02  0.12920311406E+03  0.00000000000E+00 0. -1.
         21    1    1    2  506  502 -0.38948767006E+01  0.33945986686E+02 -0.73897972400E+01  0.34958678176E+02  0.00000000000E+00 0. -1.
<scales pt_clust_3="47.54510" pt_clust_4="14000.00000" pt_clust_5="81.34073" pt_clust_6="34.16870"></scales>
<clustering>
<clus scale="   34.169">  2  6  1 -1</clus>
<clus scale="   47.545">  1  3  2 -1</clus>
<clus scale="   81.341">  1  5  2 -1</clus>
<clus scale="   47.545">  1  3  2 -1</clus>
</clustering>
</event>
<event>
 6    0  0.8520634E+002  0.9671869E+02  0.7546771E-02  0.1287351E+00
         21   -1    0    0  503  501  0.00000000000E+00  0.00000000000E+00  0.88651279900E+02  0.88651279900E+02  0.00000000000E+00 0.  1.
         21   -1    0    0  505  502 -0.00000000000E+00 -0.00000000000E+00 -0.28679506426E+03  0.28679506426E+03  0.00000000000E+00 0. -1.
         21    1    1    2  503  504 -0.65875521249E+02 -0.75023796631E+02 -0.13760187425E+03  0.17000714738E+03  0.00000000000E+00 0. -1.
         21    1    1    2  504  502  0.18946976513E+02 -0.29775837007E+02 -0.51975903963E+02  0.62825814609E+02  0.00000000000E+00 0. -1.
         21    1    1    2  505  506 -0.92511673661E+00  0.91200931744E+02 -0.15068036876E+02  0.92441935977E+02  0.00000000000E+00 0.  1.
         21    1    1    2  506  501  0.47853661473E+02  0.13598701895E+02  0.65020307372E+01  0.50171446195E+02  0.00000000000E+00 0. -1.
<scales pt_clust_3="96.71869" pt_clust_4="35.29289" pt_clust_5="14000.00000" pt_clust_6="50.81047"></scales>
<clustering>
<clus scale="   35.293">  2  4  1 -1</clus>
<clus scale="   50.810">  1  6  2 -1</clus>
<clus scale="   96.719">  2  3  1 -1</clus>
<clus scale="   50.810">  1  3  2 -1</clus>
</clustering>
</event>
<event>
 6    0  0.8520634E+002  0.1071585E+03  0.7546771E-02  0.1265924E+00
         21   -1    0    0  505  501  0.00000000000E+00  0.00000000000E+00  0.13317577767E+04  0.13317577767E+04  0.00000000000E+00 0.  1.
         21   -1    0    0  503  502 -0.00000000000E+00 -0.00000000000E+00 -0.18867910452E+04  0.18867910452E+04  0.00000000000E+00 0. -1.
         21    1    1    2  503  504 -0.14506961482E+02  0.43925688743E+02 -0.13354198564E+03  0.14132720896E+03  0.00000000000E+00 0.  1.
         21    1    1    2  504  501  0.30331550719E+02 -0.78437867591E+01  0.12831059485E+04  0.12834883727E+04  0.00000000000E+00 0.  1.
         21    1    1    2  505  506  0.79419286483E+02  0.15578097967E+02  0.46395621366E+01  0.81065564444E+02  0.00000000000E+00 0.  1.
         21    1    1    2  506  502 -0.95243875720E+02 -0.51659999951E+02 -0.17092367934E+04  0.17126676757E+04  0.00000000000E+00 0. -1.
<scales pt_clust_3="44.94675" pt_clust_4="31.32935" pt_clust_5="107.15846" pt_clust_6="14000.00000"></scales>
<clustering>
<clus scale="   31.329">  1  4  2 -1</clus>
<clus scale="   44.947">  1  3  2 -1</clus>
<clus scale="  107.158">  1  5  2 -1</clus>
<clus scale="   31.329">  1  3  2 -1</clus>
</clustering>
</event>
<event>
 6    0  0.8520634E+002  0.9029222E+02  0.7546771E-02  0.1302146E+00
         21   -1    0    0  505  501  0.00000000000E+00  0.00000000000E+00  0.37229720304E+04  0.37229720304E+04  0.00000000000E+00 0. -1.
         21   -1    0    0  503  502 -0.00000000000E+00 -0.00000000000E+00 -0.28240661215E+03  0.28240661215E+03  0.00000000000E+00 0.  1.
         21    1    1    2  503  506 -0.41107702976E+02 -0.45698142078E+02 -0.46220792161E+02  0.76905949453E+02  0.00000000000E+00 0.  1.
         21    1    1    2  504  502  0.30813786451E+02  0.10269070464E+03 -0.18330287789E+03  0.21235539856E+03  0.00000000000E+00 0.  1.
         21    1    1    2  505  504  0.38050301156E+02 -0.14141420797E+03  0.21645446174E+03  0.26133950647E+03  0.00000000000E+00 0.  1.
         21    1    1    2  506  501 -0.27756384630E+02  0.84421645407E+02  0.34536346265E+04  0.34547777880E+04  0.00000000000E+00 0. -1.
<scales pt_clust_3="61.46677" pt_clust_4="62.04654" pt_clust_5="90.29222" pt_clust_6="14000.00000"></scales>
<clustering>
<clus scale="   61.467">  2  3  1 -1</clus>
<clus scale="   62.047">  2  4  1 -1</clus>
<clus scale="   90.292">  2  5  1 -1</clus>
<clus scale="   90.292">  1  3  2 -1</clus>
</clustering>
</event>
<event>
 6    0  0.8520634E+002  0.1417285E+03  0.7546771E-02  0.1211022E+00
         21   -1    0    0  503  501  0.00000000000E+00  0.00000000000E+00  0.82466266872E+03  0.82466266872E+03  0.00000000000E+00 0.  1.
         21   -1    0    0  506  502 -0.00000000000E+00 -0.00000000000E+00 -0.42200782710E+03  0.42200782710E+03  0.00000000000E+00 0.  1.
         21    1    1    2  503  505 -0.24254181629E+02 -0.25378911893E+02  0.44850297328E+03  0.44987472871E+03  0.00000000000E+00 0.  1.
         21    1    1    2  504  501 -0.59833820711E+01 -0.11374851539E+03  0.24915855380E+03  0.27396078286E+03  0.00000000000E+00 0.  1.
         21    1    1    2  505  502 -0.64872813189E+02  0.30593190201E+02  0.88009336584E+02  0.11353443752E+03  0.00000000000E+00 0.  1.
         21    1    1    2  506  504  0.95110376889E+02  0.10853423708E+03 -0.38301602204E+03  0.40930054673E+03  0.00000000000E+00 0.  1.
<scales pt_clust_3="35.10491" pt_clust_4="141.72846" pt_clust_5="75.23967" pt_clust_6="14000.00000"></scales>
<clustering>
<clus scale="   35.105">  1  3  2 -1</clus>
<clus scale="   75.240">  1  5  2 -1</clus>
<clus scale="  141.728">  1  4  2 -1</clus>
<clus scale="   35.105">  1  3  2 -1</clus>
</clustering>
</event>
<event>
 6    0  0.8520634E+002  0.1273839E+03  0.7546771E-02  0.1231390E+00
         21   -1    0    0  504  501  0.00000000000E+00  0.00000000000E+00  0.31570080196E+03  0.31570080196E+03  0.00000000000E+00 0.  1.
         21   -1    0    0  503  502 -0.00000000000E+00 -0.00000000000E+00 -0.11474280166E+04  0.11474280166E+04  0.00000000000E+00 0.  1.
         21    1    1    2  503  505 -0.11143507829E+03  0.14064520078E+02 -0.10417770972E+04  0.10478144433E+04  0.00000000000E+00 0.  1.
         21    1    1    2  504  502 -0.51815824827E+02  0.65313580943E+02 -0.46578034071E+02  0.95500035686E+02  0.00000000000E+00 0. -1.
         21    1    1    2  505  506  0.50190532115E+02 -0.53432930774E+02  0.11961005986E+03  0.14028803949E+03  0.00000000000E+00 0. -1.
         21    1    1    2  506  501  0.11306037100E+03 -0.25945170247E+02  0.13701785675E+03  0.17952630007E+03  0.00000000000E+00 0.  1.
<scales pt_clust_3="112.93836" pt_clust_4="83.37112" pt_clust_5="46.83972" pt_clust_6="46.83972"></scales>
<clustering>
<clus scale="   46.840">  5  6 -1 -1</clus>
<clus scale="   83.371">  1  4  2 -1</clus>
<clus scale="  112.938">  2  3  1 -1</clus>
<clus scale="   83.371">  1  3  2 -1</clus>
</clustering>
</event>
<event>
 6    0  0.8520634E+002  0.9265671E+02  0.7546771E-02  0.1296543E+00
         21   -1    0    0  503  501  0.00000000000E+00  0.00000000000E+00  0.36630868903E+03  0.36630868903E+03  0.00000000000E+00 0. -1.
         21   -1    0    0  504  502 -0.00000000000E+00 -0.00000000000E+00 -0.94347727750E+02  0.94347727750E+02  0.00000000000E+00 0. -1.
         21    1    1    2  503  506 -0.61630050953E+02 -0.96444225262E+02  0.86066477619E+02  0.14320331818E+03  0.00000000000E+00 0. -1.
         21    1    1    2  504  505 -0.74601854523E+01  0.86285558285E+02  0.13704349118E+03  0.16211653342E+03  0.00000000000E+00 0. -1.
         21    1    1    2  505  501  0.39153064809E+02 -0.44169769512E+01  0.92438914407E+02  0.10048594462E+03  0.00000000000E+00 0. -1.
         21    1    1    2  506  502  0.29937171597E+02  0.14575643928E+02 -0.43587921919E+02  0.54850620565E+02  0.00000000000E+00 0. -1.
<scales pt_clust_3="92.65671" pt_clust_4="14000.00000" pt_clust_5="41.93820" pt_clust_6="33.29690"></scales>
<clustering>
<clus scale="   33.297">  2  6  1 -1</clus>
<clus scale="   41.938">  1  5  2 -1</clus>
<clus scale="   92.657">  2  3  1 -1</clus>
<clus scale="   41.938">  1  3  2 -1</clus>
</clustering>
</event>
<event>
 6    0  0.8520634E+002  0.6289238E+02  0.7546771E-02  0.1386080E+00
         21   -1    0    0  503  501  0.00000000000E+00  0.00000000000E+00  0.95150484309E+03  0.95150484309E+03  0.00000000000E+00 0.  1.
         21   -1    0    0  504  502 -0.00000000000E+00 -0.00000000000E+00 -0.22446252345E+03  0.22446252345E+03  0.00000000000E+00 0. -1.
         21    1    1    2  503  502  0.44955492382E+02  0.30718576556E+02  0.70064993846E+03  0.70276238054E+03  0.00000000000E+00 0.  1.
         21    1    1    2  504  505  0.13301798797E+02 -0.49842257272E+02 -0.18585342330E+03  0.19287997152E+03  0.00000000000E+00 0. -1.
         21    1    1    2  505  506  0.45207618727E+01  0.84008024779E+02  0.60038480441E+02  0.10335571899E+03  0.00000000000E+00 0.  1.
         21    1    1    2  506  501 -0.62778053051E+02 -0.64884344062E+02  0.15220732405E+03  0.17696929548E+03  0.00000000000E+00 0.  1.
<scales pt_clust_3="53.95252" pt_clust_4="51.58671" pt_clust_5="62.89238" pt_clust_6="14000.00000"></scales>
<clustering>
<clus scale="   51.587">  2  4  1 -1</clus>
<clus scale="   53.953">  1  3  2 -1</clus>
<clus scale="   62.892">  2  5  1 -1</clus>
<clus scale="   53.953">  1  3  2 -1</clus>
</clustering>
</event>
<event>
 6    0  0.8520634E+002  0.1524638E+03  0.7546771E-02  0.1197478E+00
         21   -1    0    0  504  501  0.00000000000E+00  0.00000000000E+00  0.16613327751E+04  0.16613327751E+04  0.00000000000E+00 0. -1.
         21   -1    0    0  503  502 -0.00000000000E+00 -0.00000000000E+00 -0.46181510390E+02  0.46181510390E+02  0.00000000000E+00 0. -1.
         21    1    1    2  503  505 -0.27491475209E+02 -0.35850120929E+02  0.53646434617E+02  0.70135243116E+02  0.00000000000E+00 0. -1.
         21    1    1    2  504  502 -0.20832578245E+02  0.30101768937E+02 -0.80476492435E+01  0.37481695103E+02  0.00000000000E+00 0. -1.
         21    1    1    2  505  506  0.17866671872E+03  0.11485736437E+02  0.95732484214E+03  0.97392226174E+03  0.00000000000E+00 0. -1.
         21    1    1    2  506  501 -0.13034266527E+03 -0.57373844455E+01  0.61222763723E+03  0.62597508557E+03  0.00000000000E+00 0. -1.
<scales pt_clust_3="43.01771" pt_clust_4="36.60755" pt_clust_5="152.46377" pt_clust_6="14000.00000"></scales>
<clustering>
<clus scale="   36.608">  2  4  1 -1</clus>
<clus scale="   43.018">  2  3  1 -1</clus>
<clus scale="  152.464">  2  5  1 -1</clus>
<clus scale="  152.464">  1  3  2 -1</clus>
</clustering>
</event>
<event>
 6    0  0.8520634E+002  0.9093103E+02  0.7546771E-02  0.1300613E+00
         21   -1    0    0  504  501  0.00000000000E+00  0.00000000000E+00  0.74715231839E+03  0.74715231839E+03  0.00000000000E+00 0.  1.
         21   -1    0    0  505  502 -0.00000000000E+00 -0.00000000000E+00 -0.23541408145E+03  0.23541408145E+03  0.00000000000E+00 0.  1.
         21    1    1    2  503  501  0.85685478105E+02  0.10655323397E+03 -0.15707763021E+02  0.13763112528E+03  0.00000000000E+00 0.  1.
         21    1    1    2  504  502 -0.66358600677E+02 -0.35622099193E+02  0.67298272171E+03  0.67718397910E+03  0.00000000000E+00 0.  1.
         21    1    1    2  505  506 -0.28207361696E+02 -0.39622270864E+02 -0.10538386447E+03  0.11606609536E+03  0.00000000000E+00 0.  1.
         21    1    1    2  506  503  0.88804842690E+01 -0.31308863909E+02 -0.40152857286E+02  0.51685200090E+02  0.00000000000E+00 0.  1.
<scales pt_clust_3="81.93685" pt_clust_4="75.31532" pt_clust_5="32.25438" pt_clust_6="32.25438"></scales>
<clustering>
<clus scale="   32.254">  5  6 -1 -1</clus>
<clus scale="   75.315">  1  4  2 -1</clus>
<clus scale="   81.937">  1  3  2 -1</clus>
<clus scale="   75.315">  1  3  2 -1</clus>
</clustering>
</event>
<event>
 6    0  0.8520634E+002  0.1131261E+03  0.7546771E-02  0.1254888E+00
         21   -1    0    0  503  501  0.00000000000E+00  0.00000000000E+00  0.20752881174E+04  0.20752881174E+04  0.00000000000E+00 0. -1.
         21   -1    0    0  506  502 -0.00000000000E+00 -0.00000000000E+00 -0.18011025570E+03  0.18011025570E+03  0.00000000000E+00 0. -1.
         21    1    1    2  503  505  0.20679485725E+01  0.42981886200E+02  0.19535415888E+04  0.19540154703E+04  0.00000000000E+00 0. -1.
         21    1    1    2  504  502  0.30530451547E+02  0.10291108285E+00 -0.51630032647E+02  0.59981491591E+02  0.00000000000E+00 0. -1.
         21    1    1    2  505  504 -0.25900111226E+02  0.85197362009E+02  0.48699678727E+02  0.10149416221E+03  0.00000000000E+00 0. -1.
         21    1    1    2  506  501 -0.66982888929E+01 -0.12828215929E+03 -0.55433373173E+02  0.13990724902E+03  0.00000000000E+00 0. -1.
<scales pt_clust_3="43.03464" pt_clust_4="30.53062" pt_clust_5="113.12606" pt_clust_6="14000.00000"></scales>
<clustering>
<clus scale="   30.531">  2  4  1 -1</clus>
<clus scale="   43.035">  1  3  2 -1</clus>
<clus scale="  113.126">  1  5  2 -1</clus>
<clus scale="   43.035">  1  3  2 -1</clus>
</clustering>
</event>
<event>
 6    0  0.8520634E+002  0.6423169E+02  0.7546771E-02  0.1380885E+00
         21   -1    0    0  505  501  0.00000000000E+00  0.00000000000E+00  0.18128741609E+03  0.18128741609E+03  0.00000000000E+00 0.  1.
         21   -1    0    0  504  502 -0.00000000000E+00 -0.00000000000E+00 -0.42286277619E+03  0.42286277619E+03  0.00000000000E+00 0. -1.
         21    1    1    2  503  501  0.13794976273E+02 -0.41030054355E+02  0.11867706880E+03  0.12632503074E+03  0.00000000000E+00 0.  1.
         21    1    1    2  504  506  0.19922394735E+02  0.50479616983E+02 -0.29690551960E+03  0.30182442100E+03  0.00000000000E+00 0. -1.
         21    1    1    2  505  502  0.39121126175E+01 -0.80619310554E+02 -0.48418587241E+02  0.94122991079E+02  0.00000000000E+00 0.  1.
         21    1    1    2  506  503 -0.37629483625E+02  0.71169747926E+02 -0.14928322062E+02  0.81877749465E+02  0.00000000000E+00 0. -1.
<scales pt_clust_3="43.28703" pt_clust_4="52.89674" pt_clust_5="14000.00000" pt_clust_6="64.23169"></scales>
<clustering>
<clus scale="   43.287">  1  3  2 -1</clus>
<clus scale="   52.897">  2  4  1 -1</clus>
<clus scale="   64.232">  1  6  2 -1</clus>
<clus scale="   43.287">  1  3  2 -1</clus>
</clustering>
</event>
<event>
 6    0  0.8520634E+002  0.6870750E+02  0.7546771E-02  0.1364544E+00
         21   -1    0    0  505  501  0.00000000000E+00  0.00000000000E+00  0.57587158594E+03  0.57587158594E+03  0.00000000000E+00 0.  1.
         21   -1    0    0  506  502 -0.00000000000E+00 -0.00000000000E+00 -0.63618176975E+02  0.63618176975E+02  0.00000000000E+00 0.  1.
         21    1    1    2  503  501 -0.23089533646E+02 -0.72769233207E+02  0.22175626212E+03  0.23453001440E+03  0.00000000000E+00 0.  1.
         21    1    1    2  504  502  0.10175635087E+03  0.36620295084E+02  0.68118120500E+02  0.12781032546E+03  0.00000000000E+00 0.  1.
         21    1    1    2  505  504 -0.18515880548E+02  0.31658703250E+02  0.21296611207E+03  0.21610107870E+03  0.00000000000E+00 0.  1.
         21    1    1    2  506  503 -0.60150936679E+02  0.44902348721E+01  0.94129142714E+01  0.61048344348E+02  0.00000000000E+00 0.  1.
<scales pt_clust_3="68.70750" pt_clust_4="14000.00000" pt_clust_5="36.67576" pt_clust_6="62.41784"></scales>
<clustering>
<clus scale="   36.676">  1  5  2 -1</clus>
<clus scale="   62.418">  2  6  1 -1</clus>
<clus scale="   68.708">  1  3  2 -1</clus>
<clus scale="   36.676">  1  3  2 -1</clus>
</clustering>
</event>
<event>
 6    0  0.8520634E+002  0.8593741E+02  0.7546771E-02  0.1312999E+00
         21   -1    0    0  504  501  0.00000000000E+00  0.00000000000E+00  0.93308325030E+02  0.93308325030E+02  0.00000000000E+00 0.  1.
         21   -1    0    0  505  502 -0.00000000000E+00 -0.00000000000E+00 -0.43127158278E+03  0.43127158278E+03  0.00000000000E+00 0.  1.
         21    1    1    2  503  501 -0.37168454606E+02 -0.78785378086E+02  0.40061643959E+00  0.87113663173E+02  0.00000000000E+00 0.  1.
         21    1    1    2  504  502  0.70237357673E+02  0.55770547105E+02 -0.24546209107E+02  0.92984712286E+02  0.00000000000E+00 0.  1.
         21    1    1    2  505  506  0.41542267379E+02  0.34901644545E+02 -0.20464553570E+03  0.21171603636E+03  0.00000000000E+00 0.  1.
         21    1    1    2  506  503 -0.74611170445E+02 -0.11886813565E+02 -0.10917212939E+03  0.13276549600E+03  0.00000000000E+00 0.  1.
<scales pt_clust_3="85.93741" pt_clust_4="14000.00000" pt_clust_5="54.25758" pt_clust_6="52.55867"></scales>
<clustering>
<clus scale="   54.258">  2  5  1 -1</clus>
<clus scale="   52.559">  2  6  1 -1</clus>
<clus scale="   85.937">  1  3  2 -1</clus>
<clus scale="   85.937">  1  3  2 -1</clus>
</clustering>
</event>
<event>
 6    0  0.8520634E+002  0.7943694E+02  0.7546771E-02  0.1330657E+00
         21   -1    0    0  504  501  0.00000000000E+00  0.00000000000E+00  0.79338378831E+02  0.79338378831E+02  0.00000000000E+00 0. -1.
         21   -1    0    0  505  502 -0.00000000000E+00 -0.00000000000E+00 -0.43763717853E+03  0.43763717853E+03  0.00000000000E+00 0.  1.
         21    1    1    2  503  501  0.36521569580E+02  0.59850358733E+02 -0.31777177059E+02  0.76978435077E+02  0.00000000000E+00 0. -1.
         21    1    1    2  504  502 -0.32765581716E+02  0.31057352252E+02 -0.38680319281E+02  0.59450059493E+02  0.00000000000E+00 0.  1.
         21    1    1    2  505  506 -0.41643857163E+02  0.13101639422E+02 -0.26364913796E+03  0.26723909097E+03  0.00000000000E+00 0.  1.
         21    1    1    2  506  503  0.37887869299E+02 -0.10400935041E+03 -0.24192165403E+02  0.11330797183E+03  0.00000000000E+00 0. -1.
<scales pt_clust_3="79.43694" pt_clust_4="56.58951" pt_clust_5="43.65620" pt_clust_6="14000.00000"></scales>
<clustering>
<clus scale="   43.656">  2  5  1 -1</clus>
<clus scale="   56.590">  2  4  1 -1</clus>
<clus scale="   79.437">  1  3  2 -1</clus>
<clus scale="   79.437">  1  3  2 -1</clus>
</clustering>
</event>
<event>
 6    0  0.8520634E+002  0.1283498E+03  0.7546771E-02  0.1229925E+00
         21   -1    0    0  504  501  0.00000000000E+00  0.00000000000E+00  0.33292236532E+03  0.33292236532E+03  0.00000000000E+00 0.  1.
         21   -1    0    0  503  502 -0.00000000000E+00 -0.00000000000E+00 -0.14219752341E+03  0.14219752341E+03  0.00000000000E+00 0.  1.
         21    1    1    2  503  505 -0.79847610132E+02  0.27414230933E+00  0.48128292169E+02  0.93231156299E+02  0.00000000000E+00 0. -1.
         21    1    1    2  504  502 -0.17002006222E+02 -0.57183483239E+02 -0.81184067055E+02  0.10074657173E+03  0.00000000000E+00 0.  1.
         21    1    1    2  505  506 -0.27918995409E+02  0.30906133401E+02  0.42141960622E+02  0.59250352164E+02  0.00000000000E+00 0.  1.
         21    1    1    2  506  501  0.12476861176E+03  0.26003207529E+02  0.18163865617E+03  0.22189180854E+03  0.00000000000E+00 0.  1.
<scales pt_clust_3="36.22682" pt_clust_4="59.65751" pt_clust_5="36.22682" pt_clust_6="118.14238"></scales>
<clustering>
<clus scale="   36.227">  3  5 -1 -1</clus>
<clus scale="   59.658">  2  4  1 -1</clus>
<clus scale="  118.142">  1  6  2 -1</clus>
<clus scale="  118.142">  1  3  2 -1</clus>
</clustering>
</event>
<event>
 6    0  0.8520634E+002  0.9347645E+02  0.7546771E-02  0.1294645E+00
         21   -1    0    0  506  501  0.00000000000E+00  0.00000000000E+00  0.30054152579E+03  0.30054152579E+03  0.00000000000E+00 0. -1.
         21   -1    0    0  504  502 -0.00000000000E+00 -0.00000000000E+00 -0.21753224290E+03  0.21753224290E+03  0.00000000000E+00 0. -1.
         21    1    1    2  503  501 -0.54608161942E+02 -0.15070492079E+02  0.13745044490E+03  0.14866672756E+03  0.00000000000E+00 0. -1.
         21    1    1    2  504  503  0.42548067593E+02  0.11571466389E+02 -0.12263461398E+03  0.13032070225E+03  0.00000000000E+00 0. -1.
         21    1    1    2  505  502 -0.93005638161E+02 -0.49095018698E+02  0.41022055772E+01  0.10524826688E+03  0.00000000000E+00 0. -1.
         21    1    1    2  506  505  0.10506573251E+03  0.52594044387E+02  0.64091246391E+02  0.13383807200E+03  0.00000000000E+00 0. -1.
<scales pt_clust_3="53.93380" pt_clust_4="44.09350" pt_clust_5="14000.00000" pt_clust_6="93.47645"></scales>
<clustering>
<clus scale="   44.094">  2  4  1 -1</clus>
<clus scale="   53.934">  1  3  2 -1</clus>
<clus scale="   93.476">  1  6  2 -1</clus>
<clus scale="   53.934">  1  3  2 -1</clus>
</clustering>
</event>
<event>
 6    0  0.8520634E+002  0.1100012E+03  0.7546771E-02  0.1260568E+00
         21   -1    0    0  506  501  0.00000000000E+00  0.00000000000E+00  0.16956242695E+03  0.16956242695E+03  0.00000000000E+00 0. -1.
         21   -1    0    0  505  502 -0.00000000000E+00 -0.00000000000E+00 -0.36649229775E+03  0.36649229775E+03  0.00000000000E+00 0. -1.
         21    1    1    2  503  501 -0.13618787617E+02 -0.40679653408E+02  0.59770653152E+02  0.73571982139E+02  0.00000000000E+00 0. -1.
         21    1    1    2  504  503 -0.70288420868E+02 -0.43235933356E+02 -0.65306303812E+00  0.82524145149E+02  0.00000000000E+00 0. -1.
         21    1    1    2  505  504 -0.15810687091E+02 -0.26198519928E+02 -0.22641876981E+03  0.22847713145E+03  0.00000000000E+00 0. -1.
         21    1    1    2  506  502  0.99717895576E+02  0.11011410669E+03 -0.29628691102E+02  0.15148146595E+03  0.00000000000E+00 0. -1.
<scales pt_clust_3="44.38208" pt_clust_4="14000.00000" pt_clust_5="30.59968" pt_clust_6="110.00117"></scales>
<clustering>
<clus scale="   30.600">  2  5  1 -1</clus>
<clus scale="   44.382">  1  3  2 -1</clus>
<clus scale="  110.001">  2  6  1 -1</clus>
<clus scale="   44.382">  1  3  2 -1</clus>
</clustering>
</event>
<event>
 6    0  0.8520634E+002  0.1372601E+03  0.7546771E-02  0.1217064E+00
         21   -1    0    0  506  501  0.00000000000E+00  0.00000000000E+00  0.42439787818E+03  0.42439787818E+03  0.00000000000E+00 0.  1.
         21   -1    0    0  504  502 -0.00000000000E+00 -0.00000000000E+00 -0.19100915110E+03  0.19100915110E+03  0.00000000000E+00 0.  1.
         21    1    1    2  503  505 -0.84820235871E+02  0.35203597941E+02  0.30781781597E+02  0.96857027620E+02  0.00000000000E+00 0.  1.
         21    1    1    2  504  501 -0.17638311685E+02  0.12870169100E+03  0.13853522224E+03  0.18991377809E+03  0.00000000000E+00 0.  1.
         21    1    1    2  505  502 -0.14707863047E+02 -0.46683127518E+02 -0.89934683493E+02  0.10239083419E+03  0.00000000000E+00 0.  1.
         21    1    1    2  506  503  0.11716641060E+03 -0.11722216142E+03  0.15400640673E+03  0.22624538938E+03  0.00000000000E+00 0.  1.
<scales pt_clust_3="91.91646" pt_clust_4="137.26006" pt_clust_5="48.94523" pt_clust_6="14000.00000"></scales>
<clustering>
<clus scale="   48.945">  2  5  1 -1</clus>
<clus scale="   91.916">  2  3  1 -1</clus>
<clus scale="  137.260">  1  4  2 -1</clus>
<clus scale="  137.260">  1  3  2 -1</clus>
</clustering>
</event>
<event>
 6    0  0.8520634E+002  0.7783471E+02  0.7546771E-02  0.1335311E+00
         21   -1    0    0  506  501  0.00000000000E+00  0.00000000000E+00  0.10808832304E+04  0.10808832304E+04  0.00000000000E+00 0.  1.
         21   -1    0    0  504  502 -0.00000000000E+00 -0.00000000000E+00 -0.72624344591E+02  0.72624344591E+02  0.00000000000E+00 0. -1.
         21    1    1    2  503  505  0.42603484508E+02  0.65584764388E+02  0.32346882490E+03  0.33278897051E+03  0.00000000000E+00 0.  1.
         21    1    1    2  504  503 -0.38033369439E+02  0.21536031500E+02 -0.54391676843E+02  0.69776732178E+02  0.00000000000E+00 0. -1.
         21    1    1    2  505  501 -0.34113710681E+02  0.27378929918E+01  0.28260744063E+03  0.28467210403E+03  0.00000000000E+00 0.  1.
         21    1    1    2  506  502  0.29543595613E+02 -0.89858688880E+02  0.45657429712E+03  0.46626976826E+03  0.00000000000E+00 0.  1.
<scales pt_clust_3="14000.00000" pt_clust_4="44.00708" pt_clust_5="34.22340" pt_clust_6="77.83471"></scales>
<clustering>
<clus scale="   34.223">  1  5  2 -1</clus>
<clus scale="   44.007">  2  4  1 -1</clus>
<clus scale="   77.835">  2  6  1 -1</clus>
<clus scale="   34.223">  1  3  2 -1</clus>
</clustering>
</event>
<event>
 6    0  0.8520634E+002  0.1349551E+03  0.7546771E-02  0.1220283E+00
         21   -1    0    0  506  501  0.00000000000E+00  0.00000000000E+00  0.13361296099E+04  0.13361296099E+04  0.00000000000E+00 0. -1.
         21   -1    0    0  504  502 -0.00000000000E+00 -0.00000000000E+00 -0.39938549017E+03  0.39938549017E+03  0.00000000000E+00 0.  1.
         21    1    1    2  503  502  0.89109224875E+02 -0.40122345014E+01 -0.22837321244E+03  0.24517519479E+03  0.00000000000E+00 0.  1.
         21    1    1    2  504  501 -0.83387956203E+02 -0.53781771482E+02  0.12399754774E+04  0.12439393935E+04  0.00000000000E+00 0. -1.
         21    1    1    2  505  503  0.42416116614E+02 -0.33969648015E+02 -0.12124678289E+03  0.13286777749E+03  0.00000000000E+00 0.  1.
         21    1    1    2  506  505 -0.48137385286E+02  0.91763653998E+02  0.46388637737E+02  0.11353273435E+03  0.00000000000E+00 0. -1.
<scales pt_clust_3="34.38574" pt_clust_4="99.22716" pt_clust_5="34.38574" pt_clust_6="127.56200"></scales>
<clustering>
<clus scale="   34.386">  3  5 -1 -1</clus>
<clus scale="   99.227">  1  4  2 -1</clus>
<clus scale="  127.562">  1  6  2 -1</clus>
<clus scale="   99.227">  1  3  2 -1</clus>
</clustering>
</event>
<event>
 6    0  0.8520634E+002  0.6844956E+02  0.7546771E-02  0.1365446E+00
         21   -1    0    0  506  501  0.00000000000E+00  0.00000000000E+00  0.21980000190E+03  0.21980000190E+03  0.00000000000E+00 0. -1.
         21   -1    0    0  505  502 -0.00000000000E+00 -0.00000000000E+00 -0.11551895389E+03  0.11551895389E+03  0.00000000000E+00 0. -1.
         21    1    1    2  503  502 -0.41234583320E+02 -0.71947333584E+02 -0.30507812677E+02  0.88359698425E+02  0.00000000000E+00 0. -1.
         21    1    1    2  504  501  0.32762709640E+02  0.63311656917E+02  0.73160859903E+02  0.10214828665E+03  0.00000000000E+00 0. -1.
         21    1    1    2  505  504  0.31686354958E+02  0.47368490613E+02 -0.12187884512E+02  0.58278156478E+02  0.00000000000E+00 0. -1.
         21    1    1    2  506  503 -0.23214481278E+02 -0.38732813946E+02  0.73815885294E+02  0.86532814232E+02  0.00000000000E+00 0. -1.
<scales pt_clust_3="68.44956" pt_clust_4="43.02929" pt_clust_5="14000.00000" pt_clust_6="45.15687"></scales>
<clustering>
<clus scale="   45.157">  1  6  2 -1</clus>
<clus scale="   43.029">  1  4  2 -1</clus>
<clus scale="   68.450">  1  3  2 -1</clus>
<clus scale="   45.157">  1  3  2 -1</clus>
</clustering>
</event>
<event>
 6    0  0.8520634E+002  0.1130729E+03  0.7546771E-02  0.1254983E+00
         21   -1    0    0  506  501  0.00000000000E+00  0.00000000000E+00  0.92755464509E+02  0.92755464509E+02  0.00000000000E+00 0. -1.
         21   -1    0    0  505  502 -0.00000000000E+00 -0.00000000000E+00 -0.14125028932E+04  0.14125028932E+04  0.00000000000E+00 0.  1.
         21    1    1    2  503  504 -0.28882928437E+02 -0.23506207836E+02  0.11406823806E+02  0.38947156395E+02  0.00000000000E+00 0. -1.
         21    1    1    2  504  501  0.37955780392E+02  0.40669493854E+02 -0.13859728715E+02  0.57330106188E+02  0.00000000000E+00 0. -1.
         21    1    1    2  505  503 -0.10416233874E+03  0.74659301751E+01 -0.17988695486E+02  0.10596757093E+03  0.00000000000E+00 0. -1.
         21    1    1    2  506  502  0.95089486781E+02 -0.24629216192E+02 -0.12993058283E+04  0.13030135242E+04  0.00000000000E+00 0.  1.
<scales pt_clust_3="32.70017" pt_clust_4="55.62957" pt_clust_5="32.70017" pt_clust_6="98.92849"></scales>
<clustering>
<clus scale="   32.700">  3  5 -1 -1</clus>
<clus scale="   55.630">  1  4  2 -1</clus>
<clus scale="   98.928">  2  6  1 -1</clus>
<clus scale="   55.630">  1  3  2 -1</clus>
</clustering>
</event>
<event>
 6    0  0.8520634E+002  0.9299994E+02  0.7546771E-02  0.1295745E+00
         21   -1    0    0  503  501  0.00000000000E+00  0.00000000000E+00  0.26033996983E+03  0.26033996983E+03  0.00000000000E+00 0.  1.
         21   -1    0    0  506  502 -0.00000000000E+00 -0.00000000000E+00 -0.61918204841E+03  0.61918204841E+03  0.00000000000E+00 0. -1.
         21    1    1    2  503  502 -0.13376233551E+02 -0.53592124965E+02  0.17076070016E+03  0.17947215996E+03  0.00000000000E+00 0.  1.
         21    1    1    2  504  505 -0.51409225536E+02 -0.10240228669E+03 -0.28091794950E+03  0.30338759227E+03  0.00000000000E+00 0. -1.
         21    1    1    2  505  501  0.34888543707E+02  0.13228737048E+03  0.81075421952E+01  0.13705068811E+03  0.00000000000E+00 0.  1.
         21    1    1    2  506  504  0.29896915381E+02  0.23707041166E+02 -0.25679237143E+03  0.25961157789E+03  0.00000000000E+00 0. -1.
<scales pt_clust_3="54.87203" pt_clust_4="92.99994" pt_clust_5="14000.00000" pt_clust_6="38.15559"></scales>
<clustering>
<clus scale="   38.156">  2  6  1 -1</clus>
<clus scale="   54.872">  1  3  2 -1</clus>
<clus scale="   93.000">  2  4  1 -1</clus>
<clus scale="   54.872">  1  3  2 -1</clus>
</clustering>
</event>
<event>
 6    0  0.8520634E+002  0.3722136E+03  0.7546771E-02  0.1053850E+00
         21   -1    0    0  504  501  0.00000000000E+00  0.00000000000E+00  0.51914943172E+03  0.51914943172E+03  0.00000000000E+00 0.  1.
         21   -1    0    0  503  502 -0.00000000000E+00 -0.00000000000E+00 -0.26302615411E+04  0.26302615411E+04  0.00000000000E+00 0.  1.
         21    1    1    2  503  505  0.67231776823E+02  0.37230966029E+03 -0.22849239469E+04  0.23160336868E+04  0.00000000000E+00 0.  1.
         21    1    1    2  504  502 -0.47300091159E+02  0.13523017220E+02  0.22603033928E+03  0.23132203720E+03  0.00000000000E+00 0.  1.
         21    1    1    2  505  506 -0.12248786068E+03 -0.31751557344E+03 -0.21148640519E+03  0.40068181263E+03  0.00000000000E+00 0.  1.
         21    1    1    2  506  501  0.10255617501E+03 -0.68317104077E+02  0.15926790347E+03  0.20137343623E+03  0.00000000000E+00 0.  1.
<scales pt_clust_3="372.21363" pt_clust_4="49.19523" pt_clust_5="14000.00000" pt_clust_6="94.59338"></scales>
<clustering>
<clus scale="   49.195">  1  4  2 -1</clus>
<clus scale="   94.593">  1  6  2 -1</clus>
<clus scale="  372.214">  2  3  1 -1</clus>
<clus scale="   49.195">  1  3  2 -1</clus>
</clustering>
</event>
<event>
 6    0  0.8520634E+002  0.8834420E+02  0.7546771E-02  0.1306912E+00
         21   -1    0    0  505  501  0.00000000000E+00  0.00000000000E+00  0.16098113746E+03  0.16098113746E+03  0.00000000000E+00 0.  1.
         21   -1    0    0  506  502 -0.00000000000E+00 -0.00000000000E+00 -0.64716835264E+03  0.64716835264E+03  0.00000000000E+00 0.  1.
         21    1    1    2  503  501 -0.28676621950E+02 -0.30452064158E+02  0.75366640624E+02  0.86196330414E+02  0.00000000000E+00 0.  1.
         21    1    1    2  504  503  0.48592189076E+02  0.50690054296E+02  0.35486572496E+02  0.78676421316E+02  0.00000000000E+00 0.  1.
         21    1    1    2  505  502 -0.23566718898E+02 -0.89333792218E+02 -0.55430299941E+03  0.56194993712E+03  0.00000000000E+00 0.  1.
         21    1    1    2  506  504  0.36511517718E+01  0.69095802081E+02 -0.42737428884E+02  0.81326801253E+02  0.00000000000E+00 0.  1.
<scales pt_clust_3="41.82914" pt_clust_4="40.44929" pt_clust_5="14000.00000" pt_clust_6="88.34420"></scales>
<clustering>
<clus scale="   41.829">  1  3  2 -1</clus>
<clus scale="   40.449">  1  4  2 -1</clus>
<clus scale="   88.344">  1  6  2 -1</clus>
<clus scale="   41.829">  1  3  2 -1</clus>
</clustering>
</event>
<event>
 6    0  0.8520634E+002  0.6152284E+02  0.7546771E-02  0.1391550E+00
         21   -1    0    0  505  501  0.00000000000E+00  0.00000000000E+00  0.17999980189E+04  0.17999980189E+04  0.00000000000E+00 0. -1.
         21   -1    0    0  506  502 -0.00000000000E+00 -0.00000000000E+00 -0.15279832502E+02  0.15279832502E+02  0.00000000000E+00 0. -1.
         21    1    1    2  503  502  0.20050807670E+02  0.56189995564E+02  0.87893328810E+02  0.10622894021E+03  0.00000000000E+00 0. -1.
         21    1    1    2  504  501 -0.32199305042E+02 -0.25873849685E+02  0.66134296274E+03  0.66263169688E+03  0.00000000000E+00 0. -1.
         21    1    1    2  505  503 -0.17676340766E+02  0.56047633925E+02  0.35565465832E+03  0.36047749760E+03  0.00000000000E+00 0. -1.
         21    1    1    2  506  504  0.29824838139E+02 -0.86363779805E+02  0.67982723651E+03  0.68593971669E+03  0.00000000000E+00 0. -1.
<scales pt_clust_3="61.52284" pt_clust_4="41.30680" pt_clust_5="55.39231" pt_clust_6="14000.00000"></scales>
<clustering>
<clus scale="   41.307">  1  4  2 -1</clus>
<clus scale="   55.392">  1  5  2 -1</clus>
<clus scale="   61.523">  2  3  1 -1</clus>
<clus scale="   41.307">  1  3  2 -1</clus>
</clustering>
</event>
<event>
 6    0  0.8520634E+002  0.9074097E+02  0.7546771E-02  0.1301067E+00
         21   -1    0    0  505  501  0.00000000000E+00  0.00000000000E+00  0.10082863533E+03  0.10082863533E+03  0.00000000000E+00 0. -1.
         21   -1    0    0  506  502 -0.00000000000E+00 -0.00000000000E+00 -0.13984094422E+04  0.13984094422E+04  0.00000000000E+00 0. -1.
         21    1    1    2  503  502 -0.50989276842E+02 -0.59593980556E+02 -0.86877251144E+03  0.87230558035E+03  0.00000000000E+00 0. -1.
         21    1    1    2  504  501 -0.98023819696E+01  0.71708828147E+02 -0.98825430068E+02  0.12249370741E+03  0.00000000000E+00 0. -1.
         21    1    1    2  505  503  0.21988396357E+02  0.37461369040E+02  0.79259622283E+02  0.90382141318E+02  0.00000000000E+00 0. -1.
         21    1    1    2  506  504  0.38803262454E+02 -0.49576216630E+02 -0.40924248764E+03  0.41405664844E+03  0.00000000000E+00 0. -1.
<scales pt_clust_3="14000.00000" pt_clust_4="90.74097" pt_clust_5="43.43781" pt_clust_6="60.86234"></scales>
<clustering>
<clus scale="   43.438">  1  5  2 -1</clus>
<clus scale="   60.862">  2  6  1 -1</clus>
<clus scale="   90.741">  1  4  2 -1</clus>
<clus scale="   43.438">  1  3  2 -1</clus>
</clustering>
</event>
<event>
 6    0  0.8520634E+002  0.1118830E+03  0.7546771E-02  0.1257122E+00
         21   -1    0    0  505  501  0.00000000000E+00  0.00000000000E+00  0.60170116765E+03  0.60170116765E+03  0.00000000000E+00 0.  1.
         21   -1    0    0  506  502 -0.00000000000E+00 -0.00000000000E+00 -0.74149304532E+02  0.74149304532E+02  0.00000000000E+00 0. -1.
         21    1    1    2  503  501  0.59171627177E+02  0.84474342470E+01  0.27871543111E+03  0.28505250770E+03  0.00000000000E+00 0.  1.
         21    1    1    2  504  502  0.16379476644E+02  0.90843972624E+02  0.54658924739E+02  0.10727773614E+03  0.00000000000E+00 0. -1.
         21    1    1    2  505  504 -0.90588891505E+01  0.29282135466E+02  0.11400004835E+03  0.11804879480E+03  0.00000000000E+00 0. -1.
         21    1    1    2  506  503 -0.66492214671E+02 -0.12857354234E+03  0.80177458927E+02  0.16547143355E+03  0.00000000000E+00 0. -1.
<scales pt_clust_3="59.61573" pt_clust_4="14000.00000" pt_clust_5="30.65138" pt_clust_6="111.88304"></scales>
<clustering>
<clus scale="   30.651">  1  5  2 -1</clus>
<clus scale="   59.616">  1  3  2 -1</clus>
<clus scale="  111.883">  1  6  2 -1</clus>
<clus scale="   30.651">  1  3  2 -1</clus>
</clustering>
</event>
<event>
 6    0  0.8520634E+002  0.1681126E+03  0.7546771E-02  0.1179830E+00
         21   -1    0    0  505  501  0.00000000000E+00  0.00000000000E+00  0.61208545052E+02  0.61208545052E+02  0.00000000000E+00 0. -1.
         21   -1    0    0  506  502 -0.00000000000E+00 -0.00000000000E+00 -0.12906574895E+04  0.12906574895E+04  0.00000000000E+00 0.  1.
         21    1    1    2  503  501  0.10408235632E+03 -0.74533633174E+02 -0.10565320611E+03  0.16598493706E+03  0.00000000000E+00 0. -1.
         21    1    1    2  504  502 -0.89910836779E+02  0.21262513719E+02 -0.96144020317E+02  0.13334063785E+03  0.00000000000E+00 0.  1.
         21    1    1    2  505  504 -0.10448869780E+03  0.31839230359E+02 -0.30537154912E+03  0.32431991547E+03  0.00000000000E+00 0.  1.
         21    1    1    2  506  503  0.90317178266E+02  0.21431889096E+02 -0.72228016885E+03  0.72822054412E+03  0.00000000000E+00 0.  1.
<scales pt_clust_3="143.64680" pt_clust_4="80.32102" pt_clust_5="80.32102" pt_clust_6="92.82520"></scales>
<clustering>
<clus scale="   80.321">  4  5 -1 -1</clus>
<clus scale="   92.825">  2  6  1 -1</clus>
<clus scale="  143.647">  1  3  2 -1</clus>
<clus scale="  143.647">  1  3  2 -1</clus>
</clustering>
</event>
<event>
 6    0  0.8520634E+002  0.8602309E+02  0.7546771E-02  0.1312779E+00
         21   -1    0    0  505  501  0.00000000000E+00  0.00000000000E+00  0.54372284074E+03  0.54372284074E+03  0.00000000000E+00 0.  1.
         21   -1    0    0  504  502 -0.00000000000E+00 -0.00000000000E+00 -0.15283966327E+03  0.15283966327E+03  0.00000000000E+00 0.  1.
         21    1    1    2  503  502 -0.35787577872E+02 -0.23190797066E+02  0.13802786576E+02  0.44822770059E+02  0.00000000000E+00 0. -1.
         21    1    1    2  504  506  0.83972068646E+02  0.96790451187E+02 -0.98818151098E+02  0.16181695443E+03  0.00000000000E+00 0.  1.
         21    1    1    2  505  503 -0.16689286911E+02 -0.35569427447E+02  0.64163960510E+02  0.75237824894E+02  0.00000000000E+00 0.  1.
         21    1    1    2  506  501 -0.31495203863E+02 -0.38030226674E+02  0.41173458148E+03  0.41468495463E+03  0.00000000000E+00 0.  1.
<scales pt_clust_3="44.72532" pt_clust_4="86.02309" pt_clust_5="39.29016" pt_clust_6="14000.00000"></scales>
<clustering>
<clus scale="   39.290">  1  5  2 -1</clus>
<clus scale="   44.725">  2  3  1 -1</clus>
<clus scale="   86.023">  2  4  1 -1</clus>
<clus scale="   39.290">  1  3  2 -1</clus>
</clustering>
</event>
<event>
 6    0  0.8520634E+002  0.1056519E+03  0.7546771E-02  0.1268841E+00
         21   -1    0    0  503  501  0.00000000000E+00  0.00000000000E+00  0.12210122950E+03  0.12210122950E+03  0.00000000000E+00 0. -1.
         21   -1    0    0  506  502 -0.00000000000E+00 -0.00000000000E+00 -0.36450462642E+03  0.36450462642E+03  0.00000000000E+00 0. -1.
         21    1    1    2  503  504  0.22589558857E+02 -0.27316592691E+02  0.53865274778E+02  0.64482185389E+02  0.00000000000E+00 0. -1.
         21    1    1    2  504  502  0.85841904919E+02 -0.62980553148E+01 -0.20236773097E+02  0.88419596958E+02  0.00000000000E+00 0. -1.
         21    1    1    2  505  501 -0.19570142316E+02 -0.45057039840E+02 -0.23042081267E+02  0.54259237172E+02  0.00000000000E+00 0. -1.
         21    1    1    2  506  505 -0.88861321460E+02  0.78671687846E+02 -0.25298981734E+03  0.27944483641E+03  0.00000000000E+00 0. -1.
<scales pt_clust_3="35.44692" pt_clust_4="105.65188" pt_clust_5="53.68149" pt_clust_6="14000.00000"></scales>
<clustering>
<clus scale="   35.447">  1  3  2 -1</clus>
<clus scale="   53.681">  1  5  2 -1</clus>
<clus scale="  105.652">  1  4  2 -1</clus>
<clus scale="   35.447">  1  3  2 -1</clus>
</clustering>
</event>
<event>
 6    0  0.8520634E+002  0.1572518E+03  0.7546771E-02  0.1191835E+00
         21   -1    0    0  506  501  0.00000000000E+00  0.00000000000E+00  0.10497805313E+04  0.10497805313E+04  0.00000000000E+00 0.  1.
         21   -1    0    0  501  502 -0.00000000000E+00 -0.00000000000E+00 -0.20482471150E+04  0.20482471150E+04  0.00000000000E+00 0.  1.
         21    1    1    2  503  502  0.51518696577E+02  0.42474142422E+02 -0.10603835269E+04  0.10624836248E+04  0.00000000000E+00 0.  1.
         21    1    1    2  504  503  0.46589255283E+02 -0.81246139142E+02 -0.65552213955E+03  0.66217880461E+03  0.00000000000E+00 0.  1.
         21    1    1    2  505  504  0.59759528959E+02  0.57455273030E+02 -0.31655114531E+03  0.32722612563E+03  0.00000000000E+00 0.  1.
         21    1    1    2  506  505 -0.15786748082E+03 -0.18683276310E+02  0.10339902281E+04  0.10461390912E+04  0.00000000000E+00 0.  1.
<scales pt_clust_3="66.76997" pt_clust_4="96.72576" pt_clust_5="157.25180" pt_clust_6="14000.00000"></scales>
<clustering>
<clus scale="   66.770">  2  3  1 -1</clus>
<clus scale="   96.726">  2  4  1 -1</clus>
<clus scale="  157.252">  2  5  1 -1</clus>
<clus scale="  157.252">  1  3  2 -1</clus>
</clustering>
</event>
<event>
 6    0  0.8520634E+002  0.2250599E+03  0.7546771E-02  0.1130166E+00
         21   -1    0    0  506  501  0.00000000000E+00  0.00000000000E+00  0.25966000175E+03  0.25966000175E+03  0.00000000000E+00 0.  1.
         21   -1    0    0  505  502 -0.00000000000E+00 -0.00000000000E+00 -0.38117739222E+03  0.38117739222E+03  0.00000000000E+00 0. -1.
         21    1    1    2  503  501  0.56893585667E+02  0.15266343795E+03 -0.13742186253E+03  0.21313792172E+03  0.00000000000E+00 0. -1.
         21    1    1    2  504  502 -0.12072802415E+02 -0.17843128329E+03  0.10843023776E+03  0.20914251570E+03  0.00000000000E+00 0.  1.
         21    1    1    2  505  503  0.29329657165E+02  0.63395776564E+02 -0.11306906065E+03  0.13290547676E+03  0.00000000000E+00 0. -1.
         21    1    1    2  506  504 -0.74150440417E+02 -0.37627931225E+02  0.20543294953E+02  0.85651479788E+02  0.00000000000E+00 0.  1.
<scales pt_clust_3="35.16584" pt_clust_4="218.55811" pt_clust_5="35.16584" pt_clust_6="83.15136"></scales>
<clustering>
<clus scale="   35.166">  3  5 -1 -1</clus>
<clus scale="   83.151">  1  6  2 -1</clus>
<clus scale="  218.558">  1  4  2 -1</clus>
<clus scale="   83.151">  1  3  2 -1</clus>
</clustering>
</event>
<event>
 6    0  0.8520634E+002  0.9974700E+02  0.7546771E-02  0.1280829E+00
         21   -1    0    0  506  501  0.00000000000E+00  0.00000000000E+00  0.26427947755E+03  0.26427947755E+03  0.00000000000E+00 0.  1.
         21   -1    0    0  503  502 -0.00000000000E+00 -0.00000000000E+00 -0.28027191752E+03  0.28027191752E+03  0.00000000000E+00 0.  1.
         21    1    1    2  503  504  0.16037033286E+02 -0.31186762026E+02 -0.95828094621E+02  0.10204324711E+03  0.00000000000E+00 0.  1.
         21    1    1    2  504  505 -0.35707891452E+02 -0.11511913675E+02 -0.18731471060E+02  0.41933824969E+02  0.00000000000E+00 0.  1.
         21    1    1    2  505  501 -0.88475473335E+02  0.46305803526E+02  0.21777564569E+03  0.23957956649E+03  0.00000000000E+00 0.  1.
         21    1    1    2  506  502  0.10814633150E+03 -0.36071278254E+01 -0.11920851998E+03  0.16099475651E+03  0.00000000000E+00 0.  1.
<scales pt_clust_3="35.06851" pt_clust_4="37.02052" pt_clust_5="99.74700" pt_clust_6="14000.00000"></scales>
<clustering>
<clus scale="   35.069">  2  3  1 -1</clus>
<clus scale="   37.021">  2  4  1 -1</clus>
<clus scale="   99.747">  1  5  2 -1</clus>
<clus scale="   99.747">  1  3  2 -1</clus>
</clustering>
</event>
<event>
 6    0  0.8520634E+002  0.2134568E+03  0.7546771E-02  0.1138857E+00
         21   -1    0    0  503  501  0.00000000000E+00  0.00000000000E+00  0.53748257897E+03  0.53748257897E+03  0.00000000000E+00 0. -1.
         21   -1    0    0  504  502 -0.00000000000E+00 -0.00000000000E+00 -0.60815458339E+03  0.60815458339E+03  0.00000000000E+00 0.  1.
         21    1    1    2  503  505 -0.14892174389E+01 -0.41950816402E+02  0.41186198775E+03  0.41399563490E+03  0.00000000000E+00 0. -1.
         21    1    1    2  504  506 -0.18767237452E+03 -0.54329910179E+02 -0.19440413169E+03  0.27561862368E+03  0.00000000000E+00 0.  1.
         21    1    1    2  505  502  0.44247089705E+01 -0.60601562785E+02 -0.18120543748E+03  0.19112178849E+03  0.00000000000E+00 0.  1.
         21    1    1    2  506  501  0.18473688299E+03  0.15688228937E+03 -0.10692442299E+03  0.26490111530E+03  0.00000000000E+00 0.  1.
<scales pt_clust_3="41.97724" pt_clust_4="213.45684" pt_clust_5="62.42435" pt_clust_6="14000.00000"></scales>
<clustering>
<clus scale="   41.977">  1  3  2 -1</clus>
<clus scale="   62.424">  2  5  1 -1</clus>
<clus scale="  213.457">  2  4  1 -1</clus>
<clus scale="   41.977">  1  3  2 -1</clus>
</clustering>
</event>
<event>
 6    0  0.8520634E+002  0.9356923E+02  0.7546771E-02  0.1294431E+00
         21   -1    0    0  506  501  0.00000000000E+00  0.00000000000E+00  0.44184704981E+03  0.44184704981E+03  0.00000000000E+00 0.  1.
         21   -1    0    0  505  502 -0.00000000000E+00 -0.00000000000E+00 -0.13229335744E+03  0.13229335744E+03  0.00000000000E+00 0.  1.
         21    1    1    2  503  504  0.86736526396E+02  0.39378341459E+02  0.49973594038E+02  0.10756969317E+03  0.00000000000E+00 0.  1.
         21    1    1    2  504  501  0.31552032653E+02  0.49472180178E+01  0.12503106877E+03  0.12904562716E+03  0.00000000000E+00 0.  1.
         21    1    1    2  505  503 -0.38118702807E+02  0.33353539964E+02 -0.80569205379E+02  0.95167699285E+02  0.00000000000E+00 0.  1.
         21    1    1    2  506  502 -0.80169856242E+02 -0.77679099440E+02  0.21511823493E+03  0.24235738763E+03  0.00000000000E+00 0.  1.
<scales pt_clust_3="14000.00000" pt_clust_4="31.93753" pt_clust_5="50.17889" pt_clust_6="93.56923"></scales>
<clustering>
<clus scale="   31.938">  1  4  2 -1</clus>
<clus scale="   50.179">  2  5  1 -1</clus>
<clus scale="   93.569">  1  6  2 -1</clus>
<clus scale="   31.938">  1  3  2 -1</clus>
</clustering>
</event>
<event>
 6    0  0.8520634E+002  0.1718552E+03  0.7546771E-02  0.1175927E+00
         21   -1    0    0  504  501  0.00000000000E+00  0.00000000000E+00  0.14005339070E+03  0.14005339070E+03  0.00000000000E+00 0. -1.
         21   -1    0    0  503  502 -0.00000000000E+00 -0.00000000000E+00 -0.37624184608E+03  0.37624184608E+03  0.00000000000E+00 0. -1.
         21    1    1    2  503  506  0.17817252893E+03  0.77526514255E+02 -0.10984772851E+03  0.22320917082E+03  0.00000000000E+00 0. -1.
         21    1    1    2  504  505 -0.15356823218E+03 -0.33891697135E+02 -0.32690960824E+02  0.16062548985E+03  0.00000000000E+00 0. -1.
         21    1    1    2  505  502 -0.30216877786E+02 -0.97747490039E+01 -0.92847833653E+02  0.98129127354E+02  0.00000000000E+00 0. -1.
         21    1    1    2  506  501  0.56125810337E+01 -0.33860068116E+02 -0.80193239868E+00  0.34331448764E+02  0.00000000000E+00 0. -1.
<scales pt_clust_3="171.85524" pt_clust_4="14000.00000" pt_clust_5="31.75855" pt_clust_6="34.67202"></scales>
<clustering>
<clus scale="   31.759">  2  5  1 -1</clus>
<clus scale="   34.672">  1  6  2 -1</clus>
<clus scale="  171.855">  2  3  1 -1</clus>
<clus scale="   34.672">  1  3  2 -1</clus>
</clustering>
</event>
<event>
 6    0  0.8520634E+002  0.6434234E+02  0.7546771E-02  0.1380463E+00
         21   -1    0    0  505  501  0.00000000000E+00  0.00000000000E+00  0.78367693076E+02  0.78367693076E+02  0.00000000000E+00 0.  1.
         21   -1    0    0  504  502 -0.00000000000E+00 -0.00000000000E+00 -0.21672271796E+04  0.21672271796E+04  0.00000000000E+00 0.  1.
         21    1    1    2  503  502  0.67292294196E+02 -0.83084572581E+02 -0.34247131565E+03  0.35877277085E+03  0.00000000000E+00 0.  1.
         21    1    1    2  504  501 -0.59752256992E+02  0.17601456407E+02 -0.14957747602E+04  0.14970712330E+04  0.00000000000E+00 0.  1.
         21    1    1    2  505  506 -0.27825383074E+02  0.19596603266E+02  0.63291679082E+02  0.71861780133E+02  0.00000000000E+00 0.  1.
         21    1    1    2  506  503  0.20285345870E+02  0.45886512908E+02 -0.31390508974E+03  0.31788908866E+03  0.00000000000E+00 0.  1.
<scales pt_clust_3="64.34234" pt_clust_4="14000.00000" pt_clust_5="34.03350" pt_clust_6="51.77002"></scales>
<clustering>
<clus scale="   34.033">  1  5  2 -1</clus>
<clus scale="   51.770">  1  6  2 -1</clus>
<clus scale="   64.342">  1  3  2 -1</clus>
<clus scale="   34.033">  1  3  2 -1</clus>
</clustering>
</event>
<event>
 6    0  0.8520634E+002  0.8731553E+02  0.7546771E-02  0.1309486E+00
         21   -1    0    0  505  501  0.00000000000E+00  0.00000000000E+00  0.41461528187E+02  0.41461528187E+02  0.00000000000E+00 0.  1.
         21   -1    0    0  504  502 -0.00000000000E+00 -0.00000000000E+00 -0.13428497769E+04  0.13428497769E+04  0.00000000000E+00 0. -1.
         21    1    1    2  503  502 -0.29677705299E+02  0.77262357888E+02 -0.84015866114E+03  0.84422557058E+03  0.00000000000E+00 0. -1.
         21    1    1    2  504  501  0.54132138880E+02  0.13895456664E+02 -0.14023613580E+03  0.15096206795E+03  0.00000000000E+00 0. -1.
         21    1    1    2  505  506 -0.36294283042E+02  0.18425013404E+02  0.85887552925E+01  0.41599553098E+02  0.00000000000E+00 0.  1.
         21    1    1    2  506  503  0.11839849461E+02 -0.10958282796E+03 -0.32958220703E+03  0.34752411343E+03  0.00000000000E+00 0.  1.
<scales pt_clust_3="14000.00000" pt_clust_4="46.70672" pt_clust_5="40.70327" pt_clust_6="87.31553"></scales>
<clustering>
<clus scale="   40.703">  1  5  2 -1</clus>
<clus scale="   46.707">  1  4  2 -1</clus>
<clus scale="   87.316">  1  6  2 -1</clus>
<clus scale="   40.703">  1  3  2 -1</clus>
</clustering>
</event>
<event>
 6    0  0.8520634E+002  0.7995670E+02  0.7546771E-02  0.1329174E+00
         21   -1    0    0  503  501  0.00000000000E+00  0.00000000000E+00  0.28471929603E+03  0.28471929603E+03  0.00000000000E+00 0. -1.
         21   -1    0    0  505  502 -0.00000000000E+00 -0.00000000000E+00 -0.19469247941E+04  0.19469247941E+04  0.00000000000E+00 0. -1.
         21    1    1    2  503  504  0.51677289621E+02 -0.24507061634E+02  0.75284958615E+02  0.94546091015E+02  0.00000000000E+00 0. -1.
         21    1    1    2  504  506  0.11486251210E+02  0.97317318306E+02  0.17177168871E+03  0.19775769884E+03  0.00000000000E+00 0. -1.
         21    1    1    2  505  501 -0.44691114419E+02 -0.28077800990E+02 -0.32560802073E+02  0.62015034049E+02  0.00000000000E+00 0. -1.
         21    1    1    2  506  502 -0.18472426411E+02 -0.44732455682E+02 -0.18767013433E+04  0.18773252662E+04  0.00000000000E+00 0. -1.
<scales pt_clust_3="57.91901" pt_clust_4="79.95670" pt_clust_5="14000.00000" pt_clust_6="48.39652"></scales>
<clustering>
<clus scale="   48.397">  2  6  1 -1</clus>
<clus scale="   57.919">  1  3  2 -1</clus>
<clus scale="   79.957">  1  4  2 -1</clus>
<clus scale="   57.919">  1  3  2 -1</clus>
</clustering>
</event>
<event>
 6    0  0.8520634E+002  0.6547668E+02  0.7546771E-02  0.1376187E+00
         21   -1    0    0  503  501  0.00000000000E+00  0.00000000000E+00  0.21158754033E+03  0.21158754033E+03  0.00000000000E+00 0.  1.
         21   -1    0    0  504  502 -0.00000000000E+00 -0.00000000000E+00 -0.24865510310E+03  0.24865510310E+03  0.00000000000E+00 0.  1.
         21    1    1    2  503  506 -0.67666641104E+01  0.64129347846E+02  0.15959739020E+03  0.17213276259E+03  0.00000000000E+00 0.  1.
         21    1    1    2  504  505  0.42125006487E+02  0.24770542888E+02 -0.21184222417E+02  0.53262249726E+02  0.00000000000E+00 0.  1.
         21    1    1    2  505  501 -0.50893859456E+02  0.18525445750E+01 -0.21162838079E+02  0.55149637962E+02  0.00000000000E+00 0.  1.
         21    1    1    2  506  502  0.15535517080E+02 -0.90752435308E+02 -0.15431789248E+03  0.17969799315E+03  0.00000000000E+00 0.  1.
<scales pt_clust_3="14000.00000" pt_clust_4="48.86815" pt_clust_5="43.75102" pt_clust_6="65.47668"></scales>
<clustering>
<clus scale="   48.868">  2  4  1 -1</clus>
<clus scale="   43.751">  2  5  1 -1</clus>
<clus scale="   65.477">  2  6  1 -1</clus>
<clus scale="   65.477">  1  3  2 -1</clus>
</clustering>
</event>
<event>
 6    0  0.8520634E+002  0.9936120E+02  0.7546771E-02  0.1281645E+00
         21   -1    0    0  503  501  0.00000000000E+00  0.00000000000E+00  0.11214397700E+03  0.11214397700E+03  0.00000000000E+00 0. -1.
         21   -1    0    0  506  502 -0.00000000000E+00 -0.00000000000E+00 -0.72316926358E+03  0.72316926358E+03  0.00000000000E+00 0. -1.
         21    1    1    2  503  504  0.24324915088E+02  0.24756307740E+02  0.24611254567E+02  0.42547504255E+02  0.00000000000E+00 0. -1.
         21    1    1    2  504  502  0.29365495114E+02  0.10336301653E+03 -0.13711215249E+03  0.17420099842E+03  0.00000000000E+00 0. -1.
         21    1    1    2  505  501  0.16585973957E+02 -0.56999456891E+02  0.39516105084E+02  0.71313078597E+02  0.00000000000E+00 0. -1.
         21    1    1    2  506  505 -0.70276384159E+02 -0.71119867375E+02 -0.53804049374E+03  0.54725165931E+03  0.00000000000E+00 0. -1.
<scales pt_clust_3="34.70701" pt_clust_4="14000.00000" pt_clust_5="51.97935" pt_clust_6="99.36120"></scales>
<clustering>
<clus scale="   34.707">  1  3  2 -1</clus>
<clus scale="   51.979">  1  5  2 -1</clus>
<clus scale="   99.361">  2  6  1 -1</clus>
<clus scale="   34.707">  1  3  2 -1</clus>
</clustering>
</event>
<event>
 6    0  0.8520634E+002  0.9459119E+02  0.7546771E-02  0.1292099E+00
         21   -1    0    0  503  501  0.00000000000E+00  0.00000000000E+00  0.44755138145E+03  0.44755138145E+03  0.00000000000E+00 0.  1.
         21   -1    0    0  505  502 -0.00000000000E+00 -0.00000000000E+00 -0.26322134608E+03  0.26322134608E+03  0.00000000000E+00 0. -1.
         21    1    1    2  503  504 -0.51035989252E+02 -0.17694065930E+02  0.10902012195E+02  0.55105408428E+02  0.00000000000E+00 0.  1.
         21    1    1    2  504  502  0.25276816322E+02  0.76729495651E+02 -0.30355804426E+02  0.86300682549E+02  0.00000000000E+00 0. -1.
         21    1    1    2  505  506  0.13917839836E+02 -0.10434846305E+03 -0.16603398050E+03  0.19659499151E+03  0.00000000000E+00 0. -1.
         21    1    1    2  506  501  0.11841333094E+02  0.45313033329E+02  0.36981780810E+03  0.37277164504E+03  0.00000000000E+00 0.  1.
<scales pt_clust_3="45.95110" pt_clust_4="14000.00000" pt_clust_5="94.59119" pt_clust_6="46.83469"></scales>
<clustering>
<clus scale="   46.835">  1  6  2 -1</clus>
<clus scale="   45.951">  1  3  2 -1</clus>
<clus scale="   94.591">  2  5  1 -1</clus>
<clus scale="   46.835">  1  3  2 -1</clus>
</clustering>
</event>
<event>
 6    0  0.8520634E+002  0.1033660E+03  0.7546771E-02  0.1273373E+00
         21   -1    0    0  505  501  0.00000000000E+00  0.00000000000E+00  0.22699752700E+03  0.22699752700E+03  0.00000000000E+00 0. -1.
         21   -1    0    0  504  502 -0.00000000000E+00 -0.00000000000E+00 -0.11780633288E+04  0.11780633288E+04  0.00000000000E+00 0. -1.
         21    1    1    2  503  501 -0.81733424653E+01 -0.31147708874E+02  0.18757568978E+03  0.19031979059E+03  0.00000000000E+00 0. -1.
         21    1    1    2  504  503  0.64218182248E+02  0.91956129002E+02 -0.90853936676E+03  0.91543633615E+03  0.00000000000E+00 0. -1.
         21    1    1    2  505  506 -0.58242998561E+02  0.31838657024E+02 -0.19449452975E+02  0.69168115368E+02  0.00000000000E+00 0.  1.
         21    1    1    2  506  502  0.21981587778E+01 -0.92647077152E+02 -0.21065267186E+03  0.23013661371E+03  0.00000000000E+00 0. -1.
<scales pt_clust_3="32.20223" pt_clust_4="14000.00000" pt_clust_5="64.61255" pt_clust_6="103.36596"></scales>
<clustering>
<clus scale="   32.202">  1  3  2 -1</clus>
<clus scale="   64.613">  1  5  2 -1</clus>
<clus scale="  103.366">  1  6  2 -1</clus>
<clus scale="   32.202">  1  3  2 -1</clus>
</clustering>
</event>
<event>
 6    0  0.8520634E+002  0.6986049E+02  0.7546771E-02  0.1360568E+00
         21   -1    0    0  505  501  0.00000000000E+00  0.00000000000E+00  0.27406004996E+04  0.27406004996E+04  0.00000000000E+00 0. -1.
         21   -1    0    0  504  502 -0.00000000000E+00 -0.00000000000E+00 -0.40639879296E+02  0.40639879296E+02  0.00000000000E+00 0. -1.
         21    1    1    2  503  502  0.38463489762E+02  0.16577747815E+02 -0.56972461200E+01  0.42269615336E+02  0.00000000000E+00 0.  1.
         21    1    1    2  504  501 -0.65095847472E+02 -0.42784785441E+02  0.30843425405E+03  0.31811899706E+03  0.00000000000E+00 0. -1.
         21    1    1    2  505  506  0.68782018408E+02 -0.20741716291E+02  0.23200833126E+04  0.23211953304E+04  0.00000000000E+00 0. -1.
         21    1    1    2  506  503 -0.42149660698E+02  0.46948753917E+02  0.77140299821E+02  0.99656436058E+02  0.00000000000E+00 0. -1.
<scales pt_clust_3="41.88391" pt_clust_4="69.86049" pt_clust_5="14000.00000" pt_clust_6="60.35511"></scales>
<clustering>
<clus scale="   41.884">  2  3  1 -1</clus>
<clus scale="   60.355">  2  6  1 -1</clus>
<clus scale="   69.860">  2  4  1 -1</clus>
<clus scale="   69.860">  1  3  2 -1</clus>
</clustering>
</event>
<event>
 6    0  0.8520634E+002  0.8960161E+02  0.7546771E-02  0.1303819E+00
         21   -1    0    0  506  501  0.00000000000E+00  0.00000000000E+00  0.57349690244E+03  0.57349690244E+03  0.00000000000E+00 0. -1.
         21   -1    0    0  504  502 -0.00000000000E+00 -0.00000000000E+00 -0.82532609070E+02  0.82532609070E+02  0.00000000000E+00 0. -1.
         21    1    1    2  503  505 -0.74682991077E+01  0.91661504373E+02  0.29952123645E+03  0.31332184405E+03  0.00000000000E+00 0. -1.
         21    1    1    2  504  501 -0.26894480402E+02 -0.13311996844E+02 -0.35438335255E+02  0.46437032008E+02  0.00000000000E+00 0. -1.
         21    1    1    2  505  502  0.88384827274E+02 -0.54204749851E+02  0.61332549285E+02  0.12046457654E+03  0.00000000000E+00 0.  1.
         21    1    1    2  506  503 -0.54022047765E+02 -0.24144757677E+02  0.16554884290E+03  0.17580605892E+03  0.00000000000E+00 0. -1.
<scales pt_clust_3="14000.00000" pt_clust_4="30.00870" pt_clust_5="89.60161" pt_clust_6="62.86956"></scales>
<clustering>
<clus scale="   30.009">  2  4  1 -1</clus>
<clus scale="   62.870">  1  6  2 -1</clus>
<clus scale="   89.602">  2  5  1 -1</clus>
<clus scale="   62.870">  1  3  2 -1</clus>
</clustering>
</event>
<event>
 6    0  0.8520634E+002  0.8726891E+02  0.7546771E-02  0.1309604E+00
         21   -1    0    0  506  501  0.00000000000E+00  0.00000000000E+00  0.38188451410E+03  0.38188451410E+03  0.00000000000E+00 0. -1.
         21   -1    0    0  503  502 -0.00000000000E+00 -0.00000000000E+00 -0.30578130648E+03  0.30578130648E+03  0.00000000000E+00 0. -1.
         21    1    1    2  503  501  0.33004782838E+02  0.10612962403E+03  0.14238918139E+02  0.11205159337E+03  0.00000000000E+00 0. -1.
         21    1    1    2  504  502 -0.24604811443E+02 -0.80768703256E+02 -0.23011742661E+03  0.24511835958E+03  0.00000000000E+00 0. -1.
         21    1    1    2  505  504 -0.32535556342E+02 -0.67250405955E+02  0.66909239287E+02  0.10028970949E+03  0.00000000000E+00 0. -1.
         21    1    1    2  506  505  0.24135584947E+02  0.41889485181E+02  0.22507247681E+03  0.23020615814E+03  0.00000000000E+00 0. -1.
<scales pt_clust_3="14000.00000" pt_clust_4="87.26891" pt_clust_5="48.60943" pt_clust_6="48.34517"></scales>
<clustering>
<clus scale="   48.345">  1  6  2 -1</clus>
<clus scale="   48.609">  1  5  2 -1</clus>
<clus scale="   87.269">  2  4  1 -1</clus>
<clus scale="   48.345">  1  3  2 -1</clus>
</clustering>
</event>
<event>
 6    0  0.8520634E+002  0.1152468E+03  0.7546771E-02  0.1251151E+00
         21   -1    0    0  504  501  0.00000000000E+00  0.00000000000E+00  0.11134016619E+03  0.11134016619E+03  0.00000000000E+00 0. -1.
         21   -1    0    0  506  502 -0.00000000000E+00 -0.00000000000E+00 -0.22445883700E+04  0.22445883700E+04  0.00000000000E+00 0.  1.
         21    1    1    2  503  501  0.15134145609E+02 -0.32603552437E+02  0.76732473621E+02  0.84734328951E+02  0.00000000000E+00 0. -1.
         21    1    1    2  504  502  0.38572452975E+01 -0.31735469764E+02 -0.41966622008E+03  0.42088211492E+03  0.00000000000E+00 0.  1.
         21    1    1    2  505  503  0.85259868857E+02 -0.27567313243E+02 -0.46471091523E+02  0.10093940927E+03  0.00000000000E+00 0. -1.
         21    1    1    2  506  505 -0.10425125976E+03  0.91906335444E+02 -0.17438433658E+04  0.17493726830E+04  0.00000000000E+00 0.  1.
<scales pt_clust_3="36.01157" pt_clust_4="31.96902" pt_clust_5="115.24677" pt_clust_6="14000.00000"></scales>
<clustering>
<clus scale="   31.969">  2  4  1 -1</clus>
<clus scale="   36.012">  1  3  2 -1</clus>
<clus scale="  115.247">  1  5  2 -1</clus>
<clus scale="   36.012">  1  3  2 -1</clus>
</clustering>
</event>
<event>
 6    0  0.8520634E+002  0.1369201E+03  0.7546771E-02  0.1217534E+00
         21   -1    0    0  504  501  0.00000000000E+00  0.00000000000E+00  0.25658824767E+02  0.25658824767E+02  0.00000000000E+00 0.  1.
         21   -1    0    0  505  502 -0.00000000000E+00 -0.00000000000E+00 -0.25767275693E+04  0.25767275693E+04  0.00000000000E+00 0.  1.
         21    1    1    2  503  501  0.55846836655E+02 -0.42676841108E+02 -0.87762584084E+02  0.11243866371E+03  0.00000000000E+00 0.  1.
         21    1    1    2  504  502 -0.59976580578E+02  0.15817328240E+03 -0.96345415659E+03  0.97819215358E+03  0.00000000000E+00 0.  1.
         21    1    1    2  505  506 -0.56890465716E+01 -0.63660060596E+02 -0.13714350277E+04  0.13729235244E+04  0.00000000000E+00 0. -1.
         21    1    1    2  506  503  0.98187904945E+01 -0.51836380692E+02 -0.12841697619E+03  0.13883205243E+03  0.00000000000E+00 0.  1.
<scales pt_clust_3="48.69221" pt_clust_4="124.85376" pt_clust_5="63.91376" pt_clust_6="48.69221"></scales>
<clustering>
<clus scale="   48.692">  3  6 -1 -1</clus>
<clus scale="   63.914">  2  5  1 -1</clus>
<clus scale="  124.854">  2  4  1 -1</clus>
<clus scale="  136.920">  1  3  2 -1</clus>
</clustering>
</event>
<event>
 6    0  0.8520634E+002  0.1134076E+03  0.7546771E-02  0.1254387E+00
         21   -1    0    0  505  501  0.00000000000E+00  0.00000000000E+00  0.12318873596E+03  0.12318873596E+03  0.00000000000E+00 0. -1.
         21   -1    0    0  506  502 -0.00000000000E+00 -0.00000000000E+00 -0.22539893340E+03  0.22539893340E+03  0.00000000000E+00 0.  1.
         21    1    1    2  503  502 -0.24739928034E+02 -0.39794135444E+02 -0.32287327243E+02  0.56904382567E+02  0.00000000000E+00 0. -1.
         21    1    1    2  504  503 -0.62836385445E+02 -0.20785676477E+02 -0.11761424557E+03  0.13495764685E+03  0.00000000000E+00 0.  1.
         21    1    1    2  505  504  0.42682934517E+01  0.56551352026E+02 -0.67685845741E+01  0.57114687096E+02  0.00000000000E+00 0.  1.
         21    1    1    2  506  501  0.83308020027E+02  0.40284598953E+01  0.54459959951E+02  0.99610952850E+02  0.00000000000E+00 0. -1.
<scales pt_clust_3="46.09414" pt_clust_4="46.09414" pt_clust_5="56.71220" pt_clust_6="99.29878"></scales>
<clustering>
<clus scale="   46.094">  3  4 -1 -1</clus>
<clus scale="   56.712">  1  5  2 -1</clus>
<clus scale="   99.299">  1  6  2 -1</clus>
<clus scale="   56.712">  1  3  2 -1</clus>
</clustering>
</event>
<event>
 6    0  0.8520634E+002  0.1247885E+03  0.7546771E-02  0.1235400E+00
         21   -1    0    0  503  501  0.00000000000E+00  0.00000000000E+00  0.87989303072E+03  0.87989303072E+03  0.00000000000E+00 0.  1.
         21   -1    0    0  505  502 -0.00000000000E+00 -0.00000000000E+00 -0.31734649980E+03  0.31734649980E+03  0.00000000000E+00 0.  1.
         21    1    1    2  503  504  0.83756425176E+02  0.82318089463E+01  0.20737994933E+03  0.22380648968E+03  0.00000000000E+00 0.  1.
         21    1    1    2  504  502  0.73726430996E+02  0.19213875839E+02 -0.25195827897E+03  0.26322563324E+03  0.00000000000E+00 0.  1.
         21    1    1    2  505  506 -0.13343885417E+03 -0.12752279177E+03  0.13942554383E+03  0.23131682277E+03  0.00000000000E+00 0.  1.
         21    1    1    2  506  501 -0.24044002001E+02  0.10007710699E+03  0.46769931673E+03  0.47889058483E+03  0.00000000000E+00 0.  1.
<scales pt_clust_3="94.51759" pt_clust_4="76.18897" pt_clust_5="124.78847" pt_clust_6="14000.00000"></scales>
<clustering>
<clus scale="   76.189">  2  4  1 -1</clus>
<clus scale="   94.518">  1  3  2 -1</clus>
<clus scale="  124.788">  2  5  1 -1</clus>
<clus scale="   94.518">  1  3  2 -1</clus>
</clustering>
</event>
<event>
 6    0  0.8520634E+002  0.1693904E+03  0.7546771E-02  0.1178485E+00
         21   -1    0    0  504  501  0.00000000000E+00  0.00000000000E+00  0.36536364338E+03  0.36536364338E+03  0.00000000000E+00 0.  1.
         21   -1    0    0  503  502 -0.00000000000E+00 -0.00000000000E+00 -0.54082304971E+03  0.54082304971E+03  0.00000000000E+00 0.  1.
         21    1    1    2  503  506 -0.23210341189E+03 -0.48132256159E+02 -0.71743800848E+01  0.23715012044E+03  0.00000000000E+00 0.  1.
         21    1    1    2  504  505  0.12391648327E+03  0.54834862801E+02 -0.16302491416E+03  0.21198886678E+03  0.00000000000E+00 0. -1.
         21    1    1    2  505  502  0.30151848200E+02  0.32849561681E+01 -0.22324751356E+03  0.22529841809E+03  0.00000000000E+00 0.  1.
         21    1    1    2  506  501  0.78035080421E+02 -0.99875628097E+01  0.21798740147E+03  0.23174928778E+03  0.00000000000E+00 0.  1.
<scales pt_clust_3="169.39035" pt_clust_4="14000.00000" pt_clust_5="30.33026" pt_clust_6="79.31283"></scales>
<clustering>
<clus scale="   30.330">  2  5  1 -1</clus>
<clus scale="   79.313">  1  6  2 -1</clus>
<clus scale="  169.390">  1  3  2 -1</clus>
<clus scale="   79.313">  1  3  2 -1</clus>
</clustering>
</event>
<event>
 6    0  0.9170644E+002  0.1068897E+03  0.7546771E-02  0.1266441E+00
         21   -1    0    0  502  501  0.00000000000E+00  0.00000000000E+00  0.15325584631E+03  0.15325584631E+03  0.00000000000E+00 0. -1.
         21   -1    0    0  506  502 -0.00000000000E+00 -0.00000000000E+00 -0.15609347305E+04  0.15609347305E+04  0.00000000000E+00 0. -1.
         21    1    1    2  503  501 -0.37784149951E+02 -0.40204198696E+02  0.74169250067E+02  0.92439695130E+02  0.00000000000E+00 0. -1.
         21    1    1    2  504  503 -0.53752179418E+02  0.33296920390E+02  0.19334258612E+02  0.66119552749E+02  0.00000000000E+00 0. -1.
         21    1    1    2  505  504  0.10916154966E+01  0.37806682185E+02  0.11809764390E+02  0.39623318604E+02  0.00000000000E+00 0. -1.
         21    1    1    2  506  505  0.90444713873E+02 -0.30899403879E+02 -0.15129921572E+04  0.15160080103E+04  0.00000000000E+00 0. -1.
<scales pt_clust_3="55.17263" pt_clust_4="37.75318" pt_clust_5="37.75318" pt_clust_6="95.09289"></scales>
<clustering>
<clus scale="   37.753">  4  5 -1 -1</clus>
<clus scale="   55.173">  1  3  2 -1</clus>
<clus scale="   95.093">  2  6  1 -1</clus>
<clus scale="   55.173">  1  3  2 -1</clus>
</clustering>
</event>
<event>
 6    0  0.8520634E+002  0.1946647E+03  0.7546771E-02  0.1154320E+00
         21   -1    0    0  505  501  0.00000000000E+00  0.00000000000E+00  0.39867596227E+03  0.39867596227E+03  0.00000000000E+00 0. -1.
         21   -1    0    0  506  502 -0.00000000000E+00 -0.00000000000E+00 -0.13444249665E+04  0.13444249665E+04  0.00000000000E+00 0. -1.
         21    1    1    2  503  501 -0.16027033635E+02  0.95765063253E+02  0.32334172356E+03  0.33760581059E+03  0.00000000000E+00 0. -1.
         21    1    1    2  504  502 -0.18580141593E+03 -0.60915552269E+02 -0.87319517933E+03  0.89481992148E+03  0.00000000000E+00 0. -1.
         21    1    1    2  505  504 -0.15108412017E+02  0.61157899013E+02 -0.19844906069E+02  0.66048262825E+02  0.00000000000E+00 0. -1.
         21    1    1    2  506  503  0.21693686158E+03 -0.96007409997E+02 -0.37605064239E+03  0.44462693388E+03  0.00000000000E+00 0. -1.
<scales pt_clust_3="152.42562" pt_clust_4="14000.00000" pt_clust_5="62.99645" pt_clust_6="194.66465"></scales>
<clustering>
<clus scale="   62.996">  1  5  2 -1</clus>
<clus scale="  152.426">  1  3  2 -1</clus>
<clus scale="  194.665">  1  6  2 -1</clus>
<clus scale="   62.996">  1  3  2 -1</clus>
</clustering>
</event>
<event>
 6    0  0.8520634E+002  0.1426319E+03  0.7546771E-02  0.1209831E+00
         21   -1    0    0  504  501  0.00000000000E+00  0.00000000000E+00  0.18372324751E+04  0.18372324751E+04  0.00000000000E+00 0. -1.
         21   -1    0    0  503  502 -0.00000000000E+00 -0.00000000000E+00 -0.66553637712E+03  0.66553637712E+03  0.00000000000E+00 0. -1.
         21    1    1    2  503  501  0.77797519888E+01  0.14606913060E+03  0.13187632806E+03  0.19694689984E+03  0.00000000000E+00 0. -1.
         21    1    1    2  504  505 -0.66861915668E+02 -0.18038336077E+01  0.16316045237E+04  0.16329749206E+04  0.00000000000E+00 0. -1.
         21    1    1    2  505  506 -0.25436598582E+02 -0.12703011571E+03 -0.76625644371E+02  0.15051631214E+03  0.00000000000E+00 0.  1.
         21    1    1    2  506  502  0.84518762261E+02 -0.17235181285E+02 -0.51515910941E+03  0.52233071962E+03  0.00000000000E+00 0. -1.
<scales pt_clust_3="14000.00000" pt_clust_4="66.88624" pt_clust_5="142.63191" pt_clust_6="85.11863"></scales>
<clustering>
<clus scale="   66.886">  1  4  2 -1</clus>
<clus scale="   85.119">  2  6  1 -1</clus>
<clus scale="  142.632">  2  5  1 -1</clus>
<clus scale="   66.886">  1  3  2 -1</clus>
</clustering>
</event>
<event>
 6    0  0.8520634E+002  0.7562161E+02  0.7546771E-02  0.1341957E+00
         21   -1    0    0  503  501  0.00000000000E+00  0.00000000000E+00  0.10673266263E+04  0.10673266263E+04  0.00000000000E+00 0.  1.
         21   -1    0    0  505  502 -0.00000000000E+00 -0.00000000000E+00 -0.17702831587E+03  0.17702831587E+03  0.00000000000E+00 0. -1.
         21    1    1    2  503  506 -0.10706709821E+03  0.80725351699E+01  0.93454355368E+03  0.94069133252E+03  0.00000000000E+00 0.  1.
         21    1    1    2  504  501  0.36749667132E+02  0.87893349180E+01  0.73426590335E+02  0.82578778212E+02  0.00000000000E+00 0.  1.
         21    1    1    2  505  504 -0.22610223029E+02 -0.41082030053E+02 -0.11591026229E+03  0.12503657178E+03  0.00000000000E+00 0. -1.
         21    1    1    2  506  502  0.92927654103E+02  0.24220159965E+02 -0.17615713237E+01  0.96048259637E+02  0.00000000000E+00 0.  1.
<scales pt_clust_3="75.62161" pt_clust_4="37.78611" pt_clust_5="46.77595" pt_clust_6="14000.00000"></scales>
<clustering>
<clus scale="   37.786">  1  4  2 -1</clus>
<clus scale="   46.776">  2  5  1 -1</clus>
<clus scale="   75.622">  1  3  2 -1</clus>
<clus scale="   37.786">  1  3  2 -1</clus>
</clustering>
</event>
<event>
 6    0  0.8520634E+002  0.7735898E+02  0.7546771E-02  0.1336718E+00
         21   -1    0    0  503  501  0.00000000000E+00  0.00000000000E+00  0.63012110127E+03  0.63012110127E+03  0.00000000000E+00 0.  1.
         21   -1    0    0  506  502 -0.00000000000E+00 -0.00000000000E+00 -0.27285654761E+04  0.27285654761E+04  0.00000000000E+00 0.  1.
         21    1    1    2  503  505  0.18373634646E+02 -0.71466065831E+02  0.37496927898E+03  0.38216089438E+03  0.00000000000E+00 0.  1.
         21    1    1    2  504  501  0.16325604667E+02  0.89770991788E+02  0.23888175192E+03  0.25571438703E+03  0.00000000000E+00 0.  1.
         21    1    1    2  505  502 -0.16571821399E+02 -0.74611353012E+02 -0.24775228791E+04  0.24787014938E+04  0.00000000000E+00 0.  1.
         21    1    1    2  506  504 -0.18127417914E+02  0.56306427054E+02 -0.23477252666E+03  0.24210980212E+03  0.00000000000E+00 0. -1.
<scales pt_clust_3="14000.00000" pt_clust_4="77.35898" pt_clust_5="39.28186" pt_clust_6="59.15249"></scales>
<clustering>
<clus scale="   59.152">  2  6  1 -1</clus>
<clus scale="   39.282">  2  5  1 -1</clus>
<clus scale="   77.359">  2  4  1 -1</clus>
<clus scale="   77.359">  1  3  2 -1</clus>
</clustering>
</event>
<event>
 6    0  0.8520634E+002  0.1710415E+03  0.7546771E-02  0.1176766E+00
         21   -1    0    0  506  501  0.00000000000E+00  0.00000000000E+00  0.24124898035E+03  0.24124898035E+03  0.00000000000E+00 0. -1.
         21   -1    0    0  504  502 -0.00000000000E+00 -0.00000000000E+00 -0.52932032660E+03  0.52932032660E+03  0.00000000000E+00 0.  1.
         21    1    1    2  503  505  0.11414377286E+03  0.62944537556E+02 -0.46128075186E+02  0.13827007995E+03  0.00000000000E+00 0. -1.
         21    1    1    2  504  503  0.43003121942E+02 -0.99061529825E+02 -0.37370461776E+03  0.38899562533E+03  0.00000000000E+00 0.  1.
         21    1    1    2  505  501  0.12422142802E+02  0.31007718376E+02  0.11391585425E+02  0.35292441813E+02  0.00000000000E+00 0. -1.
         21    1    1    2  506  502 -0.16956903760E+03  0.51092738931E+01  0.12036976127E+03  0.20801115985E+03  0.00000000000E+00 0. -1.
<scales pt_clust_3="32.30071" pt_clust_4="107.99285" pt_clust_5="32.30071" pt_clust_6="158.69412"></scales>
<clustering>
<clus scale="   32.301">  3  5 -1 -1</clus>
<clus scale="  107.993">  2  4  1 -1</clus>
<clus scale="  158.694">  1  6  2 -1</clus>
<clus scale="  158.694">  1  3  2 -1</clus>
</clustering>
</event>
<event>
 6    0  0.8520634E+002  0.1494816E+03  0.7546771E-02  0.1201111E+00
         21   -1    0    0  505  501  0.00000000000E+00  0.00000000000E+00  0.80353984519E+03  0.80353984519E+03  0.00000000000E+00 0.  1.
         21   -1    0    0  504  502 -0.00000000000E+00 -0.00000000000E+00 -0.91483546137E+03  0.91483546137E+03  0.00000000000E+00 0.  1.
         21    1    1    2  503  502  0.10106673106E+03 -0.11556481306E+03 -0.87970118259E+03  0.89299713370E+03  0.00000000000E+00 0.  1.
         21    1    1    2  504  506  0.24001668911E+02  0.76330990987E+02  0.24385716459E+03  0.25664921005E+03  0.00000000000E+00 0.  1.
         21    1    1    2  505  503 -0.91734575696E+02  0.29899864578E+02  0.87314980451E+02  0.13012739946E+03  0.00000000000E+00 0.  1.
         21    1    1    2  506  501 -0.33333824275E+02  0.93339574949E+01  0.43723342137E+03  0.43860156334E+03  0.00000000000E+00 0.  1.
<scales pt_clust_3="14000.00000" pt_clust_4="82.72820" pt_clust_5="149.48157" pt_clust_6="34.61599"></scales>
<clustering>
<clus scale="   34.616">  1  6  2 -1</clus>
<clus scale="   82.728">  1  4  2 -1</clus>
<clus scale="  149.482">  1  5  2 -1</clus>
<clus scale="   34.616">  1  3  2 -1</clus>
</clustering>
</event>
<event>
 6    0  0.8520634E+002  0.6490615E+02  0.7546771E-02  0.1378325E+00
         21   -1    0    0  504  501  0.00000000000E+00  0.00000000000E+00  0.43504856861E+03  0.43504856861E+03  0.00000000000E+00 0. -1.
         21   -1    0    0  505  502 -0.00000000000E+00 -0.00000000000E+00 -0.99542280718E+02  0.99542280718E+02  0.00000000000E+00 0. -1.
         21    1    1    2  503  502 -0.49729709879E+02  0.38683517510E+02 -0.49174180122E+02  0.79922203187E+02  0.00000000000E+00 0. -1.
         21    1    1    2  504  506  0.39919716960E+02 -0.25793348287E+02  0.24377146075E+03  0.24836144164E+03  0.00000000000E+00 0. -1.
         21    1    1    2  505  501 -0.56653894738E+02  0.31392357269E+02  0.34879490860E+02  0.73564412364E+02  0.00000000000E+00 0. -1.
         21    1    1    2  506  503  0.66463887657E+02 -0.44282526492E+02  0.10602951640E+03  0.13274279213E+03  0.00000000000E+00 0. -1.
<scales pt_clust_3="64.90615" pt_clust_4="47.52768" pt_clust_5="51.17299" pt_clust_6="14000.00000"></scales>
<clustering>
<clus scale="   47.528">  1  4  2 -1</clus>
<clus scale="   51.173">  1  5  2 -1</clus>
<clus scale="   64.906">  2  3  1 -1</clus>
<clus scale="   47.528">  1  3  2 -1</clus>
</clustering>
</event>
<event>
 6    0  0.8520634E+002  0.6651393E+02  0.7546771E-02  0.1372366E+00
         21   -1    0    0  504  501  0.00000000000E+00  0.00000000000E+00  0.54454828560E+03  0.54454828560E+03  0.00000000000E+00 0.  1.
         21   -1    0    0  503  502 -0.00000000000E+00 -0.00000000000E+00 -0.17483829616E+03  0.17483829616E+03  0.00000000000E+00 0.  1.
         21    1    1    2  503  505 -0.30857306340E+02 -0.33559136822E+02 -0.96078426262E+02  0.10634591206E+03  0.00000000000E+00 0.  1.
         21    1    1    2  504  506  0.28824973526E+02  0.59088327704E+02  0.40858041282E+03  0.41383603433E+03  0.00000000000E+00 0.  1.
         21    1    1    2  505  501  0.55952299387E+02  0.41120463180E+02  0.84375146005E+02  0.10927359042E+03  0.00000000000E+00 0.  1.
         21    1    1    2  506  502 -0.53919966574E+02 -0.66649654062E+02 -0.27167143120E+02  0.89931044958E+02  0.00000000000E+00 0.  1.
<scales pt_clust_3="45.58935" pt_clust_4="14000.00000" pt_clust_5="61.89051" pt_clust_6="66.51393"></scales>
<clustering>
<clus scale="   45.589">  2  3  1 -1</clus>
<clus scale="   61.891">  2  5  1 -1</clus>
<clus scale="   66.514">  2  6  1 -1</clus>
<clus scale="   66.514">  1  3  2 -1</clus>
</clustering>
</event>
<event>
 6    0  0.8520634E+002  0.8055735E+02  0.7546771E-02  0.1327477E+00
         21   -1    0    0  506  501  0.00000000000E+00  0.00000000000E+00  0.21526654558E+04  0.21526654558E+04  0.00000000000E+00 0.  1.
         21   -1    0    0  505  502 -0.00000000000E+00 -0.00000000000E+00 -0.21398988937E+03  0.21398988937E+03  0.00000000000E+00 0.  1.
         21    1    1    2  503  504 -0.66076110023E+01 -0.60741449710E+02  0.28335182905E+02  0.67350329074E+02  0.00000000000E+00 0.  1.
         21    1    1    2  504  502 -0.40683571592E+02  0.20084377505E+02 -0.97438982287E+02  0.10748437322E+03  0.00000000000E+00 0.  1.
         21    1    1    2  505  501  0.10659719684E+03 -0.13766504026E+02 -0.59582446280E+02  0.12289242008E+03  0.00000000000E+00 0.  1.
         21    1    1    2  506  503 -0.59306014249E+02  0.54423576232E+02  0.20673618121E+04  0.20689282228E+04  0.00000000000E+00 0.  1.
<scales pt_clust_3="58.85095" pt_clust_4="45.37108" pt_clust_5="80.55735" pt_clust_6="14000.00000"></scales>
<clustering>
<clus scale="   45.371">  2  4  1 -1</clus>
<clus scale="   58.851">  2  3  1 -1</clus>
<clus scale="   80.557">  2  5  1 -1</clus>
<clus scale="   80.557">  1  3  2 -1</clus>
</clustering>
</event>
<event>
 6    0  0.8520634E+002  0.1279050E+03  0.7546771E-02  0.1230598E+00
         21   -1    0    0  503  501  0.00000000000E+00  0.00000000000E+00  0.38290116731E+03  0.38290116731E+03  0.00000000000E+00 0. -1.
         21   -1    0    0  504  502 -0.00000000000E+00 -0.00000000000E+00 -0.10984617522E+03  0.10984617522E+03  0.00000000000E+00 0. -1.
         21    1    1    2  503  502 -0.38983562031E+02 -0.30098674620E+02  0.87990194375E+02  0.10083611768E+03  0.00000000000E+00 0. -1.
         21    1    1    2  504  505 -0.48303521196E+02  0.11951445891E+03 -0.21142493527E+02  0.13062902082E+03  0.00000000000E+00 0. -1.
         21    1    1    2  505  506  0.60368878234E+02 -0.10994986518E+03  0.14858871117E+03  0.19445302620E+03  0.00000000000E+00 0. -1.
         21    1    1    2  506  501  0.26918204993E+02  0.20534080888E+02  0.57618580079E+02  0.66829177821E+02  0.00000000000E+00 0. -1.
<scales pt_clust_3="39.28323" pt_clust_4="127.90499" pt_clust_5="14000.00000" pt_clust_6="33.85614"></scales>
<clustering>
<clus scale="   33.856">  1  6  2 -1</clus>
<clus scale="   39.283">  1  3  2 -1</clus>
<clus scale="  127.905">  2  4  1 -1</clus>
<clus scale="   33.856">  1  3  2 -1</clus>
</clustering>
</event>
<event>
 6    0  0.8520634E+002  0.1344531E+03  0.7546771E-02  0.1220994E+00
         21   -1    0    0  505  501  0.00000000000E+00  0.00000000000E+00  0.89125972326E+03  0.89125972326E+03  0.00000000000E+00 0. -1.
         21   -1    0    0  503  502 -0.00000000000E+00 -0.00000000000E+00 -0.27961559852E+03  0.27961559852E+03  0.00000000000E+00 0. -1.
         21    1    1    2  503  506  0.96240307298E+02 -0.90007275358E+02 -0.21498633606E+03  0.25215596574E+03  0.00000000000E+00 0. -1.
         21    1    1    2  504  501  0.84526537971E+02  0.18030601819E+01  0.39314480610E+03  0.40213284523E+03  0.00000000000E+00 0. -1.
         21    1    1    2  505  502 -0.42051010199E+02  0.61563167930E+01  0.31169577630E+03  0.31457979060E+03  0.00000000000E+00 0. -1.
         21    1    1    2  506  504 -0.13871583507E+03  0.82047898383E+02  0.12178987840E+03  0.20200672021E+03  0.00000000000E+00 0. -1.
<scales pt_clust_3="14000.00000" pt_clust_4="55.93019" pt_clust_5="42.49927" pt_clust_6="134.45313"></scales>
<clustering>
<clus scale="   42.499">  1  5  2 -1</clus>
<clus scale="   55.930">  1  4  2 -1</clus>
<clus scale="  134.453">  1  6  2 -1</clus>
<clus scale="   42.499">  1  3  2 -1</clus>
</clustering>
</event>
<event>
 6    0  0.8520634E+002  0.1277820E+03  0.7546771E-02  0.1230785E+00
         21   -1    0    0  506  501  0.00000000000E+00  0.00000000000E+00  0.37465098825E+03  0.37465098825E+03  0.00000000000E+00 0. -1.
         21   -1    0    0  503  502 -0.00000000000E+00 -0.00000000000E+00 -0.12586301844E+04  0.12586301844E+04  0.00000000000E+00 0.  1.
         21    1    1    2  503  501 -0.11512442534E+03 -0.30569684209E+01 -0.71503406874E+02  0.13555705648E+03  0.00000000000E+00 0. -1.
         21    1    1    2  504  502  0.32196429139E+02  0.19491853637E+02 -0.88349560262E+02  0.96032219625E+02  0.00000000000E+00 0. -1.
         21    1    1    2  505  504  0.68827379603E+02  0.11085858621E+03 -0.10466071341E+04  0.10547100680E+04  0.00000000000E+00 0.  1.
         21    1    1    2  506  505  0.14100616600E+02 -0.12729347142E+03  0.32248090506E+03  0.34698182861E+03  0.00000000000E+00 0. -1.
<scales pt_clust_3="112.27459" pt_clust_4="37.63698" pt_clust_5="127.78195" pt_clust_6="14000.00000"></scales>
<clustering>
<clus scale="   37.637">  2  4  1 -1</clus>
<clus scale="  112.275">  2  3  1 -1</clus>
<clus scale="  127.782">  2  5  1 -1</clus>
<clus scale="  127.782">  1  3  2 -1</clus>
</clustering>
</event>
<event>
 6    0  0.8520634E+002  0.1288402E+03  0.7546771E-02  0.1229187E+00
         21   -1    0    0  504  501  0.00000000000E+00  0.00000000000E+00  0.31586428550E+03  0.31586428550E+03  0.00000000000E+00 0.  1.
         21   -1    0    0  506  502 -0.00000000000E+00 -0.00000000000E+00 -0.28303637150E+03  0.28303637150E+03  0.00000000000E+00 0.  1.
         21    1    1    2  503  505 -0.10611778052E+03 -0.81572355956E+01 -0.67042947324E+02  0.12578664723E+03  0.00000000000E+00 0.  1.
         21    1    1    2  504  502  0.14636679180E+03  0.98755035067E+02  0.19594274581E+03  0.26376003171E+03  0.00000000000E+00 0.  1.
         21    1    1    2  505  501 -0.43876045653E+02 -0.15903578974E+02  0.35077464093E+02  0.58382015154E+02  0.00000000000E+00 0. -1.
         21    1    1    2  506  503  0.36270343752E+01 -0.74694220498E+02 -0.13114934858E+03  0.15097196291E+03  0.00000000000E+00 0.  1.
<scales pt_clust_3="128.84021" pt_clust_4="14000.00000" pt_clust_5="46.66938" pt_clust_6="75.30676"></scales>
<clustering>
<clus scale="   46.669">  1  5  2 -1</clus>
<clus scale="   75.307">  2  6  1 -1</clus>
<clus scale="  128.840">  2  3  1 -1</clus>
<clus scale="   46.669">  1  3  2 -1</clus>
</clustering>
</event>
<event>
 6    0  0.8520634E+002  0.8532458E+02  0.7546771E-02  0.1314586E+00
         21   -1    0    0  503  501  0.00000000000E+00  0.00000000000E+00  0.25746448737E+03  0.25746448737E+03  0.00000000000E+00 0. -1.
         21   -1    0    0  504  502 -0.00000000000E+00 -0.00000000000E+00 -0.15591613320E+03  0.15591613320E+03  0.00000000000E+00 0. -1.
         21    1    1    2  503  505 -0.53281573581E+02 -0.60241410196E+02  0.88570119530E+02  0.11963536124E+03  0.00000000000E+00 0. -1.
         21    1    1    2  504  501 -0.20859134330E+02  0.12668312740E+03  0.63991700926E+02  0.14345262646E+03  0.00000000000E+00 0. -1.
         21    1    1    2  505  506  0.73917034886E+02 -0.16025374059E+02  0.39130441823E+01  0.75735411631E+02  0.00000000000E+00 0.  1.
         21    1    1    2  506  502  0.22367302408E+00 -0.50416343144E+02 -0.54926510465E+02  0.74557221230E+02  0.00000000000E+00 0. -1.
<scales pt_clust_3="14000.00000" pt_clust_4="85.32458" pt_clust_5="82.24569" pt_clust_6="50.41684"></scales>
<clustering>
<clus scale="   50.417">  2  6  1 -1</clus>
<clus scale="   82.246">  2  5  1 -1</clus>
<clus scale="   85.325">  2  4  1 -1</clus>
<clus scale="   85.325">  1  3  2 -1</clus>
</clustering>
</event>
<event>
 6    0  0.1062940E+003  0.1477678E+03  0.7546771E-02  0.1203243E+00
         21   -1    0    0  505  501  0.00000000000E+00  0.00000000000E+00  0.92023194202E+03  0.92023194202E+03  0.00000000000E+00 0.  1.
         21   -1    0    0  506  502 -0.00000000000E+00 -0.00000000000E+00 -0.27681953803E+03  0.27681953803E+03  0.00000000000E+00 0.  1.
         21    1    1    2  503  502 -0.39512349321E+02  0.22700257338E+01 -0.19789730553E+03  0.20181606056E+03  0.00000000000E+00 0.  1.
         21    1    1    2  504  503  0.62916629930E+02  0.31789384116E+01  0.25756548782E+03  0.26515766722E+03  0.00000000000E+00 0.  1.
         21    1    1    2  505  504  0.78550525912E+02  0.21002181550E+02  0.61488727463E+03  0.62023998360E+03  0.00000000000E+00 0.  1.
         21    1    1    2  506  501 -0.10195480652E+03 -0.26451145696E+02 -0.31143052933E+02  0.10983776867E+03  0.00000000000E+00 0.  1.
<scales pt_clust_3="39.57750" pt_clust_4="40.57749" pt_clust_5="40.57749" pt_clust_6="140.27767"></scales>
<clustering>
<clus scale="   39.578">  2  3  1 -1</clus>
<clus scale="   40.577">  4  5 -1 -1</clus>
<clus scale="  140.278">  2  6  1 -1</clus>
<clus scale="  147.768">  1  3  2 -1</clus>
</clustering>
</event>
<event>
 6    0  0.8520634E+002  0.8021787E+02  0.7546771E-02  0.1328434E+00
         21   -1    0    0  505  501  0.00000000000E+00  0.00000000000E+00  0.14864327064E+03  0.14864327064E+03  0.00000000000E+00 0.  1.
         21   -1    0    0  503  502 -0.00000000000E+00 -0.00000000000E+00 -0.28482467456E+03  0.28482467456E+03  0.00000000000E+00 0.  1.
         21    1    1    2  503  504  0.34186755709E+02  0.20342564349E+02 -0.29306388959E+02  0.49410713656E+02  0.00000000000E+00 0. -1.
         21    1    1    2  504  506  0.36555160447E+02  0.46695132036E+02  0.45485264406E+02  0.74737034924E+02  0.00000000000E+00 0.  1.
         21    1    1    2  505  502 -0.10115029416E+03 -0.69291718797E+02 -0.21053751648E+03  0.24363655339E+03  0.00000000000E+00 0.  1.
         21    1    1    2  506  501  0.30408378009E+02  0.22540224126E+01  0.58177237115E+02  0.65683643234E+02  0.00000000000E+00 0.  1.
<scales pt_clust_3="42.97327" pt_clust_4="80.21787" pt_clust_5="14000.00000" pt_clust_6="30.49180"></scales>
<clustering>
<clus scale="   30.492">  1  6  2 -1</clus>
<clus scale="   42.973">  2  3  1 -1</clus>
<clus scale="   80.218">  1  4  2 -1</clus>
<clus scale="   30.492">  1  3  2 -1</clus>
</clustering>
</event>
<event>
 6    0  0.8520634E+002  0.8095150E+02  0.7546771E-02  0.1326373E+00
         21   -1    0    0  505  501  0.00000000000E+00  0.00000000000E+00  0.11382640413E+03  0.11382640413E+03  0.00000000000E+00 0. -1.
         21   -1    0    0  503  502 -0.00000000000E+00 -0.00000000000E+00 -0.43039594455E+03  0.43039594455E+03  0.00000000000E+00 0. -1.
         21    1    1    2  503  504  0.12392242514E+02 -0.10859076880E+03  0.40938065031E+01  0.10937221765E+03  0.00000000000E+00 0. -1.
         21    1    1    2  504  501  0.35773064578E+02  0.12314190524E+02  0.29476868490E+02  0.47960788291E+02  0.00000000000E+00 0. -1.
         21    1    1    2  505  506 -0.13952708140E+02  0.53808527977E+02 -0.32065551507E+02  0.64173478486E+02  0.00000000000E+00 0. -1.
         21    1    1    2  506  502 -0.34212598952E+02  0.42468050296E+02 -0.31807466390E+03  0.32271586425E+03  0.00000000000E+00 0. -1.
<scales pt_clust_3="14000.00000" pt_clust_4="37.83321" pt_clust_5="80.95150" pt_clust_6="54.14878"></scales>
<clustering>
<clus scale="   37.833">  1  4  2 -1</clus>
<clus scale="   54.149">  2  6  1 -1</clus>
<clus scale="   80.951">  2  5  1 -1</clus>
<clus scale="   37.833">  1  3  2 -1</clus>
</clustering>
</event>
<event>
 6    0  0.8520634E+002  0.9181508E+02  0.7546771E-02  0.1298515E+00
         21   -1    0    0  503  501  0.00000000000E+00  0.00000000000E+00  0.81807723822E+03  0.81807723822E+03  0.00000000000E+00 0. -1.
         21   -1    0    0  504  502 -0.00000000000E+00 -0.00000000000E+00 -0.24233060384E+03  0.24233060384E+03  0.00000000000E+00 0. -1.
         21    1    1    2  503  502  0.18800096294E+02  0.72159004742E+02 -0.21482469762E+03  0.22739836476E+03  0.00000000000E+00 0. -1.
         21    1    1    2  504  506 -0.46116271058E+02 -0.19198844252E+02  0.38369229566E+02  0.62988124709E+02  0.00000000000E+00 0. -1.
         21    1    1    2  505  501  0.74585860325E+02 -0.13767762807E+02  0.61557641140E+03  0.62023134403E+03  0.00000000000E+00 0. -1.
         21    1    1    2  506  505 -0.47269685562E+02 -0.39192397683E+02  0.13662569105E+03  0.14979000856E+03  0.00000000000E+00 0. -1.
<scales pt_clust_3="74.56786" pt_clust_4="45.28502" pt_clust_5="76.87113" pt_clust_6="45.28502"></scales>
<clustering>
<clus scale="   45.285">  4  6 -1 -1</clus>
<clus scale="   74.568">  2  3  1 -1</clus>
<clus scale="   76.871">  1  5  2 -1</clus>
<clus scale="   76.871">  1  3  2 -1</clus>
</clustering>
</event>
<event>
 6    0  0.8520634E+002  0.1054898E+03  0.7546771E-02  0.1269158E+00
         21   -1    0    0  506  501  0.00000000000E+00  0.00000000000E+00  0.25844770919E+04  0.25844770919E+04  0.00000000000E+00 0. -1.
         21   -1    0    0  504  502 -0.00000000000E+00 -0.00000000000E+00 -0.24835242064E+03  0.24835242064E+03  0.00000000000E+00 0.  1.
         21    1    1    2  503  505 -0.14490797805E+03  0.87244223351E+02  0.37103957387E+03  0.40777474418E+03  0.00000000000E+00 0.  1.
         21    1    1    2  504  501  0.47434770444E+02  0.32839857703E+02 -0.20861552380E+03  0.21644618378E+03  0.00000000000E+00 0.  1.
         21    1    1    2  505  502  0.41781191968E+02 -0.34282692155E+02  0.28744044856E+02  0.61214304688E+02  0.00000000000E+00 0.  1.
         21    1    1    2  506  503  0.55692015637E+02 -0.85801388899E+02  0.21449565763E+04  0.21473942799E+04  0.00000000000E+00 0. -1.
<scales pt_clust_3="105.48984" pt_clust_4="85.70266" pt_clust_5="54.04601" pt_clust_6="14000.00000"></scales>
<clustering>
<clus scale="   54.046">  2  5  1 -1</clus>
<clus scale="   85.703">  2  4  1 -1</clus>
<clus scale="  105.490">  2  3  1 -1</clus>
<clus scale="  105.490">  1  3  2 -1</clus>
</clustering>
</event>
<event>
 6    0  0.8672381E+002  0.6996907E+02  0.7546771E-02  0.1360198E+00
         21   -1    0    0  503  501  0.00000000000E+00  0.00000000000E+00  0.85241379161E+03  0.85241379161E+03  0.00000000000E+00 0. -1.
         21   -1    0    0  506  502 -0.00000000000E+00 -0.00000000000E+00 -0.61801805860E+03  0.61801805860E+03  0.00000000000E+00 0. -1.
         21    1    1    2  503  504 -0.25445612018E+02 -0.55488207855E+02  0.75221914433E+03  0.75469203088E+03  0.00000000000E+00 0. -1.
         21    1    1    2  504  505 -0.46578051511E+02  0.46306049639E+02  0.73637729554E+02  0.98672591583E+02  0.00000000000E+00 0. -1.
         21    1    1    2  505  502  0.97676737778E+02  0.38716791939E+02 -0.55045761830E+03  0.56039568577E+03  0.00000000000E+00 0. -1.
         21    1    1    2  506  501 -0.25653074248E+02 -0.29534633723E+02 -0.41003522569E+02  0.56671541982E+02  0.00000000000E+00 0. -1.
<scales pt_clust_3="61.12597" pt_clust_4="14000.00000" pt_clust_5="69.96907" pt_clust_6="39.12001"></scales>
<clustering>
<clus scale="   39.120">  2  6  1 -1</clus>
<clus scale="   61.126">  1  3  2 -1</clus>
<clus scale="   69.969">  2  5  1 -1</clus>
<clus scale="   61.126">  1  3  2 -1</clus>
</clustering>
</event>
<event>
 6    0  0.8520634E+002  0.1580985E+03  0.7546771E-02  0.1190860E+00
         21   -1    0    0  504  501  0.00000000000E+00  0.00000000000E+00  0.11241799937E+04  0.11241799937E+04  0.00000000000E+00 0. -1.
         21   -1    0    0  503  502 -0.00000000000E+00 -0.00000000000E+00 -0.22273497334E+03  0.22273497334E+03  0.00000000000E+00 0.  1.
         21    1    1    2  503  505  0.13140203091E+03  0.12309268455E+01  0.47705834219E+02  0.13979934023E+03  0.00000000000E+00 0. -1.
         21    1    1    2  504  502 -0.13494377944E+03  0.16478155821E+03 -0.84365689617E+02  0.22908591209E+03  0.00000000000E+00 0.  1.
         21    1    1    2  505  506 -0.23918395401E+02 -0.14273146083E+03  0.24912893901E+03  0.28811384521E+03  0.00000000000E+00 0. -1.
         21    1    1    2  506  501  0.27460143923E+02 -0.23281024224E+02  0.68897593673E+03  0.68991586949E+03  0.00000000000E+00 0. -1.
<scales pt_clust_3="137.37623" pt_clust_4="158.09847" pt_clust_5="14000.00000" pt_clust_6="36.00091"></scales>
<clustering>
<clus scale="   36.001">  1  6  2 -1</clus>
<clus scale="  137.376">  2  3  1 -1</clus>
<clus scale="  158.098">  2  4  1 -1</clus>
<clus scale="   36.001">  1  3  2 -1</clus>
</clustering>
</event>
<event>
 6    0  0.8520634E+002  0.8920322E+02  0.7546771E-02  0.1304793E+00
         21   -1    0    0  505  501  0.00000000000E+00  0.00000000000E+00  0.49910340357E+03  0.49910340357E+03  0.00000000000E+00 0.  1.
         21   -1    0    0  506  502 -0.00000000000E+00 -0.00000000000E+00 -0.12148972601E+03  0.12148972601E+03  0.00000000000E+00 0.  1.
         21    1    1    2  503  502 -0.83721359080E+02 -0.32086944128E+02 -0.24797910616E+01  0.89693853264E+02  0.00000000000E+00 0.  1.
         21    1    1    2  504  503  0.92256314174E+02  0.18403663638E+02  0.21041880205E+03  0.23049076900E+03  0.00000000000E+00 0.  1.
         21    1    1    2  505  504 -0.52344251237E+01 -0.82896844486E+02  0.18478750520E+03  0.20259740401E+03  0.00000000000E+00 0. -1.
         21    1    1    2  506  501 -0.33005299708E+01  0.96580124976E+02 -0.15112838636E+02  0.97811103306E+02  0.00000000000E+00 0.  1.
<scales pt_clust_3="89.20322" pt_clust_4="14000.00000" pt_clust_5="83.06194" pt_clust_6="85.45095"></scales>
<clustering>
<clus scale="   83.062">  1  5  2 -1</clus>
<clus scale="   85.451">  2  6  1 -1</clus>
<clus scale="   89.203">  2  3  1 -1</clus>
<clus scale="   83.062">  1  3  2 -1</clus>
</clustering>
</event>
<event>
 6    0  0.8520634E+002  0.8469667E+02  0.7546771E-02  0.1316228E+00
         21   -1    0    0  504  501  0.00000000000E+00  0.00000000000E+00  0.26391299228E+03  0.26391299228E+03  0.00000000000E+00 0. -1.
         21   -1    0    0  503  502 -0.00000000000E+00 -0.00000000000E+00 -0.87854118412E+02  0.87854118412E+02  0.00000000000E+00 0. -1.
         21    1    1    2  503  505 -0.49270581097E+01  0.11464207393E+03  0.77410196865E+01  0.11500871446E+03  0.00000000000E+00 0. -1.
         21    1    1    2  504  506 -0.37330699222E+02 -0.58838397227E+02  0.96735451619E+02  0.11921948537E+03  0.00000000000E+00 0. -1.
         21    1    1    2  505  501  0.24195987456E+02 -0.26122326810E+02  0.74601352180E+02  0.82663072251E+02  0.00000000000E+00 0. -1.
         21    1    1    2  506  502  0.18061769876E+02 -0.29681349889E+02 -0.30189496136E+01  0.34875838614E+02  0.00000000000E+00 0. -1.
<scales pt_clust_3="14000.00000" pt_clust_4="84.69667" pt_clust_5="37.60044" pt_clust_6="34.74493"></scales>
<clustering>
<clus scale="   34.745">  2  6  1 -1</clus>
<clus scale="   37.600">  1  5  2 -1</clus>
<clus scale="   84.697">  1  4  2 -1</clus>
<clus scale="   37.600">  1  3  2 -1</clus>
</clustering>
</event>
<event>
 6    0  0.8520634E+002  0.1006035E+03  0.7546771E-02  0.1279032E+00
         21   -1    0    0  503  501  0.00000000000E+00  0.00000000000E+00  0.27259214895E+03  0.27259214895E+03  0.00000000000E+00 0. -1.
         21   -1    0    0  506  502 -0.00000000000E+00 -0.00000000000E+00 -0.15039939902E+04  0.15039939902E+04  0.00000000000E+00 0. -1.
         21    1    1    2  503  505 -0.19086886378E+02  0.41889829380E+02  0.71528544935E+02  0.85061153164E+02  0.00000000000E+00 0. -1.
         21    1    1    2  504  501  0.29965123598E+02 -0.74425287780E+02  0.17311426409E+03  0.19080246467E+03  0.00000000000E+00 0. -1.
         21    1    1    2  505  502 -0.73218278907E+02  0.76365115881E+02 -0.13448225166E+04  0.13489774455E+04  0.00000000000E+00 0. -1.
         21    1    1    2  506  504  0.62340041686E+02 -0.43829657480E+02 -0.13122213370E+03  0.15174507585E+03  0.00000000000E+00 0. -1.
<scales pt_clust_3="46.03333" pt_clust_4="37.21442" pt_clust_5="100.60352" pt_clust_6="14000.00000"></scales>
<clustering>
<clus scale="   46.033">  1  3  2 -1</clus>
<clus scale="   37.214">  1  4  2 -1</clus>
<clus scale="  100.604">  2  5  1 -1</clus>
<clus scale="   46.033">  1  3  2 -1</clus>
</clustering>
</event>
<event>
 6    0  0.8520634E+002  0.8371721E+02  0.7546771E-02  0.1318822E+00
         21   -1    0    0  503  501  0.00000000000E+00  0.00000000000E+00  0.54714904252E+03  0.54714904252E+03  0.00000000000E+00 0.  1.
         21   -1    0    0  504  502 -0.00000000000E+00 -0.00000000000E+00 -0.11782078480E+03  0.11782078480E+03  0.00000000000E+00 0.  1.
         21    1    1    2  503  505  0.16818872165E+02  0.46424058404E+02  0.38598907251E+03  0.38913446488E+03  0.00000000000E+00 0.  1.
         21    1    1    2  504  501 -0.10710061707E+03 -0.41677522165E+01 -0.60152382867E+02  0.12290736960E+03  0.00000000000E+00 0.  1.
         21    1    1    2  505  506  0.67298814622E+02 -0.13829996458E+02  0.91567968102E+02  0.11447747391E+03  0.00000000000E+00 0.  1.
         21    1    1    2  506  502  0.22982930288E+02 -0.28426309730E+02  0.11923599981E+02  0.38450518930E+02  0.00000000000E+00 0.  1.
<scales pt_clust_3="49.09480" pt_clust_4="83.71721" pt_clust_5="14000.00000" pt_clust_6="36.55503"></scales>
<clustering>
<clus scale="   36.555">  2  6  1 -1</clus>
<clus scale="   49.095">  1  3  2 -1</clus>
<clus scale="   83.717">  2  4  1 -1</clus>
<clus scale="   49.095">  1  3  2 -1</clus>
</clustering>
</event>
<event>
 6    0  0.8520634E+002  0.1483961E+03  0.7546771E-02  0.1202458E+00
         21   -1    0    0  506  501  0.00000000000E+00  0.00000000000E+00  0.26575175550E+03  0.26575175550E+03  0.00000000000E+00 0. -1.
         21   -1    0    0  503  502 -0.00000000000E+00 -0.00000000000E+00 -0.21872633907E+03  0.21872633907E+03  0.00000000000E+00 0. -1.
         21    1    1    2  503  504  0.79764326638E+02  0.47983861851E+02 -0.15730824171E+03  0.18278589035E+03  0.00000000000E+00 0. -1.
         21    1    1    2  504  505 -0.10194319288E+03 -0.25573234715E+02  0.15066386618E+03  0.18370085868E+03  0.00000000000E+00 0. -1.
         21    1    1    2  505  501 -0.19633913903E+02 -0.43947074934E+02  0.52100889391E+02  0.70931929663E+02  0.00000000000E+00 0. -1.
         21    1    1    2  506  502  0.41812780143E+02  0.21536447798E+02  0.15689025726E+01  0.47059415873E+02  0.00000000000E+00 0. -1.
<scales pt_clust_3="133.83261" pt_clust_4="43.38628" pt_clust_5="43.38628" pt_clust_6="47.03326"></scales>
<clustering>
<clus scale="   43.386">  4  5 -1 -1</clus>
<clus scale="   47.033">  2  6  1 -1</clus>
<clus scale="  133.833">  2  3  1 -1</clus>
<clus scale="  148.396">  1  3  2 -1</clus>
</clustering>
</event>
<event>
 6    0  0.8520634E+002  0.4256558E+03  0.7546771E-02  0.1035241E+00
         21   -1    0    0  503  501  0.00000000000E+00  0.00000000000E+00  0.11962044045E+04  0.11962044045E+04  0.00000000000E+00 0.  1.
         21   -1    0    0  504  502 -0.00000000000E+00 -0.00000000000E+00 -0.11461178367E+04  0.11461178367E+04  0.00000000000E+00 0. -1.
         21    1    1    2  503  506 -0.28891349898E+02  0.20963289712E+02  0.19121063096E+03  0.19451394553E+03  0.00000000000E+00 0.  1.
         21    1    1    2  504  501  0.47832682226E+02  0.19638614788E+03  0.11221307864E+02  0.20243863840E+03  0.00000000000E+00 0.  1.
         21    1    1    2  505  502  0.38601536947E+03 -0.18844147407E+03 -0.95429130111E+03  0.10465132307E+04  0.00000000000E+00 0. -1.
         21    1    1    2  506  505 -0.40495670180E+03 -0.28907963522E+02  0.80194593011E+03  0.89885642652E+03  0.00000000000E+00 0.  1.
<scales pt_clust_3="35.69551" pt_clust_4="203.59846" pt_clust_5="425.65584" pt_clust_6="14000.00000"></scales>
<clustering>
<clus scale="   35.696">  1  3  2 -1</clus>
<clus scale="  203.598">  1  4  2 -1</clus>
<clus scale="  425.656">  2  5  1 -1</clus>
<clus scale="   35.696">  1  3  2 -1</clus>
</clustering>
</event>
<event>
 6    0  0.8520634E+002  0.1155555E+03  0.7546771E-02  0.1250615E+00
         21   -1    0    0  506  501  0.00000000000E+00  0.00000000000E+00  0.29369164610E+03  0.29369164610E+03  0.00000000000E+00 0. -1.
         21   -1    0    0  503  502 -0.00000000000E+00 -0.00000000000E+00 -0.55686914111E+03  0.55686914111E+03  0.00000000000E+00 0.  1.
         21    1    1    2  503  501 -0.11571053893E+03  0.96762184970E+02  0.54180756831E+02  0.16027290373E+03  0.00000000000E+00 0.  1.
         21    1    1    2  504  502  0.20295261117E+02 -0.35592416290E+02 -0.47199753656E+03  0.47377251106E+03  0.00000000000E+00 0.  1.
         21    1    1    2  505  504  0.55672913583E+02 -0.64755170265E+02  0.15459283374E+03  0.17661157840E+03  0.00000000000E+00 0. -1.
         21    1    1    2  506  505  0.39742364228E+02  0.35854015849E+01  0.46450973534E-01  0.39903794013E+02  0.00000000000E+00 0.  1.
<scales pt_clust_3="115.55547" pt_clust_4="41.02606" pt_clust_5="14000.00000" pt_clust_6="39.90377"></scales>
<clustering>
<clus scale="   39.904">  1  6  2 -1</clus>
<clus scale="   41.026">  2  4  1 -1</clus>
<clus scale="  115.555">  2  3  1 -1</clus>
<clus scale="   39.904">  1  3  2 -1</clus>
</clustering>
</event>
<event>
 6    0  0.1098549E+003  0.1800937E+03  0.7546771E-02  0.1167712E+00
         21   -1    0    0  502  501  0.00000000000E+00  0.00000000000E+00  0.24473536749E+04  0.24473536749E+04  0.00000000000E+00 0.  1.
         21   -1    0    0  505  502 -0.00000000000E+00 -0.00000000000E+00 -0.14496125647E+04  0.14496125647E+04  0.00000000000E+00 0.  1.
         21    1    1    2  503  506  0.73544360501E+02 -0.64663405180E+02 -0.42330019521E+03  0.43448036111E+03  0.00000000000E+00 0.  1.
         21    1    1    2  504  501 -0.54684834758E+02  0.40589479822E+02  0.20201699968E+04  0.20213175785E+04  0.00000000000E+00 0.  1.
         21    1    1    2  505  503  0.68430236182E+02 -0.55365091554E+02 -0.10099247621E+04  0.10137534294E+04  0.00000000000E+00 0.  1.
         21    1    1    2  506  504 -0.87289761925E+02  0.79439016912E+02  0.41079607063E+03  0.42741487058E+03  0.00000000000E+00 0.  1.
<scales pt_clust_3="14000.00000" pt_clust_4="68.10240" pt_clust_5="87.71734" pt_clust_6="180.09369"></scales>
<clustering>
<clus scale="   68.102">  1  4  2 -1</clus>
<clus scale="   87.717">  2  5  1 -1</clus>
<clus scale="  180.094">  1  6  2 -1</clus>
<clus scale="   68.102">  1  3  2 -1</clus>
</clustering>
</event>
<event>
 6    0  0.8520634E+002  0.6555270E+02  0.7546771E-02  0.1375904E+00
         21   -1    0    0  504  501  0.00000000000E+00  0.00000000000E+00  0.15250007455E+03  0.15250007455E+03  0.00000000000E+00 0.  1.
         21   -1    0    0  505  502 -0.00000000000E+00 -0.00000000000E+00 -0.23567944825E+03  0.23567944825E+03  0.00000000000E+00 0.  1.
         21    1    1    2  503  501  0.27225425772E+02  0.62277297266E+02  0.71903780119E+02  0.98943616058E+02  0.00000000000E+00 0.  1.
         21    1    1    2  504  502  0.65469392970E+01 -0.38898351048E+02  0.33020732039E+02  0.51442325694E+02  0.00000000000E+00 0.  1.
         21    1    1    2  505  506  0.18001250222E+02  0.51055390696E+02 -0.81561760283E+02  0.97892893864E+02  0.00000000000E+00 0. -1.
         21    1    1    2  506  503 -0.51773615291E+02 -0.74434336914E+02 -0.10654212558E+03  0.13990068718E+03  0.00000000000E+00 0.  1.
<scales pt_clust_3="45.56643" pt_clust_4="39.44546" pt_clust_5="14000.00000" pt_clust_6="65.55270"></scales>
<clustering>
<clus scale="   39.445">  1  4  2 -1</clus>
<clus scale="   45.566">  1  3  2 -1</clus>
<clus scale="   65.553">  1  6  2 -1</clus>
<clus scale="   39.445">  1  3  2 -1</clus>
</clustering>
</event>
<event>
 6    0  0.8520634E+002  0.1524099E+03  0.7546771E-02  0.1197543E+00
         21   -1    0    0  503  501  0.00000000000E+00  0.00000000000E+00  0.38842764976E+03  0.38842764976E+03  0.00000000000E+00 0.  1.
         21   -1    0    0  504  502 -0.00000000000E+00 -0.00000000000E+00 -0.66188252692E+03  0.66188252692E+03  0.00000000000E+00 0. -1.
         21    1    1    2  503  505 -0.59837534049E+02 -0.11764574159E+02  0.23391327019E+03  0.24173198724E+03  0.00000000000E+00 0.  1.
         21    1    1    2  504  501  0.13439115160E+03  0.14348139997E+02 -0.19736214763E+03  0.23920423923E+03  0.00000000000E+00 0. -1.
         21    1    1    2  505  506  0.63565965582E+02  0.12245267263E+03  0.63576046678E+02  0.15191182550E+03  0.00000000000E+00 0.  1.
         21    1    1    2  506  502 -0.13811958313E+03 -0.12503623847E+03 -0.37358204640E+03  0.41746212471E+03  0.00000000000E+00 0. -1.
<scales pt_clust_3="60.98308" pt_clust_4="152.40992" pt_clust_5="115.91006" pt_clust_6="14000.00000"></scales>
<clustering>
<clus scale="   60.983">  1  3  2 -1</clus>
<clus scale="  115.910">  1  5  2 -1</clus>
<clus scale="  152.410">  2  4  1 -1</clus>
<clus scale="   60.983">  1  3  2 -1</clus>
</clustering>
</event>
<event>
 6    0  0.8520634E+002  0.1170692E+03  0.7546771E-02  0.1248012E+00
         21   -1    0    0  506  501  0.00000000000E+00  0.00000000000E+00  0.11981429829E+03  0.11981429829E+03  0.00000000000E+00 0. -1.
         21   -1    0    0  504  502 -0.00000000000E+00 -0.00000000000E+00 -0.83716740618E+03  0.83716740618E+03  0.00000000000E+00 0. -1.
         21    1    1    2  503  502 -0.62921317855E+02  0.31619523975E+01 -0.56335008249E+03  0.56686189291E+03  0.00000000000E+00 0. -1.
         21    1    1    2  504  505  0.12101189578E+03 -0.10246935753E+03 -0.16799902425E+03  0.23101411278E+03  0.00000000000E+00 0. -1.
         21    1    1    2  505  501 -0.14740878832E+02  0.93842856957E+02  0.45412784194E+02  0.10529053271E+03  0.00000000000E+00 0. -1.
         21    1    1    2  506  503 -0.43349699095E+02  0.54645481764E+01 -0.31416785328E+02  0.53815166066E+02  0.00000000000E+00 0.  1.
<scales pt_clust_3="63.70509" pt_clust_4="117.06921" pt_clust_5="14000.00000" pt_clust_6="43.69276"></scales>
<clustering>
<clus scale="   43.693">  1  6  2 -1</clus>
<clus scale="   63.705">  2  3  1 -1</clus>
<clus scale="  117.069">  2  4  1 -1</clus>
<clus scale="   43.693">  1  3  2 -1</clus>
</clustering>
</event>
<event>
 6    0  0.8520634E+002  0.7624470E+02  0.7546771E-02  0.1340059E+00
         21   -1    0    0  505  501  0.00000000000E+00  0.00000000000E+00  0.40334248957E+03  0.40334248957E+03  0.00000000000E+00 0.  1.
         21   -1    0    0  506  502 -0.00000000000E+00 -0.00000000000E+00 -0.35811475329E+03  0.35811475329E+03  0.00000000000E+00 0.  1.
         21    1    1    2  503  502  0.31997915973E+02  0.10228031965E+03 -0.30619751874E+03  0.32441031256E+03  0.00000000000E+00 0.  1.
         21    1    1    2  504  501 -0.31296079914E+02 -0.96479747061E+02  0.27237652401E+03  0.29064885522E+03  0.00000000000E+00 0.  1.
         21    1    1    2  505  503  0.28504415439E+02  0.22959498258E+02  0.95466850275E+02  0.10224265138E+03  0.00000000000E+00 0.  1.
         21    1    1    2  506  504 -0.29206251498E+02 -0.28760070845E+02 -0.16418119256E+02  0.44155423693E+02  0.00000000000E+00 0. -1.
<scales pt_clust_3="76.24470" pt_clust_4="14000.00000" pt_clust_5="36.60110" pt_clust_6="39.33112"></scales>
<clustering>
<clus scale="   36.601">  1  5  2 -1</clus>
<clus scale="   39.331">  2  6  1 -1</clus>
<clus scale="   76.245">  2  3  1 -1</clus>
<clus scale="   36.601">  1  3  2 -1</clus>
</clustering>
</event>
<event>
 6    0  0.8520634E+002  0.1476194E+03  0.7546771E-02  0.1203429E+00
         21   -1    0    0  506  501  0.00000000000E+00  0.00000000000E+00  0.36047487672E+03  0.36047487672E+03  0.00000000000E+00 0.  1.
         21   -1    0    0  503  502 -0.00000000000E+00 -0.00000000000E+00 -0.54494146946E+03  0.54494146946E+03  0.00000000000E+00 0.  1.
         21    1    1    2  503  505 -0.37759734620E+02 -0.71436218910E+01 -0.25258602952E+03  0.25549272240E+03  0.00000000000E+00 0.  1.
         21    1    1    2  504  502 -0.11837352162E+03  0.53550915371E+02 -0.93676388890E+02  0.16017258502E+03  0.00000000000E+00 0.  1.
         21    1    1    2  505  501  0.13915022809E+03 -0.96761761129E+02 -0.11699203873E+03  0.20594358820E+03  0.00000000000E+00 0.  1.
         21    1    1    2  506  504  0.16983028153E+02  0.50354467649E+02  0.27878786440E+03  0.28380745056E+03  0.00000000000E+00 0.  1.
<scales pt_clust_3="38.42953" pt_clust_4="14000.00000" pt_clust_5="147.61944" pt_clust_6="52.97956"></scales>
<clustering>
<clus scale="   38.430">  2  3  1 -1</clus>
<clus scale="   52.980">  1  6  2 -1</clus>
<clus scale="  147.619">  2  5  1 -1</clus>
<clus scale="   52.980">  1  3  2 -1</clus>
</clustering>
</event>
<event>
 6    0  0.8520634E+002  0.8378025E+02  0.7546771E-02  0.1318653E+00
         21   -1    0    0  505  501  0.00000000000E+00  0.00000000000E+00  0.13806997127E+03  0.13806997127E+03  0.00000000000E+00 0.  1.
         21   -1    0    0  504  502 -0.00000000000E+00 -0.00000000000E+00 -0.38639363925E+03  0.38639363925E+03  0.00000000000E+00 0.  1.
         21    1    1    2  503  502 -0.15937900566E+02 -0.80290679449E+02 -0.38945953895E+02  0.90649860483E+02  0.00000000000E+00 0. -1.
         21    1    1    2  504  506  0.57918170465E+02  0.44274857719E+02 -0.20807853226E+03  0.22048005144E+03  0.00000000000E+00 0.  1.
         21    1    1    2  505  503 -0.16338403368E+02 -0.58539058167E+02  0.69599750627E+02  0.92400703694E+02  0.00000000000E+00 0.  1.
         21    1    1    2  506  501 -0.25641866531E+02  0.94554879898E+02 -0.70898932457E+02  0.12093299490E+03  0.00000000000E+00 0.  1.
<scales pt_clust_3="14000.00000" pt_clust_4="67.74613" pt_clust_5="60.77635" pt_clust_6="83.78025"></scales>
<clustering>
<clus scale="   60.776">  1  5  2 -1</clus>
<clus scale="   67.746">  2  4  1 -1</clus>
<clus scale="   83.780">  1  6  2 -1</clus>
<clus scale="   60.776">  1  3  2 -1</clus>
</clustering>
</event>
<event>
 6    0  0.8520634E+002  0.6910023E+03  0.7546771E-02  0.9732744E-01
         21   -1    0    0  503  501  0.00000000000E+00  0.00000000000E+00  0.71135321636E+03  0.71135321636E+03  0.00000000000E+00 0.  1.
         21   -1    0    0  505  502 -0.00000000000E+00 -0.00000000000E+00 -0.93353313365E+03  0.93353313365E+03  0.00000000000E+00 0.  1.
         21    1    1    2  503  506  0.47928708267E+02  0.44484439216E+02  0.76350291748E+02  0.10052558609E+03  0.00000000000E+00 0. -1.
         21    1    1    2  504  502 -0.33150832831E+01 -0.74728963882E+03 -0.29681281375E+03  0.80408372728E+03  0.00000000000E+00 0.  1.
         21    1    1    2  505  501  0.20036875780E+02  0.61420508754E+02 -0.66107232107E+02  0.92434416878E+02  0.00000000000E+00 0.  1.
         21    1    1    2  506  504 -0.64650500765E+02  0.64138469085E+03  0.64389836825E+02  0.64784261977E+03  0.00000000000E+00 0.  1.
<scales pt_clust_3="66.19185" pt_clust_4="691.00233" pt_clust_5="64.60616" pt_clust_6="14000.00000"></scales>
<clustering>
<clus scale="   64.606">  2  5  1 -1</clus>
<clus scale="   66.192">  1  3  2 -1</clus>
<clus scale="  691.002">  2  4  1 -1</clus>
<clus scale="   66.192">  1  3  2 -1</clus>
</clustering>
</event>
<event>
 6    0  0.8520634E+002  0.2179047E+03  0.7546771E-02  0.1135455E+00
         21   -1    0    0  502  501  0.00000000000E+00  0.00000000000E+00  0.32079467170E+04  0.32079467170E+04  0.00000000000E+00 0. -1.
         21   -1    0    0  506  502 -0.00000000000E+00 -0.00000000000E+00 -0.10130787262E+03  0.10130787262E+03  0.00000000000E+00 0.  1.
         21    1    1    2  503  505 -0.15656185743E+02  0.40180739072E+02  0.23269956055E+03  0.23666155883E+03  0.00000000000E+00 0. -1.
         21    1    1    2  504  501 -0.17884035331E+02 -0.11398076261E+03  0.17859088517E+04  0.17896317720E+04  0.00000000000E+00 0.  1.
         21    1    1    2  505  504 -0.17438173081E+03  0.83061109220E+02  0.10546278761E+04  0.10721698061E+04  0.00000000000E+00 0. -1.
         21    1    1    2  506  503  0.20792195188E+03 -0.92610856777E+01  0.33402556019E+02  0.21079145270E+03  0.00000000000E+00 0.  1.
<scales pt_clust_3="31.78315" pt_clust_4="115.37527" pt_clust_5="31.78315" pt_clust_6="207.26268"></scales>
<clustering>
<clus scale="   31.783">  3  5 -1 -1</clus>
<clus scale="  115.375">  1  4  2 -1</clus>
<clus scale="  207.263">  2  6  1 -1</clus>
<clus scale="  115.375">  1  3  2 -1</clus>
</clustering>
</event>
<event>
 6    0  0.8520634E+002  0.1131262E+03  0.7546771E-02  0.1254888E+00
         21   -1    0    0  505  501  0.00000000000E+00  0.00000000000E+00  0.88231356820E+03  0.88231356820E+03  0.00000000000E+00 0.  1.
         21   -1    0    0  504  502 -0.00000000000E+00 -0.00000000000E+00 -0.17196532630E+03  0.17196532630E+03  0.00000000000E+00 0. -1.
         21    1    1    2  503  501  0.19570884357E+02 -0.75796930979E+02  0.10475214693E+03  0.13077158157E+03  0.00000000000E+00 0. -1.
         21    1    1    2  504  503  0.18388831750E+02 -0.35724082933E+02 -0.46883478858E+02  0.61744795929E+02  0.00000000000E+00 0. -1.
         21    1    1    2  505  506  0.62946047424E+01 -0.40275138905E+02  0.69645394657E+03  0.69764590485E+03  0.00000000000E+00 0.  1.
         21    1    1    2  506  502 -0.44254320850E+02  0.15179615282E+03 -0.43974372745E+02  0.16411661215E+03  0.00000000000E+00 0. -1.
<scales pt_clust_3="14000.00000" pt_clust_4="40.17909" pt_clust_5="40.95729" pt_clust_6="113.12618"></scales>
<clustering>
<clus scale="   40.179">  2  4  1 -1</clus>
<clus scale="   40.957">  1  5  2 -1</clus>
<clus scale="  113.126">  2  6  1 -1</clus>
<clus scale="   40.957">  1  3  2 -1</clus>
</clustering>
</event>
<event>
 6    0  0.8520634E+002  0.7446254E+02  0.7546771E-02  0.1345543E+00
         21   -1    0    0  506  501  0.00000000000E+00  0.00000000000E+00  0.15585018910E+03  0.15585018910E+03  0.00000000000E+00 0.  1.
         21   -1    0    0  505  502 -0.00000000000E+00 -0.00000000000E+00 -0.93690280453E+03  0.93690280453E+03  0.00000000000E+00 0.  1.
         21    1    1    2  503  501  0.98897061588E+02 -0.24397256424E+02  0.84386463854E+01  0.10221088819E+03  0.00000000000E+00 0.  1.
         21    1    1    2  504  502 -0.10708374722E+01 -0.42438034352E+02 -0.89229872930E+02  0.98813479220E+02  0.00000000000E+00 0.  1.
         21    1    1    2  505  503 -0.70289686763E+02  0.30166911935E+02 -0.78854485061E+03  0.79224596184E+03  0.00000000000E+00 0.  1.
         21    1    1    2  506  504 -0.27536537353E+02  0.36668378840E+02  0.88283461725E+02  0.99482664370E+02  0.00000000000E+00 0.  1.
<scales pt_clust_3="74.46254" pt_clust_4="42.45154" pt_clust_5="14000.00000" pt_clust_6="45.63580"></scales>
<clustering>
<clus scale="   42.452">  2  4  1 -1</clus>
<clus scale="   45.636">  1  6  2 -1</clus>
<clus scale="   74.463">  1  3  2 -1</clus>
<clus scale="   45.636">  1  3  2 -1</clus>
</clustering>
</event>
<event>
 6    0  0.8520634E+002  0.1821579E+03  0.7546771E-02  0.1165731E+00
         21   -1    0    0  505  501  0.00000000000E+00  0.00000000000E+00  0.15800021472E+03  0.15800021472E+03  0.00000000000E+00 0.  1.
         21   -1    0    0  506  502 -0.00000000000E+00 -0.00000000000E+00 -0.47487358994E+03  0.47487358994E+03  0.00000000000E+00 0.  1.
         21    1    1    2  503  504 -0.14083030892E+03  0.19364622274E+03 -0.16352265572E+03  0.28995119318E+03  0.00000000000E+00 0.  1.
         21    1    1    2  504  501  0.10552694159E+03 -0.12240820705E+03 -0.25082261389E+01  0.16163537903E+03  0.00000000000E+00 0.  1.
         21    1    1    2  505  502  0.48444870729E+02 -0.36787762512E+02 -0.11370943816E+03  0.12895767250E+03  0.00000000000E+00 0. -1.
         21    1    1    2  506  503 -0.13141503400E+02 -0.34450253176E+02 -0.37133055204E+02  0.52329559947E+02  0.00000000000E+00 0.  1.
<scales pt_clust_3="182.15786" pt_clust_4="14000.00000" pt_clust_5="64.53090" pt_clust_6="36.87166"></scales>
<clustering>
<clus scale="   36.872">  2  6  1 -1</clus>
<clus scale="   64.531">  2  5  1 -1</clus>
<clus scale="  182.158">  2  3  1 -1</clus>
<clus scale="  182.158">  1  3  2 -1</clus>
</clustering>
</event>
<event>
 6    0  0.8520634E+002  0.7179218E+02  0.7546771E-02  0.1354103E+00
         21   -1    0    0  503  501  0.00000000000E+00  0.00000000000E+00  0.43945250686E+03  0.43945250686E+03  0.00000000000E+00 0.  1.
         21   -1    0    0  504  502 -0.00000000000E+00 -0.00000000000E+00 -0.52172597567E+02  0.52172597567E+02  0.00000000000E+00 0.  1.
         21    1    1    2  503  502  0.90433590847E+02  0.42868451788E+02  0.14016607412E+03  0.17222795025E+03  0.00000000000E+00 0.  1.
         21    1    1    2  504  506 -0.16011638643E+02  0.43846284337E+02  0.53095079636E+02  0.70696228356E+02  0.00000000000E+00 0.  1.
         21    1    1    2  505  501 -0.34162044497E+02 -0.33234200996E+02  0.17161593913E+03  0.17811116743E+03  0.00000000000E+00 0.  1.
         21    1    1    2  506  505 -0.40259907707E+02 -0.53480535129E+02  0.22402816396E+02  0.70589758384E+02  0.00000000000E+00 0.  1.
<scales pt_clust_3="14000.00000" pt_clust_4="46.67836" pt_clust_5="46.34075" pt_clust_6="71.79218"></scales>
<clustering>
<clus scale="   46.678">  2  4  1 -1</clus>
<clus scale="   46.341">  1  5  2 -1</clus>
<clus scale="   71.792">  2  6  1 -1</clus>
<clus scale="   46.341">  1  3  2 -1</clus>
</clustering>
</event>
<event>
 6    0  0.8520634E+002  0.1539740E+03  0.7546771E-02  0.1195673E+00
         21   -1    0    0  504  501  0.00000000000E+00  0.00000000000E+00  0.20873610169E+03  0.20873610169E+03  0.00000000000E+00 0.  1.
         21   -1    0    0  506  502 -0.00000000000E+00 -0.00000000000E+00 -0.37116596339E+03  0.37116596339E+03  0.00000000000E+00 0.  1.
         21    1    1    2  503  501 -0.59953857308E+02  0.31898640605E+02  0.74296669637E+02  0.10065775379E+03  0.00000000000E+00 0.  1.
         21    1    1    2  504  502  0.53685037563E+02 -0.52001069287E+01 -0.20170216850E+02  0.57584390402E+02  0.00000000000E+00 0. -1.
         21    1    1    2  505  503 -0.90593896329E+02  0.11052376823E+01  0.72183119260E+02  0.11583988220E+03  0.00000000000E+00 0.  1.
         21    1    1    2  506  505  0.96862716074E+02 -0.27803771359E+02 -0.28873943374E+03  0.30582003869E+03  0.00000000000E+00 0.  1.
<scales pt_clust_3="35.28526" pt_clust_4="53.93630" pt_clust_5="35.28526" pt_clust_6="148.48228"></scales>
<clustering>
<clus scale="   35.285">  3  5 -1 -1</clus>
<clus scale="   53.936">  2  4  1 -1</clus>
<clus scale="  148.482">  2  6  1 -1</clus>
<clus scale="  153.974">  1  3  2 -1</clus>
</clustering>
</event>
<event>
 6    0  0.8520634E+002  0.6437633E+02  0.7546771E-02  0.1380333E+00
         21   -1    0    0  504  501  0.00000000000E+00  0.00000000000E+00  0.67387199970E+03  0.67387199970E+03  0.00000000000E+00 0.  1.
         21   -1    0    0  506  502 -0.00000000000E+00 -0.00000000000E+00 -0.26177066538E+03  0.26177066538E+03  0.00000000000E+00 0. -1.
         21    1    1    2  503  505 -0.43892771352E+02  0.72544562991E+02  0.31589524256E+02  0.90483075982E+02  0.00000000000E+00 0. -1.
         21    1    1    2  504  502  0.85220526053E+02  0.15275736913E+02 -0.18963520353E+03  0.20846437733E+03  0.00000000000E+00 0. -1.
         21    1    1    2  505  501 -0.31872328733E+01 -0.63890608699E+02  0.58560587724E+03  0.58908947690E+03  0.00000000000E+00 0.  1.
         21    1    1    2  506  503 -0.38140521827E+02 -0.23929691205E+02 -0.15458863648E+02  0.47605734862E+02  0.00000000000E+00 0. -1.
<scales pt_clust_3="14000.00000" pt_clust_4="52.52619" pt_clust_5="64.37633" pt_clust_6="45.02588"></scales>
<clustering>
<clus scale="   45.026">  2  6  1 -1</clus>
<clus scale="   52.526">  2  4  1 -1</clus>
<clus scale="   64.376">  1  5  2 -1</clus>
<clus scale="   64.376">  1  3  2 -1</clus>
</clustering>
</event>
<event>
 6    0  0.8520634E+002  0.5899464E+02  0.7546771E-02  0.1402100E+00
         21   -1    0    0  503  501  0.00000000000E+00  0.00000000000E+00  0.25023764750E+03  0.25023764750E+03  0.00000000000E+00 0. -1.
         21   -1    0    0  506  502 -0.00000000000E+00 -0.00000000000E+00 -0.33806340207E+03  0.33806340207E+03  0.00000000000E+00 0. -1.
         21    1    1    2  503  504 -0.62180952476E+02  0.39335776778E+02  0.14628529422E+03  0.16374724880E+03  0.00000000000E+00 0. -1.
         21    1    1    2  504  502  0.66626383405E+02 -0.62706057968E+02 -0.23747724412E+03  0.25449276246E+03  0.00000000000E+00 0. -1.
         21    1    1    2  505  501  0.48213953542E+02  0.16656826072E+02  0.68897541962E+02  0.85725763102E+02  0.00000000000E+00 0. -1.
         21    1    1    2  506  505 -0.52659384471E+02  0.67134551174E+01 -0.65531346638E+02  0.84335275210E+02  0.00000000000E+00 0. -1.
<scales pt_clust_3="14000.00000" pt_clust_4="58.99464" pt_clust_5="51.01015" pt_clust_6="50.61474"></scales>
<clustering>
<clus scale="   51.010">  1  5  2 -1</clus>
<clus scale="   50.615">  2  6  1 -1</clus>
<clus scale="   58.995">  2  4  1 -1</clus>
<clus scale="   51.010">  1  3  2 -1</clus>
</clustering>
</event>
<event>
 6    0  0.8520634E+002  0.9920369E+02  0.7546771E-02  0.1281979E+00
         21   -1    0    0  504  501  0.00000000000E+00  0.00000000000E+00  0.31748452830E+04  0.31748452830E+04  0.00000000000E+00 0. -1.
         21   -1    0    0  503  502 -0.00000000000E+00 -0.00000000000E+00 -0.22829404088E+02  0.22829404088E+02  0.00000000000E+00 0. -1.
         21    1    1    2  503  505  0.11164096864E+03  0.41443587335E+02  0.46573366712E+03  0.48071730309E+03  0.00000000000E+00 0. -1.
         21    1    1    2  504  502 -0.88367630284E+02 -0.27426925986E+02  0.14655227162E+03  0.17331659663E+03  0.00000000000E+00 0. -1.
         21    1    1    2  505  506 -0.57254282126E+02 -0.54542003727E+02  0.10504441911E+04  0.10534162907E+04  0.00000000000E+00 0. -1.
         21    1    1    2  506  501  0.33980943774E+02  0.40525342378E+02  0.14892857491E+04  0.14902244966E+04  0.00000000000E+00 0. -1.
<scales pt_clust_3="14000.00000" pt_clust_4="99.20369" pt_clust_5="46.41316" pt_clust_6="52.88675"></scales>
<clustering>
<clus scale="   52.887">  1  6  2 -1</clus>
<clus scale="   46.413">  1  5  2 -1</clus>
<clus scale="   99.204">  2  4  1 -1</clus>
<clus scale="   52.887">  1  3  2 -1</clus>
</clustering>
</event>
<event>
 6    0  0.8520634E+002  0.7629435E+02  0.7546771E-02  0.1339909E+00
         21   -1    0    0  503  501  0.00000000000E+00  0.00000000000E+00  0.21667738620E+03  0.21667738620E+03  0.00000000000E+00 0.  1.
         21   -1    0    0  505  502 -0.00000000000E+00 -0.00000000000E+00 -0.16290054658E+04  0.16290054658E+04  0.00000000000E+00 0.  1.
         21    1    1    2  503  504  0.93316738055E+01 -0.40005243017E+02 -0.20382019167E+02  0.45857674496E+02  0.00000000000E+00 0. -1.
         21    1    1    2  504  506 -0.27861141165E+02  0.72115917281E+02 -0.10252101799E+04  0.10281210345E+04  0.00000000000E+00 0.  1.
         21    1    1    2  505  501  0.65461273626E+02  0.18432403022E+02  0.19460299288E+03  0.20614377668E+03  0.00000000000E+00 0.  1.
         21    1    1    2  506  502 -0.46931806267E+02 -0.50543077287E+02 -0.56133887342E+03  0.56556036629E+03  0.00000000000E+00 0. -1.
<scales pt_clust_3="41.07919" pt_clust_4="14000.00000" pt_clust_5="76.29435" pt_clust_6="69.21103"></scales>
<clustering>
<clus scale="   41.079">  1  3  2 -1</clus>
<clus scale="   69.211">  2  6  1 -1</clus>
<clus scale="   76.294">  1  5  2 -1</clus>
<clus scale="   41.079">  1  3  2 -1</clus>
</clustering>
</event>
<event>
 6    0  0.8520634E+002  0.8114397E+02  0.7546771E-02  0.1325836E+00
         21   -1    0    0  504  501  0.00000000000E+00  0.00000000000E+00  0.51580088511E+03  0.51580088511E+03  0.00000000000E+00 0. -1.
         21   -1    0    0  506  502 -0.00000000000E+00 -0.00000000000E+00 -0.25193559930E+03  0.25193559930E+03  0.00000000000E+00 0.  1.
         21    1    1    2  503  501  0.68741035316E+02  0.40896759267E+02  0.45231371366E+03  0.45933165624E+03  0.00000000000E+00 0. -1.
         21    1    1    2  504  505  0.66024044716E+02  0.22467094830E+02 -0.63991657884E+02  0.94651344996E+02  0.00000000000E+00 0.  1.
         21    1    1    2  505  502 -0.44912898394E+02 -0.11560086645E+02 -0.95350245029E+02  0.10603052991E+03  0.00000000000E+00 0.  1.
         21    1    1    2  506  503 -0.89852181638E+02 -0.51803767452E+02 -0.29106524942E+02  0.10772295327E+03  0.00000000000E+00 0.  1.
<scales pt_clust_3="81.14397" pt_clust_4="45.52729" pt_clust_5="46.37676" pt_clust_6="14000.00000"></scales>
<clustering>
<clus scale="   46.377">  2  5  1 -1</clus>
<clus scale="   45.527">  2  4  1 -1</clus>
<clus scale="   81.144">  1  3  2 -1</clus>
<clus scale="   81.144">  1  3  2 -1</clus>
</clustering>
</event>
<event>
 6    0  0.8520634E+002  0.8341046E+02  0.7546771E-02  0.1319642E+00
         21   -1    0    0  506  501  0.00000000000E+00  0.00000000000E+00  0.10535648100E+03  0.10535648100E+03  0.00000000000E+00 0.  1.
         21   -1    0    0  504  502 -0.00000000000E+00 -0.00000000000E+00 -0.51521749506E+03  0.51521749506E+03  0.00000000000E+00 0. -1.
         21    1    1    2  503  501 -0.11944091817E+03  0.23233432390E+02 -0.19548611199E+03  0.23026234016E+03  0.00000000000E+00 0. -1.
         21    1    1    2  504  503 -0.20265465082E+02 -0.33120518202E+02 -0.21736337234E+03  0.22080419705E+03  0.00000000000E+00 0. -1.
         21    1    1    2  505  502  0.61857445863E+02  0.24707527062E+02 -0.41644128494E+02  0.78555960564E+02  0.00000000000E+00 0. -1.
         21    1    1    2  506  505  0.77848937388E+02 -0.14820441251E+02  0.44632598764E+02  0.90951478294E+02  0.00000000000E+00 0.  1.
<scales pt_clust_3="14000.00000" pt_clust_4="38.82857" pt_clust_5="60.48078" pt_clust_6="83.41046"></scales>
<clustering>
<clus scale="   38.829">  2  4  1 -1</clus>
<clus scale="   60.481">  2  5  1 -1</clus>
<clus scale="   83.410">  1  6  2 -1</clus>
<clus scale="   83.410">  1  3  2 -1</clus>
</clustering>
</event>
<event>
 6    0  0.8520634E+002  0.8851536E+02  0.7546771E-02  0.1306487E+00
         21   -1    0    0  505  501  0.00000000000E+00  0.00000000000E+00  0.10481651372E+04  0.10481651372E+04  0.00000000000E+00 0.  1.
         21   -1    0    0  504  502 -0.00000000000E+00 -0.00000000000E+00 -0.25965924425E+03  0.25965924425E+03  0.00000000000E+00 0.  1.
         21    1    1    2  503  501 -0.72639026547E+02  0.44991323320E+02  0.13650043206E+03  0.16103731028E+03  0.00000000000E+00 0.  1.
         21    1    1    2  504  503 -0.29944809162E+02 -0.41989902612E+02 -0.22636794864E+03  0.23216867078E+03  0.00000000000E+00 0.  1.
         21    1    1    2  505  506  0.16060959783E+02  0.31563820108E+02  0.77359861875E+03  0.77440884041E+03  0.00000000000E+00 0.  1.
         21    1    1    2  506  502  0.86522875927E+02 -0.34565240816E+02  0.10477479083E+03  0.14020956004E+03  0.00000000000E+00 0.  1.
<scales pt_clust_3="14000.00000" pt_clust_4="51.20318" pt_clust_5="35.41510" pt_clust_6="88.51536"></scales>
<clustering>
<clus scale="   35.415">  1  5  2 -1</clus>
<clus scale="   51.203">  2  4  1 -1</clus>
<clus scale="   88.515">  2  6  1 -1</clus>
<clus scale="   35.415">  1  3  2 -1</clus>
</clustering>
</event>
<event>
 6    0  0.8520634E+002  0.3749720E+03  0.7546771E-02  0.1052808E+00
         21   -1    0    0  504  501  0.00000000000E+00  0.00000000000E+00  0.31100554994E+04  0.31100554994E+04  0.00000000000E+00 0.  1.
         21   -1    0    0  503  502 -0.00000000000E+00 -0.00000000000E+00 -0.15289777229E+03  0.15289777229E+03  0.00000000000E+00 0.  1.
         21    1    1    2  503  505  0.31815743321E+03  0.10467166766E+03  0.65003740909E+03  0.73125162806E+03  0.00000000000E+00 0.  1.
         21    1    1    2  504  506 -0.56845157050E+02 -0.70445497868E+02  0.12153065360E+04  0.12186730146E+04  0.00000000000E+00 0.  1.
         21    1    1    2  505  501  0.14635944319E+03 -0.64779662603E+02  0.78693662471E+03  0.80304840614E+03  0.00000000000E+00 0.  1.
         21    1    1    2  506  502 -0.40767171935E+03  0.30553492812E+02  0.30487715729E+03  0.50998022287E+03  0.00000000000E+00 0.  1.
<scales pt_clust_3="14000.00000" pt_clust_4="90.52038" pt_clust_5="154.62072" pt_clust_6="374.97204"></scales>
<clustering>
<clus scale="   90.520">  1  4  2 -1</clus>
<clus scale="  154.621">  1  5  2 -1</clus>
<clus scale="  374.972">  2  6  1 -1</clus>
<clus scale="   90.520">  1  3  2 -1</clus>
</clustering>
</event>
<event>
 6    0  0.8520634E+002  0.1881970E+03  0.7546771E-02  0.1160098E+00
         21   -1    0    0  503  501  0.00000000000E+00  0.00000000000E+00  0.33539539337E+03  0.33539539337E+03  0.00000000000E+00 0.  1.
         21   -1    0    0  505  502 -0.00000000000E+00 -0.00000000000E+00 -0.28229939060E+03  0.28229939060E+03  0.00000000000E+00 0.  1.
         21    1    1    2  503  506 -0.31889525705E+02  0.24819960385E+01  0.10143290525E+03  0.10635664729E+03  0.00000000000E+00 0.  1.
         21    1    1    2  504  501  0.81774448343E+02  0.18319956978E+03  0.10524495915E+03  0.22655163693E+03  0.00000000000E+00 0.  1.
         21    1    1    2  505  504  0.80299465307E+01 -0.17761107123E+03 -0.13562662166E+03  0.22361742591E+03  0.00000000000E+00 0.  1.
         21    1    1    2  506  502 -0.57914869170E+02 -0.80704945810E+01 -0.17955239973E+02  0.61169073854E+02  0.00000000000E+00 0.  1.
<scales pt_clust_3="31.98597" pt_clust_4="14000.00000" pt_clust_5="188.19701" pt_clust_6="61.39374"></scales>
<clustering>
<clus scale="   31.986">  1  3  2 -1</clus>
<clus scale="   61.394">  2  6  1 -1</clus>
<clus scale="  188.197">  2  5  1 -1</clus>
<clus scale="   31.986">  1  3  2 -1</clus>
</clustering>
</event>
<event>
 6    0  0.8520634E+002  0.1537889E+03  0.7546771E-02  0.1195893E+00
         21   -1    0    0  506  501  0.00000000000E+00  0.00000000000E+00  0.14722408362E+04  0.14722408362E+04  0.00000000000E+00 0.  1.
         21   -1    0    0  505  502 -0.00000000000E+00 -0.00000000000E+00 -0.16879117084E+03  0.16879117084E+03  0.00000000000E+00 0.  1.
         21    1    1    2  503  502 -0.38658367560E+02  0.12105135989E+03 -0.12293192742E+03  0.17680542947E+03  0.00000000000E+00 0.  1.
         21    1    1    2  504  503  0.40816286690E+02 -0.85182396332E+02  0.35686704741E+03  0.36915592834E+03  0.00000000000E+00 0.  1.
         21    1    1    2  505  501  0.10835721957E+02  0.53966206577E+02  0.59768295145E+02  0.81252774889E+02  0.00000000000E+00 0.  1.
         21    1    1    2  506  504 -0.12993641087E+02 -0.89835170133E+02  0.10097462502E+04  0.10138178743E+04  0.00000000000E+00 0.  1.
<scales pt_clust_3="153.78894" pt_clust_4="14000.00000" pt_clust_5="55.04329" pt_clust_6="90.06205"></scales>
<clustering>
<clus scale="   55.043">  2  5  1 -1</clus>
<clus scale="   90.062">  1  6  2 -1</clus>
<clus scale="  153.789">  2  3  1 -1</clus>
<clus scale="   90.062">  1  3  2 -1</clus>
</clustering>
</event>
<event>
 6    0  0.8520634E+002  0.1026049E+03  0.7546771E-02  0.1274912E+00
         21   -1    0    0  506  501  0.00000000000E+00  0.00000000000E+00  0.13098386299E+04  0.13098386299E+04  0.00000000000E+00 0.  1.
         21   -1    0    0  504  502 -0.00000000000E+00 -0.00000000000E+00 -0.26556339253E+02  0.26556339253E+02  0.00000000000E+00 0. -1.
         21    1    1    2  503  502  0.19000055262E+02  0.28810153128E+02  0.18148622497E+02  0.38992300801E+02  0.00000000000E+00 0. -1.
         21    1    1    2  504  501 -0.11551012352E+03 -0.42876886902E+02  0.98644956458E+03  0.99411456057E+03  0.00000000000E+00 0.  1.
         21    1    1    2  505  503  0.60872135995E+02  0.83813383996E+01  0.77553480711E+02  0.98945470560E+02  0.00000000000E+00 0. -1.
         21    1    1    2  506  505  0.35637932268E+02  0.56853953752E+01  0.20113062284E+03  0.20434263720E+03  0.00000000000E+00 0.  1.
<scales pt_clust_3="34.38546" pt_clust_4="91.77479" pt_clust_5="34.38546" pt_clust_6="36.08858"></scales>
<clustering>
<clus scale="   34.385">  3  5 -1 -1</clus>
<clus scale="   36.089">  1  6  2 -1</clus>
<clus scale="   91.775">  1  4  2 -1</clus>
<clus scale="   36.089">  1  3  2 -1</clus>
</clustering>
</event>
<event>
 6    0  0.8520634E+002  0.1031276E+03  0.7546771E-02  0.1273853E+00
         21   -1    0    0  504  501  0.00000000000E+00  0.00000000000E+00  0.59925936486E+03  0.59925936486E+03  0.00000000000E+00 0. -1.
         21   -1    0    0  506  502 -0.00000000000E+00 -0.00000000000E+00 -0.21732649707E+03  0.21732649707E+03  0.00000000000E+00 0. -1.
         21    1    1    2  503  505 -0.68353481331E+02 -0.41644830955E+02  0.56182779135E+02  0.97790567166E+02  0.00000000000E+00 0. -1.
         21    1    1    2  504  503 -0.58895583937E+00 -0.66226612602E+02  0.47687421963E+03  0.48145127732E+03  0.00000000000E+00 0. -1.
         21    1    1    2  505  502  0.36600030050E+02  0.11354222561E+03 -0.47093668559E+02  0.12825448458E+03  0.00000000000E+00 0. -1.
         21    1    1    2  506  501  0.32342407120E+02 -0.56707820511E+01 -0.10403046242E+03  0.10908953286E+03  0.00000000000E+00 0. -1.
<scales pt_clust_3="103.12763" pt_clust_4="66.34382" pt_clust_5="14000.00000" pt_clust_6="32.83579"></scales>
<clustering>
<clus scale="   32.836">  2  6  1 -1</clus>
<clus scale="   66.344">  1  4  2 -1</clus>
<clus scale="  103.128">  1  3  2 -1</clus>
<clus scale="   66.344">  1  3  2 -1</clus>
</clustering>
</event>
<event>
 6    0  0.8520634E+002  0.1969355E+03  0.7546771E-02  0.1152351E+00
         21   -1    0    0  504  501  0.00000000000E+00  0.00000000000E+00  0.15043145971E+04  0.15043145971E+04  0.00000000000E+00 0.  1.
         21   -1    0    0  506  502 -0.00000000000E+00 -0.00000000000E+00 -0.23647965744E+03  0.23647965744E+03  0.00000000000E+00 0. -1.
         21    1    1    2  503  501 -0.97095688128E+01 -0.14385431607E+03  0.86695234409E+03  0.87885989037E+03  0.00000000000E+00 0.  1.
         21    1    1    2  504  505 -0.18531060396E+03  0.13557981777E+03  0.33871141198E+03  0.40920328388E+03  0.00000000000E+00 0. -1.
         21    1    1    2  505  502  0.15008030802E+02  0.42894730853E+02 -0.15905886693E+03  0.16542346289E+03  0.00000000000E+00 0. -1.
         21    1    1    2  506  503  0.18001214197E+03 -0.34620232548E+02  0.22123005047E+03  0.28730761736E+03  0.00000000000E+00 0.  1.
<scales pt_clust_3="140.67165" pt_clust_4="14000.00000" pt_clust_5="45.44446" pt_clust_6="196.93552"></scales>
<clustering>
<clus scale="   45.444">  2  5  1 -1</clus>
<clus scale="  140.672">  1  3  2 -1</clus>
<clus scale="  196.936">  2  6  1 -1</clus>
<clus scale="  140.672">  1  3  2 -1</clus>
</clustering>
</event>
<event>
 6    0  0.8520634E+002  0.9939994E+02  0.7546771E-02  0.1281563E+00
         21   -1    0    0  506  501  0.00000000000E+00  0.00000000000E+00  0.91460210327E+02  0.91460210327E+02  0.00000000000E+00 0. -1.
         21   -1    0    0  503  502 -0.00000000000E+00 -0.00000000000E+00 -0.51263213973E+03  0.51263213973E+03  0.00000000000E+00 0.  1.
         21    1    1    2  503  505 -0.27157168709E+02 -0.37161044634E+02 -0.14744468550E+02  0.48330677664E+02  0.00000000000E+00 0. -1.
         21    1    1    2  504  502  0.51236589248E+02 -0.43001797998E+02 -0.38887001368E+03  0.39458108197E+03  0.00000000000E+00 0.  1.
         21    1    1    2  505  501  0.60314481208E+01 -0.37830996282E+02 -0.13606744299E+01  0.38332937286E+02  0.00000000000E+00 0. -1.
         21    1    1    2  506  504 -0.30110868660E+02  0.11799383891E+03 -0.16196772740E+02  0.12284765313E+03  0.00000000000E+00 0. -1.
<scales pt_clust_3="31.35368" pt_clust_4="66.89053" pt_clust_5="31.35368" pt_clust_6="93.26974"></scales>
<clustering>
<clus scale="   31.354">  3  5 -1 -1</clus>
<clus scale="   66.891">  2  4  1 -1</clus>
<clus scale="   93.270">  2  6  1 -1</clus>
<clus scale="   99.400">  1  3  2 -1</clus>
</clustering>
</event>
<event>
 6    0  0.8520634E+002  0.1187156E+03  0.7546771E-02  0.1245231E+00
         21   -1    0    0  504  501  0.00000000000E+00  0.00000000000E+00  0.23870228014E+03  0.23870228014E+03  0.00000000000E+00 0.  1.
         21   -1    0    0  505  502 -0.00000000000E+00 -0.00000000000E+00 -0.36274047458E+03  0.36274047458E+03  0.00000000000E+00 0.  1.
         21    1    1    2  503  502  0.54587648977E+02 -0.15631378356E+02 -0.36575096685E+02  0.67541758251E+02  0.00000000000E+00 0.  1.
         21    1    1    2  504  506 -0.74335731089E+02  0.68213679450E+02  0.82600291101E+02  0.13039062493E+03  0.00000000000E+00 0.  1.
         21    1    1    2  505  501  0.45325690184E+02  0.92214148707E+02 -0.22435820936E+03  0.24676805612E+03  0.00000000000E+00 0.  1.
         21    1    1    2  506  503 -0.25577608072E+02 -0.14479644980E+03  0.54294820507E+02  0.15674231542E+03  0.00000000000E+00 0.  1.
<scales pt_clust_3="56.78161" pt_clust_4="97.00398" pt_clust_5="14000.00000" pt_clust_6="118.71556"></scales>
<clustering>
<clus scale="   56.782">  2  3  1 -1</clus>
<clus scale="   97.004">  1  4  2 -1</clus>
<clus scale="  118.716">  1  6  2 -1</clus>
<clus scale="   97.004">  1  3  2 -1</clus>
</clustering>
</event>
<event>
 6    0  0.8520634E+002  0.8396537E+02  0.7546771E-02  0.1318161E+00
         21   -1    0    0  504  501  0.00000000000E+00  0.00000000000E+00  0.31680909094E+03  0.31680909094E+03  0.00000000000E+00 0.  1.
         21   -1    0    0  505  502 -0.00000000000E+00 -0.00000000000E+00 -0.20825976573E+04  0.20825976573E+04  0.00000000000E+00 0. -1.
         21    1    1    2  503  506  0.82875309568E+02 -0.11245611823E+02 -0.77116871888E+02  0.11376200003E+03  0.00000000000E+00 0.  1.
         21    1    1    2  504  502 -0.10606270113E+03  0.35291207987E+02 -0.32339779763E+02  0.11636420106E+03  0.00000000000E+00 0.  1.
         21    1    1    2  505  503 -0.24199937857E+02 -0.20128800853E+02 -0.19104716434E+04  0.19107309349E+04  0.00000000000E+00 0. -1.
         21    1    1    2  506  501  0.47387329420E+02 -0.39167953105E+01  0.25413972868E+03  0.25854961220E+03  0.00000000000E+00 0.  1.
<scales pt_clust_3="83.96537" pt_clust_4="14000.00000" pt_clust_5="31.47706" pt_clust_6="47.26185"></scales>
<clustering>
<clus scale="   31.477">  2  5  1 -1</clus>
<clus scale="   47.262">  1  6  2 -1</clus>
<clus scale="   83.965">  2  3  1 -1</clus>
<clus scale="   47.262">  1  3  2 -1</clus>
</clustering>
</event>
<event>
 6    0  0.8520634E+002  0.8684208E+02  0.7546771E-02  0.1310684E+00
         21   -1    0    0  503  501  0.00000000000E+00  0.00000000000E+00  0.76897147315E+03  0.76897147315E+03  0.00000000000E+00 0.  1.
         21   -1    0    0  505  502 -0.00000000000E+00 -0.00000000000E+00 -0.10320603197E+03  0.10320603197E+03  0.00000000000E+00 0.  1.
         21    1    1    2  503  502 -0.69715820433E+02  0.21271976860E+02  0.38993170219E+02  0.82663534536E+02  0.00000000000E+00 0.  1.
         21    1    1    2  504  501  0.36434095639E+02 -0.88793442758E+00  0.58258391276E+03  0.58372274854E+03  0.00000000000E+00 0.  1.
         21    1    1    2  505  506  0.96929619405E+02  0.11854956331E+02 -0.30693031225E+02  0.10236187412E+03  0.00000000000E+00 0.  1.
         21    1    1    2  506  504 -0.63647894611E+02 -0.32238998763E+02  0.74881389427E+02  0.10342934792E+03  0.00000000000E+00 0.  1.
<scales pt_clust_3="86.84208" pt_clust_4="36.44491" pt_clust_5="14000.00000" pt_clust_6="56.55424"></scales>
<clustering>
<clus scale="   36.445">  1  4  2 -1</clus>
<clus scale="   56.554">  1  6  2 -1</clus>
<clus scale="   86.842">  1  3  2 -1</clus>
<clus scale="   36.445">  1  3  2 -1</clus>
</clustering>
</event>
<event>
 6    0  0.1338977E+003  0.1397004E+03  0.7546771E-02  0.1213733E+00
         21   -1    0    0  506  501  0.00000000000E+00  0.00000000000E+00  0.79546969878E+03  0.79546969878E+03  0.00000000000E+00 0.  1.
         21   -1    0    0  503  502 -0.00000000000E+00 -0.00000000000E+00 -0.11735076898E+04  0.11735076898E+04  0.00000000000E+00 0.  1.
         21    1    1    2  503  501 -0.34918162749E+02  0.15376409438E+02 -0.10062397269E+04  0.10069628097E+04  0.00000000000E+00 0.  1.
         21    1    1    2  504  505 -0.62535450164E+02 -0.75290979919E+02  0.48788097208E+03  0.49760150432E+03  0.00000000000E+00 0.  1.
         21    1    1    2  505  502  0.13742567307E+03  0.58456796409E+02 -0.12582299476E+03  0.19528041037E+03  0.00000000000E+00 0. -1.
         21    1    1    2  506  504 -0.39972060160E+02  0.14577740716E+01  0.26614375859E+03  0.26913266419E+03  0.00000000000E+00 0.  1.
<scales pt_clust_3="38.15379" pt_clust_4="37.10473" pt_clust_5="127.07223" pt_clust_6="37.10473"></scales>
<clustering>
<clus scale="   37.105">  4  6 -1 -1</clus>
<clus scale="   38.154">  2  3  1 -1</clus>
<clus scale="  127.072">  2  5  1 -1</clus>
<clus scale="  139.700">  1  3  2 -1</clus>
</clustering>
</event>
<event>
 6    0  0.8520634E+002  0.1270561E+03  0.7546771E-02  0.1231891E+00
         21   -1    0    0  506  501  0.00000000000E+00  0.00000000000E+00  0.61963771579E+03  0.61963771579E+03  0.00000000000E+00 0. -1.
         21   -1    0    0  505  502 -0.00000000000E+00 -0.00000000000E+00 -0.52844344050E+03  0.52844344050E+03  0.00000000000E+00 0. -1.
         21    1    1    2  503  501  0.12699386357E+02 -0.41903864852E+02  0.13847947947E+03  0.14523695996E+03  0.00000000000E+00 0. -1.
         21    1    1    2  504  502  0.83563972994E+02  0.93243996274E+02 -0.21029348276E+03  0.24474625496E+03  0.00000000000E+00 0.  1.
         21    1    1    2  505  503 -0.13484831025E+03 -0.35917613961E+02 -0.28015693612E+03  0.31298889857E+03  0.00000000000E+00 0. -1.
         21    1    1    2  506  504  0.38584950900E+02 -0.15422517462E+02  0.44316521469E+03  0.44510904281E+03  0.00000000000E+00 0. -1.
<scales pt_clust_3="69.87301" pt_clust_4="127.05609" pt_clust_5="14000.00000" pt_clust_6="41.55301"></scales>
<clustering>
<clus scale="   41.553">  1  6  2 -1</clus>
<clus scale="   69.873">  1  3  2 -1</clus>
<clus scale="  127.056">  1  4  2 -1</clus>
<clus scale="   41.553">  1  3  2 -1</clus>
</clustering>
</event>
<event>
 6    0  0.8520634E+002  0.1600103E+03  0.7546771E-02  0.1188685E+00
         21   -1    0    0  505  501  0.00000000000E+00  0.00000000000E+00  0.81446201735E+03  0.81446201735E+03  0.00000000000E+00 0. -1.
         21   -1    0    0  503  502 -0.00000000000E+00 -0.00000000000E+00 -0.13646066504E+03  0.13646066504E+03  0.00000000000E+00 0.  1.
         21    1    1    2  503  504  0.47826064503E+02  0.12011504470E+02  0.17313011034E+03  0.18001567651E+03  0.00000000000E+00 0. -1.
         21    1    1    2  504  501  0.51011576480E+02  0.49264515042E+02  0.44139105783E+03  0.44705171884E+03  0.00000000000E+00 0. -1.
         21    1    1    2  505  506 -0.32749476703E+02  0.82543370644E+02  0.12560170889E+03  0.15382368328E+03  0.00000000000E+00 0. -1.
         21    1    1    2  506  502 -0.66088164280E+02 -0.14381939015E+03 -0.62121524751E+02  0.17003160377E+03  0.00000000000E+00 0.  1.
<scales pt_clust_3="37.78849" pt_clust_4="37.78849" pt_clust_5="88.80279" pt_clust_6="153.45907"></scales>
<clustering>
<clus scale="   37.788">  3  4 -1 -1</clus>
<clus scale="   88.803">  1  5  2 -1</clus>
<clus scale="  153.459">  2  6  1 -1</clus>
<clus scale="   88.803">  1  3  2 -1</clus>
</clustering>
</event>
<event>
 6    0  0.8520634E+002  0.8802231E+02  0.7546771E-02  0.1307713E+00
         21   -1    0    0  505  501  0.00000000000E+00  0.00000000000E+00  0.75365122455E+03  0.75365122455E+03  0.00000000000E+00 0. -1.
         21   -1    0    0  503  502 -0.00000000000E+00 -0.00000000000E+00 -0.50821607886E+03  0.50821607886E+03  0.00000000000E+00 0.  1.
         21    1    1    2  503  506  0.13528606254E+03 -0.47750940231E+02 -0.25717181689E+03  0.29448228201E+03  0.00000000000E+00 0.  1.
         21    1    1    2  504  501 -0.32234499206E+02  0.11482045214E+02  0.62976468112E+03  0.63069362918E+03  0.00000000000E+00 0. -1.
         21    1    1    2  505  502 -0.49522952677E+02  0.19914380565E+02 -0.22103843166E+03  0.22739193843E+03  0.00000000000E+00 0.  1.
         21    1    1    2  506  504 -0.53528610659E+02  0.16354514452E+02  0.93880713125E+02  0.10929945379E+03  0.00000000000E+00 0. -1.
<scales pt_clust_3="88.02231" pt_clust_4="34.21842" pt_clust_5="54.25706" pt_clust_6="14000.00000"></scales>
<clustering>
<clus scale="   34.218">  1  4  2 -1</clus>
<clus scale="   54.257">  2  5  1 -1</clus>
<clus scale="   88.022">  2  3  1 -1</clus>
<clus scale="   34.218">  1  3  2 -1</clus>
</clustering>
</event>
<event>
 6    0  0.8520634E+002  0.8081999E+02  0.7546771E-02  0.1326740E+00
         21   -1    0    0  506  501  0.00000000000E+00  0.00000000000E+00  0.14912212988E+04  0.14912212988E+04  0.00000000000E+00 0.  1.
         21   -1    0    0  503  502 -0.00000000000E+00 -0.00000000000E+00 -0.48322490834E+03  0.48322490834E+03  0.00000000000E+00 0.  1.
         21    1    1    2  503  505  0.29233990361E+02  0.12323283020E+02 -0.39363167537E+03  0.39490807203E+03  0.00000000000E+00 0.  1.
         21    1    1    2  504  501 -0.24232357373E+02  0.76913448377E+02  0.14001290941E+04  0.14024494165E+04  0.00000000000E+00 0.  1.
         21    1    1    2  505  504 -0.35587876083E+02 -0.10869705287E+03 -0.40751088937E+02  0.12141745128E+03  0.00000000000E+00 0.  1.
         21    1    1    2  506  502  0.30586243096E+02  0.19460321474E+02  0.42250060627E+02  0.55671267289E+02  0.00000000000E+00 0. -1.
<scales pt_clust_3="31.72522" pt_clust_4="80.81999" pt_clust_5="14000.00000" pt_clust_6="38.61399"></scales>
<clustering>
<clus scale="   31.725">  2  3  1 -1</clus>
<clus scale="   38.614">  2  6  1 -1</clus>
<clus scale="   80.820">  1  4  2 -1</clus>
<clus scale="   80.820">  1  3  2 -1</clus>
</clustering>
</event>
<event>
 6    0  0.8520634E+002  0.8244198E+02  0.7546771E-02  0.1322261E+00
         21   -1    0    0  503  501  0.00000000000E+00  0.00000000000E+00  0.40855298674E+02  0.40855298674E+02  0.00000000000E+00 0. -1.
         21   -1    0    0  505  502 -0.00000000000E+00 -0.00000000000E+00 -0.97901288042E+03  0.97901288042E+03  0.00000000000E+00 0. -1.
         21    1    1    2  503  502  0.92568450997E+01  0.39887225672E+02  0.60525569169E+01  0.41392190064E+02  0.00000000000E+00 0. -1.
         21    1    1    2  504  501 -0.42277738030E+02  0.57164077201E+02 -0.10929217855E+03  0.13038373805E+03  0.00000000000E+00 0. -1.
         21    1    1    2  505  506  0.45781651212E+02 -0.56339598756E+01 -0.44562860722E+03  0.44800954975E+03  0.00000000000E+00 0. -1.
         21    1    1    2  506  504 -0.12760758282E+02 -0.91417342998E+02 -0.38928935289E+03  0.40008270123E+03  0.00000000000E+00 0. -1.
<scales pt_clust_3="40.94728" pt_clust_4="14000.00000" pt_clust_5="46.51302" pt_clust_6="82.44198"></scales>
<clustering>
<clus scale="   40.947">  1  3  2 -1</clus>
<clus scale="   46.513">  2  5  1 -1</clus>
<clus scale="   82.442">  2  6  1 -1</clus>
<clus scale="   40.947">  1  3  2 -1</clus>
</clustering>
</event>
<event>
 6    0  0.8520634E+002  0.7544529E+02  0.7546771E-02  0.1342498E+00
         21   -1    0    0  505  501  0.00000000000E+00  0.00000000000E+00  0.46587718302E+03  0.46587718302E+03  0.00000000000E+00 0. -1.
         21   -1    0    0  503  502 -0.00000000000E+00 -0.00000000000E+00 -0.38836789727E+03  0.38836789727E+03  0.00000000000E+00 0.  1.
         21    1    1    2  503  504 -0.37410319627E+01 -0.61828075434E+02 -0.32563638977E+03  0.33147513418E+03  0.00000000000E+00 0.  1.
         21    1    1    2  504  501 -0.26079216816E+02  0.45325865848E+02  0.31223876681E+03  0.31658744000E+03  0.00000000000E+00 0. -1.
         21    1    1    2  505  506  0.77479181231E+02 -0.55981497986E+02  0.65196098228E+02  0.11570429061E+03  0.00000000000E+00 0.  1.
         21    1    1    2  506  502 -0.47658932453E+02  0.72483707572E+02  0.25710810481E+02  0.90478215508E+02  0.00000000000E+00 0. -1.
<scales pt_clust_3="61.10199" pt_clust_4="52.29302" pt_clust_5="75.44529" pt_clust_6="14000.00000"></scales>
<clustering>
<clus scale="   52.293">  1  4  2 -1</clus>
<clus scale="   61.102">  2  3  1 -1</clus>
<clus scale="   75.445">  1  5  2 -1</clus>
<clus scale="   52.293">  1  3  2 -1</clus>
</clustering>
</event>
<event>
 6    0  0.8520634E+002  0.1903513E+03  0.7546771E-02  0.1158145E+00
         21   -1    0    0  506  501  0.00000000000E+00  0.00000000000E+00  0.21194748780E+03  0.21194748780E+03  0.00000000000E+00 0. -1.
         21   -1    0    0  505  502 -0.00000000000E+00 -0.00000000000E+00 -0.14339249622E+04  0.14339249622E+04  0.00000000000E+00 0. -1.
         21    1    1    2  503  501  0.36262212258E+02 -0.18515568218E+03  0.13286656161E+03  0.23076199400E+03  0.00000000000E+00 0. -1.
         21    1    1    2  504  503 -0.23852782464E+02  0.20247266227E+03 -0.35189847790E+03  0.40668989776E+03  0.00000000000E+00 0. -1.
         21    1    1    2  505  504 -0.16997045128E+02  0.35941407389E+02 -0.21370786234E+03  0.21737464142E+03  0.00000000000E+00 0. -1.
         21    1    1    2  506  502  0.45876153346E+01 -0.53258387476E+02 -0.78923769577E+03  0.79104591679E+03  0.00000000000E+00 0. -1.
<scales pt_clust_3="190.35125" pt_clust_4="14000.00000" pt_clust_5="39.75782" pt_clust_6="30.63336"></scales>
<clustering>
<clus scale="   39.758">  2  5  1 -1</clus>
<clus scale="   30.633">  2  6  1 -1</clus>
<clus scale="  190.351">  1  3  2 -1</clus>
<clus scale="  190.351">  1  3  2 -1</clus>
</clustering>
</event>
<event>
 6    0  0.8520634E+002  0.1138690E+03  0.7546771E-02  0.1253568E+00
         21   -1    0    0  505  501  0.00000000000E+00  0.00000000000E+00  0.13916423608E+04  0.13916423608E+04  0.00000000000E+00 0.  1.
         21   -1    0    0  504  502 -0.00000000000E+00 -0.00000000000E+00 -0.13192346928E+03  0.13192346928E+03  0.00000000000E+00 0. -1.
         21    1    1    2  503  501 -0.11359683399E+03  0.13519512291E+02  0.11610134222E+04  0.11666358406E+04  0.00000000000E+00 0.  1.
         21    1    1    2  504  506 -0.95631200575E+01  0.49233626526E+02  0.85627303700E+02  0.99234260138E+02  0.00000000000E+00 0. -1.
         21    1    1    2  505  502  0.14672899437E+02 -0.47815155776E+02 -0.92768864049E+02  0.10539281397E+03  0.00000000000E+00 0. -1.
         21    1    1    2  506  503  0.10848705461E+03 -0.14937983041E+02  0.10584702962E+03  0.15230291539E+03  0.00000000000E+00 0.  1.
<scales pt_clust_3="113.86902" pt_clust_4="39.86591" pt_clust_5="50.01583" pt_clust_6="14000.00000"></scales>
<clustering>
<clus scale="   50.016">  2  5  1 -1</clus>
<clus scale="   39.866">  2  4  1 -1</clus>
<clus scale="  113.869">  1  3  2 -1</clus>
<clus scale="  113.869">  1  3  2 -1</clus>
</clustering>
</event>
<event>
 6    0  0.8520634E+002  0.3237032E+03  0.7546771E-02  0.1073957E+00
         21   -1    0    0  506  501  0.00000000000E+00  0.00000000000E+00  0.19850494052E+03  0.19850494052E+03  0.00000000000E+00 0.  1.
         21   -1    0    0  504  502 -0.00000000000E+00 -0.00000000000E+00 -0.83481224456E+03  0.83481224456E+03  0.00000000000E+00 0.  1.
         21    1    1    2  503  502  0.20032519049E+03 -0.86513770823E+02 -0.51847650386E+02  0.22428328814E+03  0.00000000000E+00 0.  1.
         21    1    1    2  504  505  0.11446937756E+01  0.47618940058E+02 -0.95793572783E+02  0.10698262645E+03  0.00000000000E+00 0. -1.
         21    1    1    2  505  501 -0.26480521773E+03  0.11585085557E+03 -0.52223227864E+03  0.59688338637E+03  0.00000000000E+00 0.  1.
         21    1    1    2  506  503  0.63335333459E+02 -0.76956024808E+02  0.33566197768E+02  0.10516788412E+03  0.00000000000E+00 0.  1.
<scales pt_clust_3="73.81640" pt_clust_4="47.63270" pt_clust_5="304.66237" pt_clust_6="73.81640"></scales>
<clustering>
<clus scale="   47.633">  2  4  1 -1</clus>
<clus scale="   73.816">  3  6 -1 -1</clus>
<clus scale="  304.662">  2  5  1 -1</clus>
<clus scale="  323.703">  1  3  2 -1</clus>
</clustering>
</event>
<event>
 6    0  0.8520634E+002  0.2401400E+03  0.7546771E-02  0.1119700E+00
         21   -1    0    0  505  501  0.00000000000E+00  0.00000000000E+00  0.38942482734E+03  0.38942482734E+03  0.00000000000E+00 0.  1.
         21   -1    0    0  504  502 -0.00000000000E+00 -0.00000000000E+00 -0.17974013454E+04  0.17974013454E+04  0.00000000000E+00 0. -1.
         21    1    1    2  503  501  0.78355136976E+02 -0.25560545437E+01  0.17595510546E+02  0.80347139941E+02  0.00000000000E+00 0.  1.
         21    1    1    2  504  506  0.24511087907E+02 -0.57642827146E+02 -0.10537161119E+04  0.10555762092E+04  0.00000000000E+00 0. -1.
         21    1    1    2  505  502 -0.22055096058E+03  0.20177711422E+03  0.25789093751E+03  0.39479673970E+03  0.00000000000E+00 0.  1.
         21    1    1    2  506  503  0.11768473569E+03 -0.14157823253E+03 -0.62974685417E+03  0.65610608386E+03  0.00000000000E+00 0. -1.
<scales pt_clust_3="79.54728" pt_clust_4="62.63776" pt_clust_5="240.14001" pt_clust_6="14000.00000"></scales>
<clustering>
<clus scale="   62.638">  2  4  1 -1</clus>
<clus scale="   79.547">  1  3  2 -1</clus>
<clus scale="  240.140">  1  5  2 -1</clus>
<clus scale="   79.547">  1  3  2 -1</clus>
</clustering>
</event>
<event>
 6    0  0.8520634E+002  0.1286639E+03  0.7546771E-02  0.1229452E+00
         21   -1    0    0  503  501  0.00000000000E+00  0.00000000000E+00  0.27983427100E+03  0.27983427100E+03  0.00000000000E+00 0. -1.
         21   -1    0    0  505  502 -0.00000000000E+00 -0.00000000000E+00 -0.41391398133E+03  0.41391398133E+03  0.00000000000E+00 0. -1.
         21    1    1    2  503  506  0.39667771822E+02  0.10390714950E+03  0.70349059112E+02  0.13160249981E+03  0.00000000000E+00 0. -1.
         21    1    1    2  504  502 -0.23400362299E+02  0.20967250630E+02 -0.31377003980E+03  0.31533924657E+03  0.00000000000E+00 0. -1.
         21    1    1    2  505  501 -0.46828522700E+02 -0.13901329150E+03  0.13888759834E+03  0.20200834320E+03  0.00000000000E+00 0. -1.
         21    1    1    2  506  504  0.30561113176E+02  0.14138891365E+02 -0.29546327983E+02  0.44798162740E+02  0.00000000000E+00 0. -1.
<scales pt_clust_3="128.66387" pt_clust_4="31.41978" pt_clust_5="14000.00000" pt_clust_6="30.96427"></scales>
<clustering>
<clus scale="   31.420">  2  4  1 -1</clus>
<clus scale="   30.964">  2  6  1 -1</clus>
<clus scale="  128.664">  1  3  2 -1</clus>
<clus scale="  128.664">  1  3  2 -1</clus>
</clustering>
</event>
<event>
 6    0  0.8520634E+002  0.5708324E+02  0.7546771E-02  0.1410496E+00
         21   -1    0    0  506  501  0.00000000000E+00  0.00000000000E+00  0.41481062439E+02  0.41481062439E+02  0.00000000000E+00 0.  1.
         21   -1    0    0  505  502 -0.00000000000E+00 -0.00000000000E+00 -0.63855228370E+03  0.63855228370E+03  0.00000000000E+00 0. -1.
         21    1    1    2  503  504 -0.26428627952E+02  0.48876135771E+02 -0.12163810858E+03  0.13372800186E+03  0.00000000000E+00 0.  1.
         21    1    1    2  504  501 -0.45793240892E+02 -0.27361469731E+02 -0.40484665029E+01  0.53498233787E+02  0.00000000000E+00 0.  1.
         21    1    1    2  505  503 -0.49178363734E+01 -0.56614133853E+02 -0.23216625323E+03  0.23901990378E+03  0.00000000000E+00 0. -1.
         21    1    1    2  506  502  0.77139705218E+02  0.35099467814E+02 -0.23921839295E+03  0.25378720670E+03  0.00000000000E+00 0. -1.
<scales pt_clust_3="58.01743" pt_clust_4="53.34483" pt_clust_5="14000.00000" pt_clust_6="57.08324"></scales>
<clustering>
<clus scale="   53.345">  1  4  2 -1</clus>
<clus scale="   58.017">  1  3  2 -1</clus>
<clus scale="   57.083">  1  6  2 -1</clus>
<clus scale="   53.345">  1  3  2 -1</clus>
</clustering>
</event>
<event>
 6    0  0.8520634E+002  0.8445707E+02  0.7546771E-02  0.1316858E+00
         21   -1    0    0  506  501  0.00000000000E+00  0.00000000000E+00  0.87261484431E+02  0.87261484431E+02  0.00000000000E+00 0. -1.
         21   -1    0    0  505  502 -0.00000000000E+00 -0.00000000000E+00 -0.18973571744E+04  0.18973571744E+04  0.00000000000E+00 0. -1.
         21    1    1    2  503  501 -0.60167041321E+02  0.60615645083E+02 -0.68010587365E+02  0.10917769591E+03  0.00000000000E+00 0. -1.
         21    1    1    2  504  502  0.62277694453E+02 -0.58904964921E+02 -0.72883386136E+03  0.73385768619E+03  0.00000000000E+00 0. -1.
         21    1    1    2  505  503 -0.47330921122E+02 -0.28427138550E+02 -0.10658336320E+04  0.10672626900E+04  0.00000000000E+00 0. -1.
         21    1    1    2  506  504  0.45220267990E+02  0.26716458388E+02  0.52582390806E+02  0.74320586709E+02  0.00000000000E+00 0. -1.
<scales pt_clust_3="14000.00000" pt_clust_4="84.45707" pt_clust_5="53.63543" pt_clust_6="52.52277"></scales>
<clustering>
<clus scale="   52.523">  1  6  2 -1</clus>
<clus scale="   53.635">  2  5  1 -1</clus>
<clus scale="   84.457">  2  4  1 -1</clus>
<clus scale="   52.523">  1  3  2 -1</clus>
</clustering>
</event>
<event>
 6    0  0.8520634E+002  0.8156560E+02  0.7546771E-02  0.1324666E+00
         21   -1    0    0  503  501  0.00000000000E+00  0.00000000000E+00  0.26507830186E+02  0.26507830186E+02  0.00000000000E+00 0. -1.
         21   -1    0    0  505  502 -0.00000000000E+00 -0.00000000000E+00 -0.90280549869E+03  0.90280549869E+03  0.00000000000E+00 0.  1.
         21    1    1    2  503  504 -0.10036964987E+03  0.22498655703E+02 -0.15457382448E+03  0.18566993116E+03  0.00000000000E+00 0. -1.
         21    1    1    2  504  502  0.31124789318E+02 -0.72651313504E+02 -0.31121569971E+03  0.32109527809E+03  0.00000000000E+00 0.  1.
         21    1    1    2  505  506  0.42156241801E+02  0.28198924033E+02 -0.34135133728E+03  0.34509862866E+03  0.00000000000E+00 0.  1.
         21    1    1    2  506  501  0.27088618748E+02  0.21953733768E+02 -0.69156807028E+02  0.77449490963E+02  0.00000000000E+00 0. -1.
<scales pt_clust_3="14000.00000" pt_clust_4="81.56560" pt_clust_5="53.62809" pt_clust_6="34.86775"></scales>
<clustering>
<clus scale="   34.868">  1  6  2 -1</clus>
<clus scale="   53.628">  2  5  1 -1</clus>
<clus scale="   81.566">  2  4  1 -1</clus>
<clus scale="   34.868">  1  3  2 -1</clus>
</clustering>
</event>
<event>
 6    0  0.8520634E+002  0.1550616E+03  0.7546771E-02  0.1194388E+00
         21   -1    0    0  506  501  0.00000000000E+00  0.00000000000E+00  0.23982801094E+03  0.23982801094E+03  0.00000000000E+00 0.  1.
         21   -1    0    0  504  502 -0.00000000000E+00 -0.00000000000E+00 -0.17479316839E+03  0.17479316839E+03  0.00000000000E+00 0.  1.
         21    1    1    2  503  501 -0.10267250087E+03 -0.20845211076E+02  0.60997445432E+02  0.12123058034E+03  0.00000000000E+00 0.  1.
         21    1    1    2  504  503 -0.40349053103E+02  0.25285789417E+02  0.34673161392E+02  0.58903695585E+02  0.00000000000E+00 0.  1.
         21    1    1    2  505  502 -0.89765827167E+00  0.55766498884E+02 -0.52936370349E+02  0.76895822343E+02  0.00000000000E+00 0. -1.
         21    1    1    2  506  505  0.14391921225E+03 -0.60207077225E+02  0.22300606076E+02  0.15759108107E+03  0.00000000000E+00 0.  1.
<scales pt_clust_3="35.80483" pt_clust_4="35.80483" pt_clust_5="55.77372" pt_clust_6="145.68279"></scales>
<clustering>
<clus scale="   35.805">  3  4 -1 -1</clus>
<clus scale="   55.774">  2  5  1 -1</clus>
<clus scale="  145.683">  2  6  1 -1</clus>
<clus scale="  155.062">  1  3  2 -1</clus>
</clustering>
</event>
<event>
 6    0  0.8520634E+002  0.8804830E+02  0.7546771E-02  0.1307648E+00
         21   -1    0    0  505  501  0.00000000000E+00  0.00000000000E+00  0.11242757597E+04  0.11242757597E+04  0.00000000000E+00 0.  1.
         21   -1    0    0  503  502 -0.00000000000E+00 -0.00000000000E+00 -0.46510728723E+02  0.46510728723E+02  0.00000000000E+00 0. -1.
         21    1    1    2  503  501  0.44623325440E+02  0.63199032985E+02  0.14108647341E+03  0.16090603445E+03  0.00000000000E+00 0. -1.
         21    1    1    2  504  502 -0.25411473580E+01 -0.31433046041E+02  0.43880096167E+01  0.31839416479E+02  0.00000000000E+00 0.  1.
         21    1    1    2  505  506  0.67059357796E+02 -0.82736229692E+01  0.80860092042E+03  0.81141904020E+03  0.00000000000E+00 0.  1.
         21    1    1    2  506  504 -0.10914153588E+03 -0.23492363975E+02  0.12368962751E+03  0.16662199726E+03  0.00000000000E+00 0. -1.
<scales pt_clust_3="88.04830" pt_clust_4="31.53560" pt_clust_5="67.63841" pt_clust_6="14000.00000"></scales>
<clustering>
<clus scale="   31.536">  2  4  1 -1</clus>
<clus scale="   67.638">  1  5  2 -1</clus>
<clus scale="   88.048">  2  3  1 -1</clus>
<clus scale="   67.638">  1  3  2 -1</clus>
</clustering>
</event>
<event>
 6    0  0.8520634E+002  0.2316149E+03  0.7546771E-02  0.1125508E+00
         21   -1    0    0  503  501  0.00000000000E+00  0.00000000000E+00  0.44906326326E+03  0.44906326326E+03  0.00000000000E+00 0. -1.
         21   -1    0    0  505  502 -0.00000000000E+00 -0.00000000000E+00 -0.29798981508E+03  0.29798981508E+03  0.00000000000E+00 0.  1.
         21    1    1    2  503  504  0.18642248324E+02  0.36440289110E+02  0.11396966424E+03  0.12109711995E+03  0.00000000000E+00 0. -1.
         21    1    1    2  504  506 -0.44455152610E+02  0.10742563268E+01  0.16433924834E+02  0.47407684036E+02  0.00000000000E+00 0.  1.
         21    1    1    2  505  501 -0.21412703021E+03  0.66765361598E+02 -0.14666505616E+03  0.26798999473E+03  0.00000000000E+00 0.  1.
         21    1    1    2  506  502  0.23993993450E+03 -0.10427990703E+03  0.16733491527E+03  0.31055827963E+03  0.00000000000E+00 0. -1.
<scales pt_clust_3="40.93199" pt_clust_4="42.90567" pt_clust_5="14000.00000" pt_clust_6="231.61495"></scales>
<clustering>
<clus scale="   40.932">  1  3  2 -1</clus>
<clus scale="   42.906">  1  4  2 -1</clus>
<clus scale="  231.615">  1  6  2 -1</clus>
<clus scale="   40.932">  1  3  2 -1</clus>
</clustering>
</event>
<event>
 6    0  0.8520634E+002  0.6282474E+02  0.7546771E-02  0.1386346E+00
         21   -1    0    0  503  501  0.00000000000E+00  0.00000000000E+00  0.72131514268E+03  0.72131514268E+03  0.00000000000E+00 0.  1.
         21   -1    0    0  505  502 -0.00000000000E+00 -0.00000000000E+00 -0.31172329385E+03  0.31172329385E+03  0.00000000000E+00 0.  1.
         21    1    1    2  503  506 -0.28973373886E+02 -0.44522257279E+02  0.36622320840E+03  0.37005557172E+03  0.00000000000E+00 0.  1.
         21    1    1    2  504  502 -0.20774837912E+02  0.59291333465E+02 -0.29046534085E+03  0.29718204918E+03  0.00000000000E+00 0.  1.
         21    1    1    2  505  501  0.56060832765E+02  0.53803190516E+02  0.21288626721E+03  0.22662339475E+03  0.00000000000E+00 0.  1.
         21    1    1    2  506  504 -0.63126209676E+01 -0.68572266703E+02  0.12094771407E+03  0.13917742088E+03  0.00000000000E+00 0.  1.
<scales pt_clust_3="53.11956" pt_clust_4="62.82474" pt_clust_5="46.12728" pt_clust_6="14000.00000"></scales>
<clustering>
<clus scale="   53.120">  1  3  2 -1</clus>
<clus scale="   46.127">  1  5  2 -1</clus>
<clus scale="   62.825">  2  4  1 -1</clus>
<clus scale="   53.120">  1  3  2 -1</clus>
</clustering>
</event>
<event>
 6    0  0.8520634E+002  0.9443318E+02  0.7546771E-02  0.1292458E+00
         21   -1    0    0  506  501  0.00000000000E+00  0.00000000000E+00  0.21969583480E+03  0.21969583480E+03  0.00000000000E+00 0. -1.
         21   -1    0    0  505  502 -0.00000000000E+00 -0.00000000000E+00 -0.10488259134E+04  0.10488259134E+04  0.00000000000E+00 0.  1.
         21    1    1    2  503  501 -0.75250844742E+02  0.92056793621E+02  0.13185077481E+03  0.17754371209E+03  0.00000000000E+00 0. -1.
         21    1    1    2  504  502  0.12599242906E+03 -0.81623063748E+02 -0.20588153498E+03  0.25480114435E+03  0.00000000000E+00 0.  1.
         21    1    1    2  505  503 -0.72345404843E+02  0.15968571951E+02 -0.78639782742E+03  0.78987998826E+03  0.00000000000E+00 0.  1.
         21    1    1    2  506  504  0.21603820529E+02 -0.26402301824E+02  0.31298509022E+02  0.46296903461E+02  0.00000000000E+00 0. -1.
<scales pt_clust_3="14000.00000" pt_clust_4="94.43318" pt_clust_5="73.82926" pt_clust_6="34.11461"></scales>
<clustering>
<clus scale="   34.115">  1  6  2 -1</clus>
<clus scale="   73.829">  2  5  1 -1</clus>
<clus scale="   94.433">  2  4  1 -1</clus>
<clus scale="   34.115">  1  3  2 -1</clus>
</clustering>
</event>
<event>
 6    0  0.8520634E+002  0.1229718E+03  0.7546771E-02  0.1238273E+00
         21   -1    0    0  506  501  0.00000000000E+00  0.00000000000E+00  0.11179160909E+03  0.11179160909E+03  0.00000000000E+00 0.  1.
         21   -1    0    0  503  502 -0.00000000000E+00 -0.00000000000E+00 -0.10673699913E+04  0.10673699913E+04  0.00000000000E+00 0.  1.
         21    1    1    2  503  501  0.57692214173E+02  0.46270705835E+02 -0.28916309803E+02  0.79407321874E+02  0.00000000000E+00 0.  1.
         21    1    1    2  504  505 -0.10375382807E+03  0.86359049820E+02 -0.72821816519E+03  0.74062435717E+03  0.00000000000E+00 0.  1.
         21    1    1    2  505  502  0.80149103565E+02  0.30182687594E+02 -0.17002536973E+03  0.19037725648E+03  0.00000000000E+00 0.  1.
         21    1    1    2  506  504 -0.34087489670E+02 -0.16281244325E+03 -0.28418537507E+02  0.16875266487E+03  0.00000000000E+00 0.  1.
<scales pt_clust_3="73.95519" pt_clust_4="14000.00000" pt_clust_5="93.94817" pt_clust_6="122.97182"></scales>
<clustering>
<clus scale="   73.955">  1  3  2 -1</clus>
<clus scale="   93.948">  2  5  1 -1</clus>
<clus scale="  122.972">  1  6  2 -1</clus>
<clus scale="   73.955">  1  3  2 -1</clus>
</clustering>
</event>
<event>
 6    0  0.8520634E+002  0.8755725E+02  0.7546771E-02  0.1308877E+00
         21   -1    0    0  504  501  0.00000000000E+00  0.00000000000E+00  0.36020514809E+04  0.36020514809E+04  0.00000000000E+00 0. -1.
         21   -1    0    0  505  502 -0.00000000000E+00 -0.00000000000E+00 -0.84030021473E+02  0.84030021473E+02  0.00000000000E+00 0. -1.
         21    1    1    2  503  502  0.28449904923E+02 -0.73667281440E+02  0.18997468623E+03  0.20573440853E+03  0.00000000000E+00 0.  1.
         21    1    1    2  504  503  0.15981323675E+02 -0.33426475651E+02  0.59888473788E+03  0.60002971697E+03  0.00000000000E+00 0.  1.
         21    1    1    2  505  506  0.45793697715E+02  0.25612402270E+02 -0.64987095216E+02  0.83524729542E+02  0.00000000000E+00 0. -1.
         21    1    1    2  506  501 -0.90224926312E+02  0.81481354821E+02  0.27941491305E+04  0.27967926473E+04  0.00000000000E+00 0. -1.
<scales pt_clust_3="87.55725" pt_clust_4="37.05040" pt_clust_5="52.46240" pt_clust_6="14000.00000"></scales>
<clustering>
<clus scale="   37.050">  1  4  2 -1</clus>
<clus scale="   52.462">  2  5  1 -1</clus>
<clus scale="   87.557">  2  3  1 -1</clus>
<clus scale="   37.050">  1  3  2 -1</clus>
</clustering>
</event>
<event>
 6    0  0.8520634E+002  0.1066149E+03  0.7546771E-02  0.1266970E+00
         21   -1    0    0  506  501  0.00000000000E+00  0.00000000000E+00  0.29213263918E+04  0.29213263918E+04  0.00000000000E+00 0.  1.
         21   -1    0    0  503  502 -0.00000000000E+00 -0.00000000000E+00 -0.87048150774E+02  0.87048150774E+02  0.00000000000E+00 0. -1.
         21    1    1    2  503  505  0.26150686249E+02  0.28695528229E+02 -0.64012610016E+02  0.74865919968E+02  0.00000000000E+00 0. -1.
         21    1    1    2  504  502 -0.31301747463E+02  0.36099330794E+02  0.91774046296E+03  0.91898341575E+03  0.00000000000E+00 0.  1.
         21    1    1    2  505  501  0.20642536816E+01 -0.11876278142E+03  0.19618534934E+03  0.22934155901E+03  0.00000000000E+00 0. -1.
         21    1    1    2  506  504  0.30868075320E+01  0.53967922398E+02  0.17843650387E+04  0.17851836478E+04  0.00000000000E+00 0.  1.
<scales pt_clust_3="38.82386" pt_clust_4="44.26491" pt_clust_5="95.54873" pt_clust_6="44.26491"></scales>
<clustering>
<clus scale="   38.824">  2  3  1 -1</clus>
<clus scale="   44.265">  4  6 -1 -1</clus>
<clus scale="   95.549">  2  5  1 -1</clus>
<clus scale="  106.615">  1  3  2 -1</clus>
</clustering>
</event>
<event>
 6    0  0.8520634E+002  0.1410778E+03  0.7546771E-02  0.1211886E+00
         21   -1    0    0  503  501  0.00000000000E+00  0.00000000000E+00  0.68579247440E+03  0.68579247440E+03  0.00000000000E+00 0.  1.
         21   -1    0    0  506  502 -0.00000000000E+00 -0.00000000000E+00 -0.28600074572E+03  0.28600074572E+03  0.00000000000E+00 0. -1.
         21    1    1    2  503  502 -0.11779981442E+03 -0.12710917699E+03  0.45886490516E+02  0.17927383849E+03  0.00000000000E+00 0. -1.
         21    1    1    2  504  505 -0.12716832394E+02  0.29567546106E+02  0.60178037240E+02  0.68244807677E+02  0.00000000000E+00 0. -1.
         21    1    1    2  505  501  0.29991455871E+02  0.72720754963E+01  0.48726608130E+03  0.48824236246E+03  0.00000000000E+00 0.  1.
         21    1    1    2  506  504  0.10052519095E+03  0.90269555388E+02 -0.19353888038E+03  0.23603221150E+03  0.00000000000E+00 0. -1.
<scales pt_clust_3="14000.00000" pt_clust_4="32.06537" pt_clust_5="30.86050" pt_clust_6="141.07784"></scales>
<clustering>
<clus scale="   30.861">  1  5  2 -1</clus>
<clus scale="   32.065">  1  4  2 -1</clus>
<clus scale="  141.078">  2  6  1 -1</clus>
<clus scale="   30.861">  1  3  2 -1</clus>
</clustering>
</event>
<event>
 6    0  0.8520634E+002  0.9469086E+02  0.7546771E-02  0.1291874E+00
         21   -1    0    0  504  501  0.00000000000E+00  0.00000000000E+00  0.14776989764E+03  0.14776989764E+03  0.00000000000E+00 0. -1.
         21   -1    0    0  503  502 -0.00000000000E+00 -0.00000000000E+00 -0.50627806518E+03  0.50627806518E+03  0.00000000000E+00 0.  1.
         21    1    1    2  503  505  0.30261364015E+02 -0.44367628855E+02 -0.20477604905E+03  0.21170136255E+03  0.00000000000E+00 0.  1.
         21    1    1    2  504  506  0.80515928985E+02  0.56771575155E+02  0.10548514722E+03  0.14433621462E+03  0.00000000000E+00 0. -1.
         21    1    1    2  505  501 -0.67510956445E+02  0.23948931009E+02 -0.68562977658E+02  0.99157261166E+02  0.00000000000E+00 0. -1.
         21    1    1    2  506  502 -0.43266336555E+02 -0.36352877309E+02 -0.19065428805E+03  0.19885312449E+03  0.00000000000E+00 0.  1.
<scales pt_clust_3="53.70509" pt_clust_4="94.69086" pt_clust_5="60.09995" pt_clust_6="14000.00000"></scales>
<clustering>
<clus scale="   53.705">  2  3  1 -1</clus>
<clus scale="   60.100">  2  5  1 -1</clus>
<clus scale="   94.691">  1  4  2 -1</clus>
<clus scale="   94.691">  1  3  2 -1</clus>
</clustering>
</event>
<event>
 6    0  0.8520634E+002  0.1170049E+03  0.7546771E-02  0.1248121E+00
         21   -1    0    0  506  501  0.00000000000E+00  0.00000000000E+00  0.24153089786E+03  0.24153089786E+03  0.00000000000E+00 0.  1.
         21   -1    0    0  504  502 -0.00000000000E+00 -0.00000000000E+00 -0.56133046939E+03  0.56133046939E+03  0.00000000000E+00 0. -1.
         21    1    1    2  503  505  0.11169682906E+03 -0.38811773246E+02  0.96899437270E+02  0.15287915590E+03  0.00000000000E+00 0.  1.
         21    1    1    2  504  503 -0.32115148124E+02  0.25891575449E+02 -0.38825471021E+03  0.39044010606E+03  0.00000000000E+00 0. -1.
         21    1    1    2  505  501  0.14056051199E+02  0.40423569130E+02  0.93810004972E+02  0.10311136964E+03  0.00000000000E+00 0.  1.
         21    1    1    2  506  502 -0.93637732139E+02 -0.27503371333E+02 -0.12225430356E+03  0.15643073564E+03  0.00000000000E+00 0.  1.
<scales pt_clust_3="14000.00000" pt_clust_4="41.25235" pt_clust_5="43.18649" pt_clust_6="117.00487"></scales>
<clustering>
<clus scale="   41.252">  2  4  1 -1</clus>
<clus scale="   43.186">  1  5  2 -1</clus>
<clus scale="  117.005">  2  6  1 -1</clus>
<clus scale="   43.186">  1  3  2 -1</clus>
</clustering>
</event>
<event>
 6    0  0.8520634E+002  0.6733428E+02  0.7546771E-02  0.1369400E+00
         21   -1    0    0  506  501  0.00000000000E+00  0.00000000000E+00  0.28388850079E+03  0.28388850079E+03  0.00000000000E+00 0.  1.
         21   -1    0    0  504  502 -0.00000000000E+00 -0.00000000000E+00 -0.27446841940E+03  0.27446841940E+03  0.00000000000E+00 0. -1.
         21    1    1    2  503  501 -0.20226843209E+02  0.27292182060E+02  0.22841122813E+03  0.23092353176E+03  0.00000000000E+00 0.  1.
         21    1    1    2  504  503 -0.24055811746E+02 -0.72519109111E+02 -0.18079397045E+02  0.78514762067E+02  0.00000000000E+00 0. -1.
         21    1    1    2  505  502  0.59773624055E+02 -0.31520386474E+02 -0.10821578916E+03  0.12758165197E+03  0.00000000000E+00 0. -1.
         21    1    1    2  506  505 -0.15490969100E+02  0.76747313524E+02 -0.92695960532E+02  0.12133697440E+03  0.00000000000E+00 0. -1.
<scales pt_clust_3="33.97040" pt_clust_4="67.33428" pt_clust_5="62.16225" pt_clust_6="14000.00000"></scales>
<clustering>
<clus scale="   33.970">  1  3  2 -1</clus>
<clus scale="   62.162">  2  5  1 -1</clus>
<clus scale="   67.334">  1  4  2 -1</clus>
<clus scale="   33.970">  1  3  2 -1</clus>
</clustering>
</event>
<event>
 6    0  0.8520634E+002  0.9289449E+02  0.7546771E-02  0.1295990E+00
         21   -1    0    0  505  501  0.00000000000E+00  0.00000000000E+00  0.19183148591E+02  0.19183148591E+02  0.00000000000E+00 0.  1.
         21   -1    0    0  503  502 -0.00000000000E+00 -0.00000000000E+00 -0.20065244501E+04  0.20065244501E+04  0.00000000000E+00 0.  1.
         21    1    1    2  503  504  0.17635771056E+02  0.97047259233E+02 -0.14944486965E+04  0.14977002695E+04  0.00000000000E+00 0.  1.
         21    1    1    2  504  506  0.20548385515E+02 -0.52121939192E+02 -0.28157852371E+03  0.28709823703E+03  0.00000000000E+00 0.  1.
         21    1    1    2  505  502 -0.70775514680E+02 -0.37100480293E+02 -0.12549675591E+03  0.14877854301E+03  0.00000000000E+00 0.  1.
         21    1    1    2  506  501  0.32591358109E+02 -0.78248397478E+01 -0.85817325455E+02  0.92130549161E+02  0.00000000000E+00 0.  1.
<scales pt_clust_3="92.89449" pt_clust_4="59.52618" pt_clust_5="14000.00000" pt_clust_6="33.51753"></scales>
<clustering>
<clus scale="   33.518">  1  6  2 -1</clus>
<clus scale="   59.526">  1  4  2 -1</clus>
<clus scale="   92.894">  2  3  1 -1</clus>
<clus scale="   33.518">  1  3  2 -1</clus>
</clustering>
</event>
<event>
 6    0  0.8520634E+002  0.8649459E+02  0.7546771E-02  0.1311570E+00
         21   -1    0    0  502  501  0.00000000000E+00  0.00000000000E+00  0.30940375595E+04  0.30940375595E+04  0.00000000000E+00 0.  1.
         21   -1    0    0  505  502 -0.00000000000E+00 -0.00000000000E+00 -0.24766756588E+04  0.24766756588E+04  0.00000000000E+00 0.  1.
         21    1    1    2  503  501 -0.51109283387E+02  0.59866322284E+02  0.30746573043E+04  0.30756647532E+04  0.00000000000E+00 0.  1.
         21    1    1    2  504  506  0.10886534018E+03  0.12894093438E+02 -0.19037777949E+04  0.19069315175E+04  0.00000000000E+00 0.  1.
         21    1    1    2  505  504 -0.26841284461E+02  0.17754105017E+02 -0.43328947738E+03  0.43448295019E+03  0.00000000000E+00 0.  1.
         21    1    1    2  506  503 -0.30914772331E+02 -0.90514520739E+02 -0.12022813136E+03  0.15363399748E+03  0.00000000000E+00 0.  1.
<scales pt_clust_3="78.72316" pt_clust_4="14000.00000" pt_clust_5="32.18172" pt_clust_6="86.49459"></scales>
<clustering>
<clus scale="   32.182">  2  5  1 -1</clus>
<clus scale="   78.723">  1  3  2 -1</clus>
<clus scale="   86.495">  1  6  2 -1</clus>
<clus scale="   78.723">  1  3  2 -1</clus>
</clustering>
</event>
<event>
 6    0  0.8520634E+002  0.1062379E+03  0.7546771E-02  0.1267700E+00
         21   -1    0    0  504  501  0.00000000000E+00  0.00000000000E+00  0.83138118740E+03  0.83138118740E+03  0.00000000000E+00 0. -1.
         21   -1    0    0  501  502 -0.00000000000E+00 -0.00000000000E+00 -0.52059635113E+03  0.52059635113E+03  0.00000000000E+00 0.  1.
         21    1    1    2  503  505  0.14160517273E+03 -0.19225454242E+02  0.23063420344E+03  0.27131859286E+03  0.00000000000E+00 0. -1.
         21    1    1    2  504  503 -0.33794687236E+02  0.22811927734E+02  0.57006125451E+03  0.57151754026E+03  0.00000000000E+00 0. -1.
         21    1    1    2  505  506 -0.72450805018E+02  0.99997243294E+01 -0.14745094869E+03  0.16459312229E+03  0.00000000000E+00 0.  1.
         21    1    1    2  506  502 -0.35359680474E+02 -0.13586197821E+02 -0.34245967299E+03  0.34454828312E+03  0.00000000000E+00 0.  1.
<scales pt_clust_3="106.23794" pt_clust_4="40.86278" pt_clust_5="14000.00000" pt_clust_6="37.87997"></scales>
<clustering>
<clus scale="   37.880">  2  6  1 -1</clus>
<clus scale="   40.863">  1  4  2 -1</clus>
<clus scale="  106.238">  1  3  2 -1</clus>
<clus scale="   40.863">  1  3  2 -1</clus>
</clustering>
</event>
<event>
 6    0  0.8520634E+002  0.1011360E+03  0.7546771E-02  0.1277925E+00
         21   -1    0    0  503  501  0.00000000000E+00  0.00000000000E+00  0.84898897424E+02  0.84898897424E+02  0.00000000000E+00 0.  1.
         21   -1    0    0  505  502 -0.00000000000E+00 -0.00000000000E+00 -0.48788802079E+03  0.48788802079E+03  0.00000000000E+00 0.  1.
         21    1    1    2  503  506 -0.12376845905E+03  0.88637556436E+00 -0.10371655663E+03  0.16148232484E+03  0.00000000000E+00 0.  1.
         21    1    1    2  504  501  0.93017688886E+02  0.11848714121E+02  0.45437692667E+01  0.93879328455E+02  0.00000000000E+00 0.  1.
         21    1    1    2  505  504 -0.60589435496E+01  0.31957013774E+02 -0.83039213460E+02  0.89182243178E+02  0.00000000000E+00 0.  1.
         21    1    1    2  506  502  0.36809713711E+02 -0.44692103460E+02 -0.22077712255E+03  0.22824302174E+03  0.00000000000E+00 0.  1.
<scales pt_clust_3="101.13597" pt_clust_4="14000.00000" pt_clust_5="32.52632" pt_clust_6="42.86339"></scales>
<clustering>
<clus scale="   32.526">  2  5  1 -1</clus>
<clus scale="   42.863">  2  6  1 -1</clus>
<clus scale="  101.136">  2  3  1 -1</clus>
<clus scale="  101.136">  1  3  2 -1</clus>
</clustering>
</event>
<event>
 6    0  0.8520634E+002  0.6608178E+02  0.7546771E-02  0.1373948E+00
         21   -1    0    0  503  501  0.00000000000E+00  0.00000000000E+00  0.16756929739E+03  0.16756929739E+03  0.00000000000E+00 0. -1.
         21   -1    0    0  505  502 -0.00000000000E+00 -0.00000000000E+00 -0.24041272487E+03  0.24041272487E+03  0.00000000000E+00 0.  1.
         21    1    1    2  503  504 -0.46596915187E+02 -0.10713004186E+02  0.12358525808E+02  0.49383946013E+02  0.00000000000E+00 0. -1.
         21    1    1    2  504  502  0.64992271898E+02  0.49428730420E+02  0.92655193907E+02  0.12349971561E+03  0.00000000000E+00 0. -1.
         21    1    1    2  505  506 -0.36607095537E+02  0.47358169445E+02 -0.10502198700E+03  0.12088214678E+03  0.00000000000E+00 0.  1.
         21    1    1    2  506  501  0.18211738826E+02 -0.86073895679E+02 -0.72835160188E+02  0.11421621386E+03  0.00000000000E+00 0.  1.
<scales pt_clust_3="47.81256" pt_clust_4="49.70028" pt_clust_5="66.08178" pt_clust_6="14000.00000"></scales>
<clustering>
<clus scale="   47.813">  1  3  2 -1</clus>
<clus scale="   49.700">  1  4  2 -1</clus>
<clus scale="   66.082">  2  5  1 -1</clus>
<clus scale="   47.813">  1  3  2 -1</clus>
</clustering>
</event>
<event>
 6    0  0.8520634E+002  0.1012965E+03  0.7546771E-02  0.1277593E+00
         21   -1    0    0  503  501  0.00000000000E+00  0.00000000000E+00  0.26314752309E+03  0.26314752309E+03  0.00000000000E+00 0. -1.
         21   -1    0    0  505  502 -0.00000000000E+00 -0.00000000000E+00 -0.38206994097E+03  0.38206994097E+03  0.00000000000E+00 0.  1.
         21    1    1    2  503  506 -0.18094198117E+02  0.46188110183E+02 -0.19219473907E+02  0.53198963383E+02  0.00000000000E+00 0. -1.
         21    1    1    2  504  501 -0.60737301614E+01  0.35368245622E+02  0.11898019548E+03  0.12427425282E+03  0.00000000000E+00 0. -1.
         21    1    1    2  505  504 -0.60176151580E+02 -0.17610487394E+02  0.10770327102E+03  0.12462460862E+03  0.00000000000E+00 0. -1.
         21    1    1    2  506  502  0.84344079859E+02 -0.63945868411E+02 -0.32638641047E+03  0.34311963924E+03  0.00000000000E+00 0.  1.
<scales pt_clust_3="53.83233" pt_clust_4="35.88597" pt_clust_5="101.29653" pt_clust_6="14000.00000"></scales>
<clustering>
<clus scale="   35.886">  1  4  2 -1</clus>
<clus scale="   53.832">  1  3  2 -1</clus>
<clus scale="  101.297">  1  5  2 -1</clus>
<clus scale="   35.886">  1  3  2 -1</clus>
</clustering>
</event>
<event>
 6    0  0.8520634E+002  0.7331086E+02  0.7546771E-02  0.1349183E+00
         21   -1    0    0  503  501  0.00000000000E+00  0.00000000000E+00  0.44289583652E+03  0.44289583652E+03  0.00000000000E+00 0. -1.
         21   -1    0    0  505  502 -0.00000000000E+00 -0.00000000000E+00 -0.23846547417E+04  0.23846547417E+04  0.00000000000E+00 0. -1.
         21    1    1    2  503  504 -0.68328985566E+02 -0.86177119212E+01  0.22898956935E+03  0.23912201508E+03  0.00000000000E+00 0. -1.
         21    1    1    2  504  506  0.90827714475E+02 -0.74557368371E+01  0.92398099635E+02  0.12977931478E+03  0.00000000000E+00 0. -1.
         21    1    1    2  505  501 -0.46298175173E+02  0.45364750869E+02  0.86837802211E+02  0.10836182694E+03  0.00000000000E+00 0. -1.
         21    1    1    2  506  502  0.23799446264E+02 -0.29291302111E+02 -0.23499843764E+04  0.23502874214E+04  0.00000000000E+00 0. -1.
<scales pt_clust_3="73.31086" pt_clust_4="14000.00000" pt_clust_5="53.14423" pt_clust_6="37.74114"></scales>
<clustering>
<clus scale="   37.741">  2  6  1 -1</clus>
<clus scale="   53.144">  2  5  1 -1</clus>
<clus scale="   73.311">  1  3  2 -1</clus>
<clus scale="   73.311">  1  3  2 -1</clus>
</clustering>
</event>
<event>
 6    0  0.8520634E+002  0.7772976E+02  0.7546771E-02  0.1335620E+00
         21   -1    0    0  505  501  0.00000000000E+00  0.00000000000E+00  0.27910244654E+03  0.27910244654E+03  0.00000000000E+00 0. -1.
         21   -1    0    0  504  502 -0.00000000000E+00 -0.00000000000E+00 -0.19783696731E+04  0.19783696731E+04  0.00000000000E+00 0.  1.
         21    1    1    2  503  506 -0.99767785469E+02 -0.82313629045E+01  0.13348458426E+03  0.16685173235E+03  0.00000000000E+00 0. -1.
         21    1    1    2  504  501  0.57690626756E+02  0.37271929525E+02 -0.17456366431E+04  0.17469873196E+04  0.00000000000E+00 0.  1.
         21    1    1    2  505  503  0.23357675823E+02  0.20696440744E+02  0.12300216824E+03  0.12689939745E+03  0.00000000000E+00 0. -1.
         21    1    1    2  506  502  0.18719482891E+02 -0.49737007365E+02 -0.21011733602E+03  0.21673367029E+03  0.00000000000E+00 0.  1.
<scales pt_clust_3="77.72976" pt_clust_4="14000.00000" pt_clust_5="31.20775" pt_clust_6="52.90768"></scales>
<clustering>
<clus scale="   31.208">  1  5  2 -1</clus>
<clus scale="   52.908">  2  6  1 -1</clus>
<clus scale="   77.730">  1  3  2 -1</clus>
<clus scale="   31.208">  1  3  2 -1</clus>
</clustering>
</event>
<event>
 6    0  0.3123230E+003  0.1706764E+03  0.7546771E-02  0.1177144E+00
         21   -1    0    0  506  501  0.00000000000E+00  0.00000000000E+00  0.24941474827E+04  0.24941474827E+04  0.00000000000E+00 0. -1.
         21   -1    0    0  503  502 -0.00000000000E+00 -0.00000000000E+00 -0.45235118832E+03  0.45235118832E+03  0.00000000000E+00 0. -1.
         21    1    1    2  503  505 -0.57759786159E+02 -0.85592010794E+01  0.29971665238E+03  0.30535147704E+03  0.00000000000E+00 0. -1.
         21    1    1    2  504  502  0.16113162369E+03 -0.57923392977E+02 -0.42941700966E+03  0.46229588771E+03  0.00000000000E+00 0. -1.
         21    1    1    2  505  501 -0.74616487940E+01  0.32543941243E+02  0.11268398905E+03  0.11752644682E+03  0.00000000000E+00 0.  1.
         21    1    1    2  506  504 -0.95910188736E+02  0.33938652813E+02  0.20588126626E+04  0.20613248595E+04  0.00000000000E+00 0. -1.
<scales pt_clust_3="58.87486" pt_clust_4="14000.00000" pt_clust_5="33.38839" pt_clust_6="170.67637"></scales>
<clustering>
<clus scale="   33.388">  1  5  2 -1</clus>
<clus scale="   58.875">  1  3  2 -1</clus>
<clus scale="  170.676">  1  6  2 -1</clus>
<clus scale="   33.388">  1  3  2 -1</clus>
</clustering>
</event>
<event>
 6    0  0.8520634E+002  0.2149891E+03  0.7546771E-02  0.1137675E+00
         21   -1    0    0  506  501  0.00000000000E+00  0.00000000000E+00  0.29178502459E+03  0.29178502459E+03  0.00000000000E+00 0.  1.
         21   -1    0    0  504  502 -0.00000000000E+00 -0.00000000000E+00 -0.13760765610E+04  0.13760765610E+04  0.00000000000E+00 0.  1.
         21    1    1    2  503  505 -0.35036010916E+02  0.19884648269E+03 -0.31059528240E+03  0.37045495703E+03  0.00000000000E+00 0.  1.
         21    1    1    2  504  501 -0.75907340011E+02 -0.20169828849E+03  0.15109753039E+03  0.26320066021E+03  0.00000000000E+00 0.  1.
         21    1    1    2  505  502  0.26863159392E+02  0.24181045394E+02 -0.94454997596E+03  0.94524124401E+03  0.00000000000E+00 0.  1.
         21    1    1    2  506  503  0.84080191535E+02 -0.21329239590E+02  0.19756191576E+02  0.88964724333E+02  0.00000000000E+00 0.  1.
<scales pt_clust_3="214.98906" pt_clust_4="14000.00000" pt_clust_5="36.14350" pt_clust_6="88.38880"></scales>
<clustering>
<clus scale="   36.143">  2  5  1 -1</clus>
<clus scale="   88.389">  1  6  2 -1</clus>
<clus scale="  214.989">  2  3  1 -1</clus>
<clus scale="   88.389">  1  3  2 -1</clus>
</clustering>
</event>
<event>
 6    0  0.8520634E+002  0.1252233E+03  0.7546771E-02  0.1234721E+00
         21   -1    0    0  503  501  0.00000000000E+00  0.00000000000E+00  0.33301080644E+03  0.33301080644E+03  0.00000000000E+00 0.  1.
         21   -1    0    0  505  502 -0.00000000000E+00 -0.00000000000E+00 -0.37349999076E+03  0.37349999076E+03  0.00000000000E+00 0.  1.
         21    1    1    2  503  504  0.92270226764E+02  0.13655214799E+02  0.10600320280E+03  0.14119822464E+03  0.00000000000E+00 0.  1.
         21    1    1    2  504  502  0.67144157716E+02  0.31136794384E+02 -0.13235251700E+02  0.75186499902E+02  0.00000000000E+00 0.  1.
         21    1    1    2  505  506 -0.77278235561E+02  0.96192644766E+02 -0.25717201359E+03  0.28524094231E+03  0.00000000000E+00 0.  1.
         21    1    1    2  506  501 -0.82136148919E+02 -0.14098465395E+03  0.12391487817E+03  0.20488513035E+03  0.00000000000E+00 0.  1.
<scales pt_clust_3="97.07484" pt_clust_4="74.01242" pt_clust_5="14000.00000" pt_clust_6="125.22334"></scales>
<clustering>
<clus scale="   74.012">  2  4  1 -1</clus>
<clus scale="   97.075">  1  3  2 -1</clus>
<clus scale="  125.223">  1  6  2 -1</clus>
<clus scale="   97.075">  1  3  2 -1</clus>
</clustering>
</event>
<event>
 6    0  0.8520634E+002  0.7893817E+02  0.7546771E-02  0.1332092E+00
         21   -1    0    0  504  501  0.00000000000E+00  0.00000000000E+00  0.16937354035E+03  0.16937354035E+03  0.00000000000E+00 0. -1.
         21   -1    0    0  503  502 -0.00000000000E+00 -0.00000000000E+00 -0.65442794402E+03  0.65442794402E+03  0.00000000000E+00 0. -1.
         21    1    1    2  503  505 -0.17473382057E+02  0.35105666262E+02 -0.12529786224E+03  0.13129082667E+03  0.00000000000E+00 0. -1.
         21    1    1    2  504  506 -0.50763962556E+02 -0.60215098991E+02  0.13845393898E+03  0.15928694630E+03  0.00000000000E+00 0. -1.
         21    1    1    2  505  501  0.30328076607E+02  0.79986401787E+02 -0.11011134704E+03  0.13943502232E+03  0.00000000000E+00 0. -1.
         21    1    1    2  506  502  0.37909268007E+02 -0.54876969058E+02 -0.38809913337E+03  0.39378868909E+03  0.00000000000E+00 0. -1.
<scales pt_clust_3="39.21386" pt_clust_4="78.93817" pt_clust_5="14000.00000" pt_clust_6="38.08214"></scales>
<clustering>
<clus scale="   39.214">  2  3  1 -1</clus>
<clus scale="   38.082">  2  6  1 -1</clus>
<clus scale="   78.938">  1  4  2 -1</clus>
<clus scale="   78.938">  1  3  2 -1</clus>
</clustering>
</event>
<event>
 6    0  0.8520634E+002  0.1270604E+03  0.7546771E-02  0.1231884E+00
         21   -1    0    0  502  501  0.00000000000E+00  0.00000000000E+00  0.15079775544E+03  0.15079775544E+03  0.00000000000E+00 0. -1.
         21   -1    0    0  503  502 -0.00000000000E+00 -0.00000000000E+00 -0.26246904810E+03  0.26246904810E+03  0.00000000000E+00 0. -1.
         21    1    1    2  503  506  0.31921711587E+02  0.29325944910E+02 -0.45544485068E+02  0.62875327718E+02  0.00000000000E+00 0. -1.
         21    1    1    2  504  501  0.32307015995E+02 -0.10637229296E+02  0.75834413197E+02  0.83112888017E+02  0.00000000000E+00 0. -1.
         21    1    1    2  505  504 -0.13622988522E+03  0.21542191249E+01 -0.42473561531E+02  0.14271378951E+03  0.00000000000E+00 0. -1.
         21    1    1    2  506  505  0.72001157635E+02 -0.20842934739E+02 -0.99487659258E+02  0.12456479829E+03  0.00000000000E+00 0. -1.
<scales pt_clust_3="42.60026" pt_clust_4="34.01314" pt_clust_5="113.65206" pt_clust_6="42.60026"></scales>
<clustering>
<clus scale="   34.013">  1  4  2 -1</clus>
<clus scale="   42.600">  3  6 -1 -1</clus>
<clus scale="  113.652">  1  5  2 -1</clus>
<clus scale="   34.013">  1  3  2 -1</clus>
</clustering>
</event>
<event>
 6    0  0.8520634E+002  0.1404520E+03  0.7546771E-02  0.1212722E+00
         21   -1    0    0  506  501  0.00000000000E+00  0.00000000000E+00  0.21108349778E+04  0.21108349778E+04  0.00000000000E+00 0.  1.
         21   -1    0    0  504  502 -0.00000000000E+00 -0.00000000000E+00 -0.18176893871E+03  0.18176893871E+03  0.00000000000E+00 0.  1.
         21    1    1    2  503  505 -0.86675227559E+02 -0.94106470773E+02  0.18647022843E+03  0.22614103786E+03  0.00000000000E+00 0.  1.
         21    1    1    2  504  503 -0.72641890246E+01  0.80954745016E+02 -0.62376893776E+02  0.10245641054E+03  0.00000000000E+00 0.  1.
         21    1    1    2  505  501  0.13925802911E+03  0.38997356867E+02  0.18728339315E+04  0.18784090416E+04  0.00000000000E+00 0.  1.
         21    1    1    2  506  502 -0.45318612527E+02 -0.25845631110E+02 -0.67861227067E+02  0.85597426526E+02  0.00000000000E+00 0.  1.
<scales pt_clust_3="14000.00000" pt_clust_4="74.26493" pt_clust_5="140.45196" pt_clust_6="52.17062"></scales>
<clustering>
<clus scale="   52.171">  2  6  1 -1</clus>
<clus scale="   74.265">  2  4  1 -1</clus>
<clus scale="  140.452">  1  5  2 -1</clus>
<clus scale="  140.452">  1  3  2 -1</clus>
</clustering>
</event>
<event>
 6    0  0.8520634E+002  0.1283571E+03  0.7546771E-02  0.1229914E+00
         21   -1    0    0  503  501  0.00000000000E+00  0.00000000000E+00  0.24686734968E+04  0.24686734968E+04  0.00000000000E+00 0.  1.
         21   -1    0    0  505  502 -0.00000000000E+00 -0.00000000000E+00 -0.13681670353E+04  0.13681670353E+04  0.00000000000E+00 0. -1.
         21    1    1    2  503  504 -0.11756740691E+03 -0.40446841419E+02  0.10669566709E+04  0.10741762331E+04  0.00000000000E+00 0.  1.
         21    1    1    2  504  502  0.13225579521E+03 -0.22017954457E+02  0.83743868574E+03  0.84810373072E+03  0.00000000000E+00 0.  1.
         21    1    1    2  505  506 -0.36898451435E+02  0.12304585333E+03 -0.13543008088E+04  0.13603795274E+04  0.00000000000E+00 0. -1.
         21    1    1    2  506  501  0.22210063137E+02 -0.60581057457E+02  0.55041191365E+03  0.55418104092E+03  0.00000000000E+00 0.  1.
<scales pt_clust_3="122.60255" pt_clust_4="14000.00000" pt_clust_5="128.35710" pt_clust_6="64.52404"></scales>
<clustering>
<clus scale="   64.524">  1  6  2 -1</clus>
<clus scale="  128.357">  2  5  1 -1</clus>
<clus scale="  122.603">  1  3  2 -1</clus>
<clus scale="   64.524">  1  3  2 -1</clus>
</clustering>
</event>
<event>
 6    0  0.8520634E+002  0.9979567E+02  0.7546771E-02  0.1280726E+00
         21   -1    0    0  504  501  0.00000000000E+00  0.00000000000E+00  0.40171843407E+03  0.40171843407E+03  0.00000000000E+00 0.  1.
         21   -1    0    0  506  502 -0.00000000000E+00 -0.00000000000E+00 -0.43417471555E+03  0.43417471555E+03  0.00000000000E+00 0.  1.
         21    1    1    2  503  502 -0.28146894202E+02 -0.20426496413E+02 -0.26220981740E+03  0.26450610154E+03  0.00000000000E+00 0.  1.
         21    1    1    2  504  505  0.90603563123E+02  0.53891494034E+02  0.36283444998E+03  0.37783877100E+03  0.00000000000E+00 0.  1.
         21    1    1    2  505  503 -0.73592139250E+02  0.10721771983E+02 -0.28808909639E+02  0.79754075936E+02  0.00000000000E+00 0.  1.
         21    1    1    2  506  501  0.11135470330E+02 -0.44186769604E+02 -0.10427200442E+03  0.11379420114E+03  0.00000000000E+00 0.  1.
<scales pt_clust_3="34.77771" pt_clust_4="99.79567" pt_clust_5="14000.00000" pt_clust_6="57.63134"></scales>
<clustering>
<clus scale="   34.778">  2  3  1 -1</clus>
<clus scale="   57.631">  2  6  1 -1</clus>
<clus scale="   99.796">  1  4  2 -1</clus>
<clus scale="   99.796">  1  3  2 -1</clus>
</clustering>
</event>
<event>
 6    0  0.8520634E+002  0.9780140E+02  0.7546771E-02  0.1284988E+00
         21   -1    0    0  505  501  0.00000000000E+00  0.00000000000E+00  0.17373751011E+03  0.17373751011E+03  0.00000000000E+00 0.  1.
         21   -1    0    0  503  502 -0.00000000000E+00 -0.00000000000E+00 -0.44317641235E+03  0.44317641235E+03  0.00000000000E+00 0.  1.
         21    1    1    2  503  504  0.24566277583E+02 -0.11077072300E+03 -0.27724830032E+03  0.29956681241E+03  0.00000000000E+00 0.  1.
         21    1    1    2  504  501 -0.55905515814E+02  0.63577446566E+02 -0.11262343298E+03  0.14089555020E+03  0.00000000000E+00 0.  1.
         21    1    1    2  505  506  0.21623459722E+02 -0.21173424599E+02  0.99939405119E+02  0.10442113108E+03  0.00000000000E+00 0.  1.
         21    1    1    2  506  502  0.97157785083E+01  0.68366701031E+02  0.20493425938E+02  0.72030428769E+02  0.00000000000E+00 0. -1.
<scales pt_clust_3="14000.00000" pt_clust_4="97.80140" pt_clust_5="30.26364" pt_clust_6="59.59160"></scales>
<clustering>
<clus scale="   30.264">  1  5  2 -1</clus>
<clus scale="   59.592">  1  6  2 -1</clus>
<clus scale="   97.801">  1  4  2 -1</clus>
<clus scale="   30.264">  1  3  2 -1</clus>
</clustering>
</event>
<event>
 6    0  0.8520634E+002  0.1184348E+03  0.7546771E-02  0.1245702E+00
         21   -1    0    0  504  501  0.00000000000E+00  0.00000000000E+00  0.76424450281E+03  0.76424450281E+03  0.00000000000E+00 0.  1.
         21   -1    0    0  506  502 -0.00000000000E+00 -0.00000000000E+00 -0.31270046216E+03  0.31270046216E+03  0.00000000000E+00 0.  1.
         21    1    1    2  503  501 -0.19853171163E+02 -0.32010540711E+02  0.71141246699E+02  0.80497826702E+02  0.00000000000E+00 0. -1.
         21    1    1    2  504  505  0.86617881452E+02  0.12819207077E+02  0.62258001824E+03  0.62870729960E+03  0.00000000000E+00 0.  1.
         21    1    1    2  505  502  0.54847934098E+02  0.71069917632E+02  0.22978839666E+01  0.89802613201E+02  0.00000000000E+00 0. -1.
         21    1    1    2  506  503 -0.12161264439E+03 -0.51878583998E+02 -0.24447510825E+03  0.27793722548E+03  0.00000000000E+00 0.  1.
<scales pt_clust_3="37.66727" pt_clust_4="70.47939" pt_clust_5="118.43480" pt_clust_6="14000.00000"></scales>
<clustering>
<clus scale="   37.667">  1  3  2 -1</clus>
<clus scale="   70.479">  1  4  2 -1</clus>
<clus scale="  118.435">  1  5  2 -1</clus>
<clus scale="   37.667">  1  3  2 -1</clus>
</clustering>
</event>
<event>
 6    0  0.8520634E+002  0.8617016E+02  0.7546771E-02  0.1312401E+00
         21   -1    0    0  504  501  0.00000000000E+00  0.00000000000E+00  0.17432672919E+04  0.17432672919E+04  0.00000000000E+00 0.  1.
         21   -1    0    0  506  502 -0.00000000000E+00 -0.00000000000E+00 -0.20871707359E+03  0.20871707359E+03  0.00000000000E+00 0.  1.
         21    1    1    2  503  505 -0.15162100244E+02  0.39593807081E+02  0.11949173174E+03  0.12679050752E+03  0.00000000000E+00 0. -1.
         21    1    1    2  504  503 -0.34043701065E+00  0.74326872121E+02  0.79952067955E+03  0.80296819167E+03  0.00000000000E+00 0.  1.
         21    1    1    2  505  502 -0.38968571218E+02  0.23153083387E+01 -0.19638028332E+03  0.20022269070E+03  0.00000000000E+00 0.  1.
         21    1    1    2  506  501  0.54471108472E+02 -0.11623598754E+03  0.81191809039E+03  0.82200297563E+03  0.00000000000E+00 0. -1.
<scales pt_clust_3="49.62780" pt_clust_4="86.17016" pt_clust_5="39.03729" pt_clust_6="14000.00000"></scales>
<clustering>
<clus scale="   39.037">  2  5  1 -1</clus>
<clus scale="   49.628">  2  3  1 -1</clus>
<clus scale="   86.170">  1  4  2 -1</clus>
<clus scale="   86.170">  1  3  2 -1</clus>
</clustering>
</event>
<event>
 6    0  0.8520634E+002  0.8600251E+02  0.7546771E-02  0.1312832E+00
         21   -1    0    0  506  501  0.00000000000E+00  0.00000000000E+00  0.67218567670E+03  0.67218567670E+03  0.00000000000E+00 0.  1.
         21   -1    0    0  505  502 -0.00000000000E+00 -0.00000000000E+00 -0.55050914360E+02  0.55050914360E+02  0.00000000000E+00 0. -1.
         21    1    1    2  503  501  0.40206136808E+02  0.17415470232E+02  0.37250572094E+03  0.37507378497E+03  0.00000000000E+00 0.  1.
         21    1    1    2  504  502 -0.10112764554E+02 -0.37329762098E+02 -0.12371906063E+02  0.40605950363E+02  0.00000000000E+00 0. -1.
         21    1    1    2  505  503 -0.25894053382E+02  0.91990296474E+02  0.19173604493E+03  0.21423218146E+03  0.00000000000E+00 0.  1.
         21    1    1    2  506  504 -0.41993188720E+01 -0.72076004608E+02  0.65264902539E+02  0.97324674275E+02  0.00000000000E+00 0. -1.
<scales pt_clust_3="42.75329" pt_clust_4="38.67530" pt_clust_5="14000.00000" pt_clust_6="86.00251"></scales>
<clustering>
<clus scale="   38.675">  2  4  1 -1</clus>
<clus scale="   42.753">  1  3  2 -1</clus>
<clus scale="   86.003">  2  6  1 -1</clus>
<clus scale="   42.753">  1  3  2 -1</clus>
</clustering>
</event>
<event>
 6    0  0.8520634E+002  0.8750632E+02  0.7546771E-02  0.1309005E+00
         21   -1    0    0  503  501  0.00000000000E+00  0.00000000000E+00  0.42190157208E+03  0.42190157208E+03  0.00000000000E+00 0. -1.
         21   -1    0    0  505  502 -0.00000000000E+00 -0.00000000000E+00 -0.15199428666E+04  0.15199428666E+04  0.00000000000E+00 0. -1.
         21    1    1    2  503  506 -0.30384204881E+02 -0.24991797539E+02  0.33253068616E+03  0.33484988740E+03  0.00000000000E+00 0. -1.
         21    1    1    2  504  502 -0.13335899609E+02  0.81602591054E+02 -0.13670602008E+04  0.13695584769E+04  0.00000000000E+00 0. -1.
         21    1    1    2  505  501  0.10557965049E+03 -0.43328722336E+02 -0.11032371173E+03  0.15873173011E+03  0.00000000000E+00 0. -1.
         21    1    1    2  506  504 -0.61859545998E+02 -0.13282071178E+02  0.46811931827E+02  0.78704344271E+02  0.00000000000E+00 0. -1.
<scales pt_clust_3="39.34196" pt_clust_4="82.40665" pt_clust_5="14000.00000" pt_clust_6="87.50632"></scales>
<clustering>
<clus scale="   39.342">  1  3  2 -1</clus>
<clus scale="   82.407">  2  4  1 -1</clus>
<clus scale="   87.506">  1  6  2 -1</clus>
<clus scale="   39.342">  1  3  2 -1</clus>
</clustering>
</event>
<event>
 6    0  0.8520634E+002  0.1092099E+03  0.7546771E-02  0.1262040E+00
         21   -1    0    0  505  501  0.00000000000E+00  0.00000000000E+00  0.18721235281E+04  0.18721235281E+04  0.00000000000E+00 0.  1.
         21   -1    0    0  504  502 -0.00000000000E+00 -0.00000000000E+00 -0.15406422779E+03  0.15406422779E+03  0.00000000000E+00 0. -1.
         21    1    1    2  503  502  0.20317301644E+02  0.34588693064E+02 -0.88086111323E+02  0.96790151575E+02  0.00000000000E+00 0. -1.
         21    1    1    2  504  501  0.22349577127E+02 -0.28876251939E+02  0.14116676834E+04  0.14121398620E+04  0.00000000000E+00 0.  1.
         21    1    1    2  505  506  0.79224240319E+02 -0.21935500356E+02  0.38527564360E+03  0.39394792547E+03  0.00000000000E+00 0. -1.
         21    1    1    2  506  503 -0.12189111909E+03  0.16223059230E+02  0.92020846183E+01  0.12330981682E+03  0.00000000000E+00 0.  1.
<scales pt_clust_3="39.98734" pt_clust_4="36.51495" pt_clust_5="14000.00000" pt_clust_6="109.20992"></scales>
<clustering>
<clus scale="   36.515">  1  4  2 -1</clus>
<clus scale="   39.987">  2  3  1 -1</clus>
<clus scale="  109.210">  2  6  1 -1</clus>
<clus scale="   36.515">  1  3  2 -1</clus>
</clustering>
</event>
<event>
 6    0  0.8520634E+002  0.1243265E+03  0.7546771E-02  0.1236126E+00
         21   -1    0    0  504  501  0.00000000000E+00  0.00000000000E+00  0.22297075167E+03  0.22297075167E+03  0.00000000000E+00 0. -1.
         21   -1    0    0  506  502 -0.00000000000E+00 -0.00000000000E+00 -0.98798506584E+03  0.98798506584E+03  0.00000000000E+00 0.  1.
         21    1    1    2  503  505  0.88967681040E+02 -0.48742881831E+02 -0.26844408022E+03  0.28697271823E+03  0.00000000000E+00 0.  1.
         21    1    1    2  504  503 -0.22361679182E+02  0.24361915054E+02  0.14126592618E+03  0.14508483553E+03  0.00000000000E+00 0. -1.
         21    1    1    2  505  502  0.28656307558E+02 -0.17161443534E+02 -0.66944004087E+03  0.67027283059E+03  0.00000000000E+00 0.  1.
         21    1    1    2  506  501 -0.95262309416E+02  0.41542410312E+02  0.31603880749E+02  0.10862543316E+03  0.00000000000E+00 0. -1.
<scales pt_clust_3="124.32650" pt_clust_4="33.06883" pt_clust_5="33.23669" pt_clust_6="14000.00000"></scales>
<clustering>
<clus scale="   33.069">  1  4  2 -1</clus>
<clus scale="   33.237">  2  5  1 -1</clus>
<clus scale="  124.327">  2  3  1 -1</clus>
<clus scale="   33.069">  1  3  2 -1</clus>
</clustering>
</event>
<event>
 6    0  0.8520634E+002  0.1072045E+03  0.7546771E-02  0.1265836E+00
         21   -1    0    0  506  501  0.00000000000E+00  0.00000000000E+00  0.41498445934E+03  0.41498445934E+03  0.00000000000E+00 0.  1.
         21   -1    0    0  505  502 -0.00000000000E+00 -0.00000000000E+00 -0.10481270477E+04  0.10481270477E+04  0.00000000000E+00 0.  1.
         21    1    1    2  503  502  0.51663092739E+02  0.94394470531E+02 -0.10116073360E+04  0.10173145008E+04  0.00000000000E+00 0.  1.
         21    1    1    2  504  503  0.31425334024E+02 -0.32347749150E+02  0.40568158968E+02  0.60660563924E+02  0.00000000000E+00 0. -1.
         21    1    1    2  505  501 -0.53121890008E+02 -0.37807460054E+02  0.34032755011E+03  0.34651721544E+03  0.00000000000E+00 0.  1.
         21    1    1    2  506  504 -0.29966536754E+02 -0.24239261328E+02 -0.24309614492E+01  0.38619226926E+02  0.00000000000E+00 0.  1.
<scales pt_clust_3="107.20455" pt_clust_4="44.92088" pt_clust_5="14000.00000" pt_clust_6="38.54264"></scales>
<clustering>
<clus scale="   38.543">  1  6  2 -1</clus>
<clus scale="   44.921">  1  4  2 -1</clus>
<clus scale="  107.205">  2  3  1 -1</clus>
<clus scale="   38.543">  1  3  2 -1</clus>
</clustering>
</event>
<event>
 6    0  0.8520634E+002  0.7774362E+02  0.7546771E-02  0.1335579E+00
         21   -1    0    0  503  501  0.00000000000E+00  0.00000000000E+00  0.36213590251E+03  0.36213590251E+03  0.00000000000E+00 0. -1.
         21   -1    0    0  504  502 -0.00000000000E+00 -0.00000000000E+00 -0.89702479765E+03  0.89702479765E+03  0.00000000000E+00 0.  1.
         21    1    1    2  503  505  0.38713043740E+02 -0.82748210739E+02  0.63950072283E+02  0.11151492224E+03  0.00000000000E+00 0. -1.
         21    1    1    2  504  506  0.87566139644E+00 -0.30145106203E+02 -0.44447388922E+03  0.44549582760E+03  0.00000000000E+00 0.  1.
         21    1    1    2  505  502 -0.39359456826E+02  0.36690191179E+02 -0.42121227420E+03  0.42463527516E+03  0.00000000000E+00 0.  1.
         21    1    1    2  506  501 -0.22924830996E+00  0.76203125764E+02  0.26684719599E+03  0.27751467517E+03  0.00000000000E+00 0. -1.
<scales pt_clust_3="14000.00000" pt_clust_4="30.15782" pt_clust_5="39.46355" pt_clust_6="77.74362"></scales>
<clustering>
<clus scale="   30.158">  2  4  1 -1</clus>
<clus scale="   39.464">  2  5  1 -1</clus>
<clus scale="   77.744">  1  6  2 -1</clus>
<clus scale="   77.744">  1  3  2 -1</clus>
</clustering>
</event>
<event>
 6    0  0.8520634E+002  0.1241459E+03  0.7546771E-02  0.1236410E+00
         21   -1    0    0  505  501  0.00000000000E+00  0.00000000000E+00  0.46690000285E+03  0.46690000285E+03  0.00000000000E+00 0.  1.
         21   -1    0    0  506  502 -0.00000000000E+00 -0.00000000000E+00 -0.25296103272E+03  0.25296103272E+03  0.00000000000E+00 0. -1.
         21    1    1    2  503  502  0.82916419063E+02 -0.98274939814E+02  0.21633206827E+02  0.13038823560E+03  0.00000000000E+00 0.  1.
         21    1    1    2  504  501 -0.11339298345E+03  0.43135185725E+02 -0.34430613377E+02  0.12611137966E+03  0.00000000000E+00 0. -1.
         21    1    1    2  505  503  0.57226282939E+02  0.35714615078E+02  0.33935314501E+03  0.34599268521E+03  0.00000000000E+00 0.  1.
         21    1    1    2  506  504 -0.26749718552E+02  0.19425139012E+02 -0.11261676833E+03  0.11736873509E+03  0.00000000000E+00 0. -1.
<scales pt_clust_3="124.14591" pt_clust_4="14000.00000" pt_clust_5="67.16199" pt_clust_6="33.05879"></scales>
<clustering>
<clus scale="   33.059">  2  6  1 -1</clus>
<clus scale="   67.162">  1  5  2 -1</clus>
<clus scale="  124.146">  1  3  2 -1</clus>
<clus scale="   67.162">  1  3  2 -1</clus>
</clustering>
</event>
<event>
 6    0  0.8520634E+002  0.8869955E+02  0.7546771E-02  0.1306032E+00
         21   -1    0    0  504  501  0.00000000000E+00  0.00000000000E+00  0.16932199812E+04  0.16932199812E+04  0.00000000000E+00 0.  1.
         21   -1    0    0  506  502 -0.00000000000E+00 -0.00000000000E+00 -0.25986561155E+03  0.25986561155E+03  0.00000000000E+00 0. -1.
         21    1    1    2  503  501 -0.33357112447E+02  0.74096016288E+02  0.11350289286E+04  0.11379339108E+04  0.00000000000E+00 0.  1.
         21    1    1    2  504  505 -0.81437785642E+02 -0.25236039331E+02  0.25616665631E+01  0.85296733507E+02  0.00000000000E+00 0. -1.
         21    1    1    2  505  502  0.22244048646E+02  0.66039398592E+02 -0.20042617111E+03  0.21219483955E+03  0.00000000000E+00 0. -1.
         21    1    1    2  506  503  0.92550849443E+02 -0.11489937555E+03  0.49618994562E+03  0.51766010892E+03  0.00000000000E+00 0.  1.
<scales pt_clust_3="14000.00000" pt_clust_4="69.23257" pt_clust_5="69.68500" pt_clust_6="88.69955"></scales>
<clustering>
<clus scale="   69.685">  2  5  1 -1</clus>
<clus scale="   69.233">  2  4  1 -1</clus>
<clus scale="   88.700">  2  6  1 -1</clus>
<clus scale="   88.700">  1  3  2 -1</clus>
</clustering>
</event>
<event>
 6    0  0.8520634E+002  0.1508450E+03  0.7546771E-02  0.1199439E+00
         21   -1    0    0  506  501  0.00000000000E+00  0.00000000000E+00  0.73003418017E+02  0.73003418017E+02  0.00000000000E+00 0. -1.
         21   -1    0    0  505  502 -0.00000000000E+00 -0.00000000000E+00 -0.15135068605E+04  0.15135068605E+04  0.00000000000E+00 0. -1.
         21    1    1    2  503  501 -0.10636088285E+03 -0.74953669120E+02 -0.68557370630E+02  0.14707414111E+03  0.00000000000E+00 0. -1.
         21    1    1    2  504  503 -0.13033339965E+03  0.59726293184E+02 -0.33311184830E+03  0.36265345530E+03  0.00000000000E+00 0. -1.
         21    1    1    2  505  504  0.15107878291E+03 -0.36194048849E+02 -0.84034300516E+03  0.85458245602E+03  0.00000000000E+00 0. -1.
         21    1    1    2  506  502  0.85615499591E+02  0.51421424785E+02 -0.19849121842E+03  0.22220022612E+03  0.00000000000E+00 0. -1.
<scales pt_clust_3="66.33559" pt_clust_4="150.84498" pt_clust_5="14000.00000" pt_clust_6="99.87080"></scales>
<clustering>
<clus scale="   99.871">  1  6  2 -1</clus>
<clus scale="   66.336">  1  3  2 -1</clus>
<clus scale="  150.845">  1  4  2 -1</clus>
<clus scale="   99.871">  1  3  2 -1</clus>
</clustering>
</event>
<event>
 6    0  0.2698726E+003  0.1273739E+03  0.7546771E-02  0.1231405E+00
         21   -1    0    0  505  501  0.00000000000E+00  0.00000000000E+00  0.17658684162E+04  0.17658684162E+04  0.00000000000E+00 0. -1.
         21   -1    0    0  503  502 -0.00000000000E+00 -0.00000000000E+00 -0.29143424525E+03  0.29143424525E+03  0.00000000000E+00 0. -1.
         21    1    1    2  503  506 -0.56988766487E+02 -0.11471682180E+03 -0.26652959593E+03  0.29571218138E+03  0.00000000000E+00 0. -1.
         21    1    1    2  504  501  0.17392403770E+02  0.47414677064E+02  0.90727500787E+03  0.90867958446E+03  0.00000000000E+00 0. -1.
         21    1    1    2  505  502 -0.38748952220E+02  0.72328199275E+01  0.53246985353E+02  0.66249803256E+02  0.00000000000E+00 0.  1.
         21    1    1    2  506  504  0.78345314937E+02  0.60069324804E+02  0.78044177362E+03  0.78666109232E+03  0.00000000000E+00 0. -1.
<scales pt_clust_3="14000.00000" pt_clust_4="51.36551" pt_clust_5="39.41821" pt_clust_6="127.37388"></scales>
<clustering>
<clus scale="   39.418">  1  5  2 -1</clus>
<clus scale="   51.366">  1  4  2 -1</clus>
<clus scale="  127.374">  1  6  2 -1</clus>
<clus scale="   39.418">  1  3  2 -1</clus>
</clustering>
</event>
<event>
 6    0  0.8520635E+002  0.1067491E+03  0.7546771E-02  0.1266711E+00
         21   -1    0    0  505  501  0.00000000000E+00  0.00000000000E+00  0.59410116111E+03  0.59410116111E+03  0.00000000000E+00 0.  1.
         21   -1    0    0  503  502 -0.00000000000E+00 -0.00000000000E+00 -0.17428028011E+04  0.17428028011E+04  0.00000000000E+00 0. -1.
         21    1    1    2  503  501  0.92372177471E+01 -0.35608884588E+02 -0.32156235840E+01  0.36927754986E+02  0.00000000000E+00 0.  1.
         21    1    1    2  504  506 -0.77584984119E+01  0.14583397284E+03 -0.14911556892E+03  0.20871797916E+03  0.00000000000E+00 0. -1.
         21    1    1    2  505  504  0.41781442255E+02 -0.56319371894E+02  0.54442027315E+03  0.54891802155E+03  0.00000000000E+00 0.  1.
         21    1    1    2  506  502 -0.43260161591E+02 -0.53905716354E+02 -0.15407907206E+04  0.15423402065E+04  0.00000000000E+00 0. -1.
<scales pt_clust_3="36.78748" pt_clust_4="106.74909" pt_clust_5="14000.00000" pt_clust_6="69.14731"></scales>
<clustering>
<clus scale="   36.787">  1  3  2 -1</clus>
<clus scale="   69.147">  2  6  1 -1</clus>
<clus scale="  106.749">  2  4  1 -1</clus>
<clus scale="   36.787">  1  3  2 -1</clus>
</clustering>
</event>
<event>
 6    0  0.8520634E+002  0.1154589E+03  0.7546771E-02  0.1250782E+00
         21   -1    0    0  505  501  0.00000000000E+00  0.00000000000E+00  0.56354864455E+03  0.56354864455E+03  0.00000000000E+00 0. -1.
         21   -1    0    0  503  502 -0.00000000000E+00 -0.00000000000E+00 -0.38056609120E+03  0.38056609120E+03  0.00000000000E+00 0. -1.
         21    1    1    2  503  506 -0.63230870840E+02  0.64631501269E+02 -0.26096602681E+03  0.27618588149E+03  0.00000000000E+00 0. -1.
         21    1    1    2  504  502 -0.19182507924E+02 -0.44111715008E+02 -0.66450734535E+02  0.82033603672E+02  0.00000000000E+00 0.  1.
         21    1    1    2  505  504  0.77753058780E+01  0.68384311723E+02  0.68792998912E+01  0.69167869985E+02  0.00000000000E+00 0. -1.
         21    1    1    2  506  501  0.74638072886E+02 -0.88904097984E+02  0.50352001480E+03  0.51672738061E+03  0.00000000000E+00 0. -1.
<scales pt_clust_3="14000.00000" pt_clust_4="48.10210" pt_clust_5="64.16438" pt_clust_6="115.45891"></scales>
<clustering>
<clus scale="   48.102">  2  4  1 -1</clus>
<clus scale="   64.164">  2  5  1 -1</clus>
<clus scale="  115.459">  1  6  2 -1</clus>
<clus scale="  115.459">  1  3  2 -1</clus>
</clustering>
</event>
<event>
 6    0  0.8520634E+002  0.8097346E+02  0.7546771E-02  0.1326311E+00
         21   -1    0    0  504  501  0.00000000000E+00  0.00000000000E+00  0.19220526920E+03  0.19220526920E+03  0.00000000000E+00 0.  1.
         21   -1    0    0  506  502 -0.00000000000E+00 -0.00000000000E+00 -0.38209523960E+03  0.38209523960E+03  0.00000000000E+00 0. -1.
         21    1    1    2  503  502  0.39694340115E+02  0.32955467271E+02 -0.26523737971E+03  0.27020838450E+03  0.00000000000E+00 0. -1.
         21    1    1    2  504  505  0.56645994651E+02  0.48794760663E+02  0.99645926494E+02  0.12457531074E+03  0.00000000000E+00 0.  1.
         21    1    1    2  505  503 -0.47778578941E+02 -0.10241003612E+03  0.14613957987E+02  0.11394812799E+03  0.00000000000E+00 0. -1.
         21    1    1    2  506  501 -0.48561755825E+02  0.20659808187E+02 -0.38912475173E+02  0.65568685568E+02  0.00000000000E+00 0. -1.
<scales pt_clust_3="51.59170" pt_clust_4="14000.00000" pt_clust_5="80.97346" pt_clust_6="46.91940"></scales>
<clustering>
<clus scale="   51.592">  2  3  1 -1</clus>
<clus scale="   46.919">  2  6  1 -1</clus>
<clus scale="   80.973">  2  5  1 -1</clus>
<clus scale="   80.973">  1  3  2 -1</clus>
</clustering>
</event>
<event>
 6    0  0.8520634E+002  0.7597973E+02  0.7546771E-02  0.1340864E+00
         21   -1    0    0  506  501  0.00000000000E+00  0.00000000000E+00  0.41207945203E+03  0.41207945203E+03  0.00000000000E+00 0. -1.
         21   -1    0    0  504  502 -0.00000000000E+00 -0.00000000000E+00 -0.30705846398E+03  0.30705846398E+03  0.00000000000E+00 0. -1.
         21    1    1    2  503  501  0.71157741495E+02 -0.13192386335E+02 -0.10492908502E+03  0.12746598022E+03  0.00000000000E+00 0. -1.
         21    1    1    2  504  503 -0.79742771890E+02 -0.23253846590E+02 -0.16419785506E+03  0.18401246332E+03  0.00000000000E+00 0. -1.
         21    1    1    2  505  502 -0.21953897676E+02  0.62039806551E+02  0.54244399853E+02  0.85284032124E+02  0.00000000000E+00 0. -1.
         21    1    1    2  506  505  0.30538928071E+02 -0.25593573625E+02  0.31990352827E+03  0.32237544035E+03  0.00000000000E+00 0. -1.
<scales pt_clust_3="75.97973" pt_clust_4="14000.00000" pt_clust_5="42.43141" pt_clust_6="39.84542"></scales>
<clustering>
<clus scale="   39.845">  1  6  2 -1</clus>
<clus scale="   42.431">  1  5  2 -1</clus>
<clus scale="   75.980">  1  3  2 -1</clus>
<clus scale="   39.845">  1  3  2 -1</clus>
</clustering>
</event>
<event>
 6    0  0.8520634E+002  0.1118156E+03  0.7546771E-02  0.1257244E+00
         21   -1    0    0  504  501  0.00000000000E+00  0.00000000000E+00  0.11292950855E+03  0.11292950855E+03  0.00000000000E+00 0.  1.
         21   -1    0    0  506  502 -0.00000000000E+00 -0.00000000000E+00 -0.12251647043E+04  0.12251647043E+04  0.00000000000E+00 0.  1.
         21    1    1    2  503  502  0.60878049409E+02 -0.92090933140E+02 -0.10402716147E+04  0.10461127612E+04  0.00000000000E+00 0.  1.
         21    1    1    2  504  503 -0.10894632250E+03  0.11565075596E+03  0.23639472760E+02  0.16063381715E+03  0.00000000000E+00 0.  1.
         21    1    1    2  505  501  0.24551422427E+02  0.23207472332E+02 -0.19588053131E+02  0.39051900602E+02  0.00000000000E+00 0. -1.
         21    1    1    2  506  505  0.23516850664E+02 -0.46767295151E+02 -0.76015000666E+02  0.92295733852E+02  0.00000000000E+00 0.  1.
<scales pt_clust_3="111.81557" pt_clust_4="14000.00000" pt_clust_5="33.78401" pt_clust_6="51.64479"></scales>
<clustering>
<clus scale="   33.784">  1  5  2 -1</clus>
<clus scale="   51.645">  1  6  2 -1</clus>
<clus scale="  111.816">  2  3  1 -1</clus>
<clus scale="   33.784">  1  3  2 -1</clus>
</clustering>
</event>
<event>
 6    0  0.8520634E+002  0.6667920E+03  0.7546771E-02  0.9775771E-01
         21   -1    0    0  503  501  0.00000000000E+00  0.00000000000E+00  0.12896938043E+04  0.12896938043E+04  0.00000000000E+00 0. -1.
         21   -1    0    0  506  502 -0.00000000000E+00 -0.00000000000E+00 -0.12492667317E+04  0.12492667317E+04  0.00000000000E+00 0.  1.
         21    1    1    2  503  505  0.15295830365E+03  0.41705003595E+03 -0.64344127005E+03  0.78188467381E+03  0.00000000000E+00 0.  1.
         21    1    1    2  504  501  0.27897580350E+02  0.15240635733E+02  0.59437003249E+03  0.59521952882E+03  0.00000000000E+00 0. -1.
         21    1    1    2  505  502 -0.93389905773E+02  0.19923275490E+03 -0.33147627131E+03  0.39785912527E+03  0.00000000000E+00 0.  1.
         21    1    1    2  506  504 -0.87465978227E+02 -0.63152342657E+03  0.42097458151E+03  0.76399720807E+03  0.00000000000E+00 0. -1.
<scales pt_clust_3="169.05024" pt_clust_4="31.78918" pt_clust_5="169.05024" pt_clust_6="621.79833"></scales>
<clustering>
<clus scale="   31.789">  1  4  2 -1</clus>
<clus scale="  169.050">  3  5 -1 -1</clus>
<clus scale="  621.798">  1  6  2 -1</clus>
<clus scale="   31.789">  1  3  2 -1</clus>
</clustering>
</event>
<event>
 6    0  0.8520634E+002  0.8564910E+02  0.7546771E-02  0.1313744E+00
         21   -1    0    0  506  501  0.00000000000E+00  0.00000000000E+00  0.34116916097E+03  0.34116916097E+03  0.00000000000E+00 0. -1.
         21   -1    0    0  505  502 -0.00000000000E+00 -0.00000000000E+00 -0.13885000474E+03  0.13885000474E+03  0.00000000000E+00 0.  1.
         21    1    1    2  503  504 -0.45252957456E+02  0.22753587706E+02 -0.14793712265E+02  0.52767507376E+02  0.00000000000E+00 0. -1.
         21    1    1    2  504  502  0.19215077136E+02 -0.32024810580E+02 -0.73678285362E+02  0.82603253059E+02  0.00000000000E+00 0.  1.
         21    1    1    2  505  501  0.10322933352E+03  0.71809577742E+01  0.12900641685E+03  0.16537991729E+03  0.00000000000E+00 0. -1.
         21    1    1    2  506  503 -0.77191453195E+02  0.20902651003E+01  0.16178473701E+03  0.17926848799E+03  0.00000000000E+00 0. -1.
<scales pt_clust_3="34.91147" pt_clust_4="37.34712" pt_clust_5="85.64910" pt_clust_6="14000.00000"></scales>
<clustering>
<clus scale="   37.347">  2  4  1 -1</clus>
<clus scale="   34.911">  2  3  1 -1</clus>
<clus scale="   85.649">  2  5  1 -1</clus>
<clus scale="   85.649">  1  3  2 -1</clus>
</clustering>
</event>
<event>
 6    0  0.8520634E+002  0.8257772E+02  0.7546771E-02  0.1321891E+00
         21   -1    0    0  505  501  0.00000000000E+00  0.00000000000E+00  0.17333060977E+03  0.17333060977E+03  0.00000000000E+00 0. -1.
         21   -1    0    0  504  502 -0.00000000000E+00 -0.00000000000E+00 -0.34896648393E+03  0.34896648393E+03  0.00000000000E+00 0. -1.
         21    1    1    2  503  501  0.47990846412E+02  0.55341013531E+02  0.76728940533E+02  0.10608053277E+03  0.00000000000E+00 0. -1.
         21    1    1    2  504  503  0.33045337717E+02  0.51378347320E+01 -0.28664354494E+02  0.44045850078E+02  0.00000000000E+00 0.  1.
         21    1    1    2  505  506 -0.11940301482E+03 -0.48126610047E+02  0.15437812316E+02  0.12965946395E+03  0.00000000000E+00 0. -1.
         21    1    1    2  506  502  0.38366830693E+02 -0.12352238215E+02 -0.23913827252E+03  0.24251124690E+03  0.00000000000E+00 0. -1.
<scales pt_clust_3="14000.00000" pt_clust_4="33.44236" pt_clust_5="82.57772" pt_clust_6="64.37344"></scales>
<clustering>
<clus scale="   33.442">  2  4  1 -1</clus>
<clus scale="   64.373">  2  6  1 -1</clus>
<clus scale="   82.578">  2  5  1 -1</clus>
<clus scale="   82.578">  1  3  2 -1</clus>
</clustering>
</event>
<event>
 6    0  0.8520634E+002  0.1226453E+03  0.7546771E-02  0.1238796E+00
         21   -1    0    0  504  501  0.00000000000E+00  0.00000000000E+00  0.32408371408E+03  0.32408371408E+03  0.00000000000E+00 0. -1.
         21   -1    0    0  503  502 -0.00000000000E+00 -0.00000000000E+00 -0.73778696807E+02  0.73778696807E+02  0.00000000000E+00 0. -1.
         21    1    1    2  503  505  0.35094645549E+02  0.50352445650E+01 -0.14359189006E+02  0.38251459357E+02  0.00000000000E+00 0. -1.
         21    1    1    2  504  506 -0.29218723371E+02 -0.66231185484E+02  0.90377408059E+02  0.11579455779E+03  0.00000000000E+00 0. -1.
         21    1    1    2  505  501  0.43856974286E+02  0.95559962068E+02  0.81307262653E+02  0.13291354899E+03  0.00000000000E+00 0. -1.
         21    1    1    2  506  502 -0.49732896464E+02 -0.34364021149E+02  0.92979535566E+02  0.11090284475E+03  0.00000000000E+00 0. -1.
<scales pt_clust_3="35.45402" pt_clust_4="34.42553" pt_clust_5="116.71624" pt_clust_6="34.42553"></scales>
<clustering>
<clus scale="   34.426">  4  6 -1 -1</clus>
<clus scale="   35.454">  2  3  1 -1</clus>
<clus scale="  116.716">  2  5  1 -1</clus>
<clus scale="  122.645">  1  3  2 -1</clus>
</clustering>
</event>
<event>
 6    0  0.8520634E+002  0.7186026E+02  0.7546771E-02  0.1353879E+00
         21   -1    0    0  505  501  0.00000000000E+00  0.00000000000E+00  0.16320504172E+03  0.16320504172E+03  0.00000000000E+00 0.  1.
         21   -1    0    0  503  502 -0.00000000000E+00 -0.00000000000E+00 -0.14458959497E+03  0.14458959497E+03  0.00000000000E+00 0.  1.
         21    1    1    2  503  504 -0.30376310835E+02 -0.54994909650E+02 -0.39295774175E+02  0.74103429174E+02  0.00000000000E+00 0.  1.
         21    1    1    2  504  501  0.18001905997E+02 -0.69724278083E+02  0.25450392400E+02  0.76375821090E+02  0.00000000000E+00 0.  1.
         21    1    1    2  505  506 -0.29630008610E+01  0.30394228531E+02  0.51499966793E+02  0.59873492313E+02  0.00000000000E+00 0.  1.
         21    1    1    2  506  502  0.15337405699E+02  0.94324959203E+02 -0.19039138264E+02  0.97441894112E+02  0.00000000000E+00 0.  1.
<scales pt_clust_3="14000.00000" pt_clust_4="57.76781" pt_clust_5="30.53831" pt_clust_6="71.86026"></scales>
<clustering>
<clus scale="   30.538">  1  5  2 -1</clus>
<clus scale="   57.768">  1  4  2 -1</clus>
<clus scale="   71.860">  1  6  2 -1</clus>
<clus scale="   30.538">  1  3  2 -1</clus>
</clustering>
</event>
<event>
 6    0  0.8520634E+002  0.1492703E+03  0.7546771E-02  0.1201373E+00
         21   -1    0    0  505  501  0.00000000000E+00  0.00000000000E+00  0.79831091346E+03  0.79831091346E+03  0.00000000000E+00 0.  1.
         21   -1    0    0  504  502 -0.00000000000E+00 -0.00000000000E+00 -0.10330215155E+03  0.10330215155E+03  0.00000000000E+00 0. -1.
         21    1    1    2  503  501 -0.95998092051E+02 -0.34388319350E+01  0.94307595890E+02  0.13461568217E+03  0.00000000000E+00 0.  1.
         21    1    1    2  504  506 -0.24291560867E+02  0.30009252043E+02  0.15542499001E+02  0.41619759883E+02  0.00000000000E+00 0.  1.
         21    1    1    2  505  502  0.18491181030E+03 -0.55714448953E+00  0.62035641564E+03  0.64732895070E+03  0.00000000000E+00 0.  1.
         21    1    1    2  506  503 -0.64622157378E+02 -0.26013275618E+02 -0.35197748620E+02  0.78048672253E+02  0.00000000000E+00 0. -1.
<scales pt_clust_3="149.27031" pt_clust_4="38.60874" pt_clust_5="14000.00000" pt_clust_6="80.18334"></scales>
<clustering>
<clus scale="   38.609">  2  4  1 -1</clus>
<clus scale="   80.183">  2  6  1 -1</clus>
<clus scale="  149.270">  2  3  1 -1</clus>
<clus scale="  149.270">  1  3  2 -1</clus>
</clustering>
</event>
<event>
 6    0  0.8520634E+002  0.6224565E+02  0.7546771E-02  0.1388642E+00
         21   -1    0    0  505  501  0.00000000000E+00  0.00000000000E+00  0.47353806695E+03  0.47353806695E+03  0.00000000000E+00 0.  1.
         21   -1    0    0  504  502 -0.00000000000E+00 -0.00000000000E+00 -0.14643557429E+03  0.14643557429E+03  0.00000000000E+00 0.  1.
         21    1    1    2  503  502  0.30723620608E+02  0.64563131366E+02 -0.53090485381E+02  0.89055816391E+02  0.00000000000E+00 0.  1.
         21    1    1    2  504  506 -0.30685827911E+02 -0.18105381621E+02 -0.11455304867E+02  0.37425243992E+02  0.00000000000E+00 0. -1.
         21    1    1    2  505  503 -0.39636723535E+02  0.45850957044E+02  0.38829088164E+03  0.39299260665E+03  0.00000000000E+00 0.  1.
         21    1    1    2  506  501  0.39598930838E+02 -0.92308706790E+02  0.33574012633E+01  0.10049997421E+03  0.00000000000E+00 0.  1.
<scales pt_clust_3="55.52174" pt_clust_4="35.62899" pt_clust_5="62.24565" pt_clust_6="14000.00000"></scales>
<clustering>
<clus scale="   35.629">  2  4  1 -1</clus>
<clus scale="   55.522">  2  3  1 -1</clus>
<clus scale="   62.246">  1  5  2 -1</clus>
<clus scale="   62.246">  1  3  2 -1</clus>
</clustering>
</event>
<event>
 6    0  0.8520634E+002  0.9956847E+02  0.7546771E-02  0.1281206E+00
         21   -1    0    0  503  501  0.00000000000E+00  0.00000000000E+00  0.17350115843E+04  0.17350115843E+04  0.00000000000E+00 0. -1.
         21   -1    0    0  505  502 -0.00000000000E+00 -0.00000000000E+00 -0.10806098563E+03  0.10806098563E+03  0.00000000000E+00 0.  1.
         21    1    1    2  503  504  0.37522586996E+02 -0.45230238533E+01  0.10711551698E+04  0.10718217202E+04  0.00000000000E+00 0. -1.
         21    1    1    2  504  506  0.29899977585E+02 -0.21411108099E+02  0.53261505980E+03  0.53388317649E+03  0.00000000000E+00 0. -1.
         21    1    1    2  505  501  0.80204147556E+01 -0.89158471657E+02 -0.22618037906E+02  0.92331661741E+02  0.00000000000E+00 0.  1.
         21    1    1    2  506  502 -0.75442979337E+02  0.11509260361E+03  0.45798407037E+02  0.14503601147E+03  0.00000000000E+00 0.  1.
<scales pt_clust_3="78.79890" pt_clust_4="31.05123" pt_clust_5="99.56847" pt_clust_6="14000.00000"></scales>
<clustering>
<clus scale="   31.051">  3  4 -1 -1</clus>
<clus scale="   78.799">  1  3  2 -1</clus>
<clus scale="   99.568">  2  5  1 -1</clus>
<clus scale="   78.799">  1  3  2 -1</clus>
</clustering>
</event>
<event>
 6    0  0.8520634E+002  0.1892518E+03  0.7546771E-02  0.1159138E+00
         21   -1    0    0  504  501  0.00000000000E+00  0.00000000000E+00  0.62611051622E+02  0.62611051622E+02  0.00000000000E+00 0. -1.
         21   -1    0    0  505  502 -0.00000000000E+00 -0.00000000000E+00 -0.12064866168E+04  0.12064866168E+04  0.00000000000E+00 0. -1.
         21    1    1    2  503  506 -0.84886269575E+01  0.52121448320E+02 -0.27365121415E+02  0.59477323685E+02  0.00000000000E+00 0. -1.
         21    1    1    2  504  503  0.78252515602E+02  0.11530423154E+03 -0.97837367079E+02  0.17026647470E+03  0.00000000000E+00 0. -1.
         21    1    1    2  505  501 -0.35507208147E+02 -0.16126541307E+03 -0.72180808077E+03  0.74045540092E+03  0.00000000000E+00 0. -1.
         21    1    1    2  506  502 -0.34256680498E+02 -0.61602667919E+01 -0.29686499593E+03  0.29889846914E+03  0.00000000000E+00 0. -1.
<scales pt_clust_3="40.45085" pt_clust_4="40.45085" pt_clust_5="177.78656" pt_clust_6="34.80616"></scales>
<clustering>
<clus scale="   34.806">  2  6  1 -1</clus>
<clus scale="   40.451">  3  4 -1 -1</clus>
<clus scale="  177.787">  2  5  1 -1</clus>
<clus scale="  189.252">  1  3  2 -1</clus>
</clustering>
</event>
<event>
 6    0  0.8520634E+002  0.9116850E+02  0.7546771E-02  0.1300046E+00
         21   -1    0    0  504  501  0.00000000000E+00  0.00000000000E+00  0.88864243873E+02  0.88864243873E+02  0.00000000000E+00 0. -1.
         21   -1    0    0  506  502 -0.00000000000E+00 -0.00000000000E+00 -0.35907941267E+03  0.35907941267E+03  0.00000000000E+00 0. -1.
         21    1    1    2  503  501 -0.57245019901E+02  0.37208798862E+02 -0.19437271800E+02  0.70987988782E+02  0.00000000000E+00 0. -1.
         21    1    1    2  504  505  0.11344771425E+02  0.45316840461E+02  0.22967390066E+02  0.52055939858E+02  0.00000000000E+00 0. -1.
         21    1    1    2  505  502 -0.36914635075E+02  0.15294177835E+02 -0.10951272208E+03  0.11657460467E+03  0.00000000000E+00 0. -1.
         21    1    1    2  506  503  0.82814883550E+02 -0.97819817158E+02 -0.16423256499E+03  0.20832512323E+03  0.00000000000E+00 0. -1.
<scales pt_clust_3="14000.00000" pt_clust_4="47.12037" pt_clust_5="39.95750" pt_clust_6="91.16850"></scales>
<clustering>
<clus scale="   39.958">  2  5  1 -1</clus>
<clus scale="   47.120">  1  4  2 -1</clus>
<clus scale="   91.168">  2  6  1 -1</clus>
<clus scale="   47.120">  1  3  2 -1</clus>
</clustering>
</event>
<event>
 6    0  0.8520634E+002  0.1053511E+03  0.7546771E-02  0.1269429E+00
         21   -1    0    0  503  501  0.00000000000E+00  0.00000000000E+00  0.16992882272E+04  0.16992882272E+04  0.00000000000E+00 0. -1.
         21   -1    0    0  504  502 -0.00000000000E+00 -0.00000000000E+00 -0.13665380254E+03  0.13665380254E+03  0.00000000000E+00 0.  1.
         21    1    1    2  503  506  0.21831456073E+02 -0.72090548688E+02  0.96665348742E+03  0.96958373771E+03  0.00000000000E+00 0. -1.
         21    1    1    2  504  505  0.88923322049E+02  0.90522955222E+02  0.51445536772E+02  0.13692481835E+03  0.00000000000E+00 0.  1.
         21    1    1    2  505  501 -0.10845081729E+03  0.12230421698E+02  0.62959611194E+03  0.63898546709E+03  0.00000000000E+00 0.  1.
         21    1    1    2  506  502 -0.23039608332E+01 -0.30662828232E+02 -0.85060711438E+02  0.90448006618E+02  0.00000000000E+00 0.  1.
<scales pt_clust_3="76.18370" pt_clust_4="105.35114" pt_clust_5="14000.00000" pt_clust_6="30.74926"></scales>
<clustering>
<clus scale="   30.749">  2  6  1 -1</clus>
<clus scale="   76.184">  1  3  2 -1</clus>
<clus scale="  105.351">  2  4  1 -1</clus>
<clus scale="   76.184">  1  3  2 -1</clus>
</clustering>
</event>
<event>
 6    0  0.8520634E+002  0.8925785E+02  0.7546771E-02  0.1304659E+00
         21   -1    0    0  504  501  0.00000000000E+00  0.00000000000E+00  0.15561021198E+03  0.15561021198E+03  0.00000000000E+00 0.  1.
         21   -1    0    0  503  502 -0.00000000000E+00 -0.00000000000E+00 -0.47520289243E+03  0.47520289243E+03  0.00000000000E+00 0. -1.
         21    1    1    2  503  506 -0.40094417618E+02  0.12360989649E+02 -0.88156190307E+02  0.97631297639E+02  0.00000000000E+00 0.  1.
         21    1    1    2  504  505  0.79203868320E+02 -0.79216696220E+02 -0.68677851612E+02  0.13139705103E+03  0.00000000000E+00 0.  1.
         21    1    1    2  505  502  0.43439350861E+02  0.38986510025E+02 -0.26275293443E+03  0.26915800141E+03  0.00000000000E+00 0. -1.
         21    1    1    2  506  501 -0.82548801563E+02  0.27869196546E+02  0.99994295903E+02  0.13262675435E+03  0.00000000000E+00 0.  1.
<scales pt_clust_3="41.95660" pt_clust_4="14000.00000" pt_clust_5="50.06099" pt_clust_6="89.25785"></scales>
<clustering>
<clus scale="   41.957">  2  3  1 -1</clus>
<clus scale="   50.061">  2  5  1 -1</clus>
<clus scale="   89.258">  1  6  2 -1</clus>
<clus scale="   89.258">  1  3  2 -1</clus>
</clustering>
</event>
<event>
 6    0  0.8520634E+002  0.1183483E+03  0.7546771E-02  0.1245847E+00
         21   -1    0    0  506  501  0.00000000000E+00  0.00000000000E+00  0.25738946685E+03  0.25738946685E+03  0.00000000000E+00 0. -1.
         21   -1    0    0  505  502 -0.00000000000E+00 -0.00000000000E+00 -0.94174613726E+03  0.94174613726E+03  0.00000000000E+00 0. -1.
         21    1    1    2  503  501 -0.10072993943E+03 -0.30299302877E+01  0.10620448531E+03  0.14640728764E+03  0.00000000000E+00 0. -1.
         21    1    1    2  504  503  0.20582547263E+03  0.42954341279E+02  0.32052272998E+02  0.21268885448E+03  0.00000000000E+00 0. -1.
         21    1    1    2  505  504 -0.20177001658E+02  0.45315925500E+02 -0.26302510935E+03  0.26766182516E+03  0.00000000000E+00 0. -1.
         21    1    1    2  506  502 -0.84918531537E+02 -0.85240336491E+02 -0.55958831937E+03  0.57237763683E+03  0.00000000000E+00 0. -1.
<scales pt_clust_3="101.34354" pt_clust_4="14000.00000" pt_clust_5="49.60488" pt_clust_6="118.34833"></scales>
<clustering>
<clus scale="   49.605">  2  5  1 -1</clus>
<clus scale="  101.344">  1  3  2 -1</clus>
<clus scale="  118.348">  2  6  1 -1</clus>
<clus scale="  101.344">  1  3  2 -1</clus>
</clustering>
</event>
<event>
 6    0  0.8520634E+002  0.6560371E+02  0.7546771E-02  0.1375715E+00
         21   -1    0    0  505  501  0.00000000000E+00  0.00000000000E+00  0.46900840357E+03  0.46900840357E+03  0.00000000000E+00 0. -1.
         21   -1    0    0  503  502 -0.00000000000E+00 -0.00000000000E+00 -0.19202376913E+03  0.19202376913E+03  0.00000000000E+00 0.  1.
         21    1    1    2  503  506  0.67281909456E+01 -0.47646101230E+02 -0.12955612782E+03  0.13820350854E+03  0.00000000000E+00 0.  1.
         21    1    1    2  504  502 -0.40098568021E+02 -0.46359844059E+02  0.28495552872E+01  0.61361635114E+02  0.00000000000E+00 0. -1.
         21    1    1    2  505  504  0.64805196683E+02  0.17314033321E+02  0.36297675184E+03  0.36912275959E+03  0.00000000000E+00 0. -1.
         21    1    1    2  506  501 -0.31434819608E+02  0.76691911968E+02  0.40714455138E+02  0.92344269461E+02  0.00000000000E+00 0. -1.
<scales pt_clust_3="48.11881" pt_clust_4="65.60371" pt_clust_5="14000.00000" pt_clust_6="62.39969"></scales>
<clustering>
<clus scale="   48.119">  2  3  1 -1</clus>
<clus scale="   62.400">  2  6  1 -1</clus>
<clus scale="   65.604">  2  4  1 -1</clus>
<clus scale="   65.604">  1  3  2 -1</clus>
</clustering>
</event>
<event>
 6    0  0.8520634E+002  0.8302052E+02  0.7546771E-02  0.1320692E+00
         21   -1    0    0  506  501  0.00000000000E+00  0.00000000000E+00  0.54335960085E+03  0.54335960085E+03  0.00000000000E+00 0. -1.
         21   -1    0    0  504  502 -0.00000000000E+00 -0.00000000000E+00 -0.19071627503E+04  0.19071627503E+04  0.00000000000E+00 0.  1.
         21    1    1    2  503  502 -0.68487871956E+02 -0.30045729223E+02 -0.10846009720E+04  0.10871764360E+04  0.00000000000E+00 0.  1.
         21    1    1    2  504  501 -0.46292615581E+02  0.73973685307E+02 -0.35290892210E+03  0.36353792054E+03  0.00000000000E+00 0.  1.
         21    1    1    2  505  503  0.56257390970E+02 -0.62463707402E+02 -0.45745291476E+03  0.46511265088E+03  0.00000000000E+00 0.  1.
         21    1    1    2  506  505  0.58523096567E+02  0.18535751319E+02  0.53115965939E+03  0.53469534379E+03  0.00000000000E+00 0. -1.
<scales pt_clust_3="67.25879" pt_clust_4="83.02052" pt_clust_5="14000.00000" pt_clust_6="61.38833"></scales>
<clustering>
<clus scale="   61.388">  1  6  2 -1</clus>
<clus scale="   67.259">  2  3  1 -1</clus>
<clus scale="   83.021">  1  4  2 -1</clus>
<clus scale="   61.388">  1  3  2 -1</clus>
</clustering>
</event>
<event>
 6    0  0.8520634E+002  0.5132814E+02  0.7546771E-02  0.1438307E+00
         21   -1    0    0  504  501  0.00000000000E+00  0.00000000000E+00  0.14462097954E+04  0.14462097954E+04  0.00000000000E+00 0. -1.
         21   -1    0    0  506  502 -0.00000000000E+00 -0.00000000000E+00 -0.24457487648E+03  0.24457487648E+03  0.00000000000E+00 0. -1.
         21    1    1    2  503  505  0.36443009621E+02 -0.71576086912E+02  0.26461249871E+03  0.27653391047E+03  0.00000000000E+00 0. -1.
         21    1    1    2  504  502 -0.62477557212E+01 -0.50202549564E+02 -0.52374914365E+02  0.72818006626E+02  0.00000000000E+00 0. -1.
         21    1    1    2  505  501 -0.20078699883E+02  0.26468414783E+02  0.11521102919E+04  0.11525891965E+04  0.00000000000E+00 0. -1.
         21    1    1    2  506  503 -0.10116554017E+02  0.95310221693E+02 -0.16271295732E+03  0.18884355828E+03  0.00000000000E+00 0. -1.
<scales pt_clust_3="14000.00000" pt_clust_4="49.76900" pt_clust_5="33.22245" pt_clust_6="51.32814"></scales>
<clustering>
<clus scale="   33.222">  1  5  2 -1</clus>
<clus scale="   49.769">  2  4  1 -1</clus>
<clus scale="   51.328">  2  6  1 -1</clus>
<clus scale="   33.222">  1  3  2 -1</clus>
</clustering>
</event>
<event>
 6    0  0.8520634E+002  0.1518037E+03  0.7546771E-02  0.1198274E+00
         21   -1    0    0  503  501  0.00000000000E+00  0.00000000000E+00  0.12379393846E+04  0.12379393846E+04  0.00000000000E+00 0.  1.
         21   -1    0    0  504  502 -0.00000000000E+00 -0.00000000000E+00 -0.20353328139E+03  0.20353328139E+03  0.00000000000E+00 0. -1.
         21    1    1    2  503  506 -0.36787859199E+02  0.12006429963E+02  0.94370080172E+03  0.94449388781E+03  0.00000000000E+00 0.  1.
         21    1    1    2  504  501  0.24168732025E+02  0.20974890573E+02 -0.10610377275E+03  0.11082456512E+03  0.00000000000E+00 0. -1.
         21    1    1    2  505  502  0.13234413009E+03  0.40084186098E+02 -0.73285786623E+01  0.13847533647E+03  0.00000000000E+00 0. -1.
         21    1    1    2  506  505 -0.11972500291E+03 -0.73065506635E+02  0.20413765295E+03  0.24767887665E+03  0.00000000000E+00 0.  1.
<scales pt_clust_3="38.62904" pt_clust_4="32.00115" pt_clust_5="14000.00000" pt_clust_6="151.80372"></scales>
<clustering>
<clus scale="   32.001">  2  4  1 -1</clus>
<clus scale="   38.629">  1  3  2 -1</clus>
<clus scale="  151.804">  1  6  2 -1</clus>
<clus scale="   38.629">  1  3  2 -1</clus>
</clustering>
</event>
<event>
 6    0  0.8520634E+002  0.1037176E+03  0.7546771E-02  0.1272667E+00
         21   -1    0    0  506  501  0.00000000000E+00  0.00000000000E+00  0.38870999676E+03  0.38870999676E+03  0.00000000000E+00 0.  1.
         21   -1    0    0  503  502 -0.00000000000E+00 -0.00000000000E+00 -0.58584772594E+03  0.58584772594E+03  0.00000000000E+00 0. -1.
         21    1    1    2  503  505  0.58279902937E+02 -0.15151505367E+01 -0.18491828268E+02  0.61162001931E+02  0.00000000000E+00 0.  1.
         21    1    1    2  504  502 -0.48256876174E+02 -0.10543754886E+03 -0.52280969905E+03  0.53551450422E+03  0.00000000000E+00 0. -1.
         21    1    1    2  505  501 -0.49963774694E+02  0.63400957062E+02  0.27651726278E+03  0.28805877309E+03  0.00000000000E+00 0.  1.
         21    1    1    2  506  504  0.39940747931E+02  0.43551742335E+02  0.67646535350E+02  0.89822443468E+02  0.00000000000E+00 0.  1.
<scales pt_clust_3="58.29959" pt_clust_4="103.71760" pt_clust_5="14000.00000" pt_clust_6="59.87719"></scales>
<clustering>
<clus scale="   58.300">  2  3  1 -1</clus>
<clus scale="   59.877">  1  6  2 -1</clus>
<clus scale="  103.718">  2  4  1 -1</clus>
<clus scale="   59.877">  1  3  2 -1</clus>
</clustering>
</event>
<event>
 6    0  0.8520634E+002  0.1612275E+03  0.7546771E-02  0.1187318E+00
         21   -1    0    0  504  501  0.00000000000E+00  0.00000000000E+00  0.37951080522E+03  0.37951080522E+03  0.00000000000E+00 0. -1.
         21   -1    0    0  505  502 -0.00000000000E+00 -0.00000000000E+00 -0.27552811239E+03  0.27552811239E+03  0.00000000000E+00 0. -1.
         21    1    1    2  503  506 -0.11077142318E+03 -0.50652106671E+02 -0.84964820848E+02  0.14850914075E+03  0.00000000000E+00 0. -1.
         21    1    1    2  504  502 -0.35638502818E+02  0.39202567373E+02 -0.37577740846E+02  0.64954066684E+02  0.00000000000E+00 0.  1.
         21    1    1    2  505  503 -0.74879739061E+01 -0.57489461771E+02 -0.75782365167E+02  0.95415275707E+02  0.00000000000E+00 0. -1.
         21    1    1    2  506  501  0.15389789991E+03  0.68939001069E+02  0.30230761969E+03  0.34616043446E+03  0.00000000000E+00 0. -1.
<scales pt_clust_3="161.22755" pt_clust_4="52.98060" pt_clust_5="47.46896" pt_clust_6="14000.00000"></scales>
<clustering>
<clus scale="   52.981">  2  4  1 -1</clus>
<clus scale="   47.469">  2  5  1 -1</clus>
<clus scale="  161.228">  2  3  1 -1</clus>
<clus scale="  161.228">  1  3  2 -1</clus>
</clustering>
</event>
<event>
 6    0  0.8520634E+002  0.9093263E+02  0.7546771E-02  0.1300609E+00
         21   -1    0    0  504  501  0.00000000000E+00  0.00000000000E+00  0.67167699600E+03  0.67167699600E+03  0.00000000000E+00 0. -1.
         21   -1    0    0  506  502 -0.00000000000E+00 -0.00000000000E+00 -0.45783986011E+03  0.45783986011E+03  0.00000000000E+00 0. -1.
         21    1    1    2  503  501  0.42135393999E+02  0.74305654326E+02  0.13997086597E+03  0.16397733079E+03  0.00000000000E+00 0. -1.
         21    1    1    2  504  502  0.50868794453E+02 -0.50660353240E+02  0.38762002300E+03  0.39421236393E+03  0.00000000000E+00 0. -1.
         21    1    1    2  505  503 -0.55982920556E+02 -0.93637766291E+02  0.10124773241E+03  0.14883958475E+03  0.00000000000E+00 0. -1.
         21    1    1    2  506  505 -0.37021267896E+02  0.69992465205E+02 -0.41500148549E+03  0.42248757665E+03  0.00000000000E+00 0. -1.
<scales pt_clust_3="14000.00000" pt_clust_4="71.79210" pt_clust_5="90.93263" pt_clust_6="78.26670"></scales>
<clustering>
<clus scale="   71.792">  1  4  2 -1</clus>
<clus scale="   78.267">  2  6  1 -1</clus>
<clus scale="   90.933">  2  5  1 -1</clus>
<clus scale="   71.792">  1  3  2 -1</clus>
</clustering>
</event>
<event>
 6    0  0.8520634E+002  0.1436100E+03  0.7546771E-02  0.1208552E+00
         21   -1    0    0  503  501  0.00000000000E+00  0.00000000000E+00  0.41560309163E+03  0.41560309163E+03  0.00000000000E+00 0.  1.
         21   -1    0    0  506  502 -0.00000000000E+00 -0.00000000000E+00 -0.11407428643E+03  0.11407428643E+03  0.00000000000E+00 0.  1.
         21    1    1    2  503  504 -0.40181742816E+02  0.13357641684E+02  0.12076234069E+03  0.12797086378E+03  0.00000000000E+00 0.  1.
         21    1    1    2  504  505 -0.63557690064E+02  0.71906012073E+02  0.15503585493E+03  0.18233532530E+03  0.00000000000E+00 0.  1.
         21    1    1    2  505  502  0.13587392139E+03 -0.51507178397E+02  0.64276556551E+02  0.15889048953E+03  0.00000000000E+00 0.  1.
         21    1    1    2  506  501 -0.32134488512E+02 -0.33756475360E+02 -0.38545946965E+02  0.60480699467E+02  0.00000000000E+00 0.  1.
<scales pt_clust_3="31.11006" pt_clust_4="31.11006" pt_clust_5="135.75832" pt_clust_6="46.60606"></scales>
<clustering>
<clus scale="   31.110">  3  4 -1 -1</clus>
<clus scale="   46.606">  2  6  1 -1</clus>
<clus scale="  135.758">  2  5  1 -1</clus>
<clus scale="  143.610">  1  3  2 -1</clus>
</clustering>
</event>
<event>
 6    0  0.8520634E+002  0.1051252E+03  0.7546771E-02  0.1269873E+00
         21   -1    0    0  505  501  0.00000000000E+00  0.00000000000E+00  0.67461959384E+03  0.67461959384E+03  0.00000000000E+00 0. -1.
         21   -1    0    0  504  502 -0.00000000000E+00 -0.00000000000E+00 -0.19730708768E+04  0.19730708768E+04  0.00000000000E+00 0.  1.
         21    1    1    2  503  501 -0.42927579328E+02 -0.84564597554E+02  0.49636863753E+02  0.10704095697E+03  0.00000000000E+00 0. -1.
         21    1    1    2  504  503 -0.16954581071E+03  0.19930324820E+02 -0.32248058947E+03  0.36487906266E+03  0.00000000000E+00 0. -1.
         21    1    1    2  505  506  0.11701931816E+03  0.95901001539E+02  0.56351731614E+03  0.58347432549E+03  0.00000000000E+00 0. -1.
         21    1    1    2  506  502  0.95454071875E+02 -0.31266728806E+02 -0.15891248734E+04  0.15922961256E+04  0.00000000000E+00 0.  1.
<scales pt_clust_3="94.83643" pt_clust_4="14000.00000" pt_clust_5="77.12047" pt_clust_6="105.12521"></scales>
<clustering>
<clus scale="   94.836">  1  3  2 -1</clus>
<clus scale="   77.120">  1  5  2 -1</clus>
<clus scale="  105.125">  2  6  1 -1</clus>
<clus scale="   94.836">  1  3  2 -1</clus>
</clustering>
</event>
<event>
 6    0  0.8520634E+002  0.8853184E+02  0.7546771E-02  0.1306447E+00
         21   -1    0    0  504  501  0.00000000000E+00  0.00000000000E+00  0.23369209080E+03  0.23369209080E+03  0.00000000000E+00 0.  1.
         21   -1    0    0  506  502 -0.00000000000E+00 -0.00000000000E+00 -0.12971926334E+03  0.12971926334E+03  0.00000000000E+00 0.  1.
         21    1    1    2  503  501 -0.74424433972E+02  0.23610159102E+02  0.84346321953E+02  0.11493797463E+03  0.00000000000E+00 0.  1.
         21    1    1    2  504  502 -0.54386278563E+02  0.38519676345E+01 -0.48504555974E+02  0.72975317065E+02  0.00000000000E+00 0.  1.
         21    1    1    2  505  503  0.10970007250E+03 -0.65933986702E+00  0.84747077945E+02  0.13862398009E+03  0.00000000000E+00 0.  1.
         21    1    1    2  506  505  0.19110640038E+02 -0.26802786869E+02 -0.16616016467E+02  0.36874082360E+02  0.00000000000E+00 0.  1.
<scales pt_clust_3="88.53184" pt_clust_4="44.74132" pt_clust_5="14000.00000" pt_clust_6="32.91817"></scales>
<clustering>
<clus scale="   32.918">  2  6  1 -1</clus>
<clus scale="   44.741">  2  4  1 -1</clus>
<clus scale="   88.532">  1  3  2 -1</clus>
<clus scale="   88.532">  1  3  2 -1</clus>
</clustering>
</event>
<event>
 6    0  0.8520634E+002  0.2378769E+03  0.7546771E-02  0.1121215E+00
         21   -1    0    0  503  501  0.00000000000E+00  0.00000000000E+00  0.15407491781E+03  0.15407491781E+03  0.00000000000E+00 0.  1.
         21   -1    0    0  504  502 -0.00000000000E+00 -0.00000000000E+00 -0.10815763838E+04  0.10815763838E+04  0.00000000000E+00 0. -1.
         21    1    1    2  503  502 -0.18981257110E+03  0.17596764786E+03 -0.11000984845E+03  0.28123938557E+03  0.00000000000E+00 0.  1.
         21    1    1    2  504  506 -0.88231766112E+02 -0.12911377740E+03 -0.33873803718E+03  0.37309337960E+03  0.00000000000E+00 0.  1.
         21    1    1    2  505  501  0.39017201247E+02  0.81570483152E+01  0.37650817602E+01  0.40038172674E+02  0.00000000000E+00 0.  1.
         21    1    1    2  506  505  0.23902713597E+03 -0.55010918773E+02 -0.48251866214E+03  0.54128036379E+03  0.00000000000E+00 0. -1.
<scales pt_clust_3="237.87689" pt_clust_4="152.68754" pt_clust_5="39.86075" pt_clust_6="14000.00000"></scales>
<clustering>
<clus scale="   39.861">  1  5  2 -1</clus>
<clus scale="  152.688">  2  4  1 -1</clus>
<clus scale="  237.877">  1  3  2 -1</clus>
<clus scale="   39.861">  1  3  2 -1</clus>
</clustering>
</event>
<event>
 6    0  0.8520634E+002  0.8405647E+02  0.7546771E-02  0.1317919E+00
         21   -1    0    0  504  501  0.00000000000E+00  0.00000000000E+00  0.59443894948E+02  0.59443894948E+02  0.00000000000E+00 0. -1.
         21   -1    0    0  503  502 -0.00000000000E+00 -0.00000000000E+00 -0.74143944824E+03  0.74143944824E+03  0.00000000000E+00 0. -1.
         21    1    1    2  503  505 -0.67983826037E+02  0.58619655742E+02 -0.34920516488E+03  0.36055833345E+03  0.00000000000E+00 0. -1.
         21    1    1    2  504  506 -0.57451866368E+02 -0.74113235258E+02 -0.40200638635E+02  0.10202734896E+03  0.00000000000E+00 0. -1.
         21    1    1    2  505  501  0.46041132033E+02  0.36709770302E+02 -0.36346410515E+02  0.69198660622E+02  0.00000000000E+00 0. -1.
         21    1    1    2  506  502  0.79394560372E+02 -0.21216190786E+02 -0.25624333926E+03  0.26909900015E+03  0.00000000000E+00 0. -1.
<scales pt_clust_3="84.05647" pt_clust_4="53.59223" pt_clust_5="58.88457" pt_clust_6="14000.00000"></scales>
<clustering>
<clus scale="   58.885">  1  5  2 -1</clus>
<clus scale="   53.592">  1  4  2 -1</clus>
<clus scale="   84.056">  2  3  1 -1</clus>
<clus scale="   58.885">  1  3  2 -1</clus>
</clustering>
</event>
<event>
 6    0  0.8520634E+002  0.1170485E+03  0.7546771E-02  0.1248047E+00
         21   -1    0    0  504  501  0.00000000000E+00  0.00000000000E+00  0.32436739749E+04  0.32436739749E+04  0.00000000000E+00 0. -1.
         21   -1    0    0  505  502 -0.00000000000E+00 -0.00000000000E+00 -0.78620337888E+03  0.78620337888E+03  0.00000000000E+00 0. -1.
         21    1    1    2  503  506  0.83780917963E+02  0.40800347667E+02  0.85364503646E+03  0.85871634365E+03  0.00000000000E+00 0. -1.
         21    1    1    2  504  503 -0.14267120419E+03 -0.76677539855E+01  0.22273726120E+04  0.22319504071E+04  0.00000000000E+00 0. -1.
         21    1    1    2  505  501 -0.89866120363E+01 -0.29452047296E+02  0.15483436595E+03  0.15786659927E+03  0.00000000000E+00 0. -1.
         21    1    1    2  506  502  0.67876898263E+02 -0.36805463859E+01 -0.77838141840E+03  0.78134400378E+03  0.00000000000E+00 0. -1.
<scales pt_clust_3="14000.00000" pt_clust_4="117.04855" pt_clust_5="30.79257" pt_clust_6="67.97307"></scales>
<clustering>
<clus scale="   30.793">  1  5  2 -1</clus>
<clus scale="   67.973">  2  6  1 -1</clus>
<clus scale="  117.049">  1  4  2 -1</clus>
<clus scale="   30.793">  1  3  2 -1</clus>
</clustering>
</event>
<event>
 6    0  0.8520634E+002  0.7367429E+02  0.7546771E-02  0.1348026E+00
         21   -1    0    0  504  501  0.00000000000E+00  0.00000000000E+00  0.34012025212E+03  0.34012025212E+03  0.00000000000E+00 0.  1.
         21   -1    0    0  503  502 -0.00000000000E+00 -0.00000000000E+00 -0.18375170558E+03  0.18375170558E+03  0.00000000000E+00 0. -1.
         21    1    1    2  503  501  0.22871128681E+02  0.55053643966E+02  0.14110333165E+03  0.15318009807E+03  0.00000000000E+00 0.  1.
         21    1    1    2  504  506  0.17087366875E+02 -0.34035949103E+02  0.56622551397E+02  0.68238825201E+02  0.00000000000E+00 0.  1.
         21    1    1    2  505  502  0.66704166680E+02 -0.26256625128E+02 -0.13986557942E+03  0.15716627031E+03  0.00000000000E+00 0. -1.
         21    1    1    2  506  505 -0.10666266224E+03  0.52389302645E+01  0.98508242920E+02  0.14528676412E+03  0.00000000000E+00 0.  1.
<scales pt_clust_3="48.88368" pt_clust_4="38.08443" pt_clust_5="14000.00000" pt_clust_6="73.67429"></scales>
<clustering>
<clus scale="   38.084">  1  4  2 -1</clus>
<clus scale="   48.884">  1  3  2 -1</clus>
<clus scale="   73.674">  1  6  2 -1</clus>
<clus scale="   38.084">  1  3  2 -1</clus>
</clustering>
</event>
<event>
 6    0  0.8520634E+002  0.1445466E+03  0.7546771E-02  0.1207339E+00
         21   -1    0    0  506  501  0.00000000000E+00  0.00000000000E+00  0.28189528119E+03  0.28189528119E+03  0.00000000000E+00 0. -1.
         21   -1    0    0  503  502 -0.00000000000E+00 -0.00000000000E+00 -0.25921551684E+04  0.25921551684E+04  0.00000000000E+00 0.  1.
         21    1    1    2  503  504  0.35651993527E+02  0.30915081655E+02 -0.83342963977E+03  0.83476450055E+03  0.00000000000E+00 0.  1.
         21    1    1    2  504  501  0.52784493191E+02 -0.23712581464E+02 -0.12401119373E+03  0.13684759922E+03  0.00000000000E+00 0. -1.
         21    1    1    2  505  502  0.28367328844E+02 -0.93689133793E+02 -0.16068183794E+04  0.16097973983E+04  0.00000000000E+00 0.  1.
         21    1    1    2  506  505 -0.11680381556E+03  0.86486633602E+02  0.25399932565E+03  0.29264095159E+03  0.00000000000E+00 0. -1.
<scales pt_clust_3="47.18906" pt_clust_4="59.42393" pt_clust_5="144.54663" pt_clust_6="14000.00000"></scales>
<clustering>
<clus scale="   47.189">  2  3  1 -1</clus>
<clus scale="   59.424">  2  4  1 -1</clus>
<clus scale="  144.547">  2  5  1 -1</clus>
<clus scale="  144.547">  1  3  2 -1</clus>
</clustering>
</event>
<event>
 6    0  0.8520634E+002  0.8622210E+02  0.7546771E-02  0.1312267E+00
         21   -1    0    0  503  501  0.00000000000E+00  0.00000000000E+00  0.13041270531E+04  0.13041270531E+04  0.00000000000E+00 0.  1.
         21   -1    0    0  505  502 -0.00000000000E+00 -0.00000000000E+00 -0.60681804975E+02  0.60681804975E+02  0.00000000000E+00 0.  1.
         21    1    1    2  503  502 -0.70443615466E+02 -0.10212688745E+02  0.64822468449E+03  0.65212103444E+03  0.00000000000E+00 0.  1.
         21    1    1    2  504  506  0.12424718629E+03 -0.34606306570E+02  0.13346064975E+03  0.18559823487E+03  0.00000000000E+00 0.  1.
         21    1    1    2  505  504 -0.73670514622E+02  0.12023842075E+02  0.11887284311E+02  0.75585878517E+02  0.00000000000E+00 0.  1.
         21    1    1    2  506  501  0.19866943802E+02  0.32795153241E+02  0.44987262959E+03  0.45150371027E+03  0.00000000000E+00 0.  1.
<scales pt_clust_3="57.24703" pt_clust_4="14000.00000" pt_clust_5="86.22210" pt_clust_6="38.34342"></scales>
<clustering>
<clus scale="   38.343">  1  6  2 -1</clus>
<clus scale="   57.247">  1  3  2 -1</clus>
<clus scale="   86.222">  2  5  1 -1</clus>
<clus scale="   38.343">  1  3  2 -1</clus>
</clustering>
</event>
<event>
 6    0  0.8520634E+002  0.1517456E+03  0.7546771E-02  0.1198344E+00
         21   -1    0    0  502  501  0.00000000000E+00  0.00000000000E+00  0.25648870004E+03  0.25648870004E+03  0.00000000000E+00 0.  1.
         21   -1    0    0  503  502 -0.00000000000E+00 -0.00000000000E+00 -0.10529877172E+04  0.10529877172E+04  0.00000000000E+00 0. -1.
         21    1    1    2  503  505 -0.31281376778E+02 -0.10643689369E+03 -0.87143558263E+03  0.87846873111E+03  0.00000000000E+00 0. -1.
         21    1    1    2  504  506  0.27347106677E+01  0.61850103688E+02  0.45364260090E+02  0.76751743056E+02  0.00000000000E+00 0.  1.
         21    1    1    2  505  504  0.17367056715E+02 -0.28695189119E+02 -0.15330187256E+03  0.15692830423E+03  0.00000000000E+00 0. -1.
         21    1    1    2  506  501  0.11179609395E+02  0.73281979116E+02  0.18287417789E+03  0.19732763889E+03  0.00000000000E+00 0.  1.
<scales pt_clust_3="148.18964" pt_clust_4="61.79588" pt_clust_5="32.55730" pt_clust_6="61.79588"></scales>
<clustering>
<clus scale="   32.557">  3  5 -1 -1</clus>
<clus scale="   61.796">  4  6 -1 -1</clus>
<clus scale="  148.190">  2  3  1 -1</clus>
<clus scale="  151.746">  1  3  2 -1</clus>
</clustering>
</event>
<event>
 6    0  0.8520634E+002  0.9108690E+02  0.7546771E-02  0.1300241E+00
         21   -1    0    0  505  501  0.00000000000E+00  0.00000000000E+00  0.14648683085E+03  0.14648683085E+03  0.00000000000E+00 0. -1.
         21   -1    0    0  506  502 -0.00000000000E+00 -0.00000000000E+00 -0.17605924819E+04  0.17605924819E+04  0.00000000000E+00 0. -1.
         21    1    1    2  503  502 -0.12416074404E+03 -0.30844821549E+02 -0.10089414700E+04  0.10170202472E+04  0.00000000000E+00 0. -1.
         21    1    1    2  504  501  0.82503114100E+02  0.99310735491E+02  0.20563523458E+02  0.13073731111E+03  0.00000000000E+00 0. -1.
         21    1    1    2  505  503 -0.10759926887E+02 -0.49324608513E+02  0.55952315310E+02  0.75361492954E+02  0.00000000000E+00 0. -1.
         21    1    1    2  506  504  0.52417556822E+02 -0.19141305429E+02 -0.68168001986E+03  0.68396026150E+03  0.00000000000E+00 0.  1.
<scales pt_clust_3="91.08690" pt_clust_4="14000.00000" pt_clust_5="50.48458" pt_clust_6="55.90367"></scales>
<clustering>
<clus scale="   50.485">  1  5  2 -1</clus>
<clus scale="   55.904">  2  6  1 -1</clus>
<clus scale="   91.087">  2  3  1 -1</clus>
<clus scale="   50.485">  1  3  2 -1</clus>
</clustering>
</event>
<event>
 6    0  0.8520634E+002  0.6412754E+02  0.7546771E-02  0.1381284E+00
         21   -1    0    0  504  501  0.00000000000E+00  0.00000000000E+00  0.57124885684E+03  0.57124885684E+03  0.00000000000E+00 0. -1.
         21   -1    0    0  505  502 -0.00000000000E+00 -0.00000000000E+00 -0.11175207135E+03  0.11175207135E+03  0.00000000000E+00 0. -1.
         21    1    1    2  503  501  0.56832976044E+02 -0.58553822841E+02  0.27751505628E+03  0.28926310479E+03  0.00000000000E+00 0. -1.
         21    1    1    2  504  506 -0.62770721274E+02 -0.45643976650E+01  0.22976490320E+03  0.23822868828E+03  0.00000000000E+00 0. -1.
         21    1    1    2  505  503  0.63022218400E+02  0.63619035275E+02 -0.39306170876E+02  0.97796506739E+02  0.00000000000E+00 0. -1.
         21    1    1    2  506  502 -0.57084473169E+02 -0.50081476917E+00 -0.84770031051E+01  0.57712628376E+02  0.00000000000E+00 0. -1.
<scales pt_clust_3="14000.00000" pt_clust_4="64.12754" pt_clust_5="64.56146" pt_clust_6="57.08667"></scales>
<clustering>
<clus scale="   57.087">  2  6  1 -1</clus>
<clus scale="   64.561">  2  5  1 -1</clus>
<clus scale="   64.128">  1  4  2 -1</clus>
<clus scale="   64.128">  1  3  2 -1</clus>
</clustering>
</event>
<event>
 6    0  0.8520634E+002  0.9503395E+02  0.7546771E-02  0.1291100E+00
         21   -1    0    0  504  501  0.00000000000E+00  0.00000000000E+00  0.91880631935E+02  0.91880631935E+02  0.00000000000E+00 0. -1.
         21   -1    0    0  506  502 -0.00000000000E+00 -0.00000000000E+00 -0.24814174560E+03  0.24814174560E+03  0.00000000000E+00 0. -1.
         21    1    1    2  503  501 -0.56323937785E+02  0.67850839994E+02 -0.21443331932E+02  0.90752074025E+02  0.00000000000E+00 0. -1.
         21    1    1    2  504  502 -0.37055239585E+02 -0.27070631522E+02  0.65173300516E+01  0.46350679204E+02  0.00000000000E+00 0. -1.
         21    1    1    2  505  503  0.69985402080E+02 -0.75639200955E+02 -0.92019900611E+02  0.13815537389E+03  0.00000000000E+00 0. -1.
         21    1    1    2  506  505  0.23393775290E+02  0.34858992482E+02 -0.49315211174E+02  0.64764250419E+02  0.00000000000E+00 0. -1.
<scales pt_clust_3="95.03395" pt_clust_4="41.80512" pt_clust_5="14000.00000" pt_clust_6="41.98116"></scales>
<clustering>
<clus scale="   41.981">  2  6  1 -1</clus>
<clus scale="   41.805">  1  4  2 -1</clus>
<clus scale="   95.034">  1  3  2 -1</clus>
<clus scale="   41.805">  1  3  2 -1</clus>
</clustering>
</event>
<event>
 6    0  0.8520634E+002  0.1439463E+03  0.7546771E-02  0.1208115E+00
         21   -1    0    0  506  501  0.00000000000E+00  0.00000000000E+00  0.13229409589E+04  0.13229409589E+04  0.00000000000E+00 0.  1.
         21   -1    0    0  503  502 -0.00000000000E+00 -0.00000000000E+00 -0.16607638404E+03  0.16607638404E+03  0.00000000000E+00 0.  1.
         21    1    1    2  503  501 -0.36185616661E+02  0.56345872991E+02 -0.17422832957E+02  0.69194012490E+02  0.00000000000E+00 0.  1.
         21    1    1    2  504  502 -0.60837450594E+02 -0.98048691669E+01 -0.76980009658E+02  0.98606555264E+02  0.00000000000E+00 0.  1.
         21    1    1    2  505  504 -0.38577753832E+02 -0.26529700249E+02 -0.13748588354E+02  0.48796431916E+02  0.00000000000E+00 0. -1.
         21    1    1    2  506  505  0.13560082109E+03 -0.20011303575E+02  0.12650160058E+04  0.12724203433E+04  0.00000000000E+00 0.  1.
<scales pt_clust_3="66.96459" pt_clust_4="41.73372" pt_clust_5="41.73372" pt_clust_6="135.75040"></scales>
<clustering>
<clus scale="   41.734">  4  5 -1 -1</clus>
<clus scale="   66.965">  2  3  1 -1</clus>
<clus scale="  135.750">  1  6  2 -1</clus>
<clus scale="  135.750">  1  3  2 -1</clus>
</clustering>
</event>
<event>
 6    0  0.8520634E+002  0.8423425E+02  0.7546771E-02  0.1317447E+00
         21   -1    0    0  505  501  0.00000000000E+00  0.00000000000E+00  0.19568759645E+03  0.19568759645E+03  0.00000000000E+00 0.  1.
         21   -1    0    0  503  502 -0.00000000000E+00 -0.00000000000E+00 -0.35034490509E+03  0.35034490509E+03  0.00000000000E+00 0. -1.
         21    1    1    2  503  504  0.61122502899E+02 -0.12512669728E+01 -0.63211470282E+02  0.87938705954E+02  0.00000000000E+00 0. -1.
         21    1    1    2  504  501  0.80701394940E+02  0.13938189209E+02  0.13541272259E+03  0.15825167836E+03  0.00000000000E+00 0.  1.
         21    1    1    2  505  506 -0.10696255370E+03  0.21943313500E+02 -0.57309714692E+02  0.12331626130E+03  0.00000000000E+00 0. -1.
         21    1    1    2  506  502 -0.34861344136E+02 -0.34630235736E+02 -0.16954884626E+03  0.17652585593E+03  0.00000000000E+00 0. -1.
<scales pt_clust_3="48.95586" pt_clust_4="84.23425" pt_clust_5="14000.00000" pt_clust_6="49.13824"></scales>
<clustering>
<clus scale="   49.138">  2  6  1 -1</clus>
<clus scale="   48.956">  2  3  1 -1</clus>
<clus scale="   84.234">  1  4  2 -1</clus>
<clus scale="   84.234">  1  3  2 -1</clus>
</clustering>
</event>
<event>
 6    0  0.8520634E+002  0.1496957E+03  0.7546771E-02  0.1200847E+00
         21   -1    0    0  503  501  0.00000000000E+00  0.00000000000E+00  0.58775279945E+02  0.58775279945E+02  0.00000000000E+00 0. -1.
         21   -1    0    0  506  502 -0.00000000000E+00 -0.00000000000E+00 -0.26014700289E+04  0.26014700289E+04  0.00000000000E+00 0. -1.
         21    1    1    2  503  505 -0.22438429267E+02  0.21634876687E+02 -0.26413945597E+02  0.40856425678E+02  0.00000000000E+00 0.  1.
         21    1    1    2  504  501 -0.11286307698E+03 -0.83825327180E+02 -0.57546992376E+02  0.15190923591E+03  0.00000000000E+00 0. -1.
         21    1    1    2  505  502  0.16489840123E+03  0.53584354961E+02 -0.18994444402E+04  0.19073415916E+04  0.00000000000E+00 0. -1.
         21    1    1    2  506  504 -0.29596894975E+02  0.86060955320E+01 -0.55928937079E+03  0.56013805562E+03  0.00000000000E+00 0.  1.
<scales pt_clust_3="31.61999" pt_clust_4="149.69568" pt_clust_5="14000.00000" pt_clust_6="30.82274"></scales>
<clustering>
<clus scale="   30.823">  2  6  1 -1</clus>
<clus scale="   31.620">  1  3  2 -1</clus>
<clus scale="  149.696">  1  4  2 -1</clus>
<clus scale="   31.620">  1  3  2 -1</clus>
</clustering>
</event>
<event>
 6    0  0.8520634E+002  0.2045974E+03  0.7546771E-02  0.1145917E+00
         21   -1    0    0  504  501  0.00000000000E+00  0.00000000000E+00  0.11889026535E+04  0.11889026535E+04  0.00000000000E+00 0. -1.
         21   -1    0    0  506  502 -0.00000000000E+00 -0.00000000000E+00 -0.18287192401E+03  0.18287192401E+03  0.00000000000E+00 0. -1.
         21    1    1    2  503  502 -0.12232505372E+03  0.16421533336E+03  0.62390952207E+03  0.65665301812E+03  0.00000000000E+00 0. -1.
         21    1    1    2  504  503 -0.51093486848E+02  0.42357625104E+01  0.27711347794E+03  0.28181619140E+03  0.00000000000E+00 0.  1.
         21    1    1    2  505  501  0.27989557415E+02 -0.24267006664E+02  0.20294791532E+03  0.20630113734E+03  0.00000000000E+00 0.  1.
         21    1    1    2  506  505  0.14542898315E+03 -0.14418408921E+03 -0.97940185843E+02  0.22700423063E+03  0.00000000000E+00 0. -1.
<scales pt_clust_3="204.59737" pt_clust_4="43.22802" pt_clust_5="37.04461" pt_clust_6="14000.00000"></scales>
<clustering>
<clus scale="   37.045">  1  5  2 -1</clus>
<clus scale="   43.228">  1  4  2 -1</clus>
<clus scale="  204.597">  1  3  2 -1</clus>
<clus scale="   37.045">  1  3  2 -1</clus>
</clustering>
</event>
<event>
 6    0  0.8520634E+002  0.1122787E+03  0.7546771E-02  0.1256407E+00
         21   -1    0    0  505  501  0.00000000000E+00  0.00000000000E+00  0.97276431456E+03  0.97276431456E+03  0.00000000000E+00 0.  1.
         21   -1    0    0  506  502 -0.00000000000E+00 -0.00000000000E+00 -0.99743460926E+02  0.99743460926E+02  0.00000000000E+00 0.  1.
         21    1    1    2  503  504 -0.81914379434E+02 -0.65240417152E+02  0.65787095640E+02  0.12366980044E+03  0.00000000000E+00 0.  1.
         21    1    1    2  504  502 -0.23309505647E+02  0.49833361822E+02 -0.35815351890E+02  0.65646297953E+02  0.00000000000E+00 0.  1.
         21    1    1    2  505  503 -0.39586981917E+02  0.15007851478E+02  0.59092284872E+03  0.59243748859E+03  0.00000000000E+00 0.  1.
         21    1    1    2  506  501  0.14481086700E+03  0.39920385270E+00  0.25212626116E+03  0.29075418850E+03  0.00000000000E+00 0.  1.
<scales pt_clust_3="112.27870" pt_clust_4="56.21583" pt_clust_5="42.33633" pt_clust_6="14000.00000"></scales>
<clustering>
<clus scale="   42.336">  1  5  2 -1</clus>
<clus scale="   56.216">  2  4  1 -1</clus>
<clus scale="  112.279">  2  3  1 -1</clus>
<clus scale="   42.336">  1  3  2 -1</clus>
</clustering>
</event>
<event>
 6    0  0.8520634E+002  0.2106659E+03  0.7546771E-02  0.1141040E+00
         21   -1    0    0  504  501  0.00000000000E+00  0.00000000000E+00  0.20034359571E+03  0.20034359571E+03  0.00000000000E+00 0.  1.
         21   -1    0    0  503  502 -0.00000000000E+00 -0.00000000000E+00 -0.66816102330E+03  0.66816102330E+03  0.00000000000E+00 0. -1.
         21    1    1    2  503  506 -0.17880119784E+03  0.14862021662E+03 -0.46440641657E+03  0.51935648344E+03  0.00000000000E+00 0. -1.
         21    1    1    2  504  505  0.12401906279E+03 -0.18664052046E+03  0.31849983136E+02  0.22634008315E+03  0.00000000000E+00 0.  1.
         21    1    1    2  505  502  0.32809609694E+02 -0.81531648267E+01 -0.57772418625E+02  0.66937261214E+02  0.00000000000E+00 0.  1.
         21    1    1    2  506  501  0.21972525358E+02  0.46173468663E+02  0.22511424471E+02  0.55870791212E+02  0.00000000000E+00 0.  1.
<scales pt_clust_3="14000.00000" pt_clust_4="210.66591" pt_clust_5="33.80746" pt_clust_6="51.32850"></scales>
<clustering>
<clus scale="   33.807">  2  5  1 -1</clus>
<clus scale="   51.329">  1  6  2 -1</clus>
<clus scale="  210.666">  1  4  2 -1</clus>
<clus scale="   51.329">  1  3  2 -1</clus>
</clustering>
</event>
<event>
 6    0  0.8520634E+002  0.2017826E+03  0.7546771E-02  0.1148244E+00
         21   -1    0    0  505  501  0.00000000000E+00  0.00000000000E+00  0.66894665747E+02  0.66894665747E+02  0.00000000000E+00 0.  1.
         21   -1    0    0  506  502 -0.00000000000E+00 -0.00000000000E+00 -0.16303706454E+04  0.16303706454E+04  0.00000000000E+00 0.  1.
         21    1    1    2  503  502 -0.14157732182E+03 -0.22478671049E+02 -0.10467514536E+03  0.17750018242E+03  0.00000000000E+00 0.  1.
         21    1    1    2  504  501  0.39938829640E+01  0.48869349054E+02 -0.30046044071E+02  0.57505905283E+02  0.00000000000E+00 0.  1.
         21    1    1    2  505  503 -0.43960523440E+02  0.30715903842E+02 -0.60561225277E+02  0.80892869754E+02  0.00000000000E+00 0.  1.
         21    1    1    2  506  504  0.18154396229E+03 -0.57106581847E+02 -0.13681935649E+04  0.13813663536E+04  0.00000000000E+00 0.  1.
<scales pt_clust_3="43.12732" pt_clust_4="49.03228" pt_clust_5="43.12732" pt_clust_6="189.06202"></scales>
<clustering>
<clus scale="   43.127">  3  5 -1 -1</clus>
<clus scale="   49.032">  1  4  2 -1</clus>
<clus scale="  189.062">  2  6  1 -1</clus>
<clus scale="   49.032">  1  3  2 -1</clus>
</clustering>
</event>
<event>
 6    0  0.8520634E+002  0.7723638E+02  0.7546771E-02  0.1337082E+00
         21   -1    0    0  502  501  0.00000000000E+00  0.00000000000E+00  0.14549674349E+02  0.14549674349E+02  0.00000000000E+00 0.  1.
         21   -1    0    0  506  502 -0.00000000000E+00 -0.00000000000E+00 -0.21710283677E+04  0.21710283677E+04  0.00000000000E+00 0.  1.
         21    1    1    2  503  501  0.59879294541E-01  0.39378071584E+02 -0.38850921733E+02  0.55317539955E+02  0.00000000000E+00 0.  1.
         21    1    1    2  504  503 -0.94450222055E+01 -0.63020421986E+02 -0.43217698697E+03  0.43684977978E+03  0.00000000000E+00 0.  1.
         21    1    1    2  505  504 -0.61112094105E+02  0.53424862068E+02 -0.63339460752E+03  0.63857468848E+03  0.00000000000E+00 0.  1.
         21    1    1    2  506  505  0.70497237016E+02 -0.29782511665E+02 -0.10520561771E+04  0.10548360338E+04  0.00000000000E+00 0.  1.
<scales pt_clust_3="39.37812" pt_clust_4="49.36236" pt_clust_5="14000.00000" pt_clust_6="77.23638"></scales>
<clustering>
<clus scale="   39.378">  1  3  2 -1</clus>
<clus scale="   49.362">  1  4  2 -1</clus>
<clus scale="   77.236">  2  6  1 -1</clus>
<clus scale="   39.378">  1  3  2 -1</clus>
</clustering>
</event>
<event>
 6    0  0.8520634E+002  0.7942923E+02  0.7546771E-02  0.1330679E+00
         21   -1    0    0  503  501  0.00000000000E+00  0.00000000000E+00  0.10045643986E+03  0.10045643986E+03  0.00000000000E+00 0. -1.
         21   -1    0    0  505  502 -0.00000000000E+00 -0.00000000000E+00 -0.13903804324E+04  0.13903804324E+04  0.00000000000E+00 0.  1.
         21    1    1    2  503  504  0.28355561774E+01  0.45072387684E+02 -0.29326465772E+02  0.53847953583E+02  0.00000000000E+00 0. -1.
         21    1    1    2  504  502  0.36197020468E+01 -0.96249661841E+02 -0.90858940201E+03  0.91368036046E+03  0.00000000000E+00 0.  1.
         21    1    1    2  505  506 -0.64048133338E+02  0.39652974512E+02 -0.42386198806E+03  0.43050378243E+03  0.00000000000E+00 0.  1.
         21    1    1    2  506  501  0.57592875114E+02  0.11524299644E+02  0.71853863273E+02  0.92804775812E+02  0.00000000000E+00 0. -1.
<scales pt_clust_3="45.16149" pt_clust_4="14000.00000" pt_clust_5="76.14677" pt_clust_6="79.42923"></scales>
<clustering>
<clus scale="   45.161">  1  3  2 -1</clus>
<clus scale="   76.147">  2  5  1 -1</clus>
<clus scale="   79.429">  1  6  2 -1</clus>
<clus scale="   45.161">  1  3  2 -1</clus>
</clustering>
</event>
<event>
 6    0  0.8520634E+002  0.1337672E+03  0.7546771E-02  0.1221971E+00
         21   -1    0    0  505  501  0.00000000000E+00  0.00000000000E+00  0.57161431784E+03  0.57161431784E+03  0.00000000000E+00 0.  1.
         21   -1    0    0  506  502 -0.00000000000E+00 -0.00000000000E+00 -0.82720709414E+02  0.82720709414E+02  0.00000000000E+00 0.  1.
         21    1    1    2  503  501 -0.42073461773E+02 -0.14786713196E+01  0.11452791677E+03  0.12202051620E+03  0.00000000000E+00 0.  1.
         21    1    1    2  504  502  0.12159858474E+03 -0.88270178656E+02  0.41285669987E+02  0.15582793972E+03  0.00000000000E+00 0.  1.
         21    1    1    2  505  504 -0.24457597515E+02  0.10505979933E+03  0.27311562937E+03  0.29364584540E+03  0.00000000000E+00 0.  1.
         21    1    1    2  506  503 -0.55067525455E+02 -0.15310949353E+02  0.59964392298E+02  0.82840725935E+02  0.00000000000E+00 0.  1.
<scales pt_clust_3="36.43503" pt_clust_4="14000.00000" pt_clust_5="133.76718" pt_clust_6="107.33388"></scales>
<clustering>
<clus scale="   36.435">  3  6 -1 -1</clus>
<clus scale="  107.334">  1  3  2 -1</clus>
<clus scale="  133.767">  1  5  2 -1</clus>
<clus scale="  107.334">  1  3  2 -1</clus>
</clustering>
</event>
<event>
 6    0  0.8520634E+002  0.1391634E+03  0.7546771E-02  0.1214459E+00
         21   -1    0    0  505  501  0.00000000000E+00  0.00000000000E+00  0.24379195822E+04  0.24379195822E+04  0.00000000000E+00 0. -1.
         21   -1    0    0  506  502 -0.00000000000E+00 -0.00000000000E+00 -0.91364173660E+02  0.91364173660E+02  0.00000000000E+00 0.  1.
         21    1    1    2  503  501  0.23337115501E+03 -0.12732287146E+02  0.39892967763E+03  0.46235170035E+03  0.00000000000E+00 0.  1.
         21    1    1    2  504  502 -0.44032143419E+02 -0.64411338994E+02  0.41393864753E+02  0.88323848898E+02  0.00000000000E+00 0.  1.
         21    1    1    2  505  504 -0.12820528538E+03  0.33781421219E+02  0.18986517494E+04  0.19032751364E+04  0.00000000000E+00 0. -1.
         21    1    1    2  506  503 -0.61133726211E+02  0.43362204921E+02  0.75801168339E+01  0.75333070210E+02  0.00000000000E+00 0.  1.
<scales pt_clust_3="14000.00000" pt_clust_4="83.31261" pt_clust_5="139.16340" pt_clust_6="74.95074"></scales>
<clustering>
<clus scale="   74.951">  2  6  1 -1</clus>
<clus scale="   83.313">  2  4  1 -1</clus>
<clus scale="  139.163">  1  5  2 -1</clus>
<clus scale="  139.163">  1  3  2 -1</clus>
</clustering>
</event>
<event>
 6    0  0.8520634E+002  0.6749701E+02  0.7546771E-02  0.1368818E+00
         21   -1    0    0  504  501  0.00000000000E+00  0.00000000000E+00  0.83409665884E+02  0.83409665884E+02  0.00000000000E+00 0. -1.
         21   -1    0    0  506  502 -0.00000000000E+00 -0.00000000000E+00 -0.21848106897E+03  0.21848106897E+03  0.00000000000E+00 0. -1.
         21    1    1    2  503  501  0.69826830769E+02 -0.54582022466E+02 -0.17974764477E+02  0.90432713272E+02  0.00000000000E+00 0. -1.
         21    1    1    2  504  505 -0.37239431417E+02  0.16948475157E+02 -0.10303378131E+02  0.42192246484E+02  0.00000000000E+00 0. -1.
         21    1    1    2  505  502 -0.25174867161E+00  0.77110143076E+02 -0.81899885942E+02  0.11248834989E+03  0.00000000000E+00 0. -1.
         21    1    1    2  506  503 -0.32335650680E+02 -0.39476595767E+02 -0.24893374540E+02  0.56777425217E+02  0.00000000000E+00 0. -1.
<scales pt_clust_3="67.49701" pt_clust_4="40.91486" pt_clust_5="14000.00000" pt_clust_6="54.31717"></scales>
<clustering>
<clus scale="   40.915">  1  4  2 -1</clus>
<clus scale="   54.317">  2  6  1 -1</clus>
<clus scale="   67.497">  1  3  2 -1</clus>
<clus scale="   40.915">  1  3  2 -1</clus>
</clustering>
</event>
<event>
 6    0  0.8520634E+002  0.1851403E+03  0.7546771E-02  0.1162919E+00
         21   -1    0    0  504  501  0.00000000000E+00  0.00000000000E+00  0.56114242495E+02  0.56114242495E+02  0.00000000000E+00 0.  1.
         21   -1    0    0  505  502 -0.00000000000E+00 -0.00000000000E+00 -0.18810435228E+04  0.18810435228E+04  0.00000000000E+00 0.  1.
         21    1    1    2  503  506  0.20940680602E+03 -0.16277074106E+02 -0.45105152014E+03  0.49755766235E+03  0.00000000000E+00 0.  1.
         21    1    1    2  504  503 -0.19056785896E+02  0.34075850320E+02 -0.12978070329E+02  0.41143103592E+02  0.00000000000E+00 0.  1.
         21    1    1    2  505  501 -0.16009070106E+03 -0.60946016590E+02 -0.38800462921E+03  0.42413564080E+03  0.00000000000E+00 0.  1.
         21    1    1    2  506  502 -0.30259319068E+02  0.43147240375E+02 -0.97289506065E+03  0.97432135858E+03  0.00000000000E+00 0.  1.
<scales pt_clust_3="185.14031" pt_clust_4="39.04260" pt_clust_5="14000.00000" pt_clust_6="53.35925"></scales>
<clustering>
<clus scale="   39.043">  1  4  2 -1</clus>
<clus scale="   53.359">  2  6  1 -1</clus>
<clus scale="  185.140">  1  3  2 -1</clus>
<clus scale="   39.043">  1  3  2 -1</clus>
</clustering>
</event>
<event>
 6    0  0.8520634E+002  0.1114621E+03  0.7546771E-02  0.1257886E+00
         21   -1    0    0  506  501  0.00000000000E+00  0.00000000000E+00  0.23830909728E+03  0.23830909728E+03  0.00000000000E+00 0. -1.
         21   -1    0    0  505  502 -0.00000000000E+00 -0.00000000000E+00 -0.23392306645E+03  0.23392306645E+03  0.00000000000E+00 0. -1.
         21    1    1    2  503  501  0.32819121649E+02 -0.74026857682E+01  0.10513744277E+03  0.11038920407E+03  0.00000000000E+00 0. -1.
         21    1    1    2  504  503  0.80813365983E+02 -0.16444749381E+02  0.72384568420E+02  0.10973037706E+03  0.00000000000E+00 0. -1.
         21    1    1    2  505  504  0.23753421001E+02 -0.26665490789E+02 -0.23278418778E+02  0.42628138466E+02  0.00000000000E+00 0. -1.
         21    1    1    2  506  502 -0.13738590863E+03  0.50512925939E+02 -0.14985756158E+03  0.20948444415E+03  0.00000000000E+00 0. -1.
<scales pt_clust_3="33.64364" pt_clust_4="14000.00000" pt_clust_5="37.76635" pt_clust_6="111.46209"></scales>
<clustering>
<clus scale="   33.644">  1  3  2 -1</clus>
<clus scale="   37.766">  2  5  1 -1</clus>
<clus scale="  111.462">  2  6  1 -1</clus>
<clus scale="   33.644">  1  3  2 -1</clus>
</clustering>
</event>
<event>
 6    0  0.8520634E+002  0.1018604E+03  0.7546771E-02  0.1276432E+00
         21   -1    0    0  503  501  0.00000000000E+00  0.00000000000E+00  0.51160776557E+03  0.51160776557E+03  0.00000000000E+00 0.  1.
         21   -1    0    0  504  502 -0.00000000000E+00 -0.00000000000E+00 -0.61706448603E+03  0.61706448603E+03  0.00000000000E+00 0. -1.
         21    1    1    2  503  502 -0.85610662729E+02  0.31120276197E+02 -0.56099697900E+03  0.56834432135E+03  0.00000000000E+00 0. -1.
         21    1    1    2  504  506  0.15156447395E+03 -0.81591983020E+02  0.11396802280E+03  0.20644067351E+03  0.00000000000E+00 0. -1.
         21    1    1    2  505  501 -0.23893841183E+02  0.23575122281E+02  0.21868133214E+03  0.22124246216E+03  0.00000000000E+00 0.  1.
         21    1    1    2  506  505 -0.42059970036E+02  0.26896584542E+02  0.12289090361E+03  0.13264479458E+03  0.00000000000E+00 0. -1.
<scales pt_clust_3="91.09148" pt_clust_4="93.31800" pt_clust_5="33.48126" pt_clust_6="33.48126"></scales>
<clustering>
<clus scale="   33.481">  5  6 -1 -1</clus>
<clus scale="   91.091">  2  3  1 -1</clus>
<clus scale="   93.318">  2  4  1 -1</clus>
<clus scale="  101.860">  1  3  2 -1</clus>
</clustering>
</event>
<event>
 6    0  0.8520634E+002  0.1179365E+03  0.7546771E-02  0.1246540E+00
         21   -1    0    0  506  501  0.00000000000E+00  0.00000000000E+00  0.24217765929E+04  0.24217765929E+04  0.00000000000E+00 0. -1.
         21   -1    0    0  505  502 -0.00000000000E+00 -0.00000000000E+00 -0.24323155851E+03  0.24323155851E+03  0.00000000000E+00 0. -1.
         21    1    1    2  503  501  0.85871214678E+02 -0.70655265004E+01  0.21407704868E+04  0.21425036906E+04  0.00000000000E+00 0. -1.
         21    1    1    2  504  502  0.10153328961E+02 -0.50614970346E+02 -0.16955782852E+03  0.17724227071E+03  0.00000000000E+00 0. -1.
         21    1    1    2  505  503 -0.11919056548E+03  0.94750469268E+02  0.20801142564E+02  0.15367735636E+03  0.00000000000E+00 0. -1.
         21    1    1    2  506  504  0.23166021842E+02 -0.37069972421E+02  0.18653123355E+03  0.19158483373E+03  0.00000000000E+00 0. -1.
<scales pt_clust_3="14000.00000" pt_clust_4="51.69370" pt_clust_5="117.93653" pt_clust_6="43.71324"></scales>
<clustering>
<clus scale="   43.713">  1  6  2 -1</clus>
<clus scale="   51.694">  2  4  1 -1</clus>
<clus scale="  117.937">  2  5  1 -1</clus>
<clus scale="   43.713">  1  3  2 -1</clus>
</clustering>
</event>
<event>
 6    0  0.8520634E+002  0.8513765E+02  0.7546771E-02  0.1315073E+00
         21   -1    0    0  506  501  0.00000000000E+00  0.00000000000E+00  0.46308842491E+02  0.46308842491E+02  0.00000000000E+00 0. -1.
         21   -1    0    0  505  502 -0.00000000000E+00 -0.00000000000E+00 -0.22283977161E+04  0.22283977161E+04  0.00000000000E+00 0. -1.
         21    1    1    2  503  501  0.10653480120E+03 -0.31245589054E+02 -0.22567282829E+03  0.25150382926E+03  0.00000000000E+00 0. -1.
         21    1    1    2  504  502 -0.35036370125E+02 -0.46974614791E+02 -0.16410818060E+04  0.16421277829E+04  0.00000000000E+00 0. -1.
         21    1    1    2  505  503 -0.52013461010E+02  0.51558683574E+02 -0.33481702136E+03  0.34273333041E+03  0.00000000000E+00 0. -1.
         21    1    1    2  506  504 -0.19484970070E+02  0.26661520271E+02  0.19482782000E+02  0.38341615984E+02  0.00000000000E+00 0. -1.
<scales pt_clust_3="85.13765" pt_clust_4="58.31717" pt_clust_5="14000.00000" pt_clust_6="33.02273"></scales>
<clustering>
<clus scale="   33.023">  1  6  2 -1</clus>
<clus scale="   58.317">  2  4  1 -1</clus>
<clus scale="   85.138">  1  3  2 -1</clus>
<clus scale="   33.023">  1  3  2 -1</clus>
</clustering>
</event>
<event>
 6    0  0.8520634E+002  0.1106632E+03  0.7546771E-02  0.1259347E+00
         21   -1    0    0  504  501  0.00000000000E+00  0.00000000000E+00  0.22568345002E+03  0.22568345002E+03  0.00000000000E+00 0. -1.
         21   -1    0    0  505  502 -0.00000000000E+00 -0.00000000000E+00 -0.67029074786E+03  0.67029074786E+03  0.00000000000E+00 0. -1.
         21    1    1    2  503  506  0.61497207115E+02  0.80082782723E+02 -0.47261346120E+01  0.10108162504E+03  0.00000000000E+00 0. -1.
         21    1    1    2  504  503 -0.20230296803E+02  0.30987739139E+02  0.15713828055E+03  0.16143712119E+03  0.00000000000E+00 0. -1.
         21    1    1    2  505  501  0.37060145548E+02 -0.12613556023E+03 -0.34993219881E+03  0.37381302506E+03  0.00000000000E+00 0. -1.
         21    1    1    2  506  502 -0.78327055860E+02  0.15065038368E+02 -0.24708724497E+03  0.25964242659E+03  0.00000000000E+00 0. -1.
<scales pt_clust_3="110.66321" pt_clust_4="37.00682" pt_clust_5="14000.00000" pt_clust_6="82.23284"></scales>
<clustering>
<clus scale="   37.007">  1  4  2 -1</clus>
<clus scale="   82.233">  2  6  1 -1</clus>
<clus scale="  110.663">  1  3  2 -1</clus>
<clus scale="   37.007">  1  3  2 -1</clus>
</clustering>
</event>
<event>
 6    0  0.8520634E+002  0.1326515E+03  0.7546771E-02  0.1223574E+00
         21   -1    0    0  506  501  0.00000000000E+00  0.00000000000E+00  0.97532376801E+03  0.97532376801E+03  0.00000000000E+00 0.  1.
         21   -1    0    0  503  502 -0.00000000000E+00 -0.00000000000E+00 -0.11548763874E+03  0.11548763874E+03  0.00000000000E+00 0. -1.
         21    1    1    2  503  505  0.15637806232E+02  0.33099073897E+02  0.37005064691E+02  0.52052516648E+02  0.00000000000E+00 0.  1.
         21    1    1    2  504  501 -0.71886011821E+02  0.11345023169E+03  0.77726058790E+03  0.78877916762E+03  0.00000000000E+00 0.  1.
         21    1    1    2  505  504  0.46502121581E+02 -0.11771657918E+03  0.11698400702E+03  0.17235109000E+03  0.00000000000E+00 0. -1.
         21    1    1    2  506  502  0.97460840075E+01 -0.28832726402E+02 -0.71413530338E+02  0.77628632480E+02  0.00000000000E+00 0. -1.
<scales pt_clust_3="32.81427" pt_clust_4="132.65150" pt_clust_5="14000.00000" pt_clust_6="30.43538"></scales>
<clustering>
<clus scale="   30.435">  2  6  1 -1</clus>
<clus scale="   32.814">  2  3  1 -1</clus>
<clus scale="  132.652">  1  4  2 -1</clus>
<clus scale="  132.652">  1  3  2 -1</clus>
</clustering>
</event>
<event>
 6    0  0.8520634E+002  0.1479180E+03  0.7546771E-02  0.1203055E+00
         21   -1    0    0  505  501  0.00000000000E+00  0.00000000000E+00  0.41691372815E+03  0.41691372815E+03  0.00000000000E+00 0. -1.
         21   -1    0    0  503  502 -0.00000000000E+00 -0.00000000000E+00 -0.24065503067E+03  0.24065503067E+03  0.00000000000E+00 0. -1.
         21    1    1    2  503  506 -0.17324484759E+03 -0.16125031689E+02 -0.55898788049E+02  0.18275247842E+03  0.00000000000E+00 0. -1.
         21    1    1    2  504  501  0.29394107086E+02  0.25023122031E+02  0.20914910219E+03  0.21268172727E+03  0.00000000000E+00 0. -1.
         21    1    1    2  505  502  0.45784884537E+02 -0.97171295523E+02 -0.41638031698E+02  0.11520521694E+03  0.00000000000E+00 0.  1.
         21    1    1    2  506  504  0.98065855966E+02  0.88273205181E+02  0.64646415031E+02  0.14692933620E+03  0.00000000000E+00 0. -1.
<scales pt_clust_3="14000.00000" pt_clust_4="38.60272" pt_clust_5="105.82198" pt_clust_6="147.91804"></scales>
<clustering>
<clus scale="   38.603">  1  4  2 -1</clus>
<clus scale="  105.822">  2  5  1 -1</clus>
<clus scale="  147.918">  1  6  2 -1</clus>
<clus scale="   38.603">  1  3  2 -1</clus>
</clustering>
</event>
<event>
 6    0  0.8520634E+002  0.1012704E+03  0.7546771E-02  0.1277647E+00
         21   -1    0    0  504  501  0.00000000000E+00  0.00000000000E+00  0.13201921523E+03  0.13201921523E+03  0.00000000000E+00 0. -1.
         21   -1    0    0  503  502 -0.00000000000E+00 -0.00000000000E+00 -0.41775515302E+03  0.41775515302E+03  0.00000000000E+00 0. -1.
         21    1    1    2  503  506 -0.27751316680E+02  0.56134432795E+02 -0.54901629662E+02  0.83279043356E+02  0.00000000000E+00 0. -1.
         21    1    1    2  504  505  0.12786808702E+02 -0.32357613569E+02 -0.11772949305E+03  0.12276298777E+03  0.00000000000E+00 0. -1.
         21    1    1    2  505  502 -0.48813208519E+02 -0.77844376293E+02 -0.20186508219E+03  0.22179266817E+03  0.00000000000E+00 0. -1.
         21    1    1    2  506  501  0.63777716497E+02  0.54067557067E+02  0.88760267108E+02  0.12193966896E+03  0.00000000000E+00 0. -1.
<scales pt_clust_3="62.61957" pt_clust_4="34.45725" pt_clust_5="34.45725" pt_clust_6="84.38108"></scales>
<clustering>
<clus scale="   34.457">  4  5 -1 -1</clus>
<clus scale="   62.620">  2  3  1 -1</clus>
<clus scale="   84.381">  1  6  2 -1</clus>
<clus scale="   84.381">  1  3  2 -1</clus>
</clustering>
</event>
<event>
 6    0  0.8520634E+002  0.1308163E+03  0.7546771E-02  0.1226249E+00
         21   -1    0    0  503  501  0.00000000000E+00  0.00000000000E+00  0.60392093822E+03  0.60392093822E+03  0.00000000000E+00 0. -1.
         21   -1    0    0  505  502 -0.00000000000E+00 -0.00000000000E+00 -0.34438670702E+03  0.34438670702E+03  0.00000000000E+00 0.  1.
         21    1    1    2  503  504  0.33592728298E+02 -0.29772976910E+02  0.16190101729E+03  0.16800845499E+03  0.00000000000E+00 0.  1.
         21    1    1    2  504  502 -0.33262792176E+02 -0.13910296464E+03 -0.27410836703E+03  0.30917866192E+03  0.00000000000E+00 0.  1.
         21    1    1    2  505  506  0.33593435235E+02  0.10558767228E+02 -0.24618394903E+02  0.42965937949E+02  0.00000000000E+00 0.  1.
         21    1    1    2  506  501 -0.33923371357E+02  0.15831717432E+03  0.39635997584E+03  0.42815459037E+03  0.00000000000E+00 0. -1.
<scales pt_clust_3="45.06695" pt_clust_4="130.81631" pt_clust_5="35.21373" pt_clust_6="14000.00000"></scales>
<clustering>
<clus scale="   35.214">  2  5  1 -1</clus>
<clus scale="   45.067">  1  3  2 -1</clus>
<clus scale="  130.816">  2  4  1 -1</clus>
<clus scale="   45.067">  1  3  2 -1</clus>
</clustering>
</event>
<event>
 6    0  0.8520634E+002  0.1620628E+03  0.7546771E-02  0.1186387E+00
         21   -1    0    0  505  501  0.00000000000E+00  0.00000000000E+00  0.20162463822E+04  0.20162463822E+04  0.00000000000E+00 0.  1.
         21   -1    0    0  506  502 -0.00000000000E+00 -0.00000000000E+00 -0.27182507453E+03  0.27182507453E+03  0.00000000000E+00 0.  1.
         21    1    1    2  503  502  0.24136959993E+03 -0.62816246094E+02  0.32837072020E+02  0.25156199602E+03  0.00000000000E+00 0.  1.
         21    1    1    2  504  503 -0.12650094633E+03  0.15636496146E+02  0.16622391052E+04  0.16671190217E+04  0.00000000000E+00 0.  1.
         21    1    1    2  505  504 -0.23495745472E+02  0.39970466496E+02  0.19327256774E+03  0.19875606579E+03  0.00000000000E+00 0.  1.
         21    1    1    2  506  501 -0.91372908126E+02  0.72092834529E+01 -0.14392743735E+03  0.17063437323E+03  0.00000000000E+00 0.  1.
<scales pt_clust_3="162.06279" pt_clust_4="14000.00000" pt_clust_5="46.36473" pt_clust_6="91.85219"></scales>
<clustering>
<clus scale="   46.365">  1  5  2 -1</clus>
<clus scale="   91.852">  2  6  1 -1</clus>
<clus scale="  162.063">  2  3  1 -1</clus>
<clus scale="   46.365">  1  3  2 -1</clus>
</clustering>
</event>
<event>
 6    0  0.8520634E+002  0.1259270E+03  0.7546771E-02  0.1233628E+00
         21   -1    0    0  503  501  0.00000000000E+00  0.00000000000E+00  0.93016901949E+03  0.93016901949E+03  0.00000000000E+00 0. -1.
         21   -1    0    0  505  502 -0.00000000000E+00 -0.00000000000E+00 -0.62656607090E+02  0.62656607090E+02  0.00000000000E+00 0. -1.
         21    1    1    2  503  504  0.24948936704E+02 -0.27614129651E+02  0.20269406863E+03  0.20608220461E+03  0.00000000000E+00 0. -1.
         21    1    1    2  504  506  0.82274061758E+02  0.96270362229E+01  0.47372363610E+03  0.48091141020E+03  0.00000000000E+00 0. -1.
         21    1    1    2  505  501  0.62610155216E+02  0.27305782830E+02  0.62749290939E+02  0.92752955886E+02  0.00000000000E+00 0. -1.
         21    1    1    2  506  502 -0.16983315368E+03 -0.93186894027E+01  0.12834541674E+03  0.21307905589E+03  0.00000000000E+00 0. -1.
<scales pt_clust_3="34.17099" pt_clust_4="34.17099" pt_clust_5="68.30547" pt_clust_6="115.14604"></scales>
<clustering>
<clus scale="   34.171">  3  4 -1 -1</clus>
<clus scale="   68.305">  2  5  1 -1</clus>
<clus scale="  115.146">  2  6  1 -1</clus>
<clus scale="  125.927">  1  3  2 -1</clus>
</clustering>
</event>
<event>
 6    0  0.8520634E+002  0.1028663E+03  0.7546771E-02  0.1274381E+00
         21   -1    0    0  503  501  0.00000000000E+00  0.00000000000E+00  0.57261937688E+03  0.57261937688E+03  0.00000000000E+00 0. -1.
         21   -1    0    0  504  502 -0.00000000000E+00 -0.00000000000E+00 -0.26761980123E+04  0.26761980123E+04  0.00000000000E+00 0. -1.
         21    1    1    2  503  502  0.16041588330E+03  0.15123813908E+02  0.15161271708E+03  0.22124285602E+03  0.00000000000E+00 0. -1.
         21    1    1    2  504  506 -0.10182991212E+03 -0.12151718786E+02 -0.26147341649E+04  0.26167444943E+04  0.00000000000E+00 0. -1.
         21    1    1    2  505  501 -0.20083406970E+02 -0.24579899610E+02  0.36496881458E+03  0.36634648943E+03  0.00000000000E+00 0. -1.
         21    1    1    2  506  505 -0.38502564203E+02  0.21607804488E+02 -0.54260021124E+01  0.44483549363E+02  0.00000000000E+00 0.  1.
<scales pt_clust_3="102.86626" pt_clust_4="14000.00000" pt_clust_5="31.74137" pt_clust_6="44.76620"></scales>
<clustering>
<clus scale="   31.741">  1  5  2 -1</clus>
<clus scale="   44.766">  1  6  2 -1</clus>
<clus scale="  102.866">  1  3  2 -1</clus>
<clus scale="   31.741">  1  3  2 -1</clus>
</clustering>
</event>
<event>
 6    0  0.8520634E+002  0.1183669E+03  0.7546771E-02  0.1245816E+00
         21   -1    0    0  505  501  0.00000000000E+00  0.00000000000E+00  0.40973597436E+03  0.40973597436E+03  0.00000000000E+00 0.  1.
         21   -1    0    0  506  502 -0.00000000000E+00 -0.00000000000E+00 -0.65894930764E+03  0.65894930764E+03  0.00000000000E+00 0.  1.
         21    1    1    2  503  502 -0.12583295949E+02  0.12073835083E+03  0.46260894324E+02  0.12990827164E+03  0.00000000000E+00 0.  1.
         21    1    1    2  504  501 -0.90178394174E+02 -0.12827140436E+03 -0.31591831003E+03  0.35268977099E+03  0.00000000000E+00 0.  1.
         21    1    1    2  505  503  0.51036146555E+02 -0.12459762522E+02  0.29822912517E+03  0.30282097853E+03  0.00000000000E+00 0.  1.
         21    1    1    2  506  504  0.51725543568E+02  0.19992816059E+02 -0.27778504275E+03  0.28326626084E+03  0.00000000000E+00 0.  1.
<scales pt_clust_3="118.36695" pt_clust_4="14000.00000" pt_clust_5="52.53507" pt_clust_6="56.54179"></scales>
<clustering>
<clus scale="   52.535">  1  5  2 -1</clus>
<clus scale="   56.542">  2  6  1 -1</clus>
<clus scale="  118.367">  1  3  2 -1</clus>
<clus scale="   52.535">  1  3  2 -1</clus>
</clustering>
</event>
<event>
 6    0  0.8520634E+002  0.9441752E+02  0.7546771E-02  0.1292493E+00
         21   -1    0    0  505  501  0.00000000000E+00  0.00000000000E+00  0.76827564592E+02  0.76827564592E+02  0.00000000000E+00 0.  1.
         21   -1    0    0  503  502 -0.00000000000E+00 -0.00000000000E+00 -0.11866736668E+04  0.11866736668E+04  0.00000000000E+00 0.  1.
         21    1    1    2  503  501 -0.39550029639E+02  0.10217138338E+02 -0.10943910723E+03  0.11681401008E+03  0.00000000000E+00 0. -1.
         21    1    1    2  504  506  0.26411454736E+02 -0.14390546977E+03 -0.39849511971E+03  0.42450525274E+03  0.00000000000E+00 0.  1.
         21    1    1    2  505  504 -0.53466532955E+01  0.90011998247E+02  0.24926052732E+02  0.93552416509E+02  0.00000000000E+00 0.  1.
         21    1    1    2  506  502  0.18485228198E+02  0.43676333189E+02 -0.62683792802E+03  0.62862955208E+03  0.00000000000E+00 0.  1.
<scales pt_clust_3="40.84844" pt_clust_4="14000.00000" pt_clust_5="94.41752" pt_clust_6="49.86700"></scales>
<clustering>
<clus scale="   40.848">  2  3  1 -1</clus>
<clus scale="   49.867">  2  6  1 -1</clus>
<clus scale="   94.418">  1  5  2 -1</clus>
<clus scale="   94.418">  1  3  2 -1</clus>
</clustering>
</event>
<event>
 6    0  0.8520634E+002  0.8059880E+02  0.7546771E-02  0.1327361E+00
         21   -1    0    0  503  501  0.00000000000E+00  0.00000000000E+00  0.39402690319E+03  0.39402690319E+03  0.00000000000E+00 0.  1.
         21   -1    0    0  505  502 -0.00000000000E+00 -0.00000000000E+00 -0.10437267919E+04  0.10437267919E+04  0.00000000000E+00 0. -1.
         21    1    1    2  503  502 -0.23948251585E+02 -0.84241298083E+02 -0.18088207030E+03  0.20096874984E+03  0.00000000000E+00 0.  1.
         21    1    1    2  504  506 -0.41005331569E+01  0.77914151574E+02 -0.18611575021E+02  0.80211097190E+02  0.00000000000E+00 0.  1.
         21    1    1    2  505  504  0.75685399952E+02  0.94548051507E+01 -0.79995450109E+03  0.80358252651E+03  0.00000000000E+00 0. -1.
         21    1    1    2  506  501 -0.47636615210E+02 -0.31276586413E+01  0.34974825768E+03  0.35299132157E+03  0.00000000000E+00 0.  1.
<scales pt_clust_3="80.59880" pt_clust_4="14000.00000" pt_clust_5="74.24714" pt_clust_6="47.73918"></scales>
<clustering>
<clus scale="   47.739">  1  6  2 -1</clus>
<clus scale="   74.247">  2  5  1 -1</clus>
<clus scale="   80.599">  2  3  1 -1</clus>
<clus scale="   47.739">  1  3  2 -1</clus>
</clustering>
</event>
<event>
 6    0  0.8520634E+002  0.8022048E+02  0.7546771E-02  0.1328427E+00
         21   -1    0    0  504  501  0.00000000000E+00  0.00000000000E+00  0.66377753112E+03  0.66377753112E+03  0.00000000000E+00 0.  1.
         21   -1    0    0  506  502 -0.00000000000E+00 -0.00000000000E+00 -0.28006599133E+03  0.28006599133E+03  0.00000000000E+00 0. -1.
         21    1    1    2  503  501  0.18364339398E+02  0.46220619424E+02  0.57204085931E+03  0.57419886742E+03  0.00000000000E+00 0.  1.
         21    1    1    2  504  502 -0.45886353252E+02 -0.82046174994E+02 -0.18520427480E+03  0.20769630630E+03  0.00000000000E+00 0. -1.
         21    1    1    2  505  503 -0.26839266676E+02  0.45641980602E+02  0.58691688584E+02  0.79045878690E+02  0.00000000000E+00 0. -1.
         21    1    1    2  506  505  0.54361280531E+02 -0.98164250315E+01 -0.61816733308E+02  0.82902470037E+02  0.00000000000E+00 0. -1.
<scales pt_clust_3="49.73525" pt_clust_4="80.22048" pt_clust_5="14000.00000" pt_clust_6="56.67123"></scales>
<clustering>
<clus scale="   49.735">  1  3  2 -1</clus>
<clus scale="   56.671">  2  6  1 -1</clus>
<clus scale="   80.220">  2  4  1 -1</clus>
<clus scale="   49.735">  1  3  2 -1</clus>
</clustering>
</event>
<event>
 6    0  0.8520634E+002  0.1885844E+03  0.7546771E-02  0.1159744E+00
         21   -1    0    0  506  501  0.00000000000E+00  0.00000000000E+00  0.49885943425E+03  0.49885943425E+03  0.00000000000E+00 0. -1.
         21   -1    0    0  505  502 -0.00000000000E+00 -0.00000000000E+00 -0.44279944202E+03  0.44279944202E+03  0.00000000000E+00 0. -1.
         21    1    1    2  503  502 -0.88895810707E+01 -0.36654082368E+02 -0.32975597618E+03  0.33190593582E+03  0.00000000000E+00 0. -1.
         21    1    1    2  504  501 -0.86742924617E+01  0.37262647847E+02  0.10814452494E+03  0.11471262593E+03  0.00000000000E+00 0.  1.
         21    1    1    2  505  504 -0.26473794899E+02  0.19591571463E+03  0.81325043764E+02  0.21376995065E+03  0.00000000000E+00 0. -1.
         21    1    1    2  506  503  0.44037668431E+02 -0.19652428011E+03  0.19634639971E+03  0.28127036387E+03  0.00000000000E+00 0. -1.
<scales pt_clust_3="37.71666" pt_clust_4="37.27433" pt_clust_5="188.58441" pt_clust_6="14000.00000"></scales>
<clustering>
<clus scale="   37.717">  2  3  1 -1</clus>
<clus scale="   37.274">  1  4  2 -1</clus>
<clus scale="  188.584">  2  5  1 -1</clus>
<clus scale="   37.274">  1  3  2 -1</clus>
</clustering>
</event>
