<event>
 4    0  0.2151074E-002  0.4948308E+03  0.7546771E-02  0.1015137E+00
         21   -1    0    0  502  501  0.00000000000E+00  0.00000000000E+00  0.15448728984E+04  0.15448728984E+04  0.00000000000E+00 0.  1.
         21   -1    0    0  501  502 -0.00000000000E+00 -0.00000000000E+00 -0.15849688910E+03  0.15849688910E+03  0.00000000000E+00 0.  1.
         25    1    1    2    0    0 -0.96727887271E+02 -0.44757709827E+03  0.93384957343E+03  0.10475598164E+04  0.12500000000E+03 0.  0.
         25    1    1    2    0    0  0.96727887271E+02  0.44757709827E+03  0.45252643584E+03  0.65580997111E+03  0.12500000000E+03 0.  0.
</event>
<event>
 4    0  0.2151074E-002  0.2040645E+03  0.7546771E-02  0.1146354E+00
         21   -1    0    0  502  501  0.00000000000E+00  0.00000000000E+00  0.80155242110E+03  0.80155242110E+03  0.00000000000E+00 0.  1.
         21   -1    0    0  501  502 -0.00000000000E+00 -0.00000000000E+00 -0.51952073995E+02  0.51952073995E+02  0.00000000000E+00 0.  1.
         25    1    1    2    0    0 -0.48471772997E+02 -0.39633270806E+02  0.63932844238E+02  0.15372936448E+03  0.12500000000E+03 0.  0.
         25    1    1    2    0    0  0.48471772997E+02  0.39633270806E+02  0.68566750287E+03  0.69977513061E+03  0.12500000000E+03 0.  0.
</event>
<event>
 4    0  0.2151074E-002  0.2483536E+03  0.7546771E-02  0.1114350E+00
         21   -1    0    0  502  501  0.00000000000E+00  0.00000000000E+00  0.36283476083E+03  0.36283476083E+03  0.00000000000E+00 0. -1.
         21   -1    0    0  501  502 -0.00000000000E+00 -0.00000000000E+00 -0.16999342076E+03  0.16999342076E+03  0.00000000000E+00 0. -1.
         25    1    1    2    0    0  0.11773536258E+03  0.16863829116E+02 -0.95198964107E+02  0.19706305362E+03  0.12500000000E+03 0.  0.
         25    1    1    2    0    0 -0.11773536258E+03 -0.16863829116E+02  0.28804030418E+03  0.33576512798E+03  0.12500000000E+03 0.  0.
</event>
<event>
 4    0  0.2151074E-002  0.3109695E+03  0.7546771E-02  0.1079882E+00
         21   -1    0    0  502  501  0.00000000000E+00  0.00000000000E+00  0.97077800268E+02  0.97077800268E+02  0.00000000000E+00 0.  1.
         21   -1    0    0  501  502 -0.00000000000E+00 -0.00000000000E+00 -0.99612889828E+03  0.99612889828E+03  0.00000000000E+00 0.  1.
         25    1    1    2    0    0  0.67873596067E+02  0.25852798932E+03 -0.27700310072E+03  0.40472121777E+03  0.12500000000E+03 0.  0.
         25    1    1    2    0    0 -0.67873596067E+02 -0.25852798932E+03 -0.62204799729E+03  0.68848548077E+03  0.12500000000E+03 0.  0.
</event>
<event>
 4    0  0.2151074E-002  0.2515031E+03  0.7546771E-02  0.1112359E+00
         21   -1    0    0  502  501  0.00000000000E+00  0.00000000000E+00  0.47557239881E+02  0.47557239881E+02  0.00000000000E+00 0.  1.
         21   -1    0    0  501  502 -0.00000000000E+00 -0.00000000000E+00 -0.13300567762E+04  0.13300567762E+04  0.00000000000E+00 0.  1.
         25    1    1    2    0    0  0.62816059327E+02 -0.17856189326E+03 -0.93873800151E+03  0.96575578823E+03  0.12500000000E+03 0.  0.
         25    1    1    2    0    0 -0.62816059327E+02  0.17856189326E+03 -0.34376153486E+03  0.41185822789E+03  0.12500000000E+03 0.  0.
</event>
<event>
 4    0  0.2151074E-002  0.1778255E+03  0.7546771E-02  0.1169924E+00
         21   -1    0    0  502  501  0.00000000000E+00  0.00000000000E+00  0.81431631489E+03  0.81431631489E+03  0.00000000000E+00 0. -1.
         21   -1    0    0  501  502 -0.00000000000E+00 -0.00000000000E+00 -0.38832470662E+02  0.38832470662E+02  0.00000000000E+00 0. -1.
         25    1    1    2    0    0  0.14678735851E+02 -0.12429163540E+03  0.34396472851E+03  0.38678238116E+03  0.12500000000E+03 0.  0.
         25    1    1    2    0    0 -0.14678735851E+02  0.12429163540E+03  0.43151911572E+03  0.46636640439E+03  0.12500000000E+03 0.  0.
</event>
<event>
 4    0  0.2151074E-002  0.3902326E+03  0.7546771E-02  0.1047215E+00
         21   -1    0    0  502  501  0.00000000000E+00  0.00000000000E+00  0.12447170649E+04  0.12447170649E+04  0.00000000000E+00 0.  1.
         21   -1    0    0  501  502 -0.00000000000E+00 -0.00000000000E+00 -0.12234221702E+03  0.12234221702E+03  0.00000000000E+00 0.  1.
         25    1    1    2    0    0  0.29485565038E+02  0.28773561753E+03  0.96441699660E+03  0.10145867767E+04  0.12500000000E+03 0.  0.
         25    1    1    2    0    0 -0.29485565038E+02 -0.28773561753E+03  0.15795785127E+03  0.35247250519E+03  0.12500000000E+03 0.  0.
</event>
<event>
 4    0  0.2151074E-002  0.2866061E+03  0.7546771E-02  0.1092135E+00
         21   -1    0    0  502  501  0.00000000000E+00  0.00000000000E+00  0.51608814164E+02  0.51608814164E+02  0.00000000000E+00 0. -1.
         21   -1    0    0  501  502 -0.00000000000E+00 -0.00000000000E+00 -0.15916478419E+04  0.15916478419E+04  0.00000000000E+00 0.  1.
         25    1    1    2    0    0  0.40661550983E+02 -0.20398474253E+03 -0.33285248094E+03  0.41192100090E+03  0.12500000000E+03 0.  0.
         25    1    1    2    0    0 -0.40661550983E+02  0.20398474253E+03 -0.12071865468E+04  0.12313356552E+04  0.12500000000E+03 0.  0.
</event>
<event>
 4    0  0.2151074E-002  0.2208082E+03  0.7546771E-02  0.1133282E+00
         21   -1    0    0  502  501  0.00000000000E+00  0.00000000000E+00  0.62596891829E+03  0.62596891829E+03  0.00000000000E+00 0.  1.
         21   -1    0    0  501  502 -0.00000000000E+00 -0.00000000000E+00 -0.77889259093E+02  0.77889259093E+02  0.00000000000E+00 0.  1.
         25    1    1    2    0    0 -0.50802801883E+02 -0.17154219439E+03  0.22061452056E+03  0.31032791659E+03  0.12500000000E+03 0.  0.
         25    1    1    2    0    0  0.50802801883E+02  0.17154219439E+03  0.32746513864E+03  0.39353026079E+03  0.12500000000E+03 0.  0.
</event>
<event>
 4    0  0.2151074E-002  0.1686609E+03  0.7546771E-02  0.1179252E+00
         21   -1    0    0  502  501  0.00000000000E+00  0.00000000000E+00  0.16096179727E+02  0.16096179727E+02  0.00000000000E+00 0.  1.
         21   -1    0    0  501  502 -0.00000000000E+00 -0.00000000000E+00 -0.17672824954E+04  0.17672824954E+04  0.00000000000E+00 0.  1.
         25    1    1    2    0    0 -0.37345905839E+02 -0.10687494429E+03 -0.88684101005E+03  0.90273415106E+03  0.12500000000E+03 0.  0.
         25    1    1    2    0    0  0.37345905839E+02  0.10687494429E+03 -0.86434530561E+03  0.88064452404E+03  0.12500000000E+03 0.  0.
</event>
<event>
 4    0  0.2151074E-002  0.2021199E+03  0.7546771E-02  0.1147963E+00
         21   -1    0    0  502  501  0.00000000000E+00  0.00000000000E+00  0.37983071119E+03  0.37983071119E+03  0.00000000000E+00 0.  1.
         21   -1    0    0  501  502 -0.00000000000E+00 -0.00000000000E+00 -0.10755434144E+03  0.10755434144E+03  0.00000000000E+00 0.  1.
         25    1    1    2    0    0 -0.62185972301E+02 -0.12365820199E+03  0.23006543814E+03  0.29616473777E+03  0.12500000000E+03 0.  0.
         25    1    1    2    0    0  0.62185972301E+02  0.12365820199E+03  0.42210931603E+02  0.19122031486E+03  0.12500000000E+03 0.  0.
</event>
<event>
 4    0  0.2151074E-002  0.2355848E+03  0.7546771E-02  0.1122770E+00
         21   -1    0    0  502  501  0.00000000000E+00  0.00000000000E+00  0.44663279070E+02  0.44663279070E+02  0.00000000000E+00 0. -1.
         21   -1    0    0  501  502 -0.00000000000E+00 -0.00000000000E+00 -0.12426354958E+04  0.12426354958E+04  0.00000000000E+00 0. -1.
         25    1    1    2    0    0 -0.59585159232E+02 -0.66451092213E+02 -0.10870301665E+04  0.10978277287E+04  0.12500000000E+03 0.  0.
         25    1    1    2    0    0  0.59585159232E+02  0.66451092213E+02 -0.11094205024E+03  0.18947104625E+03  0.12500000000E+03 0.  0.
</event>
<event>
 4    0  0.2151074E-002  0.1744958E+03  0.7546771E-02  0.1173239E+00
         21   -1    0    0  502  501  0.00000000000E+00  0.00000000000E+00  0.11833140032E+03  0.11833140032E+03  0.00000000000E+00 0.  1.
         21   -1    0    0  501  502 -0.00000000000E+00 -0.00000000000E+00 -0.25731799773E+03  0.25731799773E+03  0.00000000000E+00 0.  1.
         25    1    1    2    0    0 -0.52634896935E+02  0.42078833846E+02 -0.17864286410E+03  0.22820896899E+03  0.12500000000E+03 0.  0.
         25    1    1    2    0    0  0.52634896935E+02 -0.42078833846E+02  0.39656266685E+02  0.14744042906E+03  0.12500000000E+03 0.  0.
</event>
<event>
 4    0  0.2151074E-002  0.2356760E+03  0.7546771E-02  0.1122707E+00
         21   -1    0    0  502  501  0.00000000000E+00  0.00000000000E+00  0.49673597942E+02  0.49673597942E+02  0.00000000000E+00 0.  1.
         21   -1    0    0  501  502 -0.00000000000E+00 -0.00000000000E+00 -0.11181626193E+04  0.11181626193E+04  0.00000000000E+00 0.  1.
         25    1    1    2    0    0 -0.65740946390E+02 -0.58673167738E+02 -0.97852009868E+03  0.99039941245E+03  0.12500000000E+03 0.  0.
         25    1    1    2    0    0  0.65740946390E+02  0.58673167738E+02 -0.89968922646E+02  0.17743680477E+03  0.12500000000E+03 0.  0.
</event>
<event>
 4    0  0.2151074E-002  0.2712152E+03  0.7546771E-02  0.1100586E+00
         21   -1    0    0  502  501  0.00000000000E+00  0.00000000000E+00  0.12287392337E+03  0.12287392337E+03  0.00000000000E+00 0. -1.
         21   -1    0    0  501  502 -0.00000000000E+00 -0.00000000000E+00 -0.59864374066E+03  0.59864374066E+03  0.00000000000E+00 0. -1.
         25    1    1    2    0    0  0.21901666283E+03  0.99708929096E+02 -0.23157037807E+03  0.35659502119E+03  0.12500000000E+03 0.  0.
         25    1    1    2    0    0 -0.21901666283E+03 -0.99708929096E+02 -0.24419943923E+03  0.36492264284E+03  0.12500000000E+03 0.  0.
</event>
<event>
 4    0  0.2151074E-002  0.3110075E+03  0.7546771E-02  0.1079864E+00
         21   -1    0    0  502  501  0.00000000000E+00  0.00000000000E+00  0.14304470508E+03  0.14304470508E+03  0.00000000000E+00 0. -1.
         21   -1    0    0  501  502 -0.00000000000E+00 -0.00000000000E+00 -0.67619198069E+03  0.67619198069E+03  0.00000000000E+00 0. -1.
         25    1    1    2    0    0 -0.19438708058E+03  0.77071106888E+02 -0.11951857350E+02  0.24391420522E+03  0.12500000000E+03 0.  0.
         25    1    1    2    0    0  0.19438708058E+03 -0.77071106888E+02 -0.52119541826E+03  0.57532248055E+03  0.12500000000E+03 0.  0.
</event>
<event>
 4    0  0.2151074E-002  0.1617960E+03  0.7546771E-02  0.1186684E+00
         21   -1    0    0  502  501  0.00000000000E+00  0.00000000000E+00  0.10614399752E+03  0.10614399752E+03  0.00000000000E+00 0. -1.
         21   -1    0    0  501  502 -0.00000000000E+00 -0.00000000000E+00 -0.24662667617E+03  0.24662667617E+03  0.00000000000E+00 0. -1.
         25    1    1    2    0    0 -0.10977032026E+02 -0.99022183210E+02 -0.42942325111E+02  0.16551414225E+03  0.12500000000E+03 0.  0.
         25    1    1    2    0    0  0.10977032026E+02  0.99022183210E+02 -0.97540353535E+02  0.18725653144E+03  0.12500000000E+03 0.  0.
</event>
<event>
 4    0  0.2151074E-002  0.2349352E+03  0.7546771E-02  0.1123214E+00
         21   -1    0    0  502  501  0.00000000000E+00  0.00000000000E+00  0.55415457966E+02  0.55415457966E+02  0.00000000000E+00 0.  1.
         21   -1    0    0  501  502 -0.00000000000E+00 -0.00000000000E+00 -0.99601386629E+03  0.99601386629E+03  0.00000000000E+00 0.  1.
         25    1    1    2    0    0 -0.36151394925E+02 -0.66791413315E+02 -0.58893573961E+02  0.15767520192E+03  0.12500000000E+03 0.  0.
         25    1    1    2    0    0  0.36151394925E+02  0.66791413315E+02 -0.88170483437E+03  0.89375412234E+03  0.12500000000E+03 0.  0.
</event>
<event>
 4    0  0.2151074E-002  0.2293570E+03  0.7546771E-02  0.1127093E+00
         21   -1    0    0  502  501  0.00000000000E+00  0.00000000000E+00  0.14811137627E+04  0.14811137627E+04  0.00000000000E+00 0. -1.
         21   -1    0    0  501  502 -0.00000000000E+00 -0.00000000000E+00 -0.35516956613E+02  0.35516956613E+02  0.00000000000E+00 0. -1.
         25    1    1    2    0    0  0.18424623585E+03 -0.54811480788E+02  0.70509230884E+03  0.74143855972E+03  0.12500000000E+03 0.  0.
         25    1    1    2    0    0 -0.18424623585E+03  0.54811480788E+02  0.74050449721E+03  0.77519215956E+03  0.12500000000E+03 0.  0.
</event>
<event>
 4    0  0.2151074E-002  0.2138576E+03  0.7546771E-02  0.1138547E+00
         21   -1    0    0  502  501  0.00000000000E+00  0.00000000000E+00  0.36577918909E+03  0.36577918909E+03  0.00000000000E+00 0.  1.
         21   -1    0    0  501  502 -0.00000000000E+00 -0.00000000000E+00 -0.12503460940E+03  0.12503460940E+03  0.00000000000E+00 0.  1.
         25    1    1    2    0    0  0.42381696597E+01  0.10794120087E+03  0.27620260484E+03  0.32184179941E+03  0.12500000000E+03 0.  0.
         25    1    1    2    0    0 -0.42381696597E+01 -0.10794120087E+03 -0.35458025145E+02  0.16897199909E+03  0.12500000000E+03 0.  0.
</event>
<event>
 4    0  0.2151074E-002  0.1905282E+03  0.7546771E-02  0.1157986E+00
         21   -1    0    0  502  501  0.00000000000E+00  0.00000000000E+00  0.23334576195E+03  0.23334576195E+03  0.00000000000E+00 0.  1.
         21   -1    0    0  501  502 -0.00000000000E+00 -0.00000000000E+00 -0.15556748545E+03  0.15556748545E+03  0.00000000000E+00 0.  1.
         25    1    1    2    0    0  0.21795896564E+02  0.31197765405E+02 -0.10263368703E+03  0.16615364994E+03  0.12500000000E+03 0.  0.
         25    1    1    2    0    0 -0.21795896564E+02 -0.31197765405E+02  0.18041196354E+03  0.22275959746E+03  0.12500000000E+03 0.  0.
</event>
<event>
 4    0  0.2151074E-002  0.4321495E+03  0.7546771E-02  0.1033183E+00
         21   -1    0    0  502  501  0.00000000000E+00  0.00000000000E+00  0.25595520997E+03  0.25595520997E+03  0.00000000000E+00 0. -1.
         21   -1    0    0  501  502 -0.00000000000E+00 -0.00000000000E+00 -0.72963229881E+03  0.72963229881E+03  0.00000000000E+00 0.  1.
         25    1    1    2    0    0  0.40564364905E+03 -0.14468335474E+02 -0.32786591118E+03  0.53654185155E+03  0.12500000000E+03 0.  0.
         25    1    1    2    0    0 -0.40564364905E+03  0.14468335474E+02 -0.14581117767E+03  0.44904565724E+03  0.12500000000E+03 0.  0.
</event>
<event>
 4    0  0.2151074E-002  0.1761550E+03  0.7546771E-02  0.1171577E+00
         21   -1    0    0  502  501  0.00000000000E+00  0.00000000000E+00  0.17078569914E+03  0.17078569914E+03  0.00000000000E+00 0. -1.
         21   -1    0    0  501  502 -0.00000000000E+00 -0.00000000000E+00 -0.18169320816E+03  0.18169320816E+03  0.00000000000E+00 0. -1.
         25    1    1    2    0    0 -0.65196638777E+02 -0.98658953975E+02 -0.43173419499E+02  0.17740669395E+03  0.12500000000E+03 0.  0.
         25    1    1    2    0    0  0.65196638777E+02  0.98658953975E+02  0.32265910476E+02  0.17507221335E+03  0.12500000000E+03 0.  0.
</event>
<event>
 4    0  0.2151074E-002  0.1720484E+03  0.7546771E-02  0.1175728E+00
         21   -1    0    0  502  501  0.00000000000E+00  0.00000000000E+00  0.12567563429E+02  0.12567563429E+02  0.00000000000E+00 0. -1.
         21   -1    0    0  501  502 -0.00000000000E+00 -0.00000000000E+00 -0.23553206172E+04  0.23553206172E+04  0.00000000000E+00 0. -1.
         25    1    1    2    0    0 -0.10120486445E+02  0.89768622452E+02 -0.16961216996E+04  0.17031190944E+04  0.12500000000E+03 0.  0.
         25    1    1    2    0    0  0.10120486445E+02 -0.89768622452E+02 -0.64663135423E+03  0.66476908630E+03  0.12500000000E+03 0.  0.
</event>
<event>
 4    0  0.2151074E-002  0.2054592E+03  0.7546771E-02  0.1145213E+00
         21   -1    0    0  502  501  0.00000000000E+00  0.00000000000E+00  0.24695930859E+03  0.24695930859E+03  0.00000000000E+00 0. -1.
         21   -1    0    0  501  502 -0.00000000000E+00 -0.00000000000E+00 -0.17093286592E+03  0.17093286592E+03  0.00000000000E+00 0. -1.
         25    1    1    2    0    0 -0.38671911662E+02 -0.19204116151E+02 -0.12189449419E+03  0.17985433702E+03  0.12500000000E+03 0.  0.
         25    1    1    2    0    0  0.38671911662E+02  0.19204116151E+02  0.19792093686E+03  0.23803783749E+03  0.12500000000E+03 0.  0.
</event>
<event>
 4    0  0.2151074E-002  0.1802828E+03  0.7546771E-02  0.1167530E+00
         21   -1    0    0  502  501  0.00000000000E+00  0.00000000000E+00  0.23154660394E+02  0.23154660394E+02  0.00000000000E+00 0.  1.
         21   -1    0    0  501  502 -0.00000000000E+00 -0.00000000000E+00 -0.14036862573E+04  0.14036862573E+04  0.00000000000E+00 0.  1.
         25    1    1    2    0    0  0.85898294021E+02  0.65473960634E+02 -0.40458988699E+03  0.43701639911E+03  0.12500000000E+03 0.  0.
         25    1    1    2    0    0 -0.85898294021E+02 -0.65473960634E+02 -0.97594170996E+03  0.98982451863E+03  0.12500000000E+03 0.  0.
</event>
<event>
 4    0  0.2151074E-002  0.2872500E+03  0.7546771E-02  0.1091794E+00
         21   -1    0    0  502  501  0.00000000000E+00  0.00000000000E+00  0.76502158155E+03  0.76502158155E+03  0.00000000000E+00 0.  1.
         21   -1    0    0  501  502 -0.00000000000E+00 -0.00000000000E+00 -0.10785650787E+03  0.10785650787E+03  0.00000000000E+00 0.  1.
         25    1    1    2    0    0  0.17275740894E+03 -0.14616280899E+03  0.51883089427E+03  0.57967161905E+03  0.12500000000E+03 0.  0.
         25    1    1    2    0    0 -0.17275740894E+03  0.14616280899E+03  0.13833417941E+03  0.29320647037E+03  0.12500000000E+03 0.  0.
</event>
<event>
 4    0  0.2151074E-002  0.2108834E+03  0.7546771E-02  0.1140868E+00
         21   -1    0    0  502  501  0.00000000000E+00  0.00000000000E+00  0.20035654030E+03  0.20035654030E+03  0.00000000000E+00 0.  1.
         21   -1    0    0  501  502 -0.00000000000E+00 -0.00000000000E+00 -0.22196325741E+03  0.22196325741E+03  0.00000000000E+00 0.  1.
         25    1    1    2    0    0  0.44152709434E+01 -0.48233393861E+02  0.15220088890E+03  0.20282027878E+03  0.12500000000E+03 0.  0.
         25    1    1    2    0    0 -0.44152709434E+01  0.48233393861E+02 -0.17380760602E+03  0.21949951893E+03  0.12500000000E+03 0.  0.
</event>
<event>
 4    0  0.2151074E-002  0.2324611E+03  0.7546771E-02  0.1124919E+00
         21   -1    0    0  502  501  0.00000000000E+00  0.00000000000E+00  0.11674530976E+04  0.11674530976E+04  0.00000000000E+00 0.  1.
         21   -1    0    0  501  502 -0.00000000000E+00 -0.00000000000E+00 -0.46287215379E+02  0.46287215379E+02  0.00000000000E+00 0.  1.
         25    1    1    2    0    0  0.10080409744E+03  0.16643322831E+03  0.49926547443E+03  0.55022949713E+03  0.12500000000E+03 0.  0.
         25    1    1    2    0    0 -0.10080409744E+03 -0.16643322831E+03  0.62190040782E+03  0.66351081588E+03  0.12500000000E+03 0.  0.
</event>
<event>
 4    0  0.2151074E-002  0.3178421E+03  0.7546771E-02  0.1076647E+00
         21   -1    0    0  502  501  0.00000000000E+00  0.00000000000E+00  0.24644267050E+03  0.24644267050E+03  0.00000000000E+00 0.  1.
         21   -1    0    0  501  502 -0.00000000000E+00 -0.00000000000E+00 -0.40992731341E+03  0.40992731341E+03  0.00000000000E+00 0.  1.
         25    1    1    2    0    0 -0.28273606362E+03 -0.72893668233E+02 -0.69291173801E+02  0.32508373584E+03  0.12500000000E+03 0.  0.
         25    1    1    2    0    0  0.28273606362E+03  0.72893668233E+02 -0.94193469107E+02  0.33128624807E+03  0.12500000000E+03 0.  0.
</event>
<event>
 4    0  0.2151074E-002  0.2742190E+03  0.7546771E-02  0.1098889E+00
         21   -1    0    0  502  501  0.00000000000E+00  0.00000000000E+00  0.44490922429E+03  0.44490922429E+03  0.00000000000E+00 0. -1.
         21   -1    0    0  501  502 -0.00000000000E+00 -0.00000000000E+00 -0.16901438997E+03  0.16901438997E+03  0.00000000000E+00 0. -1.
         25    1    1    2    0    0 -0.19663566684E+03  0.12983745715E+03  0.66729132015E+02  0.27495659260E+03  0.12500000000E+03 0.  0.
         25    1    1    2    0    0  0.19663566684E+03 -0.12983745715E+03  0.20916570230E+03  0.33896702166E+03  0.12500000000E+03 0.  0.
</event>
<event>
 4    0  0.2151074E-002  0.2461750E+03  0.7546771E-02  0.1115746E+00
         21   -1    0    0  502  501  0.00000000000E+00  0.00000000000E+00  0.48527170413E+03  0.48527170413E+03  0.00000000000E+00 0. -1.
         21   -1    0    0  501  502 -0.00000000000E+00 -0.00000000000E+00 -0.12488288758E+03  0.12488288758E+03  0.00000000000E+00 0. -1.
         25    1    1    2    0    0  0.18369063820E+03  0.10501035958E+03  0.19805475673E+03  0.31562654015E+03  0.12500000000E+03 0.  0.
         25    1    1    2    0    0 -0.18369063820E+03 -0.10501035958E+03  0.16233405982E+03  0.29452805156E+03  0.12500000000E+03 0.  0.
</event>
<event>
 4    0  0.2151074E-002  0.2727753E+03  0.7546771E-02  0.1099702E+00
         21   -1    0    0  502  501  0.00000000000E+00  0.00000000000E+00  0.50600052182E+02  0.50600052182E+02  0.00000000000E+00 0.  1.
         21   -1    0    0  501  502 -0.00000000000E+00 -0.00000000000E+00 -0.14704804185E+04  0.14704804185E+04  0.00000000000E+00 0.  1.
         25    1    1    2    0    0 -0.63434850882E+02 -0.10140980448E+03 -0.12195343939E+03  0.21167326267E+03  0.12500000000E+03 0.  0.
         25    1    1    2    0    0  0.63434850882E+02  0.10140980448E+03 -0.12979269269E+04  0.13094072080E+04  0.12500000000E+03 0.  0.
</event>
<event>
 4    0  0.2151074E-002  0.1991755E+03  0.7546771E-02  0.1150437E+00
         21   -1    0    0  502  501  0.00000000000E+00  0.00000000000E+00  0.11962385692E+02  0.11962385692E+02  0.00000000000E+00 0. -1.
         21   -1    0    0  501  502 -0.00000000000E+00 -0.00000000000E+00 -0.33163017343E+04  0.33163017343E+04  0.00000000000E+00 0. -1.
         25    1    1    2    0    0  0.10965103664E+02  0.65839688154E+02 -0.48273017591E+03  0.50309891748E+03  0.12500000000E+03 0.  0.
         25    1    1    2    0    0 -0.10965103664E+02 -0.65839688154E+02 -0.28216091727E+04  0.28251652025E+04  0.12500000000E+03 0.  0.
</event>
<event>
 4    0  0.2151074E-002  0.3192812E+03  0.7546771E-02  0.1075981E+00
         21   -1    0    0  502  501  0.00000000000E+00  0.00000000000E+00  0.12231804531E+03  0.12231804531E+03  0.00000000000E+00 0.  1.
         21   -1    0    0  501  502 -0.00000000000E+00 -0.00000000000E+00 -0.83340519020E+03  0.83340519020E+03  0.00000000000E+00 0.  1.
         25    1    1    2    0    0  0.10405455691E+03 -0.24491026008E+03 -0.54192137261E+03  0.61653236768E+03  0.12500000000E+03 0.  0.
         25    1    1    2    0    0 -0.10405455691E+03  0.24491026008E+03 -0.16916577228E+03  0.33919086783E+03  0.12500000000E+03 0.  0.
</event>
<event>
 4    0  0.2151074E-002  0.3755729E+03  0.7546771E-02  0.1052582E+00
         21   -1    0    0  502  501  0.00000000000E+00  0.00000000000E+00  0.94809341298E+03  0.94809341298E+03  0.00000000000E+00 0.  1.
         21   -1    0    0  501  502 -0.00000000000E+00 -0.00000000000E+00 -0.14877750372E+03  0.14877750372E+03  0.00000000000E+00 0.  1.
         25    1    1    2    0    0  0.11986851779E+03  0.31861675806E+03  0.25699330848E+03  0.44447233961E+03  0.12500000000E+03 0.  0.
         25    1    1    2    0    0 -0.11986851779E+03 -0.31861675806E+03  0.54232260078E+03  0.65239857709E+03  0.12500000000E+03 0.  0.
</event>
<event>
 4    0  0.2151074E-002  0.2814652E+03  0.7546771E-02  0.1094891E+00
         21   -1    0    0  502  501  0.00000000000E+00  0.00000000000E+00  0.80909965106E+02  0.80909965106E+02  0.00000000000E+00 0.  1.
         21   -1    0    0  501  502 -0.00000000000E+00 -0.00000000000E+00 -0.97914559259E+03  0.97914559259E+03  0.00000000000E+00 0.  1.
         25    1    1    2    0    0 -0.12669465574E+03 -0.88694189156E+01 -0.85938979875E+03  0.87767079738E+03  0.12500000000E+03 0.  0.
         25    1    1    2    0    0  0.12669465574E+03  0.88694189156E+01 -0.38845828739E+02  0.18238476032E+03  0.12500000000E+03 0.  0.
</event>
<event>
 4    0  0.2151074E-002  0.1755761E+03  0.7546771E-02  0.1172155E+00
         21   -1    0    0  502  501  0.00000000000E+00  0.00000000000E+00  0.24050050679E+03  0.24050050679E+03  0.00000000000E+00 0. -1.
         21   -1    0    0  501  502 -0.00000000000E+00 -0.00000000000E+00 -0.12817832276E+03  0.12817832276E+03  0.00000000000E+00 0. -1.
         25    1    1    2    0    0 -0.73002431505E+02  0.74884620306E+02  0.12472678071E+03  0.20522872896E+03  0.12500000000E+03 0.  0.
         25    1    1    2    0    0  0.73002431505E+02 -0.74884620306E+02 -0.12404596689E+02  0.16345010059E+03  0.12500000000E+03 0.  0.
</event>
<event>
 4    0  0.2151074E-002  0.3888391E+03  0.7546771E-02  0.1047714E+00
         21   -1    0    0  502  501  0.00000000000E+00  0.00000000000E+00  0.47061862802E+02  0.47061862802E+02  0.00000000000E+00 0.  1.
         21   -1    0    0  501  502 -0.00000000000E+00 -0.00000000000E+00 -0.32127048182E+04  0.32127048182E+04  0.00000000000E+00 0.  1.
         25    1    1    2    0    0 -0.31800395136E+03  0.17368538802E+03 -0.13086678084E+04  0.13636456871E+04  0.12500000000E+03 0.  0.
         25    1    1    2    0    0  0.31800395136E+03 -0.17368538802E+03 -0.18569751470E+04  0.18961209939E+04  0.12500000000E+03 0.  0.
</event>
<event>
 4    0  0.2151074E-002  0.2946394E+03  0.7546771E-02  0.1087951E+00
         21   -1    0    0  502  501  0.00000000000E+00  0.00000000000E+00  0.52169538304E+03  0.52169538304E+03  0.00000000000E+00 0.  1.
         21   -1    0    0  501  502 -0.00000000000E+00 -0.00000000000E+00 -0.16640435091E+03  0.16640435091E+03  0.00000000000E+00 0.  1.
         25    1    1    2    0    0  0.33312472104E+02  0.11862862305E+03  0.45398542682E+03  0.48673425888E+03  0.12500000000E+03 0.  0.
         25    1    1    2    0    0 -0.33312472104E+02 -0.11862862305E+03 -0.98694394690E+02  0.20136547506E+03  0.12500000000E+03 0.  0.
</event>
<event>
 4    0  0.2151074E-002  0.2437794E+03  0.7546771E-02  0.1117300E+00
         21   -1    0    0  502  501  0.00000000000E+00  0.00000000000E+00  0.17435332303E+04  0.17435332303E+04  0.00000000000E+00 0. -1.
         21   -1    0    0  501  502 -0.00000000000E+00 -0.00000000000E+00 -0.34085045469E+02  0.34085045469E+02  0.00000000000E+00 0. -1.
         25    1    1    2    0    0 -0.27293053627E+02  0.44267455669E+02  0.11558442655E+03  0.17801482542E+03  0.12500000000E+03 0.  0.
         25    1    1    2    0    0  0.27293053627E+02 -0.44267455669E+02  0.15938637583E+04  0.15996034503E+04  0.12500000000E+03 0.  0.
</event>
<event>
 4    0  0.2151074E-002  0.2937670E+03  0.7546771E-02  0.1088399E+00
         21   -1    0    0  502  501  0.00000000000E+00  0.00000000000E+00  0.24673267678E+03  0.24673267678E+03  0.00000000000E+00 0.  1.
         21   -1    0    0  501  502 -0.00000000000E+00 -0.00000000000E+00 -0.34976744187E+03  0.34976744187E+03  0.00000000000E+00 0.  1.
         25    1    1    2    0    0 -0.21722106807E+03  0.13426931606E+03  0.23507662744E+02  0.28529081980E+03  0.12500000000E+03 0.  0.
         25    1    1    2    0    0  0.21722106807E+03 -0.13426931606E+03 -0.12654242783E+03  0.31120929885E+03  0.12500000000E+03 0.  0.
</event>
<event>
 4    0  0.2151074E-002  0.1748861E+03  0.7546771E-02  0.1172846E+00
         21   -1    0    0  502  501  0.00000000000E+00  0.00000000000E+00  0.63315928205E+03  0.63315928205E+03  0.00000000000E+00 0. -1.
         21   -1    0    0  501  502 -0.00000000000E+00 -0.00000000000E+00 -0.48305588272E+02  0.48305588272E+02  0.00000000000E+00 0. -1.
         25    1    1    2    0    0 -0.10488067018E+03 -0.50677998857E+02  0.36511522470E+03  0.40311579211E+03  0.12500000000E+03 0.  0.
         25    1    1    2    0    0  0.10488067018E+03  0.50677998857E+02  0.21973846908E+03  0.27834907821E+03  0.12500000000E+03 0.  0.
</event>
<event>
 4    0  0.2151074E-002  0.2026992E+03  0.7546771E-02  0.1147481E+00
         21   -1    0    0  502  501  0.00000000000E+00  0.00000000000E+00  0.20407187980E+03  0.20407187980E+03  0.00000000000E+00 0.  1.
         21   -1    0    0  501  502 -0.00000000000E+00 -0.00000000000E+00 -0.20133584158E+03  0.20133584158E+03  0.00000000000E+00 0.  1.
         25    1    1    2    0    0  0.21323425115E+02  0.10128877581E+03  0.12281163092E+03  0.20352346610E+03  0.12500000000E+03 0.  0.
         25    1    1    2    0    0 -0.21323425115E+02 -0.10128877581E+03 -0.12007559271E+03  0.20188425528E+03  0.12500000000E+03 0.  0.
</event>
<event>
 4    0  0.2151074E-002  0.2693977E+03  0.7546771E-02  0.1101625E+00
         21   -1    0    0  502  501  0.00000000000E+00  0.00000000000E+00  0.31863039664E+03  0.31863039664E+03  0.00000000000E+00 0.  1.
         21   -1    0    0  501  502 -0.00000000000E+00 -0.00000000000E+00 -0.22777208719E+03  0.22777208719E+03  0.00000000000E+00 0.  1.
         25    1    1    2    0    0  0.10427640863E+03 -0.18963648852E+02  0.26226311584E+03  0.30925738683E+03  0.12500000000E+03 0.  0.
         25    1    1    2    0    0 -0.10427640863E+03  0.18963648852E+02 -0.17140480640E+03  0.23714509700E+03  0.12500000000E+03 0.  0.
</event>
<event>
 4    0  0.2151074E-002  0.2428771E+03  0.7546771E-02  0.1117891E+00
         21   -1    0    0  502  501  0.00000000000E+00  0.00000000000E+00  0.17974400774E+03  0.17974400774E+03  0.00000000000E+00 0. -1.
         21   -1    0    0  501  502 -0.00000000000E+00 -0.00000000000E+00 -0.32818503114E+03  0.32818503114E+03  0.00000000000E+00 0. -1.
         25    1    1    2    0    0  0.17506250994E+03 -0.42238809304E+02  0.35115179108E+02  0.22201143034E+03  0.12500000000E+03 0.  0.
         25    1    1    2    0    0 -0.17506250994E+03  0.42238809304E+02 -0.18355620251E+03  0.28591760855E+03  0.12500000000E+03 0.  0.
</event>
<event>
 4    0  0.2151074E-002  0.2371330E+03  0.7546771E-02  0.1121718E+00
         21   -1    0    0  502  501  0.00000000000E+00  0.00000000000E+00  0.60364901847E+02  0.60364901847E+02  0.00000000000E+00 0. -1.
         21   -1    0    0  501  502 -0.00000000000E+00 -0.00000000000E+00 -0.93153601547E+03  0.93153601547E+03  0.00000000000E+00 0. -1.
         25    1    1    2    0    0 -0.10313877514E+03 -0.16906355419E+03 -0.51347570848E+03  0.56436016470E+03  0.12500000000E+03 0.  0.
         25    1    1    2    0    0  0.10313877514E+03  0.16906355419E+03 -0.35769540514E+03  0.42754075262E+03  0.12500000000E+03 0.  0.
</event>
<event>
 4    0  0.2151074E-002  0.2286676E+03  0.7546771E-02  0.1127581E+00
         21   -1    0    0  502  501  0.00000000000E+00  0.00000000000E+00  0.44564134454E+02  0.44564134454E+02  0.00000000000E+00 0. -1.
         21   -1    0    0  501  502 -0.00000000000E+00 -0.00000000000E+00 -0.11733401417E+04  0.11733401417E+04  0.00000000000E+00 0. -1.
         25    1    1    2    0    0 -0.12180010232E+03 -0.65425954530E+02 -0.21161681856E+03  0.28199733748E+03  0.12500000000E+03 0.  0.
         25    1    1    2    0    0  0.12180010232E+03  0.65425954530E+02 -0.91715918868E+03  0.93590693866E+03  0.12500000000E+03 0.  0.
</event>
<event>
 4    0  0.2151074E-002  0.1881109E+03  0.7546771E-02  0.1160176E+00
         21   -1    0    0  502  501  0.00000000000E+00  0.00000000000E+00  0.46027959246E+03  0.46027959246E+03  0.00000000000E+00 0.  1.
         21   -1    0    0  501  502 -0.00000000000E+00 -0.00000000000E+00 -0.76878756250E+02  0.76878756250E+02  0.00000000000E+00 0.  1.
         25    1    1    2    0    0 -0.34142146049E+01  0.13586258616E+02 -0.80061953666E+01  0.12603706776E+03  0.12500000000E+03 0.  0.
         25    1    1    2    0    0  0.34142146049E+01 -0.13586258616E+02  0.39140703157E+03  0.41112128095E+03  0.12500000000E+03 0.  0.
</event>
<event>
 4    0  0.2151074E-002  0.3656847E+03  0.7546771E-02  0.1056355E+00
         21   -1    0    0  502  501  0.00000000000E+00  0.00000000000E+00  0.45414701937E+03  0.45414701937E+03  0.00000000000E+00 0. -1.
         21   -1    0    0  501  502 -0.00000000000E+00 -0.00000000000E+00 -0.29445371507E+03  0.29445371507E+03  0.00000000000E+00 0.  1.
         25    1    1    2    0    0  0.22147000933E+03  0.24363410067E+03  0.18062311624E+03  0.39579824427E+03  0.12500000000E+03 0.  0.
         25    1    1    2    0    0 -0.22147000933E+03 -0.24363410067E+03 -0.20929811932E+02  0.35280249017E+03  0.12500000000E+03 0.  0.
</event>
<event>
 4    0  0.2151074E-002  0.1827370E+03  0.7546771E-02  0.1165180E+00
         21   -1    0    0  502  501  0.00000000000E+00  0.00000000000E+00  0.45832307041E+02  0.45832307041E+02  0.00000000000E+00 0.  1.
         21   -1    0    0  501  502 -0.00000000000E+00 -0.00000000000E+00 -0.72858674173E+03  0.72858674173E+03  0.00000000000E+00 0.  1.
         25    1    1    2    0    0  0.13057535906E+03  0.23501599219E+02 -0.36864183856E+03  0.41124695099E+03  0.12500000000E+03 0.  0.
         25    1    1    2    0    0 -0.13057535906E+03 -0.23501599219E+02 -0.31411259613E+03  0.36317209778E+03  0.12500000000E+03 0.  0.
</event>
<event>
 4    0  0.2151074E-002  0.2007188E+03  0.7546771E-02  0.1149134E+00
         21   -1    0    0  502  501  0.00000000000E+00  0.00000000000E+00  0.81246981503E+03  0.81246981503E+03  0.00000000000E+00 0.  1.
         21   -1    0    0  501  502 -0.00000000000E+00 -0.00000000000E+00 -0.49587119913E+02  0.49587119913E+02  0.00000000000E+00 0.  1.
         25    1    1    2    0    0  0.69430601526E+02 -0.10465763048E+03  0.58390612477E+03  0.61020094279E+03  0.12500000000E+03 0.  0.
         25    1    1    2    0    0 -0.69430601526E+02  0.10465763048E+03  0.17897657035E+03  0.25185599214E+03  0.12500000000E+03 0.  0.
</event>
<event>
 4    0  0.2151074E-002  0.2123715E+03  0.7546771E-02  0.1139702E+00
         21   -1    0    0  502  501  0.00000000000E+00  0.00000000000E+00  0.68976128624E+03  0.68976128624E+03  0.00000000000E+00 0. -1.
         21   -1    0    0  501  502 -0.00000000000E+00 -0.00000000000E+00 -0.65387320404E+02  0.65387320404E+02  0.00000000000E+00 0. -1.
         25    1    1    2    0    0 -0.15658466568E+03 -0.70408607205E+02  0.31091391578E+03  0.37652170258E+03  0.12500000000E+03 0.  0.
         25    1    1    2    0    0  0.15658466568E+03  0.70408607205E+02  0.31346005006E+03  0.37862690406E+03  0.12500000000E+03 0.  0.
</event>
<event>
 4    0  0.2151074E-002  0.3583285E+03  0.7546771E-02  0.1059248E+00
         21   -1    0    0  502  501  0.00000000000E+00  0.00000000000E+00  0.59980165678E+03  0.59980165678E+03  0.00000000000E+00 0.  1.
         21   -1    0    0  501  502 -0.00000000000E+00 -0.00000000000E+00 -0.21406956801E+03  0.21406956801E+03  0.00000000000E+00 0. -1.
         25    1    1    2    0    0  0.28666402277E+03  0.16914988276E+03  0.14225202321E+03  0.38294723252E+03  0.12500000000E+03 0.  0.
         25    1    1    2    0    0 -0.28666402277E+03 -0.16914988276E+03  0.24348006556E+03  0.43092399227E+03  0.12500000000E+03 0.  0.
</event>
<event>
 4    0  0.2151074E-002  0.1887515E+03  0.7546771E-02  0.1159592E+00
         21   -1    0    0  502  501  0.00000000000E+00  0.00000000000E+00  0.61197068432E+03  0.61197068432E+03  0.00000000000E+00 0. -1.
         21   -1    0    0  501  502 -0.00000000000E+00 -0.00000000000E+00 -0.58217024917E+02  0.58217024917E+02  0.00000000000E+00 0. -1.
         25    1    1    2    0    0 -0.35512199496E+00  0.36841949016E+02  0.51928840416E+03  0.53539042018E+03  0.12500000000E+03 0.  0.
         25    1    1    2    0    0  0.35512199496E+00 -0.36841949016E+02  0.34465255239E+02  0.13479728906E+03  0.12500000000E+03 0.  0.
</event>
<event>
 4    0  0.2151074E-002  0.1313911E+03  0.7546771E-02  0.1225406E+00
         21   -1    0    0  502  501  0.00000000000E+00  0.00000000000E+00  0.16558114696E+02  0.16558114696E+02  0.00000000000E+00 0.  1.
         21   -1    0    0  501  502 -0.00000000000E+00 -0.00000000000E+00 -0.10426079375E+04  0.10426079375E+04  0.00000000000E+00 0.  1.
         25    1    1    2    0    0 -0.67358390533E+01  0.39553067568E+02 -0.53465722759E+03  0.55053897927E+03  0.12500000000E+03 0.  0.
         25    1    1    2    0    0  0.67358390533E+01 -0.39553067568E+02 -0.49139259522E+03  0.50862707293E+03  0.12500000000E+03 0.  0.
</event>
<event>
 4    0  0.2151074E-002  0.2264044E+03  0.7546771E-02  0.1129196E+00
         21   -1    0    0  502  501  0.00000000000E+00  0.00000000000E+00  0.13505054269E+04  0.13505054269E+04  0.00000000000E+00 0. -1.
         21   -1    0    0  501  502 -0.00000000000E+00 -0.00000000000E+00 -0.37955378112E+02  0.37955378112E+02  0.00000000000E+00 0. -1.
         25    1    1    2    0    0  0.12603297087E+03  0.88009026139E+02  0.99223119385E+03  0.10118189761E+04  0.12500000000E+03 0.  0.
         25    1    1    2    0    0 -0.12603297087E+03 -0.88009026139E+02  0.32031885493E+03  0.37664182887E+03  0.12500000000E+03 0.  0.
</event>
<event>
 4    0  0.2151074E-002  0.2704637E+03  0.7546771E-02  0.1101015E+00
         21   -1    0    0  502  501  0.00000000000E+00  0.00000000000E+00  0.12599905312E+04  0.12599905312E+04  0.00000000000E+00 0. -1.
         21   -1    0    0  501  502 -0.00000000000E+00 -0.00000000000E+00 -0.58056477713E+02  0.58056477713E+02  0.00000000000E+00 0. -1.
         25    1    1    2    0    0 -0.17964957146E+03 -0.74084372281E+02  0.94351389333E+03  0.97139380771E+03  0.12500000000E+03 0.  0.
         25    1    1    2    0    0  0.17964957146E+03  0.74084372281E+02  0.25842016020E+03  0.34665320125E+03  0.12500000000E+03 0.  0.
</event>
<event>
 4    0  0.2151074E-002  0.1517575E+03  0.7546771E-02  0.1198330E+00
         21   -1    0    0  502  501  0.00000000000E+00  0.00000000000E+00  0.34856882139E+03  0.34856882139E+03  0.00000000000E+00 0.  1.
         21   -1    0    0  501  502 -0.00000000000E+00 -0.00000000000E+00 -0.66071143736E+02  0.66071143736E+02  0.00000000000E+00 0.  1.
         25    1    1    2    0    0  0.41572818089E+02 -0.19900971916E+02  0.41971810136E+02  0.13968171224E+03  0.12500000000E+03 0.  0.
         25    1    1    2    0    0 -0.41572818089E+02  0.19900971916E+02  0.24052586752E+03  0.27495825289E+03  0.12500000000E+03 0.  0.
</event>
<event>
 4    0  0.2151074E-002  0.2092884E+03  0.7546771E-02  0.1142131E+00
         21   -1    0    0  502  501  0.00000000000E+00  0.00000000000E+00  0.19186164159E+04  0.19186164159E+04  0.00000000000E+00 0.  1.
         21   -1    0    0  501  502 -0.00000000000E+00 -0.00000000000E+00 -0.22829801726E+02  0.22829801726E+02  0.00000000000E+00 0.  1.
         25    1    1    2    0    0 -0.10046416070E+03 -0.70709663879E+02  0.14784306739E+04  0.14887831144E+04  0.12500000000E+03 0.  0.
         25    1    1    2    0    0  0.10046416070E+03  0.70709663879E+02  0.41735594024E+03  0.45266310320E+03  0.12500000000E+03 0.  0.
</event>
<event>
 4    0  0.2151074E-002  0.4797647E+03  0.7546771E-02  0.1019200E+00
         21   -1    0    0  502  501  0.00000000000E+00  0.00000000000E+00  0.93636788204E+03  0.93636788204E+03  0.00000000000E+00 0. -1.
         21   -1    0    0  501  502 -0.00000000000E+00 -0.00000000000E+00 -0.24581597890E+03  0.24581597890E+03  0.00000000000E+00 0. -1.
         25    1    1    2    0    0 -0.19670766466E+03 -0.24030503462E+02  0.86108647585E+03  0.89239357310E+03  0.12500000000E+03 0.  0.
         25    1    1    2    0    0  0.19670766466E+03  0.24030503462E+02 -0.17053457271E+03  0.28979028783E+03  0.12500000000E+03 0.  0.
</event>
<event>
 4    0  0.2151074E-002  0.1889524E+03  0.7546771E-02  0.1159410E+00
         21   -1    0    0  502  501  0.00000000000E+00  0.00000000000E+00  0.41900509388E+02  0.41900509388E+02  0.00000000000E+00 0.  1.
         21   -1    0    0  501  502 -0.00000000000E+00 -0.00000000000E+00 -0.85208968136E+03  0.85208968136E+03  0.00000000000E+00 0.  1.
         25    1    1    2    0    0 -0.97981509181E+02  0.99576426653E+02 -0.46118347949E+03  0.49782631774E+03  0.12500000000E+03 0.  0.
         25    1    1    2    0    0  0.97981509181E+02 -0.99576426653E+02 -0.34900569249E+03  0.39616387300E+03  0.12500000000E+03 0.  0.
</event>
<event>
 4    0  0.2151074E-002  0.1627568E+03  0.7546771E-02  0.1185619E+00
         21   -1    0    0  502  501  0.00000000000E+00  0.00000000000E+00  0.19819250088E+02  0.19819250088E+02  0.00000000000E+00 0.  1.
         21   -1    0    0  501  502 -0.00000000000E+00 -0.00000000000E+00 -0.13365684731E+04  0.13365684731E+04  0.00000000000E+00 0.  1.
         25    1    1    2    0    0  0.98968632826E+02 -0.32658030520E+02 -0.65063761609E+03  0.67068296885E+03  0.12500000000E+03 0.  0.
         25    1    1    2    0    0 -0.98968632826E+02  0.32658030520E+02 -0.66611160696E+03  0.68570475437E+03  0.12500000000E+03 0.  0.
</event>
<event>
 4    0  0.2151074E-002  0.2727989E+03  0.7546771E-02  0.1099688E+00
         21   -1    0    0  502  501  0.00000000000E+00  0.00000000000E+00  0.87647254104E+03  0.87647254104E+03  0.00000000000E+00 0. -1.
         21   -1    0    0  501  502 -0.00000000000E+00 -0.00000000000E+00 -0.84907667139E+02  0.84907667139E+02  0.00000000000E+00 0. -1.
         25    1    1    2    0    0  0.10597243248E+03  0.15121624519E+03  0.67270037220E+03  0.70869408070E+03  0.12500000000E+03 0.  0.
         25    1    1    2    0    0 -0.10597243248E+03 -0.15121624519E+03  0.11886450170E+03  0.25268612748E+03  0.12500000000E+03 0.  0.
</event>
<event>
 4    0  0.2151074E-002  0.3310153E+03  0.7546771E-02  0.1070689E+00
         21   -1    0    0  502  501  0.00000000000E+00  0.00000000000E+00  0.10375828821E+03  0.10375828821E+03  0.00000000000E+00 0.  1.
         21   -1    0    0  501  502 -0.00000000000E+00 -0.00000000000E+00 -0.10560230416E+04  0.10560230416E+04  0.00000000000E+00 0.  1.
         25    1    1    2    0    0  0.30488937745E+03 -0.27794338073E+02 -0.50188436293E+03  0.60103491701E+03  0.12500000000E+03 0.  0.
         25    1    1    2    0    0 -0.30488937745E+03  0.27794338073E+02 -0.45038039050E+03  0.55874641284E+03  0.12500000000E+03 0.  0.
</event>
<event>
 4    0  0.2151074E-002  0.1655442E+03  0.7546771E-02  0.1182576E+00
         21   -1    0    0  502  501  0.00000000000E+00  0.00000000000E+00  0.33092252116E+02  0.33092252116E+02  0.00000000000E+00 0.  1.
         21   -1    0    0  501  502 -0.00000000000E+00 -0.00000000000E+00 -0.82813637168E+03  0.82813637168E+03  0.00000000000E+00 0.  1.
         25    1    1    2    0    0  0.89577908794E+02  0.26785919975E+02 -0.25414380584E+03  0.29825452436E+03  0.12500000000E+03 0.  0.
         25    1    1    2    0    0 -0.89577908794E+02 -0.26785919975E+02 -0.54090031372E+03  0.56297409944E+03  0.12500000000E+03 0.  0.
</event>
<event>
 4    0  0.2151074E-002  0.2137509E+03  0.7546771E-02  0.1138630E+00
         21   -1    0    0  502  501  0.00000000000E+00  0.00000000000E+00  0.82171574717E+02  0.82171574717E+02  0.00000000000E+00 0.  1.
         21   -1    0    0  501  502 -0.00000000000E+00 -0.00000000000E+00 -0.55602517556E+03  0.55602517556E+03  0.00000000000E+00 0.  1.
         25    1    1    2    0    0 -0.42704124275E+02 -0.38150625248E+02 -0.48125029837E+03  0.50050570638E+03  0.12500000000E+03 0.  0.
         25    1    1    2    0    0  0.42704124275E+02  0.38150625248E+02  0.73966975206E+01  0.13769104390E+03  0.12500000000E+03 0.  0.
</event>
<event>
 4    0  0.2151074E-002  0.3355027E+03  0.7546771E-02  0.1068728E+00
         21   -1    0    0  502  501  0.00000000000E+00  0.00000000000E+00  0.16997075664E+04  0.16997075664E+04  0.00000000000E+00 0. -1.
         21   -1    0    0  501  502 -0.00000000000E+00 -0.00000000000E+00 -0.66224360279E+02  0.66224360279E+02  0.00000000000E+00 0. -1.
         25    1    1    2    0    0  0.19295935200E+00 -0.14003122978E+03  0.84899986333E+02  0.20601405347E+03  0.12500000000E+03 0.  0.
         25    1    1    2    0    0 -0.19295935200E+00  0.14003122978E+03  0.15485832198E+04  0.15599178732E+04  0.12500000000E+03 0.  0.
</event>
<event>
 4    0  0.2151074E-002  0.1681340E+03  0.7546771E-02  0.1179808E+00
         21   -1    0    0  502  501  0.00000000000E+00  0.00000000000E+00  0.65066717665E+02  0.65066717665E+02  0.00000000000E+00 0. -1.
         21   -1    0    0  501  502 -0.00000000000E+00 -0.00000000000E+00 -0.43446263834E+03  0.43446263834E+03  0.00000000000E+00 0. -1.
         25    1    1    2    0    0 -0.33798107834E+02 -0.67911113034E+01 -0.34369343967E+03  0.36733991310E+03  0.12500000000E+03 0.  0.
         25    1    1    2    0    0  0.33798107834E+02  0.67911113034E+01 -0.25702481010E+02  0.13218944291E+03  0.12500000000E+03 0.  0.
</event>
<event>
 4    0  0.2151074E-002  0.3589946E+03  0.7546771E-02  0.1058983E+00
         21   -1    0    0  502  501  0.00000000000E+00  0.00000000000E+00  0.15420964187E+03  0.15420964187E+03  0.00000000000E+00 0. -1.
         21   -1    0    0  501  502 -0.00000000000E+00 -0.00000000000E+00 -0.83572672511E+03  0.83572672511E+03  0.00000000000E+00 0. -1.
         25    1    1    2    0    0 -0.64649784320E+02 -0.65997448430E+02  0.10540870152E+03  0.18780642206E+03  0.12500000000E+03 0.  0.
         25    1    1    2    0    0  0.64649784320E+02  0.65997448430E+02 -0.78692578476E+03  0.80212994491E+03  0.12500000000E+03 0.  0.
</event>
<event>
 4    0  0.2151074E-002  0.2311165E+03  0.7546771E-02  0.1125856E+00
         21   -1    0    0  502  501  0.00000000000E+00  0.00000000000E+00  0.26370549840E+04  0.26370549840E+04  0.00000000000E+00 0. -1.
         21   -1    0    0  501  502 -0.00000000000E+00 -0.00000000000E+00 -0.20255484916E+02  0.20255484916E+02  0.00000000000E+00 0. -1.
         25    1    1    2    0    0 -0.26717664111E+02  0.10105198474E+03  0.22506596083E+04  0.22565502454E+04  0.12500000000E+03 0.  0.
         25    1    1    2    0    0  0.26717664111E+02 -0.10105198474E+03  0.36613989076E+03  0.40076022358E+03  0.12500000000E+03 0.  0.
</event>
<event>
 4    0  0.2151074E-002  0.2236342E+03  0.7546771E-02  0.1131202E+00
         21   -1    0    0  502  501  0.00000000000E+00  0.00000000000E+00  0.19368878676E+03  0.19368878676E+03  0.00000000000E+00 0.  1.
         21   -1    0    0  501  502 -0.00000000000E+00 -0.00000000000E+00 -0.25820945979E+03  0.25820945979E+03  0.00000000000E+00 0.  1.
         25    1    1    2    0    0  0.12574855662E+03  0.39233645505E+02  0.99610032460E+02  0.20712106845E+03  0.12500000000E+03 0.  0.
         25    1    1    2    0    0 -0.12574855662E+03 -0.39233645505E+02 -0.16413070549E+03  0.24477717810E+03  0.12500000000E+03 0.  0.
</event>
<event>
 4    0  0.2151074E-002  0.2293455E+03  0.7546771E-02  0.1127101E+00
         21   -1    0    0  502  501  0.00000000000E+00  0.00000000000E+00  0.38757306186E+02  0.38757306186E+02  0.00000000000E+00 0.  1.
         21   -1    0    0  501  502 -0.00000000000E+00 -0.00000000000E+00 -0.13571466141E+04  0.13571466141E+04  0.00000000000E+00 0.  1.
         25    1    1    2    0    0 -0.17095720700E+02  0.12311551057E+03 -0.11056761324E+04  0.11196403005E+04  0.12500000000E+03 0.  0.
         25    1    1    2    0    0  0.17095720700E+02 -0.12311551057E+03 -0.21271317548E+03  0.27626361982E+03  0.12500000000E+03 0.  0.
</event>
<event>
 4    0  0.2151074E-002  0.1710116E+03  0.7546771E-02  0.1176797E+00
         21   -1    0    0  502  501  0.00000000000E+00  0.00000000000E+00  0.37351282348E+02  0.37351282348E+02  0.00000000000E+00 0.  1.
         21   -1    0    0  501  502 -0.00000000000E+00 -0.00000000000E+00 -0.78297076400E+03  0.78297076400E+03  0.00000000000E+00 0.  1.
         25    1    1    2    0    0  0.37852049474E+02  0.10441591137E+03 -0.45876970554E+03  0.48829305025E+03  0.12500000000E+03 0.  0.
         25    1    1    2    0    0 -0.37852049474E+02 -0.10441591137E+03 -0.28684977611E+03  0.33202899610E+03  0.12500000000E+03 0.  0.
</event>
<event>
 4    0  0.2151074E-002  0.1895386E+03  0.7546771E-02  0.1158878E+00
         21   -1    0    0  502  501  0.00000000000E+00  0.00000000000E+00  0.26423910948E+03  0.26423910948E+03  0.00000000000E+00 0.  1.
         21   -1    0    0  501  502 -0.00000000000E+00 -0.00000000000E+00 -0.13595589618E+03  0.13595589618E+03  0.00000000000E+00 0.  1.
         25    1    1    2    0    0  0.13504441008E+03  0.37763120991E+02  0.37500511056E+02  0.19155765276E+03  0.12500000000E+03 0.  0.
         25    1    1    2    0    0 -0.13504441008E+03 -0.37763120991E+02  0.90782702242E+02  0.20863735291E+03  0.12500000000E+03 0.  0.
</event>
<event>
 4    0  0.2151074E-002  0.3042480E+03  0.7546771E-02  0.1083136E+00
         21   -1    0    0  502  501  0.00000000000E+00  0.00000000000E+00  0.13277758514E+04  0.13277758514E+04  0.00000000000E+00 0.  1.
         21   -1    0    0  501  502 -0.00000000000E+00 -0.00000000000E+00 -0.69715695576E+02  0.69715695576E+02  0.00000000000E+00 0.  1.
         25    1    1    2    0    0 -0.21178129244E+03 -0.67065600055E+02  0.10105249279E+04  0.10421778833E+04  0.12500000000E+03 0.  0.
         25    1    1    2    0    0  0.21178129244E+03  0.67065600055E+02  0.24753522796E+03  0.35531366371E+03  0.12500000000E+03 0.  0.
</event>
<event>
 4    0  0.2151074E-002  0.3124433E+03  0.7546771E-02  0.1079181E+00
         21   -1    0    0  502  501  0.00000000000E+00  0.00000000000E+00  0.22394394423E+03  0.22394394423E+03  0.00000000000E+00 0. -1.
         21   -1    0    0  501  502 -0.00000000000E+00 -0.00000000000E+00 -0.43591617473E+03  0.43591617473E+03  0.00000000000E+00 0. -1.
         25    1    1    2    0    0  0.27643655261E+03  0.64946497733E+02 -0.14493648188E+03  0.34244240241E+03  0.12500000000E+03 0.  0.
         25    1    1    2    0    0 -0.27643655261E+03 -0.64946497733E+02 -0.67035748618E+02  0.31741771655E+03  0.12500000000E+03 0.  0.
</event>
<event>
 4    0  0.2151074E-002  0.2221827E+03  0.7546771E-02  0.1132266E+00
         21   -1    0    0  502  501  0.00000000000E+00  0.00000000000E+00  0.15104097721E+03  0.15104097721E+03  0.00000000000E+00 0.  1.
         21   -1    0    0  501  502 -0.00000000000E+00 -0.00000000000E+00 -0.32683286747E+03  0.32683286747E+03  0.00000000000E+00 0.  1.
         25    1    1    2    0    0  0.65246918515E+02  0.68593925760E+02  0.81383794818E+02  0.17666524583E+03  0.12500000000E+03 0.  0.
         25    1    1    2    0    0 -0.65246918515E+02 -0.68593925760E+02 -0.25717568508E+03  0.30120859885E+03  0.12500000000E+03 0.  0.
</event>
<event>
 4    0  0.2151074E-002  0.2099766E+03  0.7546771E-02  0.1141585E+00
         21   -1    0    0  502  501  0.00000000000E+00  0.00000000000E+00  0.11682549271E+03  0.11682549271E+03  0.00000000000E+00 0. -1.
         21   -1    0    0  501  502 -0.00000000000E+00 -0.00000000000E+00 -0.37740197313E+03  0.37740197313E+03  0.00000000000E+00 0. -1.
         25    1    1    2    0    0 -0.12144155306E+03  0.46015105074E+02 -0.25703881628E+03  0.31394170442E+03  0.12500000000E+03 0.  0.
         25    1    1    2    0    0  0.12144155306E+03 -0.46015105074E+02 -0.35376641395E+01  0.18028576142E+03  0.12500000000E+03 0.  0.
</event>
<event>
 4    0  0.2151074E-002  0.1894084E+03  0.7546771E-02  0.1158996E+00
         21   -1    0    0  502  501  0.00000000000E+00  0.00000000000E+00  0.10238464889E+04  0.10238464889E+04  0.00000000000E+00 0. -1.
         21   -1    0    0  501  502 -0.00000000000E+00 -0.00000000000E+00 -0.35039957082E+02  0.35039957082E+02  0.00000000000E+00 0. -1.
         25    1    1    2    0    0 -0.13153891390E+03 -0.40322375495E+02  0.39276394974E+03  0.43453066641E+03  0.12500000000E+03 0.  0.
         25    1    1    2    0    0  0.13153891390E+03  0.40322375495E+02  0.59604258209E+03  0.62435577958E+03  0.12500000000E+03 0.  0.
</event>
<event>
 4    0  0.2151074E-002  0.2647220E+03  0.7546771E-02  0.1104339E+00
         21   -1    0    0  502  501  0.00000000000E+00  0.00000000000E+00  0.25477531659E+03  0.25477531659E+03  0.00000000000E+00 0. -1.
         21   -1    0    0  501  502 -0.00000000000E+00 -0.00000000000E+00 -0.27505693114E+03  0.27505693114E+03  0.00000000000E+00 0. -1.
         25    1    1    2    0    0 -0.94769690141E+02 -0.14160010505E+03  0.14941525418E+03  0.25880842741E+03  0.12500000000E+03 0.  0.
         25    1    1    2    0    0  0.94769690141E+02  0.14160010505E+03 -0.16969686873E+03  0.27102382031E+03  0.12500000000E+03 0.  0.
</event>
<event>
 4    0  0.2151074E-002  0.3235764E+03  0.7546771E-02  0.1074015E+00
         21   -1    0    0  502  501  0.00000000000E+00  0.00000000000E+00  0.56142149151E+02  0.56142149151E+02  0.00000000000E+00 0.  1.
         21   -1    0    0  501  502 -0.00000000000E+00 -0.00000000000E+00 -0.18649394199E+04  0.18649394199E+04  0.00000000000E+00 0.  1.
         25    1    1    2    0    0  0.37712144673E+02  0.29510959218E+03 -0.97494875191E+03  0.10269673540E+04  0.12500000000E+03 0.  0.
         25    1    1    2    0    0 -0.37712144673E+02 -0.29510959218E+03 -0.83384851883E+03  0.89411421508E+03  0.12500000000E+03 0.  0.
</event>
<event>
 4    0  0.2151074E-002  0.2330409E+03  0.7546771E-02  0.1124518E+00
         21   -1    0    0  502  501  0.00000000000E+00  0.00000000000E+00  0.33592742088E+03  0.33592742088E+03  0.00000000000E+00 0. -1.
         21   -1    0    0  501  502 -0.00000000000E+00 -0.00000000000E+00 -0.16166609832E+03  0.16166609832E+03  0.00000000000E+00 0. -1.
         25    1    1    2    0    0  0.33248729692E+02 -0.18396348668E+03  0.15237753912E+03  0.27164675018E+03  0.12500000000E+03 0.  0.
         25    1    1    2    0    0 -0.33248729692E+02  0.18396348668E+03  0.21883783446E+02  0.22594676903E+03  0.12500000000E+03 0.  0.
</event>
<event>
 4    0  0.2151074E-002  0.2758800E+03  0.7546771E-02  0.1097961E+00
         21   -1    0    0  502  501  0.00000000000E+00  0.00000000000E+00  0.35256989208E+03  0.35256989208E+03  0.00000000000E+00 0. -1.
         21   -1    0    0  501  502 -0.00000000000E+00 -0.00000000000E+00 -0.21587144247E+03  0.21587144247E+03  0.00000000000E+00 0. -1.
         25    1    1    2    0    0  0.93787003144E+02  0.15496474230E+03  0.23973583563E+03  0.32543562220E+03  0.12500000000E+03 0.  0.
         25    1    1    2    0    0 -0.93787003144E+02 -0.15496474230E+03 -0.10303738602E+03  0.24300571235E+03  0.12500000000E+03 0.  0.
</event>
<event>
 4    0  0.2151074E-002  0.2733469E+03  0.7546771E-02  0.1099379E+00
         21   -1    0    0  502  501  0.00000000000E+00  0.00000000000E+00  0.21070386915E+04  0.21070386915E+04  0.00000000000E+00 0.  1.
         21   -1    0    0  501  502 -0.00000000000E+00 -0.00000000000E+00 -0.35461390832E+02  0.35461390832E+02  0.00000000000E+00 0.  1.
         25    1    1    2    0    0 -0.23290419864E+03 -0.66127099813E+02  0.95025324126E+03  0.98854609483E+03  0.12500000000E+03 0.  0.
         25    1    1    2    0    0  0.23290419864E+03  0.66127099813E+02  0.11213240595E+04  0.11539539876E+04  0.12500000000E+03 0.  0.
</event>
<event>
 4    0  0.2151074E-002  0.2698053E+03  0.7546771E-02  0.1101391E+00
         21   -1    0    0  502  501  0.00000000000E+00  0.00000000000E+00  0.31745308943E+03  0.31745308943E+03  0.00000000000E+00 0.  1.
         21   -1    0    0  501  502 -0.00000000000E+00 -0.00000000000E+00 -0.22930918945E+03  0.22930918945E+03  0.00000000000E+00 0.  1.
         25    1    1    2    0    0 -0.11304644260E+02 -0.19088735011E+03  0.18951575787E+03  0.29682822961E+03  0.12500000000E+03 0.  0.
         25    1    1    2    0    0  0.11304644260E+02  0.19088735011E+03 -0.10137185789E+03  0.24993404927E+03  0.12500000000E+03 0.  0.
</event>
<event>
 4    0  0.2151074E-002  0.2115863E+03  0.7546771E-02  0.1140316E+00
         21   -1    0    0  502  501  0.00000000000E+00  0.00000000000E+00  0.61813494859E+03  0.61813494859E+03  0.00000000000E+00 0.  1.
         21   -1    0    0  501  502 -0.00000000000E+00 -0.00000000000E+00 -0.72425561446E+02  0.72425561446E+02  0.00000000000E+00 0.  1.
         25    1    1    2    0    0 -0.76997077111E+02 -0.13936344289E+03  0.17235180715E+03  0.26585873039E+03  0.12500000000E+03 0.  0.
         25    1    1    2    0    0  0.76997077111E+02  0.13936344289E+03  0.37335757999E+03  0.42470177964E+03  0.12500000000E+03 0.  0.
</event>
<event>
 4    0  0.2151074E-002  0.1914084E+03  0.7546771E-02  0.1157197E+00
         21   -1    0    0  502  501  0.00000000000E+00  0.00000000000E+00  0.36019925840E+03  0.36019925840E+03  0.00000000000E+00 0.  1.
         21   -1    0    0  501  502 -0.00000000000E+00 -0.00000000000E+00 -0.10171366804E+03  0.10171366804E+03  0.00000000000E+00 0.  1.
         25    1    1    2    0    0 -0.35146013149E+02  0.83439378876E+02  0.26583478628E+03  0.30739308024E+03  0.12500000000E+03 0.  0.
         25    1    1    2    0    0  0.35146013149E+02 -0.83439378876E+02 -0.73491959121E+01  0.15451984619E+03  0.12500000000E+03 0.  0.
</event>
<event>
 4    0  0.2151074E-002  0.2996513E+03  0.7546771E-02  0.1085415E+00
         21   -1    0    0  502  501  0.00000000000E+00  0.00000000000E+00  0.25976783730E+03  0.25976783730E+03  0.00000000000E+00 0. -1.
         21   -1    0    0  501  502 -0.00000000000E+00 -0.00000000000E+00 -0.34565822749E+03  0.34565822749E+03  0.00000000000E+00 0. -1.
         25    1    1    2    0    0 -0.97680270047E+02 -0.24581851126E+03 -0.10839697058E+03  0.31199852382E+03  0.12500000000E+03 0.  0.
         25    1    1    2    0    0  0.97680270047E+02  0.24581851126E+03  0.22506580387E+02  0.29342754097E+03  0.12500000000E+03 0.  0.
</event>
<event>
 4    0  0.2151074E-002  0.2075392E+03  0.7546771E-02  0.1143530E+00
         21   -1    0    0  502  501  0.00000000000E+00  0.00000000000E+00  0.46632611340E+02  0.46632611340E+02  0.00000000000E+00 0.  1.
         21   -1    0    0  501  502 -0.00000000000E+00 -0.00000000000E+00 -0.92365664344E+03  0.92365664344E+03  0.00000000000E+00 0.  1.
         25    1    1    2    0    0  0.25111844422E+02 -0.14530329800E+03 -0.26196685552E+03  0.32556917319E+03  0.12500000000E+03 0.  0.
         25    1    1    2    0    0 -0.25111844422E+02  0.14530329800E+03 -0.61505717658E+03  0.64472008159E+03  0.12500000000E+03 0.  0.
</event>
<event>
 4    0  0.2151074E-002  0.2430862E+03  0.7546771E-02  0.1117754E+00
         21   -1    0    0  502  501  0.00000000000E+00  0.00000000000E+00  0.85312987520E+02  0.85312987520E+02  0.00000000000E+00 0. -1.
         21   -1    0    0  501  502 -0.00000000000E+00 -0.00000000000E+00 -0.69263646678E+03  0.69263646678E+03  0.00000000000E+00 0. -1.
         25    1    1    2    0    0 -0.19724712352E+03 -0.54745154758E+02 -0.36691179891E+03  0.43835228742E+03  0.12500000000E+03 0.  0.
         25    1    1    2    0    0  0.19724712352E+03  0.54745154758E+02 -0.24041168035E+03  0.33959716688E+03  0.12500000000E+03 0.  0.
</event>
<event>
 4    0  0.2151074E-002  0.2803935E+03  0.7546771E-02  0.1095474E+00
         21   -1    0    0  502  501  0.00000000000E+00  0.00000000000E+00  0.52451750431E+02  0.52451750431E+02  0.00000000000E+00 0. -1.
         21   -1    0    0  501  502 -0.00000000000E+00 -0.00000000000E+00 -0.14989108019E+04  0.14989108019E+04  0.00000000000E+00 0.  1.
         25    1    1    2    0    0 -0.20544367661E+03 -0.12166766952E+03 -0.93725274579E+03  0.97523219571E+03  0.12500000000E+03 0.  0.
         25    1    1    2    0    0  0.20544367661E+03  0.12166766952E+03 -0.50920630564E+03  0.57613035658E+03  0.12500000000E+03 0.  0.
</event>
<event>
 4    0  0.2151074E-002  0.1817306E+03  0.7546771E-02  0.1166139E+00
         21   -1    0    0  502  501  0.00000000000E+00  0.00000000000E+00  0.30370040347E+02  0.30370040347E+02  0.00000000000E+00 0. -1.
         21   -1    0    0  501  502 -0.00000000000E+00 -0.00000000000E+00 -0.10874537319E+04  0.10874537319E+04  0.00000000000E+00 0. -1.
         25    1    1    2    0    0 -0.27268699326E+01  0.13037680067E+03 -0.46738137803E+03  0.50107474343E+03  0.12500000000E+03 0.  0.
         25    1    1    2    0    0  0.27268699326E+01 -0.13037680067E+03 -0.58970231356E+03  0.61674902886E+03  0.12500000000E+03 0.  0.
</event>
<event>
 4    0  0.2151074E-002  0.2404345E+03  0.7546771E-02  0.1119504E+00
         21   -1    0    0  502  501  0.00000000000E+00  0.00000000000E+00  0.89648598193E+03  0.89648598193E+03  0.00000000000E+00 0.  1.
         21   -1    0    0  501  502 -0.00000000000E+00 -0.00000000000E+00 -0.64483707355E+02  0.64483707355E+02  0.00000000000E+00 0. -1.
         25    1    1    2    0    0 -0.97144896265E+02  0.15329294307E+03  0.60817932487E+03  0.64687166306E+03  0.12500000000E+03 0.  0.
         25    1    1    2    0    0  0.97144896265E+02 -0.15329294307E+03  0.22382294970E+03  0.31409802623E+03  0.12500000000E+03 0.  0.
</event>
<event>
 4    0  0.2151074E-002  0.1694076E+03  0.7546771E-02  0.1178467E+00
         21   -1    0    0  502  501  0.00000000000E+00  0.00000000000E+00  0.27819943084E+03  0.27819943084E+03  0.00000000000E+00 0. -1.
         21   -1    0    0  501  502 -0.00000000000E+00 -0.00000000000E+00 -0.10315962450E+03  0.10315962450E+03  0.00000000000E+00 0. -1.
         25    1    1    2    0    0 -0.26721587330E+02  0.54883511911E+02 -0.21303821998E+02  0.14073057927E+03  0.12500000000E+03 0.  0.
         25    1    1    2    0    0  0.26721587330E+02 -0.54883511911E+02  0.19634362833E+03  0.24062847607E+03  0.12500000000E+03 0.  0.
</event>
<event>
 4    0  0.2151074E-002  0.3079322E+03  0.7546771E-02  0.1081341E+00
         21   -1    0    0  502  501  0.00000000000E+00  0.00000000000E+00  0.17004093840E+04  0.17004093840E+04  0.00000000000E+00 0.  1.
         21   -1    0    0  501  502 -0.00000000000E+00 -0.00000000000E+00 -0.55764362903E+02  0.55764362903E+02  0.00000000000E+00 0.  1.
         25    1    1    2    0    0  0.48829076205E+02 -0.25684345170E+03  0.52537116158E+03  0.59999391229E+03  0.12500000000E+03 0.  0.
         25    1    1    2    0    0 -0.48829076205E+02  0.25684345170E+03  0.11192738595E+04  0.11561798346E+04  0.12500000000E+03 0.  0.
</event>
<event>
 4    0  0.2151074E-002  0.2102993E+03  0.7546771E-02  0.1141329E+00
         21   -1    0    0  502  501  0.00000000000E+00  0.00000000000E+00  0.92475480799E+02  0.92475480799E+02  0.00000000000E+00 0. -1.
         21   -1    0    0  501  502 -0.00000000000E+00 -0.00000000000E+00 -0.47824358988E+03  0.47824358988E+03  0.00000000000E+00 0. -1.
         25    1    1    2    0    0 -0.13479563603E+03  0.84609450084E+02 -0.11526410997E+03  0.23289361860E+03  0.12500000000E+03 0.  0.
         25    1    1    2    0    0  0.13479563603E+03 -0.84609450084E+02 -0.27050399911E+03  0.33782545208E+03  0.12500000000E+03 0.  0.
</event>
<event>
 4    0  0.2151074E-002  0.2369958E+03  0.7546771E-02  0.1121810E+00
         21   -1    0    0  502  501  0.00000000000E+00  0.00000000000E+00  0.92936515563E+02  0.92936515563E+02  0.00000000000E+00 0.  1.
         21   -1    0    0  501  502 -0.00000000000E+00 -0.00000000000E+00 -0.60435907905E+03  0.60435907905E+03  0.00000000000E+00 0.  1.
         25    1    1    2    0    0  0.62922061454E+02  0.18304461373E+03 -0.33732177088E+03  0.40850397005E+03  0.12500000000E+03 0.  0.
         25    1    1    2    0    0 -0.62922061454E+02 -0.18304461373E+03 -0.17410079260E+03  0.28879162456E+03  0.12500000000E+03 0.  0.
</event>
<event>
 4    0  0.2151074E-002  0.2129023E+03  0.7546771E-02  0.1139288E+00
         21   -1    0    0  502  501  0.00000000000E+00  0.00000000000E+00  0.29627352163E+02  0.29627352163E+02  0.00000000000E+00 0. -1.
         21   -1    0    0  501  502 -0.00000000000E+00 -0.00000000000E+00 -0.15299176114E+04  0.15299176114E+04  0.00000000000E+00 0. -1.
         25    1    1    2    0    0  0.47734713258E+02 -0.59045478650E+02 -0.18348026938E+03  0.23463797786E+03  0.12500000000E+03 0.  0.
         25    1    1    2    0    0 -0.47734713258E+02  0.59045478650E+02 -0.13168099898E+04  0.13249069857E+04  0.12500000000E+03 0.  0.
</event>
<event>
 4    0  0.2151074E-002  0.3011739E+03  0.7546771E-02  0.1084655E+00
         21   -1    0    0  502  501  0.00000000000E+00  0.00000000000E+00  0.22687207051E+03  0.22687207051E+03  0.00000000000E+00 0. -1.
         21   -1    0    0  501  502 -0.00000000000E+00 -0.00000000000E+00 -0.39981006343E+03  0.39981006343E+03  0.00000000000E+00 0. -1.
         25    1    1    2    0    0 -0.18394340362E+03  0.10610150651E+03  0.93697452601E+02  0.26362268120E+03  0.12500000000E+03 0.  0.
         25    1    1    2    0    0  0.18394340362E+03 -0.10610150651E+03 -0.26663544552E+03  0.36305945274E+03  0.12500000000E+03 0.  0.
</event>
<event>
 4    0  0.2151074E-002  0.2022637E+03  0.7546771E-02  0.1147843E+00
         21   -1    0    0  502  501  0.00000000000E+00  0.00000000000E+00  0.63673414554E+02  0.63673414554E+02  0.00000000000E+00 0. -1.
         21   -1    0    0  501  502 -0.00000000000E+00 -0.00000000000E+00 -0.64250686895E+03  0.64250686895E+03  0.00000000000E+00 0. -1.
         25    1    1    2    0    0  0.60587642559E+02  0.14644893254E+03 -0.26682677404E+03  0.33457387767E+03  0.12500000000E+03 0.  0.
         25    1    1    2    0    0 -0.60587642559E+02 -0.14644893254E+03 -0.31200668036E+03  0.37160640584E+03  0.12500000000E+03 0.  0.
</event>
<event>
 4    0  0.2151074E-002  0.2492539E+03  0.7546771E-02  0.1113777E+00
         21   -1    0    0  502  501  0.00000000000E+00  0.00000000000E+00  0.95726374710E+03  0.95726374710E+03  0.00000000000E+00 0.  1.
         21   -1    0    0  501  502 -0.00000000000E+00 -0.00000000000E+00 -0.64901160010E+02  0.64901160010E+02  0.00000000000E+00 0.  1.
         25    1    1    2    0    0  0.10121273872E+03 -0.73479381511E+02  0.85982795312E+02  0.19662471634E+03  0.12500000000E+03 0.  0.
         25    1    1    2    0    0 -0.10121273872E+03  0.73479381511E+02  0.80637979177E+03  0.82554019076E+03  0.12500000000E+03 0.  0.
</event>
<event>
 4    0  0.2151074E-002  0.2167775E+03  0.7546771E-02  0.1136309E+00
         21   -1    0    0  502  501  0.00000000000E+00  0.00000000000E+00  0.17740341015E+03  0.17740341015E+03  0.00000000000E+00 0.  1.
         21   -1    0    0  501  502 -0.00000000000E+00 -0.00000000000E+00 -0.26489065560E+03  0.26489065560E+03  0.00000000000E+00 0.  1.
         25    1    1    2    0    0  0.15876163816E+03 -0.44757710823E+02 -0.10953379519E+03  0.23416054902E+03  0.12500000000E+03 0.  0.
         25    1    1    2    0    0 -0.15876163816E+03  0.44757710823E+02  0.22046549735E+02  0.20813351672E+03  0.12500000000E+03 0.  0.
</event>
<event>
 4    0  0.2151074E-002  0.2130659E+03  0.7546771E-02  0.1139161E+00
         21   -1    0    0  502  501  0.00000000000E+00  0.00000000000E+00  0.54528387060E+02  0.54528387060E+02  0.00000000000E+00 0.  1.
         21   -1    0    0  501  502 -0.00000000000E+00 -0.00000000000E+00 -0.83254060765E+03  0.83254060765E+03  0.00000000000E+00 0.  1.
         25    1    1    2    0    0  0.76144565183E+01  0.15058029996E+03 -0.21434744891E+03  0.29034847259E+03  0.12500000000E+03 0.  0.
         25    1    1    2    0    0 -0.76144565183E+01 -0.15058029996E+03 -0.56366477168E+03  0.59672052212E+03  0.12500000000E+03 0.  0.
</event>
<event>
 4    0  0.2151074E-002  0.2541715E+03  0.7546771E-02  0.1110697E+00
         21   -1    0    0  502  501  0.00000000000E+00  0.00000000000E+00  0.62152320581E+02  0.62152320581E+02  0.00000000000E+00 0. -1.
         21   -1    0    0  501  502 -0.00000000000E+00 -0.00000000000E+00 -0.10394325631E+04  0.10394325631E+04  0.00000000000E+00 0. -1.
         25    1    1    2    0    0 -0.86309167823E+02 -0.16123732024E+03 -0.21857627968E+03  0.31120304614E+03  0.12500000000E+03 0.  0.
         25    1    1    2    0    0  0.86309167823E+02  0.16123732024E+03 -0.75870396288E+03  0.79038183758E+03  0.12500000000E+03 0.  0.
</event>
<event>
 4    0  0.2151074E-002  0.2152315E+03  0.7546771E-02  0.1137489E+00
         21   -1    0    0  502  501  0.00000000000E+00  0.00000000000E+00  0.61217239060E+02  0.61217239060E+02  0.00000000000E+00 0.  1.
         21   -1    0    0  501  502 -0.00000000000E+00 -0.00000000000E+00 -0.75672474174E+03  0.75672474174E+03  0.00000000000E+00 0.  1.
         25    1    1    2    0    0  0.15597917744E+03  0.51333602173E+02 -0.23162775185E+03  0.31022742937E+03  0.12500000000E+03 0.  0.
         25    1    1    2    0    0 -0.15597917744E+03 -0.51333602173E+02 -0.46387975083E+03  0.50771455143E+03  0.12500000000E+03 0.  0.
</event>
<event>
 4    0  0.2151074E-002  0.2272830E+03  0.7546771E-02  0.1128567E+00
         21   -1    0    0  502  501  0.00000000000E+00  0.00000000000E+00  0.87698694495E+03  0.87698694495E+03  0.00000000000E+00 0.  1.
         21   -1    0    0  501  502 -0.00000000000E+00 -0.00000000000E+00 -0.58903461903E+02  0.58903461903E+02  0.00000000000E+00 0.  1.
         25    1    1    2    0    0  0.18495771483E+03  0.38284212419E+02  0.37011175867E+03  0.43391560366E+03  0.12500000000E+03 0.  0.
         25    1    1    2    0    0 -0.18495771483E+03 -0.38284212419E+02  0.44797172437E+03  0.50197480319E+03  0.12500000000E+03 0.  0.
</event>
<event>
 4    0  0.2151074E-002  0.4266760E+03  0.7546771E-02  0.1034915E+00
         21   -1    0    0  502  501  0.00000000000E+00  0.00000000000E+00  0.49951064895E+03  0.49951064895E+03  0.00000000000E+00 0.  1.
         21   -1    0    0  501  502 -0.00000000000E+00 -0.00000000000E+00 -0.36446155570E+03  0.36446155570E+03  0.00000000000E+00 0.  1.
         25    1    1    2    0    0  0.56817609198E+01 -0.26102818295E+03 -0.24984018695E+03  0.38237823385E+03  0.12500000000E+03 0.  0.
         25    1    1    2    0    0 -0.56817609198E+01  0.26102818295E+03  0.38488928020E+03  0.48159397081E+03  0.12500000000E+03 0.  0.
</event>
<event>
 4    0  0.2151074E-002  0.1978132E+03  0.7546771E-02  0.1151597E+00
         21   -1    0    0  502  501  0.00000000000E+00  0.00000000000E+00  0.33516034949E+03  0.33516034949E+03  0.00000000000E+00 0.  1.
         21   -1    0    0  501  502 -0.00000000000E+00 -0.00000000000E+00 -0.11675032663E+03  0.11675032663E+03  0.00000000000E+00 0.  1.
         25    1    1    2    0    0  0.87700099095E+02 -0.64961300919E+02  0.23219795092E+03  0.28539825929E+03  0.12500000000E+03 0.  0.
         25    1    1    2    0    0 -0.87700099095E+02  0.64961300919E+02 -0.13787928051E+02  0.16651241683E+03  0.12500000000E+03 0.  0.
</event>
<event>
 4    0  0.2151074E-002  0.2896383E+03  0.7546771E-02  0.1090538E+00
         21   -1    0    0  502  501  0.00000000000E+00  0.00000000000E+00  0.59140938661E+02  0.59140938661E+02  0.00000000000E+00 0. -1.
         21   -1    0    0  501  502 -0.00000000000E+00 -0.00000000000E+00 -0.14184817185E+04  0.14184817185E+04  0.00000000000E+00 0. -1.
         25    1    1    2    0    0 -0.36863030405E+02 -0.16037847289E+03 -0.16200614170E+03  0.26258546708E+03  0.12500000000E+03 0.  0.
         25    1    1    2    0    0  0.36863030405E+02  0.16037847289E+03 -0.11973346381E+04  0.12150371900E+04  0.12500000000E+03 0.  0.
</event>
<event>
 4    0  0.2151074E-002  0.2065004E+03  0.7546771E-02  0.1144368E+00
         21   -1    0    0  502  501  0.00000000000E+00  0.00000000000E+00  0.55898330167E+02  0.55898330167E+02  0.00000000000E+00 0. -1.
         21   -1    0    0  501  502 -0.00000000000E+00 -0.00000000000E+00 -0.76285703697E+03  0.76285703697E+03  0.00000000000E+00 0. -1.
         25    1    1    2    0    0  0.12752526104E+03 -0.92376465560E+02 -0.44691439872E+03  0.49005467386E+03  0.12500000000E+03 0.  0.
         25    1    1    2    0    0 -0.12752526104E+03  0.92376465560E+02 -0.26004430808E+03  0.32870069327E+03  0.12500000000E+03 0.  0.
</event>
<event>
 4    0  0.2151074E-002  0.2054668E+03  0.7546771E-02  0.1145207E+00
         21   -1    0    0  502  501  0.00000000000E+00  0.00000000000E+00  0.10264722307E+03  0.10264722307E+03  0.00000000000E+00 0. -1.
         21   -1    0    0  501  502 -0.00000000000E+00 -0.00000000000E+00 -0.41127841040E+03  0.41127841040E+03  0.00000000000E+00 0. -1.
         25    1    1    2    0    0 -0.51491419828E+02 -0.10729254014E+03 -0.29373994415E+03  0.34069225156E+03  0.12500000000E+03 0.  0.
         25    1    1    2    0    0  0.51491419828E+02  0.10729254014E+03 -0.14891243185E+02  0.17323338192E+03  0.12500000000E+03 0.  0.
</event>
<event>
 4    0  0.2151074E-002  0.2397293E+03  0.7546771E-02  0.1119973E+00
         21   -1    0    0  502  501  0.00000000000E+00  0.00000000000E+00  0.39140432923E+02  0.39140432923E+02  0.00000000000E+00 0.  1.
         21   -1    0    0  501  502 -0.00000000000E+00 -0.00000000000E+00 -0.14683063240E+04  0.14683063240E+04  0.00000000000E+00 0.  1.
         25    1    1    2    0    0 -0.14703131236E+03 -0.14112855080E+03 -0.65925548063E+03  0.70126903782E+03  0.12500000000E+03 0.  0.
         25    1    1    2    0    0  0.14703131236E+03  0.14112855080E+03 -0.76991041043E+03  0.80617771909E+03  0.12500000000E+03 0.  0.
</event>
<event>
 4    0  0.2151074E-002  0.2130184E+03  0.7546771E-02  0.1139198E+00
         21   -1    0    0  502  501  0.00000000000E+00  0.00000000000E+00  0.13476119945E+04  0.13476119945E+04  0.00000000000E+00 0.  1.
         21   -1    0    0  501  502 -0.00000000000E+00 -0.00000000000E+00 -0.33672022382E+02  0.33672022382E+02  0.00000000000E+00 0.  1.
         25    1    1    2    0    0 -0.10510738898E+03 -0.57827172669E+02  0.25514636066E+03  0.30840916082E+03  0.12500000000E+03 0.  0.
         25    1    1    2    0    0  0.10510738898E+03  0.57827172669E+02  0.10587936115E+04  0.10728748561E+04  0.12500000000E+03 0.  0.
</event>
<event>
 4    0  0.2151074E-002  0.2135772E+03  0.7546771E-02  0.1138764E+00
         21   -1    0    0  502  501  0.00000000000E+00  0.00000000000E+00  0.61131090185E+02  0.61131090185E+02  0.00000000000E+00 0.  1.
         21   -1    0    0  501  502 -0.00000000000E+00 -0.00000000000E+00 -0.74618683842E+03  0.74618683842E+03  0.00000000000E+00 0.  1.
         25    1    1    2    0    0  0.15544554025E+03  0.39416288788E+02 -0.21897889840E+03  0.29882054439E+03  0.12500000000E+03 0.  0.
         25    1    1    2    0    0 -0.15544554025E+03 -0.39416288788E+02 -0.46607684984E+03  0.50849738422E+03  0.12500000000E+03 0.  0.
</event>
<event>
 4    0  0.2151074E-002  0.2713148E+03  0.7546771E-02  0.1100529E+00
         21   -1    0    0  502  501  0.00000000000E+00  0.00000000000E+00  0.14059839244E+04  0.14059839244E+04  0.00000000000E+00 0.  1.
         21   -1    0    0  501  502 -0.00000000000E+00 -0.00000000000E+00 -0.52356008814E+02  0.52356008814E+02  0.00000000000E+00 0.  1.
         25    1    1    2    0    0  0.51432666492E+02  0.19110045322E+03  0.30810111636E+03  0.38693151888E+03  0.12500000000E+03 0.  0.
         25    1    1    2    0    0 -0.51432666492E+02 -0.19110045322E+03  0.10455267992E+04  0.10714084144E+04  0.12500000000E+03 0.  0.
</event>
<event>
 4    0  0.2151074E-002  0.1872533E+03  0.7546771E-02  0.1160962E+00
         21   -1    0    0  502  501  0.00000000000E+00  0.00000000000E+00  0.11014403627E+04  0.11014403627E+04  0.00000000000E+00 0. -1.
         21   -1    0    0  501  502 -0.00000000000E+00 -0.00000000000E+00 -0.31834502083E+02  0.31834502083E+02  0.00000000000E+00 0. -1.
         25    1    1    2    0    0 -0.29359859938E+02 -0.10473124879E+03  0.27085647673E+03  0.31751986841E+03  0.12500000000E+03 0.  0.
         25    1    1    2    0    0  0.29359859938E+02  0.10473124879E+03  0.79874938389E+03  0.81575499638E+03  0.12500000000E+03 0.  0.
</event>
<event>
 4    0  0.2151074E-002  0.1765477E+03  0.7546771E-02  0.1171187E+00
         21   -1    0    0  502  501  0.00000000000E+00  0.00000000000E+00  0.45586685575E+02  0.45586685575E+02  0.00000000000E+00 0.  1.
         21   -1    0    0  501  502 -0.00000000000E+00 -0.00000000000E+00 -0.68373203905E+03  0.68373203905E+03  0.00000000000E+00 0.  1.
         25    1    1    2    0    0 -0.10055347936E+03  0.14411197063E+02 -0.16976406420E+03  0.23401607275E+03  0.12500000000E+03 0.  0.
         25    1    1    2    0    0  0.10055347936E+03 -0.14411197063E+02 -0.46838128927E+03  0.49530265187E+03  0.12500000000E+03 0.  0.
</event>
<event>
 4    0  0.2151074E-002  0.1970418E+03  0.7546771E-02  0.1152259E+00
         21   -1    0    0  502  501  0.00000000000E+00  0.00000000000E+00  0.53635740203E+02  0.53635740203E+02  0.00000000000E+00 0. -1.
         21   -1    0    0  501  502 -0.00000000000E+00 -0.00000000000E+00 -0.72387283107E+03  0.72387283107E+03  0.00000000000E+00 0. -1.
         25    1    1    2    0    0 -0.64111298168E+02 -0.10861556038E+03 -0.16663179699E+03  0.24351335544E+03  0.12500000000E+03 0.  0.
         25    1    1    2    0    0  0.64111298168E+02  0.10861556038E+03 -0.50360529387E+03  0.53399521583E+03  0.12500000000E+03 0.  0.
</event>
<event>
 4    0  0.2151074E-002  0.2689181E+03  0.7546771E-02  0.1101900E+00
         21   -1    0    0  502  501  0.00000000000E+00  0.00000000000E+00  0.43498057600E+03  0.43498057600E+03  0.00000000000E+00 0. -1.
         21   -1    0    0  501  502 -0.00000000000E+00 -0.00000000000E+00 -0.16625326740E+03  0.16625326740E+03  0.00000000000E+00 0. -1.
         25    1    1    2    0    0 -0.34776614370E+02 -0.23253104230E+03  0.17636726960E+03  0.31939084572E+03  0.12500000000E+03 0.  0.
         25    1    1    2    0    0  0.34776614370E+02  0.23253104230E+03  0.92360038997E+02  0.28184299768E+03  0.12500000000E+03 0.  0.
</event>
<event>
 4    0  0.2151074E-002  0.1941372E+03  0.7546771E-02  0.1154782E+00
         21   -1    0    0  502  501  0.00000000000E+00  0.00000000000E+00  0.11469049301E+03  0.11469049301E+03  0.00000000000E+00 0. -1.
         21   -1    0    0  501  502 -0.00000000000E+00 -0.00000000000E+00 -0.32861709321E+03  0.32861709321E+03  0.00000000000E+00 0. -1.
         25    1    1    2    0    0  0.27632623461E+02  0.12177953580E+03 -0.19880359376E+03  0.26597309284E+03  0.12500000000E+03 0.  0.
         25    1    1    2    0    0 -0.27632623461E+02 -0.12177953580E+03 -0.15123006438E+02  0.17733449338E+03  0.12500000000E+03 0.  0.
</event>
<event>
 4    0  0.2151074E-002  0.2274564E+03  0.7546771E-02  0.1128443E+00
         21   -1    0    0  502  501  0.00000000000E+00  0.00000000000E+00  0.52360100276E+02  0.52360100276E+02  0.00000000000E+00 0. -1.
         21   -1    0    0  501  502 -0.00000000000E+00 -0.00000000000E+00 -0.98808810941E+03  0.98808810941E+03  0.00000000000E+00 0. -1.
         25    1    1    2    0    0  0.73761594901E+02  0.12233847765E+03 -0.75447733712E+03  0.77799005664E+03  0.12500000000E+03 0.  0.
         25    1    1    2    0    0 -0.73761594901E+02 -0.12233847765E+03 -0.18125067201E+03  0.26245815305E+03  0.12500000000E+03 0.  0.
</event>
<event>
 4    0  0.2151074E-002  0.2636419E+03  0.7546771E-02  0.1104975E+00
         21   -1    0    0  502  501  0.00000000000E+00  0.00000000000E+00  0.47598275351E+02  0.47598275351E+02  0.00000000000E+00 0.  1.
         21   -1    0    0  501  502 -0.00000000000E+00 -0.00000000000E+00 -0.14602853311E+04  0.14602853311E+04  0.00000000000E+00 0.  1.
         25    1    1    2    0    0 -0.21962334330E+03  0.34262534389E+02 -0.51506853469E+03  0.57474248983E+03  0.12500000000E+03 0.  0.
         25    1    1    2    0    0  0.21962334330E+03 -0.34262534389E+02 -0.89761852103E+03  0.93314111659E+03  0.12500000000E+03 0.  0.
</event>
<event>
 4    0  0.2151074E-002  0.1586749E+03  0.7546771E-02  0.1190201E+00
         21   -1    0    0  502  501  0.00000000000E+00  0.00000000000E+00  0.14155796803E+03  0.14155796803E+03  0.00000000000E+00 0. -1.
         21   -1    0    0  501  502 -0.00000000000E+00 -0.00000000000E+00 -0.17786163592E+03  0.17786163592E+03  0.00000000000E+00 0. -1.
         25    1    1    2    0    0 -0.64382461858E+02 -0.16890951562E+02  0.53885375842E+02  0.15152240550E+03  0.12500000000E+03 0.  0.
         25    1    1    2    0    0  0.64382461858E+02  0.16890951562E+02 -0.90189043734E+02  0.16789719846E+03  0.12500000000E+03 0.  0.
</event>
<event>
 4    0  0.2151074E-002  0.2347021E+03  0.7546771E-02  0.1123373E+00
         21   -1    0    0  502  501  0.00000000000E+00  0.00000000000E+00  0.95779830904E+02  0.95779830904E+02  0.00000000000E+00 0. -1.
         21   -1    0    0  501  502 -0.00000000000E+00 -0.00000000000E+00 -0.57512188600E+03  0.57512188600E+03  0.00000000000E+00 0. -1.
         25    1    1    2    0    0 -0.19472592828E+03 -0.14470386060E+02 -0.18749810406E+03  0.29817464387E+03  0.12500000000E+03 0.  0.
         25    1    1    2    0    0  0.19472592828E+03  0.14470386060E+02 -0.29184395104E+03  0.37272707304E+03  0.12500000000E+03 0.  0.
</event>
<event>
 4    0  0.2151074E-002  0.1654262E+03  0.7546771E-02  0.1182703E+00
         21   -1    0    0  502  501  0.00000000000E+00  0.00000000000E+00  0.10011309182E+04  0.10011309182E+04  0.00000000000E+00 0.  1.
         21   -1    0    0  501  502 -0.00000000000E+00 -0.00000000000E+00 -0.27334909513E+02  0.27334909513E+02  0.00000000000E+00 0.  1.
         25    1    1    2    0    0  0.70471782071E+01  0.88082743586E+02  0.68183532062E+03  0.69880801146E+03  0.12500000000E+03 0.  0.
         25    1    1    2    0    0 -0.70471782071E+01 -0.88082743586E+02  0.29196068806E+03  0.32965781624E+03  0.12500000000E+03 0.  0.
</event>
<event>
 4    0  0.2151074E-002  0.2928884E+03  0.7546771E-02  0.1088851E+00
         21   -1    0    0  502  501  0.00000000000E+00  0.00000000000E+00  0.21417700368E+03  0.21417700368E+03  0.00000000000E+00 0. -1.
         21   -1    0    0  501  502 -0.00000000000E+00 -0.00000000000E+00 -0.40052670587E+03  0.40052670587E+03  0.00000000000E+00 0. -1.
         25    1    1    2    0    0  0.97959424123E+02 -0.52265738444E+02 -0.34553076156E+03  0.38385448203E+03  0.12500000000E+03 0.  0.
         25    1    1    2    0    0 -0.97959424123E+02  0.52265738444E+02  0.15918105937E+03  0.23084922753E+03  0.12500000000E+03 0.  0.
</event>
<event>
 4    0  0.2151074E-002  0.2291600E+03  0.7546771E-02  0.1127232E+00
         21   -1    0    0  502  501  0.00000000000E+00  0.00000000000E+00  0.43325699463E+02  0.43325699463E+02  0.00000000000E+00 0.  1.
         21   -1    0    0  501  502 -0.00000000000E+00 -0.00000000000E+00 -0.12120825277E+04  0.12120825277E+04  0.00000000000E+00 0.  1.
         25    1    1    2    0    0  0.31989679498E+02  0.18924732826E+03 -0.56473419423E+03  0.60941578662E+03  0.12500000000E+03 0.  0.
         25    1    1    2    0    0 -0.31989679498E+02 -0.18924732826E+03 -0.60402263397E+03  0.64599244051E+03  0.12500000000E+03 0.  0.
</event>
<event>
 4    0  0.2151074E-002  0.2222542E+03  0.7546771E-02  0.1132214E+00
         21   -1    0    0  502  501  0.00000000000E+00  0.00000000000E+00  0.92689589989E+02  0.92689589989E+02  0.00000000000E+00 0.  1.
         21   -1    0    0  501  502 -0.00000000000E+00 -0.00000000000E+00 -0.53292863510E+03  0.53292863510E+03  0.00000000000E+00 0.  1.
         25    1    1    2    0    0 -0.16270898026E+02 -0.94192798301E+02  0.78514333517E+00  0.15736150045E+03  0.12500000000E+03 0.  0.
         25    1    1    2    0    0  0.16270898026E+02  0.94192798301E+02 -0.44102418844E+03  0.46825672464E+03  0.12500000000E+03 0.  0.
</event>
<event>
 4    0  0.2151074E-002  0.1940927E+03  0.7546771E-02  0.1154821E+00
         21   -1    0    0  502  501  0.00000000000E+00  0.00000000000E+00  0.70054480977E+03  0.70054480977E+03  0.00000000000E+00 0. -1.
         21   -1    0    0  501  502 -0.00000000000E+00 -0.00000000000E+00 -0.53775278133E+02  0.53775278133E+02  0.00000000000E+00 0. -1.
         25    1    1    2    0    0  0.33217732752E+02 -0.42637635335E+02  0.54649915519E+02  0.14674126544E+03  0.12500000000E+03 0.  0.
         25    1    1    2    0    0 -0.33217732752E+02  0.42637635335E+02  0.59211961612E+03  0.60757882247E+03  0.12500000000E+03 0.  0.
</event>
<event>
 4    0  0.2151074E-002  0.1741675E+03  0.7546771E-02  0.1173570E+00
         21   -1    0    0  502  501  0.00000000000E+00  0.00000000000E+00  0.47910718208E+02  0.47910718208E+02  0.00000000000E+00 0. -1.
         21   -1    0    0  501  502 -0.00000000000E+00 -0.00000000000E+00 -0.63314269172E+03  0.63314269172E+03  0.00000000000E+00 0. -1.
         25    1    1    2    0    0  0.83431568011E+02 -0.15474845361E+02 -0.46204031568E+03  0.48611372198E+03  0.12500000000E+03 0.  0.
         25    1    1    2    0    0 -0.83431568011E+02  0.15474845361E+02 -0.12319165783E+03  0.19493968795E+03  0.12500000000E+03 0.  0.
</event>
<event>
 4    0  0.2151074E-002  0.1806516E+03  0.7546771E-02  0.1167174E+00
         21   -1    0    0  502  501  0.00000000000E+00  0.00000000000E+00  0.28735577120E+03  0.28735577120E+03  0.00000000000E+00 0.  1.
         21   -1    0    0  501  502 -0.00000000000E+00 -0.00000000000E+00 -0.11357003108E+03  0.11357003108E+03  0.00000000000E+00 0.  1.
         25    1    1    2    0    0  0.29808992467E+02  0.11739725885E+03  0.14056343912E+03  0.22372700516E+03  0.12500000000E+03 0.  0.
         25    1    1    2    0    0 -0.29808992467E+02 -0.11739725885E+03  0.33222300989E+02  0.17719879712E+03  0.12500000000E+03 0.  0.
</event>
<event>
 4    0  0.2151074E-002  0.2218729E+03  0.7546771E-02  0.1132494E+00
         21   -1    0    0  502  501  0.00000000000E+00  0.00000000000E+00  0.46634547158E+02  0.46634547158E+02  0.00000000000E+00 0.  1.
         21   -1    0    0  501  502 -0.00000000000E+00 -0.00000000000E+00 -0.10556032581E+04  0.10556032581E+04  0.00000000000E+00 0.  1.
         25    1    1    2    0    0  0.72347819185E+02 -0.20073138426E+02 -0.89098304293E+02  0.17088196410E+03  0.12500000000E+03 0.  0.
         25    1    1    2    0    0 -0.72347819185E+02  0.20073138426E+02 -0.91987040667E+03  0.93135584118E+03  0.12500000000E+03 0.  0.
</event>
<event>
 4    0  0.2151074E-002  0.2017528E+03  0.7546771E-02  0.1148269E+00
         21   -1    0    0  502  501  0.00000000000E+00  0.00000000000E+00  0.13829584622E+03  0.13829584622E+03  0.00000000000E+00 0.  1.
         21   -1    0    0  501  502 -0.00000000000E+00 -0.00000000000E+00 -0.29432704627E+03  0.29432704627E+03  0.00000000000E+00 0.  1.
         25    1    1    2    0    0 -0.99024535770E+02  0.12272949264E+03 -0.93583020572E+02  0.22192604351E+03  0.12500000000E+03 0.  0.
         25    1    1    2    0    0  0.99024535770E+02 -0.12272949264E+03 -0.62448179479E+02  0.21069684898E+03  0.12500000000E+03 0.  0.
</event>
<event>
 4    0  0.2151074E-002  0.1938193E+03  0.7546771E-02  0.1155061E+00
         21   -1    0    0  502  501  0.00000000000E+00  0.00000000000E+00  0.24759496636E+03  0.24759496636E+03  0.00000000000E+00 0. -1.
         21   -1    0    0  501  502 -0.00000000000E+00 -0.00000000000E+00 -0.15172333346E+03  0.15172333346E+03  0.00000000000E+00 0. -1.
         25    1    1    2    0    0  0.62030915642E+02 -0.12512959748E+03  0.98775460950E+02  0.21186515133E+03  0.12500000000E+03 0.  0.
         25    1    1    2    0    0 -0.62030915642E+02  0.12512959748E+03 -0.29038280470E+01  0.18745314849E+03  0.12500000000E+03 0.  0.
</event>
<event>
 4    0  0.2151074E-002  0.1788839E+03  0.7546771E-02  0.1168888E+00
         21   -1    0    0  502  501  0.00000000000E+00  0.00000000000E+00  0.50542779139E+03  0.50542779139E+03  0.00000000000E+00 0. -1.
         21   -1    0    0  501  502 -0.00000000000E+00 -0.00000000000E+00 -0.63311586404E+02  0.63311586404E+02  0.00000000000E+00 0. -1.
         25    1    1    2    0    0 -0.65233874207E+02  0.40104426107E+02  0.58081167168E+02  0.15767766271E+03  0.12500000000E+03 0.  0.
         25    1    1    2    0    0  0.65233874207E+02 -0.40104426107E+02  0.38403503782E+03  0.41106171509E+03  0.12500000000E+03 0.  0.
</event>
<event>
 4    0  0.2151074E-002  0.1881054E+03  0.7546771E-02  0.1160181E+00
         21   -1    0    0  502  501  0.00000000000E+00  0.00000000000E+00  0.29569471052E+02  0.29569471052E+02  0.00000000000E+00 0. -1.
         21   -1    0    0  501  502 -0.00000000000E+00 -0.00000000000E+00 -0.11966279649E+04  0.11966279649E+04  0.00000000000E+00 0. -1.
         25    1    1    2    0    0  0.13897328793E+03 -0.94755049037E+01 -0.52209306395E+03  0.55462557403E+03  0.12500000000E+03 0.  0.
         25    1    1    2    0    0 -0.13897328793E+03  0.94755049037E+01 -0.64496542986E+03  0.67157186188E+03  0.12500000000E+03 0.  0.
</event>
<event>
 4    0  0.2151074E-002  0.2428001E+03  0.7546771E-02  0.1117941E+00
         21   -1    0    0  502  501  0.00000000000E+00  0.00000000000E+00  0.18793815010E+04  0.18793815010E+04  0.00000000000E+00 0. -1.
         21   -1    0    0  501  502 -0.00000000000E+00 -0.00000000000E+00 -0.31367705055E+02  0.31367705055E+02  0.00000000000E+00 0. -1.
         25    1    1    2    0    0  0.69079057782E+02 -0.17905620494E+03  0.60692184790E+03  0.64870037013E+03  0.12500000000E+03 0.  0.
         25    1    1    2    0    0 -0.69079057782E+02  0.17905620494E+03  0.12410919480E+04  0.12620488359E+04  0.12500000000E+03 0.  0.
</event>
<event>
 4    0  0.2151074E-002  0.2789684E+03  0.7546771E-02  0.1096254E+00
         21   -1    0    0  502  501  0.00000000000E+00  0.00000000000E+00  0.17807719061E+03  0.17807719061E+03  0.00000000000E+00 0.  1.
         21   -1    0    0  501  502 -0.00000000000E+00 -0.00000000000E+00 -0.43702045260E+03  0.43702045260E+03  0.00000000000E+00 0.  1.
         25    1    1    2    0    0  0.82204687685E+02  0.87477809653E+02 -0.37047342080E+03  0.40900554199E+03  0.12500000000E+03 0.  0.
         25    1    1    2    0    0 -0.82204687685E+02 -0.87477809653E+02  0.11153015881E+03  0.20609210121E+03  0.12500000000E+03 0.  0.
</event>
<event>
 4    0  0.2151074E-002  0.1928935E+03  0.7546771E-02  0.1155877E+00
         21   -1    0    0  502  501  0.00000000000E+00  0.00000000000E+00  0.36163440617E+03  0.36163440617E+03  0.00000000000E+00 0.  1.
         21   -1    0    0  501  502 -0.00000000000E+00 -0.00000000000E+00 -0.10288812184E+03  0.10288812184E+03  0.00000000000E+00 0.  1.
         25    1    1    2    0    0  0.20750962061E+02 -0.14381496905E+03  0.15546435378E+03  0.24679447531E+03  0.12500000000E+03 0.  0.
         25    1    1    2    0    0 -0.20750962061E+02  0.14381496905E+03  0.10328193056E+03  0.21772805269E+03  0.12500000000E+03 0.  0.
</event>
<event>
 4    0  0.2151074E-002  0.3496206E+03  0.7546771E-02  0.1062771E+00
         21   -1    0    0  502  501  0.00000000000E+00  0.00000000000E+00  0.18014204109E+03  0.18014204109E+03  0.00000000000E+00 0.  1.
         21   -1    0    0  501  502 -0.00000000000E+00 -0.00000000000E+00 -0.67854528329E+03  0.67854528329E+03  0.00000000000E+00 0.  1.
         25    1    1    2    0    0 -0.31234829719E+03  0.54165581185E+01 -0.13257951009E+03  0.36165332067E+03  0.12500000000E+03 0.  0.
         25    1    1    2    0    0  0.31234829719E+03 -0.54165581185E+01 -0.36582373212E+03  0.49703400370E+03  0.12500000000E+03 0.  0.
</event>
<event>
 4    0  0.2151074E-002  0.3756606E+03  0.7546771E-02  0.1052549E+00
         21   -1    0    0  502  501  0.00000000000E+00  0.00000000000E+00  0.25630213197E+03  0.25630213197E+03  0.00000000000E+00 0. -1.
         21   -1    0    0  501  502 -0.00000000000E+00 -0.00000000000E+00 -0.55060369595E+03  0.55060369595E+03  0.00000000000E+00 0. -1.
         25    1    1    2    0    0  0.26973029684E+03  0.14572724700E+03 -0.33777899954E+03  0.47298046057E+03  0.12500000000E+03 0.  0.
         25    1    1    2    0    0 -0.26973029684E+03 -0.14572724700E+03  0.43477435567E+02  0.33392536735E+03  0.12500000000E+03 0.  0.
</event>
<event>
 4    0  0.2151074E-002  0.2018111E+03  0.7546771E-02  0.1148220E+00
         21   -1    0    0  502  501  0.00000000000E+00  0.00000000000E+00  0.17997040019E+03  0.17997040019E+03  0.00000000000E+00 0.  1.
         21   -1    0    0  501  502 -0.00000000000E+00 -0.00000000000E+00 -0.22630227942E+03  0.22630227942E+03  0.00000000000E+00 0.  1.
         25    1    1    2    0    0 -0.11890248856E+03 -0.68389307524E+01 -0.12834200687E+03  0.21513075904E+03  0.12500000000E+03 0.  0.
         25    1    1    2    0    0  0.11890248856E+03  0.68389307524E+01  0.82010127639E+02  0.19114192056E+03  0.12500000000E+03 0.  0.
</event>
<event>
 4    0  0.2151074E-002  0.2072772E+03  0.7546771E-02  0.1143740E+00
         21   -1    0    0  502  501  0.00000000000E+00  0.00000000000E+00  0.88313862555E+03  0.88313862555E+03  0.00000000000E+00 0.  1.
         21   -1    0    0  501  502 -0.00000000000E+00 -0.00000000000E+00 -0.48649030593E+02  0.48649030593E+02  0.00000000000E+00 0.  1.
         25    1    1    2    0    0  0.24853042652E+02 -0.16117730494E+03  0.47851392703E+03  0.52076518289E+03  0.12500000000E+03 0.  0.
         25    1    1    2    0    0 -0.24853042652E+02  0.16117730494E+03  0.35597566793E+03  0.41102247325E+03  0.12500000000E+03 0.  0.
</event>
<event>
 4    0  0.2151074E-002  0.1748587E+03  0.7546771E-02  0.1172874E+00
         21   -1    0    0  502  501  0.00000000000E+00  0.00000000000E+00  0.21847266979E+03  0.21847266979E+03  0.00000000000E+00 0.  1.
         21   -1    0    0  501  502 -0.00000000000E+00 -0.00000000000E+00 -0.13995140881E+03  0.13995140881E+03  0.00000000000E+00 0.  1.
         25    1    1    2    0    0 -0.10075281814E+03  0.68738694463E+02  0.30419186648E+02  0.17727511218E+03  0.12500000000E+03 0.  0.
         25    1    1    2    0    0  0.10075281814E+03 -0.68738694463E+02  0.48102074340E+02  0.18114896642E+03  0.12500000000E+03 0.  0.
</event>
<event>
 4    0  0.2151074E-002  0.1904824E+03  0.7546771E-02  0.1158027E+00
         21   -1    0    0  502  501  0.00000000000E+00  0.00000000000E+00  0.15229876637E+02  0.15229876637E+02  0.00000000000E+00 0. -1.
         21   -1    0    0  501  502 -0.00000000000E+00 -0.00000000000E+00 -0.23823924687E+04  0.23823924687E+04  0.00000000000E+00 0. -1.
         25    1    1    2    0    0 -0.13205326585E+03  0.32043307950E+02 -0.14783524810E+04  0.14898375404E+04  0.12500000000E+03 0.  0.
         25    1    1    2    0    0  0.13205326585E+03 -0.32043307950E+02 -0.88881011102E+03  0.90778480493E+03  0.12500000000E+03 0.  0.
</event>
<event>
 4    0  0.2151074E-002  0.1992001E+03  0.7546771E-02  0.1150416E+00
         21   -1    0    0  502  501  0.00000000000E+00  0.00000000000E+00  0.10372661028E+03  0.10372661028E+03  0.00000000000E+00 0. -1.
         21   -1    0    0  501  502 -0.00000000000E+00 -0.00000000000E+00 -0.38255076428E+03  0.38255076428E+03  0.00000000000E+00 0. -1.
         25    1    1    2    0    0 -0.68725487206E+02  0.32425999537E+02  0.25618750491E+02  0.14851248572E+03  0.12500000000E+03 0.  0.
         25    1    1    2    0    0  0.68725487206E+02 -0.32425999537E+02 -0.30444290449E+03  0.33776488884E+03  0.12500000000E+03 0.  0.
</event>
<event>
 4    0  0.2151074E-002  0.1804075E+03  0.7546771E-02  0.1167409E+00
         21   -1    0    0  502  501  0.00000000000E+00  0.00000000000E+00  0.10906714872E+04  0.10906714872E+04  0.00000000000E+00 0. -1.
         21   -1    0    0  501  502 -0.00000000000E+00 -0.00000000000E+00 -0.29841116358E+02  0.29841116358E+02  0.00000000000E+00 0. -1.
         25    1    1    2    0    0  0.84703800990E+02 -0.17406710274E+02  0.83221095884E+03  0.84597742729E+03  0.12500000000E+03 0.  0.
         25    1    1    2    0    0 -0.84703800990E+02  0.17406710274E+02  0.22861941198E+03  0.27453517625E+03  0.12500000000E+03 0.  0.
</event>
<event>
 4    0  0.2151074E-002  0.2942666E+03  0.7546771E-02  0.1088142E+00
         21   -1    0    0  502  501  0.00000000000E+00  0.00000000000E+00  0.14222419377E+04  0.14222419377E+04  0.00000000000E+00 0.  1.
         21   -1    0    0  501  502 -0.00000000000E+00 -0.00000000000E+00 -0.60884736316E+02  0.60884736316E+02  0.00000000000E+00 0.  1.
         25    1    1    2    0    0 -0.19847917927E+03 -0.10216095818E+03  0.31430113279E+03  0.40526663822E+03  0.12500000000E+03 0.  0.
         25    1    1    2    0    0  0.19847917927E+03  0.10216095818E+03  0.10470560685E+04  0.10778600357E+04  0.12500000000E+03 0.  0.
</event>
<event>
 4    0  0.2151074E-002  0.2291956E+03  0.7546771E-02  0.1127207E+00
         21   -1    0    0  502  501  0.00000000000E+00  0.00000000000E+00  0.28358060526E+03  0.28358060526E+03  0.00000000000E+00 0.  1.
         21   -1    0    0  501  502 -0.00000000000E+00 -0.00000000000E+00 -0.18524053207E+03  0.18524053207E+03  0.00000000000E+00 0.  1.
         25    1    1    2    0    0 -0.26049867649E+02  0.88359125191E+02 -0.12324716673E+03  0.19824428041E+03  0.12500000000E+03 0.  0.
         25    1    1    2    0    0  0.26049867649E+02 -0.88359125191E+02  0.22158723991E+03  0.27057685692E+03  0.12500000000E+03 0.  0.
</event>
<event>
 4    0  0.2151074E-002  0.2274646E+03  0.7546771E-02  0.1128437E+00
         21   -1    0    0  502  501  0.00000000000E+00  0.00000000000E+00  0.96009184134E+02  0.96009184134E+02  0.00000000000E+00 0. -1.
         21   -1    0    0  501  502 -0.00000000000E+00 -0.00000000000E+00 -0.53890805393E+03  0.53890805393E+03  0.00000000000E+00 0. -1.
         25    1    1    2    0    0 -0.90856831728E+02 -0.80568026907E+02 -0.17433069949E+02  0.17514303514E+03  0.12500000000E+03 0.  0.
         25    1    1    2    0    0  0.90856831728E+02  0.80568026907E+02 -0.42546579985E+03  0.45977420292E+03  0.12500000000E+03 0.  0.
</event>
<event>
 4    0  0.2151074E-002  0.2113324E+03  0.7546771E-02  0.1140515E+00
         21   -1    0    0  502  501  0.00000000000E+00  0.00000000000E+00  0.57210491065E+02  0.57210491065E+02  0.00000000000E+00 0. -1.
         21   -1    0    0  501  502 -0.00000000000E+00 -0.00000000000E+00 -0.78065015859E+03  0.78065015859E+03  0.00000000000E+00 0. -1.
         25    1    1    2    0    0  0.85911726504E+02  0.12556782647E+03 -0.51383404214E+03  0.55027132094E+03  0.12500000000E+03 0.  0.
         25    1    1    2    0    0 -0.85911726504E+02 -0.12556782647E+03 -0.20960562539E+03  0.28758932871E+03  0.12500000000E+03 0.  0.
</event>
<event>
 4    0  0.2151074E-002  0.1883838E+03  0.7546771E-02  0.1159927E+00
         21   -1    0    0  502  501  0.00000000000E+00  0.00000000000E+00  0.37601982854E+03  0.37601982854E+03  0.00000000000E+00 0.  1.
         21   -1    0    0  501  502 -0.00000000000E+00 -0.00000000000E+00 -0.94379199309E+02  0.94379199309E+02  0.00000000000E+00 0.  1.
         25    1    1    2    0    0 -0.10830297867E+03 -0.82200313596E+02  0.94490176643E+02  0.20746040640E+03  0.12500000000E+03 0.  0.
         25    1    1    2    0    0  0.10830297867E+03  0.82200313596E+02  0.18715045259E+03  0.26293862145E+03  0.12500000000E+03 0.  0.
</event>
<event>
 4    0  0.2151074E-002  0.1698897E+03  0.7546771E-02  0.1177963E+00
         21   -1    0    0  502  501  0.00000000000E+00  0.00000000000E+00  0.85880060155E+02  0.85880060155E+02  0.00000000000E+00 0. -1.
         21   -1    0    0  501  502 -0.00000000000E+00 -0.00000000000E+00 -0.33607920086E+03  0.33607920086E+03  0.00000000000E+00 0. -1.
         25    1    1    2    0    0  0.83504382538E+02  0.18393782049E+01 -0.26834281542E+02  0.15271360084E+03  0.12500000000E+03 0.  0.
         25    1    1    2    0    0 -0.83504382538E+02 -0.18393782049E+01 -0.22336485917E+03  0.26924566018E+03  0.12500000000E+03 0.  0.
</event>
<event>
 4    0  0.2151074E-002  0.3547389E+03  0.7546771E-02  0.1060687E+00
         21   -1    0    0  502  501  0.00000000000E+00  0.00000000000E+00  0.83100834591E+02  0.83100834591E+02  0.00000000000E+00 0.  1.
         21   -1    0    0  501  502 -0.00000000000E+00 -0.00000000000E+00 -0.15143008037E+04  0.15143008037E+04  0.00000000000E+00 0.  1.
         25    1    1    2    0    0  0.84958198886E+02 -0.23904834081E+03 -0.11977227159E+04  0.12306610862E+04  0.12500000000E+03 0.  0.
         25    1    1    2    0    0 -0.84958198886E+02  0.23904834081E+03 -0.23347725318E+03  0.36674055210E+03  0.12500000000E+03 0.  0.
</event>
<event>
 4    0  0.2151074E-002  0.2437139E+03  0.7546771E-02  0.1117343E+00
         21   -1    0    0  502  501  0.00000000000E+00  0.00000000000E+00  0.11471437314E+04  0.11471437314E+04  0.00000000000E+00 0.  1.
         21   -1    0    0  501  502 -0.00000000000E+00 -0.00000000000E+00 -0.51777702095E+02  0.51777702095E+02  0.00000000000E+00 0.  1.
         25    1    1    2    0    0  0.20278341029E+03  0.37337108021E+02  0.46050112363E+03  0.51980905724E+03  0.12500000000E+03 0.  0.
         25    1    1    2    0    0 -0.20278341029E+03 -0.37337108021E+02  0.63486490568E+03  0.67911237626E+03  0.12500000000E+03 0.  0.
</event>
<event>
 4    0  0.2151074E-002  0.1378638E+03  0.7546771E-02  0.1216233E+00
         21   -1    0    0  502  501  0.00000000000E+00  0.00000000000E+00  0.69786541884E+03  0.69786541884E+03  0.00000000000E+00 0.  1.
         21   -1    0    0  501  502 -0.00000000000E+00 -0.00000000000E+00 -0.27235087782E+02  0.27235087782E+02  0.00000000000E+00 0.  1.
         25    1    1    2    0    0 -0.33714367236E+02  0.36959309531E+02  0.41327255383E+03  0.43465141536E+03  0.12500000000E+03 0.  0.
         25    1    1    2    0    0  0.33714367236E+02 -0.36959309531E+02  0.25735777723E+03  0.29044909127E+03  0.12500000000E+03 0.  0.
</event>
<event>
 4    0  0.2151074E-002  0.1993202E+03  0.7546771E-02  0.1150314E+00
         21   -1    0    0  502  501  0.00000000000E+00  0.00000000000E+00  0.11724720173E+03  0.11724720173E+03  0.00000000000E+00 0. -1.
         21   -1    0    0  501  502 -0.00000000000E+00 -0.00000000000E+00 -0.33884436743E+03  0.33884436743E+03  0.00000000000E+00 0. -1.
         25    1    1    2    0    0 -0.10132600946E+03 -0.11753789169E+03 -0.11609594965E+03  0.23061956920E+03  0.12500000000E+03 0.  0.
         25    1    1    2    0    0  0.10132600946E+03  0.11753789169E+03 -0.10550121605E+03  0.22547199995E+03  0.12500000000E+03 0.  0.
</event>
<event>
 4    0  0.2151074E-002  0.2920947E+03  0.7546771E-02  0.1089260E+00
         21   -1    0    0  502  501  0.00000000000E+00  0.00000000000E+00  0.47530913499E+02  0.47530913499E+02  0.00000000000E+00 0. -1.
         21   -1    0    0  501  502 -0.00000000000E+00 -0.00000000000E+00 -0.17950284677E+04  0.17950284677E+04  0.00000000000E+00 0. -1.
         25    1    1    2    0    0 -0.10939892415E+03 -0.14074151117E+03 -0.14879217722E+04  0.15037661048E+04  0.12500000000E+03 0.  0.
         25    1    1    2    0    0  0.10939892415E+03  0.14074151117E+03 -0.25957578197E+03  0.33879327643E+03  0.12500000000E+03 0.  0.
</event>
<event>
 4    0  0.2151074E-002  0.4121869E+03  0.7546771E-02  0.1039640E+00
         21   -1    0    0  502  501  0.00000000000E+00  0.00000000000E+00  0.16217633757E+04  0.16217633757E+04  0.00000000000E+00 0.  1.
         21   -1    0    0  501  502 -0.00000000000E+00 -0.00000000000E+00 -0.10476132519E+03  0.10476132519E+03  0.00000000000E+00 0.  1.
         25    1    1    2    0    0 -0.21636951410E+03 -0.84960905721E+02  0.95419639129E+02  0.28064930013E+03  0.12500000000E+03 0.  0.
         25    1    1    2    0    0  0.21636951410E+03  0.84960905721E+02  0.14215824114E+04  0.14458754007E+04  0.12500000000E+03 0.  0.
</event>
<event>
 4    0  0.2151074E-002  0.2458913E+03  0.7546771E-02  0.1115929E+00
         21   -1    0    0  502  501  0.00000000000E+00  0.00000000000E+00  0.33788566123E+03  0.33788566123E+03  0.00000000000E+00 0.  1.
         21   -1    0    0  501  502 -0.00000000000E+00 -0.00000000000E+00 -0.17894375911E+03  0.17894375911E+03  0.00000000000E+00 0.  1.
         25    1    1    2    0    0  0.20730641954E+03  0.24614648775E+02  0.11671154927E+03  0.26986740865E+03  0.12500000000E+03 0.  0.
         25    1    1    2    0    0 -0.20730641954E+03 -0.24614648775E+02  0.42230352854E+02  0.24696201169E+03  0.12500000000E+03 0.  0.
</event>
<event>
 4    0  0.2151074E-002  0.2587370E+03  0.7546771E-02  0.1107904E+00
         21   -1    0    0  502  501  0.00000000000E+00  0.00000000000E+00  0.50747599243E+02  0.50747599243E+02  0.00000000000E+00 0.  1.
         21   -1    0    0  501  502 -0.00000000000E+00 -0.00000000000E+00 -0.13191724864E+04  0.13191724864E+04  0.00000000000E+00 0.  1.
         25    1    1    2    0    0 -0.79236154918E+02 -0.20904873142E+03 -0.53730108063E+03  0.59522868849E+03  0.12500000000E+03 0.  0.
         25    1    1    2    0    0  0.79236154918E+02  0.20904873142E+03 -0.73112380657E+03  0.77469139719E+03  0.12500000000E+03 0.  0.
</event>
<event>
 4    0  0.2151074E-002  0.1845951E+03  0.7546771E-02  0.1163429E+00
         21   -1    0    0  502  501  0.00000000000E+00  0.00000000000E+00  0.11071795687E+03  0.11071795687E+03  0.00000000000E+00 0. -1.
         21   -1    0    0  501  502 -0.00000000000E+00 -0.00000000000E+00 -0.30776710998E+03  0.30776710998E+03  0.00000000000E+00 0. -1.
         25    1    1    2    0    0 -0.16282192567E+02 -0.13401390961E+03 -0.11554657946E+03  0.21725756555E+03  0.12500000000E+03 0.  0.
         25    1    1    2    0    0  0.16282192567E+02  0.13401390961E+03 -0.81502573652E+02  0.20122750129E+03  0.12500000000E+03 0.  0.
</event>
<event>
 4    0  0.2151074E-002  0.2491283E+03  0.7546771E-02  0.1113857E+00
         21   -1    0    0  502  501  0.00000000000E+00  0.00000000000E+00  0.40048096168E+03  0.40048096168E+03  0.00000000000E+00 0.  1.
         21   -1    0    0  501  502 -0.00000000000E+00 -0.00000000000E+00 -0.15497597440E+03  0.15497597440E+03  0.00000000000E+00 0.  1.
         25    1    1    2    0    0  0.75671541380E+02 -0.63053153603E+01  0.34758321389E+03  0.37710082173E+03  0.12500000000E+03 0.  0.
         25    1    1    2    0    0 -0.75671541380E+02  0.63053153603E+01 -0.10207822661E+03  0.17835611434E+03  0.12500000000E+03 0.  0.
</event>
<event>
 4    0  0.2151074E-002  0.1760841E+03  0.7546771E-02  0.1171648E+00
         21   -1    0    0  502  501  0.00000000000E+00  0.00000000000E+00  0.10938887437E+02  0.10938887437E+02  0.00000000000E+00 0. -1.
         21   -1    0    0  501  502 -0.00000000000E+00 -0.00000000000E+00 -0.28344388685E+04  0.28344388685E+04  0.00000000000E+00 0. -1.
         25    1    1    2    0    0 -0.15576879445E+02  0.12019702927E+03 -0.11994174635E+04  0.12119889508E+04  0.12500000000E+03 0.  0.
         25    1    1    2    0    0  0.15576879445E+02 -0.12019702927E+03 -0.16240825175E+04  0.16333888051E+04  0.12500000000E+03 0.  0.
</event>
<event>
 4    0  0.2151074E-002  0.2275056E+03  0.7546771E-02  0.1128408E+00
         21   -1    0    0  502  501  0.00000000000E+00  0.00000000000E+00  0.17939730495E+03  0.17939730495E+03  0.00000000000E+00 0.  1.
         21   -1    0    0  501  502 -0.00000000000E+00 -0.00000000000E+00 -0.28851496786E+03  0.28851496786E+03  0.00000000000E+00 0.  1.
         25    1    1    2    0    0 -0.16122076307E+02  0.18920116120E+03 -0.63571274103E+02  0.23605784807E+03  0.12500000000E+03 0.  0.
         25    1    1    2    0    0  0.16122076307E+02 -0.18920116120E+03 -0.45546388805E+02  0.23185442475E+03  0.12500000000E+03 0.  0.
</event>
<event>
 4    0  0.2151074E-002  0.3000901E+03  0.7546771E-02  0.1085196E+00
         21   -1    0    0  502  501  0.00000000000E+00  0.00000000000E+00  0.56898962466E+03  0.56898962466E+03  0.00000000000E+00 0.  1.
         21   -1    0    0  501  502 -0.00000000000E+00 -0.00000000000E+00 -0.15827017213E+03  0.15827017213E+03  0.00000000000E+00 0.  1.
         25    1    1    2    0    0  0.11226478594E+03 -0.24840550730E+02  0.50514774824E+03  0.53293497040E+03  0.12500000000E+03 0.  0.
         25    1    1    2    0    0 -0.11226478594E+03  0.24840550730E+02 -0.94428295715E+02  0.19432482640E+03  0.12500000000E+03 0.  0.
</event>
<event>
 4    0  0.2151074E-002  0.3074814E+03  0.7546771E-02  0.1081559E+00
         21   -1    0    0  502  501  0.00000000000E+00  0.00000000000E+00  0.61702394533E+03  0.61702394533E+03  0.00000000000E+00 0. -1.
         21   -1    0    0  501  502 -0.00000000000E+00 -0.00000000000E+00 -0.15322714048E+03  0.15322714048E+03  0.00000000000E+00 0. -1.
         25    1    1    2    0    0 -0.22863313517E+02  0.25924154044E+03  0.99398329855E+02  0.30534232490E+03  0.12500000000E+03 0.  0.
         25    1    1    2    0    0  0.22863313517E+02 -0.25924154044E+03  0.36439847499E+03  0.46490876091E+03  0.12500000000E+03 0.  0.
</event>
<event>
 4    0  0.2151074E-002  0.1906375E+03  0.7546771E-02  0.1157888E+00
         21   -1    0    0  502  501  0.00000000000E+00  0.00000000000E+00  0.13560470491E+03  0.13560470491E+03  0.00000000000E+00 0. -1.
         21   -1    0    0  501  502 -0.00000000000E+00 -0.00000000000E+00 -0.26800448618E+03  0.26800448618E+03  0.00000000000E+00 0. -1.
         25    1    1    2    0    0  0.18062191697E+02 -0.57194526271E+02  0.72308862084E+02  0.15636824531E+03  0.12500000000E+03 0.  0.
         25    1    1    2    0    0 -0.18062191697E+02  0.57194526271E+02 -0.20470864336E+03  0.24724094578E+03  0.12500000000E+03 0.  0.
</event>
<event>
 4    0  0.2151074E-002  0.2715278E+03  0.7546771E-02  0.1100408E+00
         21   -1    0    0  502  501  0.00000000000E+00  0.00000000000E+00  0.56004617591E+03  0.56004617591E+03  0.00000000000E+00 0.  1.
         21   -1    0    0  501  502 -0.00000000000E+00 -0.00000000000E+00 -0.13164512963E+03  0.13164512963E+03  0.00000000000E+00 0.  1.
         25    1    1    2    0    0  0.49078407075E+02 -0.45687108044E+02  0.50910143923E+03  0.52849340328E+03  0.12500000000E+03 0.  0.
         25    1    1    2    0    0 -0.49078407075E+02  0.45687108044E+02 -0.80700392947E+02  0.16319790227E+03  0.12500000000E+03 0.  0.
</event>
<event>
 4    0  0.2151074E-002  0.1835736E+03  0.7546771E-02  0.1164389E+00
         21   -1    0    0  502  501  0.00000000000E+00  0.00000000000E+00  0.30570469456E+03  0.30570469456E+03  0.00000000000E+00 0.  1.
         21   -1    0    0  501  502 -0.00000000000E+00 -0.00000000000E+00 -0.11023472124E+03  0.11023472124E+03  0.00000000000E+00 0.  1.
         25    1    1    2    0    0  0.31446092006E+02  0.78870039406E+02  0.21582232379E+03  0.26346463759E+03  0.12500000000E+03 0.  0.
         25    1    1    2    0    0 -0.31446092006E+02 -0.78870039406E+02 -0.20352350473E+02  0.15247477820E+03  0.12500000000E+03 0.  0.
</event>
<event>
 4    0  0.2151074E-002  0.3049835E+03  0.7546771E-02  0.1082776E+00
         21   -1    0    0  502  501  0.00000000000E+00  0.00000000000E+00  0.90150334445E+02  0.90150334445E+02  0.00000000000E+00 0. -1.
         21   -1    0    0  501  502 -0.00000000000E+00 -0.00000000000E+00 -0.10317758633E+04  0.10317758633E+04  0.00000000000E+00 0. -1.
         25    1    1    2    0    0 -0.75379139052E+02  0.22428535734E+03 -0.73990764919E+03  0.78681272578E+03  0.12500000000E+03 0.  0.
         25    1    1    2    0    0  0.75379139052E+02 -0.22428535734E+03 -0.20171787968E+03  0.33511347198E+03  0.12500000000E+03 0.  0.
</event>
<event>
 4    0  0.2151074E-002  0.3440934E+03  0.7546771E-02  0.1065066E+00
         21   -1    0    0  502  501  0.00000000000E+00  0.00000000000E+00  0.54941367710E+03  0.54941367710E+03  0.00000000000E+00 0. -1.
         21   -1    0    0  501  502 -0.00000000000E+00 -0.00000000000E+00 -0.21550298922E+03  0.21550298922E+03  0.00000000000E+00 0. -1.
         25    1    1    2    0    0  0.28249703922E+03 -0.90947654048E+02  0.30171352438E+03  0.44128460628E+03  0.12500000000E+03 0.  0.
         25    1    1    2    0    0 -0.28249703922E+03  0.90947654048E+02  0.32197163502E+02  0.32363206004E+03  0.12500000000E+03 0.  0.
</event>
<event>
 4    0  0.2151074E-002  0.3244801E+03  0.7546771E-02  0.1073606E+00
         21   -1    0    0  502  501  0.00000000000E+00  0.00000000000E+00  0.13107252162E+04  0.13107252162E+04  0.00000000000E+00 0. -1.
         21   -1    0    0  501  502 -0.00000000000E+00 -0.00000000000E+00 -0.80327562024E+02  0.80327562024E+02  0.00000000000E+00 0. -1.
         25    1    1    2    0    0  0.19224992847E+02  0.13195541051E+03  0.11898855034E+04  0.12038414937E+04  0.12500000000E+03 0.  0.
         25    1    1    2    0    0 -0.19224992847E+02 -0.13195541051E+03  0.40512150824E+02  0.18721128459E+03  0.12500000000E+03 0.  0.
</event>
<event>
 4    0  0.2151074E-002  0.2471694E+03  0.7546771E-02  0.1115107E+00
         21   -1    0    0  502  501  0.00000000000E+00  0.00000000000E+00  0.22186055877E+03  0.22186055877E+03  0.00000000000E+00 0.  1.
         21   -1    0    0  501  502 -0.00000000000E+00 -0.00000000000E+00 -0.27536525503E+03  0.27536525503E+03  0.00000000000E+00 0.  1.
         25    1    1    2    0    0  0.18899849184E+03 -0.37220534669E+02 -0.11872978580E+03  0.25851027089E+03  0.12500000000E+03 0.  0.
         25    1    1    2    0    0 -0.18899849184E+03  0.37220534669E+02  0.65225089540E+02  0.23871554291E+03  0.12500000000E+03 0.  0.
</event>
<event>
 4    0  0.2151074E-002  0.3674491E+03  0.7546771E-02  0.1055673E+00
         21   -1    0    0  502  501  0.00000000000E+00  0.00000000000E+00  0.87060527477E+03  0.87060527477E+03  0.00000000000E+00 0.  1.
         21   -1    0    0  501  502 -0.00000000000E+00 -0.00000000000E+00 -0.15508615857E+03  0.15508615857E+03  0.00000000000E+00 0.  1.
         25    1    1    2    0    0  0.50731325146E+02  0.48840128052E+02  0.82989720136E+03  0.84220745086E+03  0.12500000000E+03 0.  0.
         25    1    1    2    0    0 -0.50731325146E+02 -0.48840128052E+02 -0.11437808517E+03  0.18348398248E+03  0.12500000000E+03 0.  0.
</event>
<event>
 4    0  0.2151074E-002  0.2051737E+03  0.7546771E-02  0.1145446E+00
         21   -1    0    0  502  501  0.00000000000E+00  0.00000000000E+00  0.58479880963E+03  0.58479880963E+03  0.00000000000E+00 0. -1.
         21   -1    0    0  501  502 -0.00000000000E+00 -0.00000000000E+00 -0.71984158103E+02  0.71984158103E+02  0.00000000000E+00 0. -1.
         25    1    1    2    0    0 -0.11293908691E+03  0.11168976956E+03  0.31280061809E+03  0.37242323861E+03  0.12500000000E+03 0.  0.
         25    1    1    2    0    0  0.11293908691E+03 -0.11168976956E+03  0.20001403344E+03  0.28435972913E+03  0.12500000000E+03 0.  0.
</event>
<event>
 4    0  0.2151074E-002  0.1966061E+03  0.7546771E-02  0.1152634E+00
         21   -1    0    0  502  501  0.00000000000E+00  0.00000000000E+00  0.33394003641E+03  0.33394003641E+03  0.00000000000E+00 0.  1.
         21   -1    0    0  501  502 -0.00000000000E+00 -0.00000000000E+00 -0.11575118177E+03  0.11575118177E+03  0.00000000000E+00 0.  1.
         25    1    1    2    0    0  0.10325636271E+03  0.96905752930E+02  0.17148653095E+03  0.25511807401E+03  0.12500000000E+03 0.  0.
         25    1    1    2    0    0 -0.10325636271E+03 -0.96905752930E+02  0.46702323692E+02  0.19457314416E+03  0.12500000000E+03 0.  0.
</event>
<event>
 4    0  0.2151074E-002  0.1731156E+03  0.7546771E-02  0.1174637E+00
         21   -1    0    0  502  501  0.00000000000E+00  0.00000000000E+00  0.12214967646E+04  0.12214967646E+04  0.00000000000E+00 0. -1.
         21   -1    0    0  501  502 -0.00000000000E+00 -0.00000000000E+00 -0.24534676114E+02  0.24534676114E+02  0.00000000000E+00 0. -1.
         25    1    1    2    0    0  0.64141213238E+02  0.10102995887E+03  0.58126681648E+03  0.60647939764E+03  0.12500000000E+03 0.  0.
         25    1    1    2    0    0 -0.64141213238E+02 -0.10102995887E+03  0.61569527197E+03  0.63955204304E+03  0.12500000000E+03 0.  0.
</event>
<event>
 4    0  0.2151074E-002  0.3866955E+03  0.7546771E-02  0.1048486E+00
         21   -1    0    0  502  501  0.00000000000E+00  0.00000000000E+00  0.52030911488E+03  0.52030911488E+03  0.00000000000E+00 0.  1.
         21   -1    0    0  501  502 -0.00000000000E+00 -0.00000000000E+00 -0.28739344167E+03  0.28739344167E+03  0.00000000000E+00 0.  1.
         25    1    1    2    0    0  0.30794818439E+03 -0.28215352005E+02  0.32079136132E+03  0.46277455403E+03  0.12500000000E+03 0.  0.
         25    1    1    2    0    0 -0.30794818439E+03  0.28215352005E+02 -0.87875688114E+02  0.34492800251E+03  0.12500000000E+03 0.  0.
</event>
<event>
 4    0  0.2151074E-002  0.1807063E+03  0.7546771E-02  0.1167121E+00
         21   -1    0    0  502  501  0.00000000000E+00  0.00000000000E+00  0.18467773676E+03  0.18467773676E+03  0.00000000000E+00 0.  1.
         21   -1    0    0  501  502 -0.00000000000E+00 -0.00000000000E+00 -0.17682019092E+03  0.17682019092E+03  0.00000000000E+00 0.  1.
         25    1    1    2    0    0 -0.98808740476E+02 -0.56043631206E+02 -0.60317993650E+02  0.17935249134E+03  0.12500000000E+03 0.  0.
         25    1    1    2    0    0  0.98808740476E+02  0.56043631206E+02  0.68175539490E+02  0.18214543634E+03  0.12500000000E+03 0.  0.
</event>
<event>
 4    0  0.2151074E-002  0.2449039E+03  0.7546771E-02  0.1116568E+00
         21   -1    0    0  502  501  0.00000000000E+00  0.00000000000E+00  0.96883454021E+02  0.96883454021E+02  0.00000000000E+00 0. -1.
         21   -1    0    0  501  502 -0.00000000000E+00 -0.00000000000E+00 -0.61907283167E+03  0.61907283167E+03  0.00000000000E+00 0. -1.
         25    1    1    2    0    0 -0.10242148467E+03 -0.73223508640E+02 -0.50786415690E+03  0.53796175013E+03  0.12500000000E+03 0.  0.
         25    1    1    2    0    0  0.10242148467E+03  0.73223508640E+02 -0.14325220745E+02  0.17799453556E+03  0.12500000000E+03 0.  0.
</event>
<event>
 4    0  0.2151074E-002  0.2317748E+03  0.7546771E-02  0.1125397E+00
         21   -1    0    0  502  501  0.00000000000E+00  0.00000000000E+00  0.52855796499E+03  0.52855796499E+03  0.00000000000E+00 0. -1.
         21   -1    0    0  501  502 -0.00000000000E+00 -0.00000000000E+00 -0.10163419624E+03  0.10163419624E+03  0.00000000000E+00 0. -1.
         25    1    1    2    0    0  0.51656106395E+02 -0.81093110345E+02 -0.17452272374E+02  0.15866325247E+03  0.12500000000E+03 0.  0.
         25    1    1    2    0    0 -0.51656106395E+02  0.81093110345E+02  0.44437604112E+03  0.47152890876E+03  0.12500000000E+03 0.  0.
</event>
<event>
 4    0  0.2151074E-002  0.2182372E+03  0.7546771E-02  0.1135204E+00
         21   -1    0    0  502  501  0.00000000000E+00  0.00000000000E+00  0.13393591785E+04  0.13393591785E+04  0.00000000000E+00 0.  1.
         21   -1    0    0  501  502 -0.00000000000E+00 -0.00000000000E+00 -0.35559898193E+02  0.35559898193E+02  0.00000000000E+00 0.  1.
         25    1    1    2    0    0 -0.57281783863E+02 -0.36231403695E+02  0.13039106085E+03  0.19292678955E+03  0.12500000000E+03 0.  0.
         25    1    1    2    0    0  0.57281783863E+02  0.36231403695E+02  0.11734082195E+04  0.11819922872E+04  0.12500000000E+03 0.  0.
</event>
<event>
 4    0  0.2151074E-002  0.3120113E+03  0.7546771E-02  0.1079386E+00
         21   -1    0    0  502  501  0.00000000000E+00  0.00000000000E+00  0.12336605401E+03  0.12336605401E+03  0.00000000000E+00 0.  1.
         21   -1    0    0  501  502 -0.00000000000E+00 -0.00000000000E+00 -0.78912330174E+03  0.78912330174E+03  0.00000000000E+00 0.  1.
         25    1    1    2    0    0  0.18614981761E+03  0.21260760485E+03 -0.26960642956E+03  0.41008093725E+03  0.12500000000E+03 0.  0.
         25    1    1    2    0    0 -0.18614981761E+03 -0.21260760485E+03 -0.39615081817E+03  0.50240841849E+03  0.12500000000E+03 0.  0.
</event>
<event>
 4    0  0.2151074E-002  0.1892201E+03  0.7546771E-02  0.1159167E+00
         21   -1    0    0  502  501  0.00000000000E+00  0.00000000000E+00  0.87170428770E+02  0.87170428770E+02  0.00000000000E+00 0.  1.
         21   -1    0    0  501  502 -0.00000000000E+00 -0.00000000000E+00 -0.41073827535E+03  0.41073827535E+03  0.00000000000E+00 0.  1.
         25    1    1    2    0    0  0.10858132232E+03 -0.84803658829E+02 -0.11625150988E+03  0.21936494172E+03  0.12500000000E+03 0.  0.
         25    1    1    2    0    0 -0.10858132232E+03  0.84803658829E+02 -0.20731633669E+03  0.27854376239E+03  0.12500000000E+03 0.  0.
</event>
<event>
 4    0  0.2151074E-002  0.1876001E+03  0.7546771E-02  0.1160644E+00
         21   -1    0    0  502  501  0.00000000000E+00  0.00000000000E+00  0.93827108091E+03  0.93827108091E+03  0.00000000000E+00 0. -1.
         21   -1    0    0  501  502 -0.00000000000E+00 -0.00000000000E+00 -0.37509191110E+02  0.37509191110E+02  0.00000000000E+00 0. -1.
         25    1    1    2    0    0 -0.12232308789E+03  0.61227227107E+02  0.52651855251E+03  0.55817425354E+03  0.12500000000E+03 0.  0.
         25    1    1    2    0    0  0.12232308789E+03 -0.61227227107E+02  0.37424333729E+03  0.41760601849E+03  0.12500000000E+03 0.  0.
</event>
<event>
 4    0  0.2151074E-002  0.2738747E+03  0.7546771E-02  0.1099082E+00
         21   -1    0    0  502  501  0.00000000000E+00  0.00000000000E+00  0.70400384992E+02  0.70400384992E+02  0.00000000000E+00 0. -1.
         21   -1    0    0  501  502 -0.00000000000E+00 -0.00000000000E+00 -0.10654394988E+04  0.10654394988E+04  0.00000000000E+00 0. -1.
         25    1    1    2    0    0  0.13440915019E+03  0.18264116224E+03 -0.68251340430E+03  0.72998161679E+03  0.12500000000E+03 0.  0.
         25    1    1    2    0    0 -0.13440915019E+03 -0.18264116224E+03 -0.31252570956E+03  0.40585826705E+03  0.12500000000E+03 0.  0.
</event>
<event>
 4    0  0.2151074E-002  0.1910408E+03  0.7546771E-02  0.1157526E+00
         21   -1    0    0  502  501  0.00000000000E+00  0.00000000000E+00  0.91430476724E+02  0.91430476724E+02  0.00000000000E+00 0. -1.
         21   -1    0    0  501  502 -0.00000000000E+00 -0.00000000000E+00 -0.39917308731E+03  0.39917308731E+03  0.00000000000E+00 0. -1.
         25    1    1    2    0    0  0.56009776334E+02  0.73894293503E+02 -0.29612705802E+03  0.33453504473E+03  0.12500000000E+03 0.  0.
         25    1    1    2    0    0 -0.56009776334E+02 -0.73894293503E+02 -0.11615552563E+02  0.15606851931E+03  0.12500000000E+03 0.  0.
</event>
<event>
 4    0  0.2151074E-002  0.1847152E+03  0.7546771E-02  0.1163316E+00
         21   -1    0    0  502  501  0.00000000000E+00  0.00000000000E+00  0.25181885714E+02  0.25181885714E+02  0.00000000000E+00 0.  1.
         21   -1    0    0  501  502 -0.00000000000E+00 -0.00000000000E+00 -0.13549301970E+04  0.13549301970E+04  0.00000000000E+00 0.  1.
         25    1    1    2    0    0  0.34690317106E+02 -0.42172939745E+02 -0.19958193881E+03  0.24174351128E+03  0.12500000000E+03 0.  0.
         25    1    1    2    0    0 -0.34690317106E+02  0.42172939745E+02 -0.11301663724E+04  0.11383685714E+04  0.12500000000E+03 0.  0.
</event>
<event>
 4    0  0.2151074E-002  0.1913533E+03  0.7546771E-02  0.1157246E+00
         21   -1    0    0  502  501  0.00000000000E+00  0.00000000000E+00  0.16150809125E+03  0.16150809125E+03  0.00000000000E+00 0. -1.
         21   -1    0    0  501  502 -0.00000000000E+00 -0.00000000000E+00 -0.22671352663E+03  0.22671352663E+03  0.00000000000E+00 0. -1.
         25    1    1    2    0    0 -0.44445295164E+02  0.12639495982E+03 -0.88533458054E+02  0.20350489755E+03  0.12500000000E+03 0.  0.
         25    1    1    2    0    0  0.44445295164E+02 -0.12639495982E+03  0.23328022668E+02  0.18471672034E+03  0.12500000000E+03 0.  0.
</event>
<event>
 4    0  0.2151074E-002  0.1925182E+03  0.7546771E-02  0.1156209E+00
         21   -1    0    0  502  501  0.00000000000E+00  0.00000000000E+00  0.75823398795E+02  0.75823398795E+02  0.00000000000E+00 0.  1.
         21   -1    0    0  501  502 -0.00000000000E+00 -0.00000000000E+00 -0.48881035570E+03  0.48881035570E+03  0.00000000000E+00 0.  1.
         25    1    1    2    0    0 -0.13962693693E+03  0.18809595015E+02 -0.14804180871E+03  0.23956389442E+03  0.12500000000E+03 0.  0.
         25    1    1    2    0    0  0.13962693693E+03 -0.18809595015E+02 -0.26494514819E+03  0.32506986008E+03  0.12500000000E+03 0.  0.
</event>
<event>
 4    0  0.2151074E-002  0.2508983E+03  0.7546771E-02  0.1112738E+00
         21   -1    0    0  502  501  0.00000000000E+00  0.00000000000E+00  0.29976387089E+03  0.29976387089E+03  0.00000000000E+00 0. -1.
         21   -1    0    0  501  502 -0.00000000000E+00 -0.00000000000E+00 -0.20999853433E+03  0.20999853433E+03  0.00000000000E+00 0. -1.
         25    1    1    2    0    0  0.16395405349E+03 -0.66216683844E+02  0.17362002569E+03  0.27755088577E+03  0.12500000000E+03 0.  0.
         25    1    1    2    0    0 -0.16395405349E+03  0.66216683844E+02 -0.83854689130E+02  0.23221151945E+03  0.12500000000E+03 0.  0.
</event>
<event>
 4    0  0.2151074E-002  0.2405547E+03  0.7546771E-02  0.1119424E+00
         21   -1    0    0  502  501  0.00000000000E+00  0.00000000000E+00  0.58658437213E+02  0.58658437213E+02  0.00000000000E+00 0. -1.
         21   -1    0    0  501  502 -0.00000000000E+00 -0.00000000000E+00 -0.98650022522E+03  0.98650022522E+03  0.00000000000E+00 0. -1.
         25    1    1    2    0    0 -0.12318983402E+03 -0.15367078477E+03 -0.33630105776E+03  0.40928455474E+03  0.12500000000E+03 0.  0.
         25    1    1    2    0    0  0.12318983402E+03  0.15367078477E+03 -0.59154073024E+03  0.63587410769E+03  0.12500000000E+03 0.  0.
</event>
<event>
 4    0  0.2151074E-002  0.1747167E+03  0.7546771E-02  0.1173016E+00
         21   -1    0    0  502  501  0.00000000000E+00  0.00000000000E+00  0.77604039571E+03  0.77604039571E+03  0.00000000000E+00 0. -1.
         21   -1    0    0  501  502 -0.00000000000E+00 -0.00000000000E+00 -0.39335482073E+02  0.39335482073E+02  0.00000000000E+00 0. -1.
         25    1    1    2    0    0 -0.10450137492E+03  0.50317293753E+02  0.27954262357E+03  0.32744685951E+03  0.12500000000E+03 0.  0.
         25    1    1    2    0    0  0.10450137492E+03 -0.50317293753E+02  0.45716229007E+03  0.48792901827E+03  0.12500000000E+03 0.  0.
</event>
<event>
 4    0  0.2151074E-002  0.3666576E+03  0.7546771E-02  0.1055978E+00
         21   -1    0    0  502  501  0.00000000000E+00  0.00000000000E+00  0.20146140556E+03  0.20146140556E+03  0.00000000000E+00 0. -1.
         21   -1    0    0  501  502 -0.00000000000E+00 -0.00000000000E+00 -0.66731303107E+03  0.66731303107E+03  0.00000000000E+00 0.  1.
         25    1    1    2    0    0 -0.28521652767E+03  0.19019057487E+03 -0.19034337241E+03  0.41155378973E+03  0.12500000000E+03 0.  0.
         25    1    1    2    0    0  0.28521652767E+03 -0.19019057487E+03 -0.27550825309E+03  0.45722064689E+03  0.12500000000E+03 0.  0.
</event>
<event>
 4    0  0.2151074E-002  0.2210671E+03  0.7546771E-02  0.1133090E+00
         21   -1    0    0  502  501  0.00000000000E+00  0.00000000000E+00  0.10659674411E+03  0.10659674411E+03  0.00000000000E+00 0. -1.
         21   -1    0    0  501  502 -0.00000000000E+00 -0.00000000000E+00 -0.45846301406E+03  0.45846301406E+03  0.00000000000E+00 0. -1.
         25    1    1    2    0    0 -0.10235177555E+03  0.15072915912E+03 -0.16685111146E+03  0.27687444585E+03  0.12500000000E+03 0.  0.
         25    1    1    2    0    0  0.10235177555E+03 -0.15072915912E+03 -0.18501515849E+03  0.28818531233E+03  0.12500000000E+03 0.  0.
</event>
<event>
 4    0  0.2151074E-002  0.1645556E+03  0.7546771E-02  0.1183647E+00
         21   -1    0    0  502  501  0.00000000000E+00  0.00000000000E+00  0.96659423823E+02  0.96659423823E+02  0.00000000000E+00 0.  1.
         21   -1    0    0  501  502 -0.00000000000E+00 -0.00000000000E+00 -0.28014379747E+03  0.28014379747E+03  0.00000000000E+00 0.  1.
         25    1    1    2    0    0  0.10510671782E+03 -0.18574178842E+02 -0.82791656690E+02  0.18404314893E+03  0.12500000000E+03 0.  0.
         25    1    1    2    0    0 -0.10510671782E+03  0.18574178842E+02 -0.10069271696E+03  0.19276007237E+03  0.12500000000E+03 0.  0.
</event>
<event>
 4    0  0.2151074E-002  0.2454623E+03  0.7546771E-02  0.1116207E+00
         21   -1    0    0  502  501  0.00000000000E+00  0.00000000000E+00  0.11751922371E+04  0.11751922371E+04  0.00000000000E+00 0. -1.
         21   -1    0    0  501  502 -0.00000000000E+00 -0.00000000000E+00 -0.51269678001E+02  0.51269678001E+02  0.00000000000E+00 0. -1.
         25    1    1    2    0    0  0.14418158384E+03 -0.73672541648E+01  0.94724697166E+03  0.96630452285E+03  0.12500000000E+03 0.  0.
         25    1    1    2    0    0 -0.14418158384E+03  0.73672541648E+01  0.17667558746E+03  0.26015739228E+03  0.12500000000E+03 0.  0.
</event>
<event>
 4    0  0.2151074E-002  0.2108533E+03  0.7546771E-02  0.1140892E+00
         21   -1    0    0  502  501  0.00000000000E+00  0.00000000000E+00  0.19945499062E+03  0.19945499062E+03  0.00000000000E+00 0. -1.
         21   -1    0    0  501  502 -0.00000000000E+00 -0.00000000000E+00 -0.22290296219E+03  0.22290296219E+03  0.00000000000E+00 0. -1.
         25    1    1    2    0    0 -0.23753875025E+02  0.24929130203E+02  0.15481093307E+03  0.20193348684E+03  0.12500000000E+03 0.  0.
         25    1    1    2    0    0  0.23753875025E+02 -0.24929130203E+02 -0.17825890465E+03  0.22042446597E+03  0.12500000000E+03 0.  0.
</event>
<event>
 4    0  0.2151074E-002  0.3732917E+03  0.7546771E-02  0.1053441E+00
         21   -1    0    0  502  501  0.00000000000E+00  0.00000000000E+00  0.75179388417E+03  0.75179388417E+03  0.00000000000E+00 0.  1.
         21   -1    0    0  501  502 -0.00000000000E+00 -0.00000000000E+00 -0.18535223237E+03  0.18535223237E+03  0.00000000000E+00 0.  1.
         25    1    1    2    0    0 -0.41156553533E+02 -0.69973472637E+02  0.71282244555E+03  0.72823827670E+03  0.12500000000E+03 0.  0.
         25    1    1    2    0    0  0.41156553533E+02  0.69973472637E+02 -0.14638079375E+03  0.20890783985E+03  0.12500000000E+03 0.  0.
</event>
<event>
 4    0  0.2151074E-002  0.2862698E+03  0.7546771E-02  0.1092313E+00
         21   -1    0    0  502  501  0.00000000000E+00  0.00000000000E+00  0.54895934891E+02  0.54895934891E+02  0.00000000000E+00 0. -1.
         21   -1    0    0  501  502 -0.00000000000E+00 -0.00000000000E+00 -0.14928314770E+04  0.14928314770E+04  0.00000000000E+00 0. -1.
         25    1    1    2    0    0  0.13049870195E+03  0.22188809608E+03 -0.74010538026E+03  0.79350186659E+03  0.12500000000E+03 0.  0.
         25    1    1    2    0    0 -0.13049870195E+03 -0.22188809608E+03 -0.69783016181E+03  0.75422554526E+03  0.12500000000E+03 0.  0.
</event>
<event>
 4    0  0.2151074E-002  0.3310293E+03  0.7546771E-02  0.1070682E+00
         21   -1    0    0  502  501  0.00000000000E+00  0.00000000000E+00  0.14798490557E+03  0.14798490557E+03  0.00000000000E+00 0. -1.
         21   -1    0    0  501  502 -0.00000000000E+00 -0.00000000000E+00 -0.74048343688E+03  0.74048343688E+03  0.00000000000E+00 0.  1.
         25    1    1    2    0    0  0.25192635851E+03  0.16459222868E+03 -0.21802354501E+03  0.39206728764E+03  0.12500000000E+03 0.  0.
         25    1    1    2    0    0 -0.25192635851E+03 -0.16459222868E+03 -0.37447498630E+03  0.49640105481E+03  0.12500000000E+03 0.  0.
</event>
<event>
 4    0  0.2151074E-002  0.3574082E+03  0.7546771E-02  0.1059615E+00
         21   -1    0    0  502  501  0.00000000000E+00  0.00000000000E+00  0.46604679702E+03  0.46604679702E+03  0.00000000000E+00 0. -1.
         21   -1    0    0  501  502 -0.00000000000E+00 -0.00000000000E+00 -0.27409393563E+03  0.27409393563E+03  0.00000000000E+00 0. -1.
         25    1    1    2    0    0 -0.55277416803E+02  0.13472093929E+03  0.40817170303E+03  0.45103709764E+03  0.12500000000E+03 0.  0.
         25    1    1    2    0    0  0.55277416803E+02 -0.13472093929E+03 -0.21621884165E+03  0.28910363501E+03  0.12500000000E+03 0.  0.
</event>
<event>
 4    0  0.2151074E-002  0.1942715E+03  0.7546771E-02  0.1154664E+00
         21   -1    0    0  502  501  0.00000000000E+00  0.00000000000E+00  0.50075066538E+02  0.50075066538E+02  0.00000000000E+00 0.  1.
         21   -1    0    0  501  502 -0.00000000000E+00 -0.00000000000E+00 -0.75369699441E+03  0.75369699441E+03  0.00000000000E+00 0.  1.
         25    1    1    2    0    0  0.33640437328E+02 -0.17333202900E+02 -0.54292275193E+02  0.14143822005E+03  0.12500000000E+03 0.  0.
         25    1    1    2    0    0 -0.33640437328E+02  0.17333202900E+02 -0.64932965268E+03  0.66233384089E+03  0.12500000000E+03 0.  0.
</event>
<event>
 4    0  0.2151074E-002  0.2903015E+03  0.7546771E-02  0.1090192E+00
         21   -1    0    0  502  501  0.00000000000E+00  0.00000000000E+00  0.13472574485E+04  0.13472574485E+04  0.00000000000E+00 0.  1.
         21   -1    0    0  501  502 -0.00000000000E+00 -0.00000000000E+00 -0.62552988419E+02  0.62552988419E+02  0.00000000000E+00 0.  1.
         25    1    1    2    0    0  0.18900406298E+02 -0.24646955707E+03  0.43142835336E+03  0.51269863663E+03  0.12500000000E+03 0.  0.
         25    1    1    2    0    0 -0.18900406298E+02  0.24646955707E+03  0.85327610676E+03  0.89711180033E+03  0.12500000000E+03 0.  0.
</event>
<event>
 4    0  0.2151074E-002  0.3559128E+03  0.7546771E-02  0.1060214E+00
         21   -1    0    0  502  501  0.00000000000E+00  0.00000000000E+00  0.84493554663E+02  0.84493554663E+02  0.00000000000E+00 0. -1.
         21   -1    0    0  501  502 -0.00000000000E+00 -0.00000000000E+00 -0.14992141761E+04  0.14992141761E+04  0.00000000000E+00 0. -1.
         25    1    1    2    0    0 -0.26811013690E+03  0.15505905564E+03 -0.98095920439E+03  0.10362588079E+04  0.12500000000E+03 0.  0.
         25    1    1    2    0    0  0.26811013690E+03 -0.15505905564E+03 -0.43376141706E+03  0.54744892289E+03  0.12500000000E+03 0.  0.
</event>
<event>
 4    0  0.2151074E-002  0.4441725E+03  0.7546771E-02  0.1029474E+00
         21   -1    0    0  502  501  0.00000000000E+00  0.00000000000E+00  0.10470867406E+03  0.10470867406E+03  0.00000000000E+00 0. -1.
         21   -1    0    0  501  502 -0.00000000000E+00 -0.00000000000E+00 -0.18841729535E+04  0.18841729535E+04  0.00000000000E+00 0.  1.
         25    1    1    2    0    0  0.79781403211E+02  0.40470012112E+03 -0.11300005901E+04  0.12094104324E+04  0.12500000000E+03 0.  0.
         25    1    1    2    0    0 -0.79781403211E+02 -0.40470012112E+03 -0.64946368930E+03  0.77947119514E+03  0.12500000000E+03 0.  0.
</event>
<event>
 4    0  0.2151074E-002  0.1974316E+03  0.7546771E-02  0.1151924E+00
         21   -1    0    0  502  501  0.00000000000E+00  0.00000000000E+00  0.42459082317E+03  0.42459082317E+03  0.00000000000E+00 0.  1.
         21   -1    0    0  501  502 -0.00000000000E+00 -0.00000000000E+00 -0.91804270941E+02  0.91804270941E+02  0.00000000000E+00 0.  1.
         25    1    1    2    0    0 -0.30049366948E+02  0.49353175316E+02  0.35141347271E+03  0.37743228422E+03  0.12500000000E+03 0.  0.
         25    1    1    2    0    0  0.30049366948E+02 -0.49353175316E+02 -0.18626920478E+02  0.13896280990E+03  0.12500000000E+03 0.  0.
</event>
<event>
 4    0  0.2151074E-002  0.2156258E+03  0.7546771E-02  0.1137187E+00
         21   -1    0    0  502  501  0.00000000000E+00  0.00000000000E+00  0.37966763960E+03  0.37966763960E+03  0.00000000000E+00 0. -1.
         21   -1    0    0  501  502 -0.00000000000E+00 -0.00000000000E+00 -0.12246107023E+03  0.12246107023E+03  0.00000000000E+00 0. -1.
         25    1    1    2    0    0 -0.11580732283E+03  0.14926554259E+02 -0.24256947356E+02  0.17276439893E+03  0.12500000000E+03 0.  0.
         25    1    1    2    0    0  0.11580732283E+03 -0.14926554259E+02  0.28146351673E+03  0.32936431089E+03  0.12500000000E+03 0.  0.
</event>
<event>
 4    0  0.2151074E-002  0.1834567E+03  0.7546771E-02  0.1164499E+00
         21   -1    0    0  502  501  0.00000000000E+00  0.00000000000E+00  0.11366593016E+03  0.11366593016E+03  0.00000000000E+00 0. -1.
         21   -1    0    0  501  502 -0.00000000000E+00 -0.00000000000E+00 -0.29609901534E+03  0.29609901534E+03  0.00000000000E+00 0. -1.
         25    1    1    2    0    0 -0.52889786916E+02  0.12078348966E+03 -0.11958802132E+03  0.21751385192E+03  0.12500000000E+03 0.  0.
         25    1    1    2    0    0  0.52889786916E+02 -0.12078348966E+03 -0.62845063861E+02  0.19225109359E+03  0.12500000000E+03 0.  0.
</event>
<event>
 4    0  0.2151074E-002  0.2108441E+03  0.7546771E-02  0.1140899E+00
         21   -1    0    0  502  501  0.00000000000E+00  0.00000000000E+00  0.86865688186E+02  0.86865688186E+02  0.00000000000E+00 0.  1.
         21   -1    0    0  501  502 -0.00000000000E+00 -0.00000000000E+00 -0.51176960058E+03  0.51176960058E+03  0.00000000000E+00 0.  1.
         25    1    1    2    0    0 -0.38192226797E+02  0.80029951955E+02 -0.68928104525E+01  0.15341430909E+03  0.12500000000E+03 0.  0.
         25    1    1    2    0    0  0.38192226797E+02 -0.80029951955E+02 -0.41801110194E+03  0.44522097967E+03  0.12500000000E+03 0.  0.
</event>
<event>
 4    0  0.2151074E-002  0.2049572E+03  0.7546771E-02  0.1145623E+00
         21   -1    0    0  502  501  0.00000000000E+00  0.00000000000E+00  0.11100669268E+03  0.11100669268E+03  0.00000000000E+00 0.  1.
         21   -1    0    0  501  502 -0.00000000000E+00 -0.00000000000E+00 -0.37842271991E+03  0.37842271991E+03  0.00000000000E+00 0.  1.
         25    1    1    2    0    0 -0.69526218022E+02  0.12408172396E+03 -0.22735959639E+03  0.29588436134E+03  0.12500000000E+03 0.  0.
         25    1    1    2    0    0  0.69526218022E+02 -0.12408172396E+03 -0.40056430839E+02  0.19354505126E+03  0.12500000000E+03 0.  0.
</event>
<event>
 4    0  0.2151074E-002  0.3321734E+03  0.7546771E-02  0.1070179E+00
         21   -1    0    0  502  501  0.00000000000E+00  0.00000000000E+00  0.11508977590E+03  0.11508977590E+03  0.00000000000E+00 0.  1.
         21   -1    0    0  501  502 -0.00000000000E+00 -0.00000000000E+00 -0.95872278396E+03  0.95872278396E+03  0.00000000000E+00 0.  1.
         25    1    1    2    0    0  0.25639184235E+03  0.15383151868E+03 -0.53963536841E+03  0.62946981166E+03  0.12500000000E+03 0.  0.
         25    1    1    2    0    0 -0.25639184235E+03 -0.15383151868E+03 -0.30399763965E+03  0.44434274820E+03  0.12500000000E+03 0.  0.
</event>
<event>
 4    0  0.2151074E-002  0.2231861E+03  0.7546771E-02  0.1131530E+00
         21   -1    0    0  502  501  0.00000000000E+00  0.00000000000E+00  0.31491015012E+03  0.31491015012E+03  0.00000000000E+00 0.  1.
         21   -1    0    0  501  502 -0.00000000000E+00 -0.00000000000E+00 -0.15817854526E+03  0.15817854526E+03  0.00000000000E+00 0.  1.
         25    1    1    2    0    0 -0.90849872557E+02  0.55094439405E-01 -0.92311030467E+02  0.18000007979E+03  0.12500000000E+03 0.  0.
         25    1    1    2    0    0  0.90849872557E+02 -0.55094439405E-01  0.24904263532E+03  0.29308861559E+03  0.12500000000E+03 0.  0.
</event>
<event>
 4    0  0.2151074E-002  0.3126064E+03  0.7546771E-02  0.1079103E+00
         21   -1    0    0  502  501  0.00000000000E+00  0.00000000000E+00  0.12615124425E+03  0.12615124425E+03  0.00000000000E+00 0. -1.
         21   -1    0    0  501  502 -0.00000000000E+00 -0.00000000000E+00 -0.77464784070E+03  0.77464784070E+03  0.00000000000E+00 0. -1.
         25    1    1    2    0    0 -0.13276480706E+03 -0.38891797226E+02  0.37268073563E+02  0.19013935729E+03  0.12500000000E+03 0.  0.
         25    1    1    2    0    0  0.13276480706E+03  0.38891797226E+02 -0.68576467001E+03  0.71065972766E+03  0.12500000000E+03 0.  0.
</event>
<event>
 4    0  0.2151074E-002  0.2626961E+03  0.7546771E-02  0.1105534E+00
         21   -1    0    0  502  501  0.00000000000E+00  0.00000000000E+00  0.15479564897E+03  0.15479564897E+03  0.00000000000E+00 0.  1.
         21   -1    0    0  501  502 -0.00000000000E+00 -0.00000000000E+00 -0.44580865936E+03  0.44580865936E+03  0.00000000000E+00 0.  1.
         25    1    1    2    0    0  0.64697487608E+02 -0.14012231538E+03  0.51050253149E+02  0.20506378646E+03  0.12500000000E+03 0.  0.
         25    1    1    2    0    0 -0.64697487608E+02  0.14012231538E+03 -0.34206326354E+03  0.39554052186E+03  0.12500000000E+03 0.  0.
</event>
<event>
 4    0  0.2151074E-002  0.2867335E+03  0.7546771E-02  0.1092067E+00
         21   -1    0    0  502  501  0.00000000000E+00  0.00000000000E+00  0.53871880750E+02  0.53871880750E+02  0.00000000000E+00 0. -1.
         21   -1    0    0  501  502 -0.00000000000E+00 -0.00000000000E+00 -0.15261416439E+04  0.15261416439E+04  0.00000000000E+00 0. -1.
         25    1    1    2    0    0  0.13513492348E+03  0.18784749726E+03 -0.42147533418E+03  0.49680437508E+03  0.12500000000E+03 0.  0.
         25    1    1    2    0    0 -0.13513492348E+03 -0.18784749726E+03 -0.10507944289E+04  0.10832091495E+04  0.12500000000E+03 0.  0.
</event>
<event>
 4    0  0.2151074E-002  0.2498794E+03  0.7546771E-02  0.1113381E+00
         21   -1    0    0  502  501  0.00000000000E+00  0.00000000000E+00  0.10435956085E+04  0.10435956085E+04  0.00000000000E+00 0. -1.
         21   -1    0    0  501  502 -0.00000000000E+00 -0.00000000000E+00 -0.59831319585E+02  0.59831319585E+02  0.00000000000E+00 0. -1.
         25    1    1    2    0    0  0.77828422039E+02 -0.20124718388E+03  0.52727847494E+03  0.58327119116E+03  0.12500000000E+03 0.  0.
         25    1    1    2    0    0 -0.77828422039E+02  0.20124718388E+03  0.45648581394E+03  0.52015573689E+03  0.12500000000E+03 0.  0.
</event>
<event>
 4    0  0.2151074E-002  0.2025235E+03  0.7546771E-02  0.1147627E+00
         21   -1    0    0  502  501  0.00000000000E+00  0.00000000000E+00  0.85269401687E+02  0.85269401687E+02  0.00000000000E+00 0. -1.
         21   -1    0    0  501  502 -0.00000000000E+00 -0.00000000000E+00 -0.48101367493E+03  0.48101367493E+03  0.00000000000E+00 0. -1.
         25    1    1    2    0    0 -0.13208723675E+03  0.87007069858E+02 -0.22489067872E+03  0.30202331979E+03  0.12500000000E+03 0.  0.
         25    1    1    2    0    0  0.13208723675E+03 -0.87007069858E+02 -0.17085359452E+03  0.26425975683E+03  0.12500000000E+03 0.  0.
</event>
<event>
 4    0  0.2151074E-002  0.2555549E+03  0.7546771E-02  0.1109844E+00
         21   -1    0    0  502  501  0.00000000000E+00  0.00000000000E+00  0.44254775655E+02  0.44254775655E+02  0.00000000000E+00 0. -1.
         21   -1    0    0  501  502 -0.00000000000E+00 -0.00000000000E+00 -0.14757342042E+04  0.14757342042E+04  0.00000000000E+00 0. -1.
         25    1    1    2    0    0  0.16609945977E+03 -0.11577096531E+01 -0.11577708020E+04  0.11762859349E+04  0.12500000000E+03 0.  0.
         25    1    1    2    0    0 -0.16609945977E+03  0.11577096531E+01 -0.27370862657E+03  0.34370304492E+03  0.12500000000E+03 0.  0.
</event>
<event>
 4    0  0.2151074E-002  0.2037471E+03  0.7546771E-02  0.1146616E+00
         21   -1    0    0  502  501  0.00000000000E+00  0.00000000000E+00  0.38947482632E+03  0.38947482632E+03  0.00000000000E+00 0.  1.
         21   -1    0    0  501  502 -0.00000000000E+00 -0.00000000000E+00 -0.10658683545E+03  0.10658683545E+03  0.00000000000E+00 0.  1.
         25    1    1    2    0    0 -0.94834055542E+02  0.94989786454E+02  0.33440380377E+02  0.18643984730E+03  0.12500000000E+03 0.  0.
         25    1    1    2    0    0  0.94834055542E+02 -0.94989786454E+02  0.24944761049E+03  0.30962181448E+03  0.12500000000E+03 0.  0.
</event>
<event>
 4    0  0.2151074E-002  0.3257709E+03  0.7546771E-02  0.1073024E+00
         21   -1    0    0  502  501  0.00000000000E+00  0.00000000000E+00  0.11743428778E+04  0.11743428778E+04  0.00000000000E+00 0.  1.
         21   -1    0    0  501  502 -0.00000000000E+00 -0.00000000000E+00 -0.90371126918E+02  0.90371126918E+02  0.00000000000E+00 0.  1.
         25    1    1    2    0    0  0.29248798416E+03  0.68980214166E+02  0.51493552625E+03  0.60917246082E+03  0.12500000000E+03 0.  0.
         25    1    1    2    0    0 -0.29248798416E+03 -0.68980214166E+02  0.56903622459E+03  0.65554154385E+03  0.12500000000E+03 0.  0.
</event>
<event>
 4    0  0.2151074E-002  0.2068969E+03  0.7546771E-02  0.1144047E+00
         21   -1    0    0  502  501  0.00000000000E+00  0.00000000000E+00  0.65378858914E+03  0.65378858914E+03  0.00000000000E+00 0.  1.
         21   -1    0    0  501  502 -0.00000000000E+00 -0.00000000000E+00 -0.65474249683E+02  0.65474249683E+02  0.00000000000E+00 0.  1.
         25    1    1    2    0    0  0.51849622340E+02  0.14487159508E+03  0.39706710454E+03  0.44380564204E+03  0.12500000000E+03 0.  0.
         25    1    1    2    0    0 -0.51849622340E+02 -0.14487159508E+03  0.19124723493E+03  0.27545719679E+03  0.12500000000E+03 0.  0.
</event>
<event>
 4    0  0.2151074E-002  0.2247257E+03  0.7546771E-02  0.1130408E+00
         21   -1    0    0  502  501  0.00000000000E+00  0.00000000000E+00  0.70081041107E+03  0.70081041107E+03  0.00000000000E+00 0. -1.
         21   -1    0    0  501  502 -0.00000000000E+00 -0.00000000000E+00 -0.72061755166E+02  0.72061755166E+02  0.00000000000E+00 0. -1.
         25    1    1    2    0    0 -0.25722131551E+02 -0.16690147458E+03  0.17724955856E+03  0.27488204066E+03  0.12500000000E+03 0.  0.
         25    1    1    2    0    0  0.25722131551E+02  0.16690147458E+03  0.45149909734E+03  0.49799012557E+03  0.12500000000E+03 0.  0.
</event>
<event>
 4    0  0.2151074E-002  0.1871126E+03  0.7546771E-02  0.1161092E+00
         21   -1    0    0  502  501  0.00000000000E+00  0.00000000000E+00  0.29426094433E+03  0.29426094433E+03  0.00000000000E+00 0.  1.
         21   -1    0    0  501  502 -0.00000000000E+00 -0.00000000000E+00 -0.11897980370E+03  0.11897980370E+03  0.00000000000E+00 0.  1.
         25    1    1    2    0    0  0.93627033007E+02  0.96754646274E+02  0.12681643981E+03  0.22323730041E+03  0.12500000000E+03 0.  0.
         25    1    1    2    0    0 -0.93627033007E+02 -0.96754646274E+02  0.48464700817E+02  0.19000344763E+03  0.12500000000E+03 0.  0.
</event>
<event>
 4    0  0.2151074E-002  0.1859487E+03  0.7546771E-02  0.1162167E+00
         21   -1    0    0  502  501  0.00000000000E+00  0.00000000000E+00  0.18572788698E+03  0.18572788698E+03  0.00000000000E+00 0.  1.
         21   -1    0    0  501  502 -0.00000000000E+00 -0.00000000000E+00 -0.18616973661E+03  0.18616973661E+03  0.00000000000E+00 0.  1.
         25    1    1    2    0    0  0.13047054857E+03 -0.29957154376E+02  0.31902557485E+02  0.18591064606E+03  0.12500000000E+03 0.  0.
         25    1    1    2    0    0 -0.13047054857E+03  0.29957154376E+02 -0.32344407114E+02  0.18598697754E+03  0.12500000000E+03 0.  0.
</event>
<event>
 4    0  0.2151074E-002  0.2449464E+03  0.7546771E-02  0.1116541E+00
         21   -1    0    0  502  501  0.00000000000E+00  0.00000000000E+00  0.34098520437E+03  0.34098520437E+03  0.00000000000E+00 0. -1.
         21   -1    0    0  501  502 -0.00000000000E+00 -0.00000000000E+00 -0.17595702320E+03  0.17595702320E+03  0.00000000000E+00 0. -1.
         25    1    1    2    0    0  0.16893953575E+03 -0.77955378669E+02 -0.21712808179E+02  0.22519781047E+03  0.12500000000E+03 0.  0.
         25    1    1    2    0    0 -0.16893953575E+03  0.77955378669E+02  0.18674098935E+03  0.29174441710E+03  0.12500000000E+03 0.  0.
</event>
<event>
 4    0  0.2151074E-002  0.2170130E+03  0.7546771E-02  0.1136130E+00
         21   -1    0    0  502  501  0.00000000000E+00  0.00000000000E+00  0.17069548202E+03  0.17069548202E+03  0.00000000000E+00 0.  1.
         21   -1    0    0  501  502 -0.00000000000E+00 -0.00000000000E+00 -0.27589869768E+03  0.27589869768E+03  0.00000000000E+00 0.  1.
         25    1    1    2    0    0 -0.67929854870E+02  0.14890846442E+03 -0.12300411505E+03  0.23988165473E+03  0.12500000000E+03 0.  0.
         25    1    1    2    0    0  0.67929854870E+02 -0.14890846442E+03  0.17800899385E+02  0.20671252497E+03  0.12500000000E+03 0.  0.
</event>
<event>
 4    0  0.2151074E-002  0.1825705E+03  0.7546771E-02  0.1165338E+00
         21   -1    0    0  502  501  0.00000000000E+00  0.00000000000E+00  0.14426654214E+03  0.14426654214E+03  0.00000000000E+00 0.  1.
         21   -1    0    0  501  502 -0.00000000000E+00 -0.00000000000E+00 -0.23104441011E+03  0.23104441011E+03  0.00000000000E+00 0.  1.
         25    1    1    2    0    0  0.48270021129E+02  0.12151756406E+03 -0.17993185600E+02  0.18178357474E+03  0.12500000000E+03 0.  0.
         25    1    1    2    0    0 -0.48270021129E+02 -0.12151756406E+03 -0.68784682369E+02  0.19352737751E+03  0.12500000000E+03 0.  0.
</event>
<event>
 4    0  0.2151074E-002  0.3093919E+03  0.7546771E-02  0.1080638E+00
         21   -1    0    0  502  501  0.00000000000E+00  0.00000000000E+00  0.43664767444E+02  0.43664767444E+02  0.00000000000E+00 0.  1.
         21   -1    0    0  501  502 -0.00000000000E+00 -0.00000000000E+00 -0.21922336730E+04  0.21922336730E+04  0.00000000000E+00 0.  1.
         25    1    1    2    0    0 -0.24341613241E+03 -0.58927197585E+02 -0.59799627217E+03  0.66026386367E+03  0.12500000000E+03 0.  0.
         25    1    1    2    0    0  0.24341613241E+03  0.58927197585E+02 -0.15505726334E+04  0.15756345768E+04  0.12500000000E+03 0.  0.
</event>
<event>
 4    0  0.2151074E-002  0.2287302E+03  0.7546771E-02  0.1127537E+00
         21   -1    0    0  502  501  0.00000000000E+00  0.00000000000E+00  0.18558797627E+03  0.18558797627E+03  0.00000000000E+00 0. -1.
         21   -1    0    0  501  502 -0.00000000000E+00 -0.00000000000E+00 -0.28190129802E+03  0.28190129802E+03  0.00000000000E+00 0. -1.
         25    1    1    2    0    0 -0.11373377611E+03  0.38276521460E+02 -0.20073503567E+03  0.26517921953E+03  0.12500000000E+03 0.  0.
         25    1    1    2    0    0  0.11373377611E+03 -0.38276521460E+02  0.10442171391E+03  0.20231005477E+03  0.12500000000E+03 0.  0.
</event>
<event>
 4    0  0.2151074E-002  0.3970434E+03  0.7546771E-02  0.1044808E+00
         21   -1    0    0  502  501  0.00000000000E+00  0.00000000000E+00  0.63462531601E+03  0.63462531601E+03  0.00000000000E+00 0. -1.
         21   -1    0    0  501  502 -0.00000000000E+00 -0.00000000000E+00 -0.24840395779E+03  0.24840395779E+03  0.00000000000E+00 0. -1.
         25    1    1    2    0    0 -0.14740272043E+01 -0.37645234325E+03  0.17385335653E+03  0.43309182522E+03  0.12500000000E+03 0.  0.
         25    1    1    2    0    0  0.14740272043E+01  0.37645234325E+03  0.21236800169E+03  0.44993744858E+03  0.12500000000E+03 0.  0.
</event>
<event>
 4    0  0.2151074E-002  0.2577877E+03  0.7546771E-02  0.1108480E+00
         21   -1    0    0  502  501  0.00000000000E+00  0.00000000000E+00  0.31883173990E+03  0.31883173990E+03  0.00000000000E+00 0.  1.
         21   -1    0    0  501  502 -0.00000000000E+00 -0.00000000000E+00 -0.20843129171E+03  0.20843129171E+03  0.00000000000E+00 0.  1.
         25    1    1    2    0    0 -0.22268811395E+03 -0.34558593993E+02  0.62077159740E+02  0.26507143617E+03  0.12500000000E+03 0.  0.
         25    1    1    2    0    0  0.22268811395E+03  0.34558593993E+02  0.48323288453E+02  0.26219159544E+03  0.12500000000E+03 0.  0.
</event>
<event>
 4    0  0.2151074E-002  0.2483723E+03  0.7546771E-02  0.1114338E+00
         21   -1    0    0  502  501  0.00000000000E+00  0.00000000000E+00  0.24149344905E+04  0.24149344905E+04  0.00000000000E+00 0. -1.
         21   -1    0    0  501  502 -0.00000000000E+00 -0.00000000000E+00 -0.25544704925E+02  0.25544704925E+02  0.00000000000E+00 0. -1.
         25    1    1    2    0    0 -0.18784509943E+02 -0.20997744366E+03  0.13924618297E+04  0.14138664477E+04  0.12500000000E+03 0.  0.
         25    1    1    2    0    0  0.18784509943E+02  0.20997744366E+03  0.99692795582E+03  0.10266127477E+04  0.12500000000E+03 0.  0.
</event>
<event>
 4    0  0.2151074E-002  0.2050035E+03  0.7546771E-02  0.1145585E+00
         21   -1    0    0  502  501  0.00000000000E+00  0.00000000000E+00  0.10297566572E+03  0.10297566572E+03  0.00000000000E+00 0. -1.
         21   -1    0    0  501  502 -0.00000000000E+00 -0.00000000000E+00 -0.40811997156E+03  0.40811997156E+03  0.00000000000E+00 0. -1.
         25    1    1    2    0    0 -0.13833093256E+03  0.85142753370E+02 -0.15766481014E+03  0.25858833638E+03  0.12500000000E+03 0.  0.
         25    1    1    2    0    0  0.13833093256E+03 -0.85142753370E+02 -0.14747949571E+03  0.25250730090E+03  0.12500000000E+03 0.  0.
</event>
<event>
 4    0  0.2151074E-002  0.2001022E+03  0.7546771E-02  0.1149653E+00
         21   -1    0    0  502  501  0.00000000000E+00  0.00000000000E+00  0.20224505792E+03  0.20224505792E+03  0.00000000000E+00 0. -1.
         21   -1    0    0  501  502 -0.00000000000E+00 -0.00000000000E+00 -0.19798196543E+03  0.19798196543E+03  0.00000000000E+00 0. -1.
         25    1    1    2    0    0  0.13756185142E+03  0.62174663712E+02  0.42468959415E+02  0.20054317313E+03  0.12500000000E+03 0.  0.
         25    1    1    2    0    0 -0.13756185142E+03 -0.62174663712E+02 -0.38205866928E+02  0.19968385023E+03  0.12500000000E+03 0.  0.
</event>
<event>
 4    0  0.2151074E-002  0.2465304E+03  0.7546771E-02  0.1115517E+00
         21   -1    0    0  502  501  0.00000000000E+00  0.00000000000E+00  0.38549482346E+03  0.38549482346E+03  0.00000000000E+00 0. -1.
         21   -1    0    0  501  502 -0.00000000000E+00 -0.00000000000E+00 -0.15766027261E+03  0.15766027261E+03  0.00000000000E+00 0. -1.
         25    1    1    2    0    0  0.19535778085E+03 -0.16693242693E+02  0.23687712511E+02  0.23372940468E+03  0.12500000000E+03 0.  0.
         25    1    1    2    0    0 -0.19535778085E+03  0.16693242693E+02  0.20414683833E+03  0.30942569139E+03  0.12500000000E+03 0.  0.
</event>
<event>
 4    0  0.2151074E-002  0.3093891E+03  0.7546771E-02  0.1080639E+00
         21   -1    0    0  502  501  0.00000000000E+00  0.00000000000E+00  0.58072709974E+02  0.58072709974E+02  0.00000000000E+00 0.  1.
         21   -1    0    0  501  502 -0.00000000000E+00 -0.00000000000E+00 -0.16483061323E+04  0.16483061323E+04  0.00000000000E+00 0.  1.
         25    1    1    2    0    0 -0.19659914404E+03 -0.19381301990E+03 -0.96693219753E+03  0.10133102115E+04  0.12500000000E+03 0.  0.
         25    1    1    2    0    0  0.19659914404E+03  0.19381301990E+03 -0.62330122474E+03  0.69306863072E+03  0.12500000000E+03 0.  0.
</event>
<event>
 4    0  0.2151074E-002  0.4400953E+03  0.7546771E-02  0.1030718E+00
         21   -1    0    0  502  501  0.00000000000E+00  0.00000000000E+00  0.14311867710E+03  0.14311867710E+03  0.00000000000E+00 0.  1.
         21   -1    0    0  501  502 -0.00000000000E+00 -0.00000000000E+00 -0.13533095861E+04  0.13533095861E+04  0.00000000000E+00 0.  1.
         25    1    1    2    0    0  0.36540589938E+03  0.88485899025E+02 -0.93082524055E+03  0.10116382032E+04  0.12500000000E+03 0.  0.
         25    1    1    2    0    0 -0.36540589938E+03 -0.88485899025E+02 -0.27936566847E+03  0.48479006008E+03  0.12500000000E+03 0.  0.
</event>
<event>
 4    0  0.2151074E-002  0.2187800E+03  0.7546771E-02  0.1134796E+00
         21   -1    0    0  502  501  0.00000000000E+00  0.00000000000E+00  0.37326433403E+02  0.37326433403E+02  0.00000000000E+00 0.  1.
         21   -1    0    0  501  502 -0.00000000000E+00 -0.00000000000E+00 -0.12823266782E+04  0.12823266782E+04  0.00000000000E+00 0.  1.
         25    1    1    2    0    0  0.12048323457E+02  0.85503379882E+02 -0.10972940980E+04  0.11077614037E+04  0.12500000000E+03 0.  0.
         25    1    1    2    0    0 -0.12048323457E+02 -0.85503379882E+02 -0.14770614681E+03  0.21189170790E+03  0.12500000000E+03 0.  0.
</event>
<event>
 4    0  0.2151074E-002  0.1990260E+03  0.7546771E-02  0.1150563E+00
         21   -1    0    0  502  501  0.00000000000E+00  0.00000000000E+00  0.25642209084E+04  0.25642209084E+04  0.00000000000E+00 0.  1.
         21   -1    0    0  501  502 -0.00000000000E+00 -0.00000000000E+00 -0.15447716461E+02  0.15447716461E+02  0.00000000000E+00 0.  1.
         25    1    1    2    0    0  0.22342721971E+02 -0.70200743166E+02  0.21572663045E+04  0.21621402013E+04  0.12500000000E+03 0.  0.
         25    1    1    2    0    0 -0.22342721971E+02  0.70200743166E+02  0.39150688745E+03  0.41752842357E+03  0.12500000000E+03 0.  0.
</event>
<event>
 4    0  0.2151074E-002  0.2230596E+03  0.7546771E-02  0.1131622E+00
         21   -1    0    0  502  501  0.00000000000E+00  0.00000000000E+00  0.21851835250E+03  0.21851835250E+03  0.00000000000E+00 0. -1.
         21   -1    0    0  501  502 -0.00000000000E+00 -0.00000000000E+00 -0.22769513244E+03  0.22769513244E+03  0.00000000000E+00 0. -1.
         25    1    1    2    0    0 -0.12673748811E+03  0.69492249668E+01 -0.13885494365E+03  0.22586805439E+03  0.12500000000E+03 0.  0.
         25    1    1    2    0    0  0.12673748811E+03 -0.69492249668E+01  0.12967816371E+03  0.22034543055E+03  0.12500000000E+03 0.  0.
</event>
<event>
 4    0  0.2151074E-002  0.2002052E+03  0.7546771E-02  0.1149566E+00
         21   -1    0    0  502  501  0.00000000000E+00  0.00000000000E+00  0.89849772428E+03  0.89849772428E+03  0.00000000000E+00 0.  1.
         21   -1    0    0  501  502 -0.00000000000E+00 -0.00000000000E+00 -0.44610174119E+02  0.44610174119E+02  0.00000000000E+00 0.  1.
         25    1    1    2    0    0 -0.15291080186E+03 -0.32263616009E+02  0.41311208165E+03  0.45903076830E+03  0.12500000000E+03 0.  0.
         25    1    1    2    0    0  0.15291080186E+03  0.32263616009E+02  0.44077546852E+03  0.48407713010E+03  0.12500000000E+03 0.  0.
</event>
<event>
 4    0  0.2151074E-002  0.2462862E+03  0.7546771E-02  0.1115675E+00
         21   -1    0    0  502  501  0.00000000000E+00  0.00000000000E+00  0.29108168624E+03  0.29108168624E+03  0.00000000000E+00 0. -1.
         21   -1    0    0  501  502 -0.00000000000E+00 -0.00000000000E+00 -0.20838442255E+03  0.20838442255E+03  0.00000000000E+00 0. -1.
         25    1    1    2    0    0 -0.18850995056E+03 -0.95999562461E+02  0.24382103313E+02  0.24692388384E+03  0.12500000000E+03 0.  0.
         25    1    1    2    0    0  0.18850995056E+03  0.95999562461E+02  0.58315160369E+02  0.25254222494E+03  0.12500000000E+03 0.  0.
</event>
<event>
 4    0  0.2151074E-002  0.1919888E+03  0.7546771E-02  0.1156680E+00
         21   -1    0    0  502  501  0.00000000000E+00  0.00000000000E+00  0.14055225164E+03  0.14055225164E+03  0.00000000000E+00 0. -1.
         21   -1    0    0  501  502 -0.00000000000E+00 -0.00000000000E+00 -0.26224909107E+03  0.26224909107E+03  0.00000000000E+00 0. -1.
         25    1    1    2    0    0 -0.87547763693E+02  0.90784898154E+02  0.15724451230E+02  0.17826600076E+03  0.12500000000E+03 0.  0.
         25    1    1    2    0    0  0.87547763693E+02 -0.90784898154E+02 -0.13742129066E+03  0.22453534195E+03  0.12500000000E+03 0.  0.
</event>
<event>
 4    0  0.2151074E-002  0.2300737E+03  0.7546771E-02  0.1126588E+00
         21   -1    0    0  502  501  0.00000000000E+00  0.00000000000E+00  0.14805470883E+03  0.14805470883E+03  0.00000000000E+00 0. -1.
         21   -1    0    0  501  502 -0.00000000000E+00 -0.00000000000E+00 -0.35752937504E+03  0.35752937504E+03  0.00000000000E+00 0. -1.
         25    1    1    2    0    0  0.10575192969E+03  0.12360470805E+03  0.96973068231E+01  0.20537924005E+03  0.12500000000E+03 0.  0.
         25    1    1    2    0    0 -0.10575192969E+03 -0.12360470805E+03 -0.21917197304E+03  0.30020484382E+03  0.12500000000E+03 0.  0.
</event>
<event>
 4    0  0.2151074E-002  0.2348862E+03  0.7546771E-02  0.1123247E+00
         21   -1    0    0  502  501  0.00000000000E+00  0.00000000000E+00  0.93221479375E+03  0.93221479375E+03  0.00000000000E+00 0. -1.
         21   -1    0    0  501  502 -0.00000000000E+00 -0.00000000000E+00 -0.59183283256E+02  0.59183283256E+02  0.00000000000E+00 0. -1.
         25    1    1    2    0    0 -0.19509884947E+03  0.38152676093E+00  0.35525037220E+03  0.42413622054E+03  0.12500000000E+03 0.  0.
         25    1    1    2    0    0  0.19509884947E+03 -0.38152676093E+00  0.51778113830E+03  0.56726185647E+03  0.12500000000E+03 0.  0.
</event>
<event>
 4    0  0.2151074E-002  0.3277868E+03  0.7546771E-02  0.1072120E+00
         21   -1    0    0  502  501  0.00000000000E+00  0.00000000000E+00  0.91301008456E+03  0.91301008456E+03  0.00000000000E+00 0. -1.
         21   -1    0    0  501  502 -0.00000000000E+00 -0.00000000000E+00 -0.11768125798E+03  0.11768125798E+03  0.00000000000E+00 0. -1.
         25    1    1    2    0    0  0.26352925074E+03  0.14614809156E+03  0.34764369354E+03  0.47674738418E+03  0.12500000000E+03 0.  0.
         25    1    1    2    0    0 -0.26352925074E+03 -0.14614809156E+03  0.44768513304E+03  0.55394395837E+03  0.12500000000E+03 0.  0.
</event>
<event>
 4    0  0.2151074E-002  0.2320960E+03  0.7546771E-02  0.1125173E+00
         21   -1    0    0  502  501  0.00000000000E+00  0.00000000000E+00  0.66589718949E+02  0.66589718949E+02  0.00000000000E+00 0. -1.
         21   -1    0    0  501  502 -0.00000000000E+00 -0.00000000000E+00 -0.80896180438E+03  0.80896180438E+03  0.00000000000E+00 0. -1.
         25    1    1    2    0    0  0.10056981421E+03  0.11331380810E+03 -0.60441203868E+03  0.63552593899E+03  0.12500000000E+03 0.  0.
         25    1    1    2    0    0 -0.10056981421E+03 -0.11331380810E+03 -0.13796004676E+03  0.24002558434E+03  0.12500000000E+03 0.  0.
</event>
<event>
 4    0  0.2151074E-002  0.2439493E+03  0.7546771E-02  0.1117190E+00
         21   -1    0    0  502  501  0.00000000000E+00  0.00000000000E+00  0.17527863197E+03  0.17527863197E+03  0.00000000000E+00 0. -1.
         21   -1    0    0  501  502 -0.00000000000E+00 -0.00000000000E+00 -0.33952389498E+03  0.33952389498E+03  0.00000000000E+00 0. -1.
         25    1    1    2    0    0 -0.14643054182E+03 -0.19841312814E+02  0.74560495439E+02  0.20741226760E+03  0.12500000000E+03 0.  0.
         25    1    1    2    0    0  0.14643054182E+03  0.19841312814E+02 -0.23880575845E+03  0.30739025935E+03  0.12500000000E+03 0.  0.
</event>
<event>
 4    0  0.2151074E-002  0.2161311E+03  0.7546771E-02  0.1136801E+00
         21   -1    0    0  502  501  0.00000000000E+00  0.00000000000E+00  0.15379837872E+04  0.15379837872E+04  0.00000000000E+00 0.  1.
         21   -1    0    0  501  502 -0.00000000000E+00 -0.00000000000E+00 -0.30372654193E+02  0.30372654193E+02  0.00000000000E+00 0.  1.
         25    1    1    2    0    0  0.23707441002E+02 -0.16427425982E+03  0.96966600513E+03  0.99167799043E+03  0.12500000000E+03 0.  0.
         25    1    1    2    0    0 -0.23707441002E+02  0.16427425982E+03  0.53794512785E+03  0.57667845094E+03  0.12500000000E+03 0.  0.
</event>
<event>
 4    0  0.2151074E-002  0.2428474E+03  0.7546771E-02  0.1117910E+00
         21   -1    0    0  502  501  0.00000000000E+00  0.00000000000E+00  0.47909340392E+03  0.47909340392E+03  0.00000000000E+00 0. -1.
         21   -1    0    0  501  502 -0.00000000000E+00 -0.00000000000E+00 -0.12309674437E+03  0.12309674437E+03  0.00000000000E+00 0. -1.
         25    1    1    2    0    0 -0.10216390488E+03  0.29335579719E+02  0.39996944994E+03  0.43231770792E+03  0.12500000000E+03 0.  0.
         25    1    1    2    0    0  0.10216390488E+03 -0.29335579719E+02 -0.43972790390E+02  0.16987244036E+03  0.12500000000E+03 0.  0.
</event>
<event>
 4    0  0.2151074E-002  0.2778816E+03  0.7546771E-02  0.1096852E+00
         21   -1    0    0  502  501  0.00000000000E+00  0.00000000000E+00  0.12166365812E+03  0.12166365812E+03  0.00000000000E+00 0.  1.
         21   -1    0    0  501  502 -0.00000000000E+00 -0.00000000000E+00 -0.63468560095E+03  0.63468560095E+03  0.00000000000E+00 0.  1.
         25    1    1    2    0    0 -0.39744437581E+02  0.21846783608E+03 -0.40735443967E+03  0.48048980763E+03  0.12500000000E+03 0.  0.
         25    1    1    2    0    0  0.39744437581E+02 -0.21846783608E+03 -0.10566750317E+03  0.27585945144E+03  0.12500000000E+03 0.  0.
</event>
<event>
 4    0  0.2151074E-002  0.2091862E+03  0.7546771E-02  0.1142212E+00
         21   -1    0    0  502  501  0.00000000000E+00  0.00000000000E+00  0.14885321715E+03  0.14885321715E+03  0.00000000000E+00 0. -1.
         21   -1    0    0  501  502 -0.00000000000E+00 -0.00000000000E+00 -0.29397321615E+03  0.29397321615E+03  0.00000000000E+00 0. -1.
         25    1    1    2    0    0 -0.16282804316E+03  0.40112551539E+02 -0.68913250046E+02  0.22021812928E+03  0.12500000000E+03 0.  0.
         25    1    1    2    0    0  0.16282804316E+03 -0.40112551539E+02 -0.76206748961E+02  0.22260830402E+03  0.12500000000E+03 0.  0.
</event>
<event>
 4    0  0.2151074E-002  0.4059493E+03  0.7546771E-02  0.1041739E+00
         21   -1    0    0  502  501  0.00000000000E+00  0.00000000000E+00  0.51760743960E+03  0.51760743960E+03  0.00000000000E+00 0.  1.
         21   -1    0    0  501  502 -0.00000000000E+00 -0.00000000000E+00 -0.31837803488E+03  0.31837803488E+03  0.00000000000E+00 0.  1.
         25    1    1    2    0    0  0.24628090762E+03  0.28911694539E+03  0.27340080514E+02  0.40076847877E+03  0.12500000000E+03 0.  0.
         25    1    1    2    0    0 -0.24628090762E+03 -0.28911694539E+03  0.17188932422E+03  0.43521699571E+03  0.12500000000E+03 0.  0.
</event>
<event>
 4    0  0.2151074E-002  0.1564766E+03  0.7546771E-02  0.1192733E+00
         21   -1    0    0  502  501  0.00000000000E+00  0.00000000000E+00  0.16209408677E+03  0.16209408677E+03  0.00000000000E+00 0.  1.
         21   -1    0    0  501  502 -0.00000000000E+00 -0.00000000000E+00 -0.15105374766E+03  0.15105374766E+03  0.00000000000E+00 0.  1.
         25    1    1    2    0    0 -0.53424357207E+02  0.40286789993E+02 -0.60723217589E+02  0.15423844056E+03  0.12500000000E+03 0.  0.
         25    1    1    2    0    0  0.53424357207E+02 -0.40286789993E+02  0.71763556697E+02  0.15890939387E+03  0.12500000000E+03 0.  0.
</event>
<event>
 4    0  0.2151074E-002  0.2883259E+03  0.7546771E-02  0.1091226E+00
         21   -1    0    0  502  501  0.00000000000E+00  0.00000000000E+00  0.67960669224E+03  0.67960669224E+03  0.00000000000E+00 0.  1.
         21   -1    0    0  501  502 -0.00000000000E+00 -0.00000000000E+00 -0.12232342713E+03  0.12232342713E+03  0.00000000000E+00 0.  1.
         25    1    1    2    0    0  0.96276656608E+02  0.14525027994E+02 -0.56352060275E+02  0.16816874187E+03  0.12500000000E+03 0.  0.
         25    1    1    2    0    0 -0.96276656608E+02 -0.14525027994E+02  0.61363532538E+03  0.63376137749E+03  0.12500000000E+03 0.  0.
</event>
<event>
 4    0  0.2151074E-002  0.2506801E+03  0.7546771E-02  0.1112876E+00
         21   -1    0    0  502  501  0.00000000000E+00  0.00000000000E+00  0.21238399716E+03  0.21238399716E+03  0.00000000000E+00 0. -1.
         21   -1    0    0  501  502 -0.00000000000E+00 -0.00000000000E+00 -0.29588154795E+03  0.29588154795E+03  0.00000000000E+00 0. -1.
         25    1    1    2    0    0  0.20152626606E+03 -0.74602439076E+02 -0.74397091661E+02  0.25949621785E+03  0.12500000000E+03 0.  0.
         25    1    1    2    0    0 -0.20152626606E+03  0.74602439076E+02 -0.91004591230E+01  0.24876932726E+03  0.12500000000E+03 0.  0.
</event>
<event>
 4    0  0.2151074E-002  0.2471182E+03  0.7546771E-02  0.1115140E+00
         21   -1    0    0  502  501  0.00000000000E+00  0.00000000000E+00  0.10996041114E+04  0.10996041114E+04  0.00000000000E+00 0. -1.
         21   -1    0    0  501  502 -0.00000000000E+00 -0.00000000000E+00 -0.55535823275E+02  0.55535823275E+02  0.00000000000E+00 0. -1.
         25    1    1    2    0    0  0.13930657477E+03  0.14502318411E+03  0.35669537764E+03  0.42812923064E+03  0.12500000000E+03 0.  0.
         25    1    1    2    0    0 -0.13930657477E+03 -0.14502318411E+03  0.68737291046E+03  0.72701070400E+03  0.12500000000E+03 0.  0.
</event>
<event>
 4    0  0.2151074E-002  0.1713515E+03  0.7546771E-02  0.1176446E+00
         21   -1    0    0  502  501  0.00000000000E+00  0.00000000000E+00  0.36846622453E+03  0.36846622453E+03  0.00000000000E+00 0. -1.
         21   -1    0    0  501  502 -0.00000000000E+00 -0.00000000000E+00 -0.79685301705E+02  0.79685301705E+02  0.00000000000E+00 0. -1.
         25    1    1    2    0    0  0.62733779204E+02  0.97533493615E+02  0.16658407060E+03  0.23837693263E+03  0.12500000000E+03 0.  0.
         25    1    1    2    0    0 -0.62733779204E+02 -0.97533493615E+02  0.12219685222E+03  0.20977459361E+03  0.12500000000E+03 0.  0.
</event>
<event>
 4    0  0.2151074E-002  0.2686823E+03  0.7546771E-02  0.1102036E+00
         21   -1    0    0  502  501  0.00000000000E+00  0.00000000000E+00  0.42798312227E+03  0.42798312227E+03  0.00000000000E+00 0.  1.
         21   -1    0    0  501  502 -0.00000000000E+00 -0.00000000000E+00 -0.16867523275E+03  0.16867523275E+03  0.00000000000E+00 0.  1.
         25    1    1    2    0    0  0.95059274518E+02 -0.20813934518E+03  0.20167141285E+03  0.32962798947E+03  0.12500000000E+03 0.  0.
         25    1    1    2    0    0 -0.95059274518E+02  0.20813934518E+03  0.57636476666E+02  0.26703036555E+03  0.12500000000E+03 0.  0.
</event>
<event>
 4    0  0.2151074E-002  0.2451082E+03  0.7546771E-02  0.1116436E+00
         21   -1    0    0  502  501  0.00000000000E+00  0.00000000000E+00  0.44880285467E+03  0.44880285467E+03  0.00000000000E+00 0. -1.
         21   -1    0    0  501  502 -0.00000000000E+00 -0.00000000000E+00 -0.13386279816E+03  0.13386279816E+03  0.00000000000E+00 0. -1.
         25    1    1    2    0    0 -0.75515430623E+01 -0.16978102014E+03  0.91563014553E+01  0.21116689717E+03  0.12500000000E+03 0.  0.
         25    1    1    2    0    0  0.75515430623E+01  0.16978102014E+03  0.30578375506E+03  0.37149875567E+03  0.12500000000E+03 0.  0.
</event>
<event>
 4    0  0.2151074E-002  0.2287616E+03  0.7546771E-02  0.1127514E+00
         21   -1    0    0  502  501  0.00000000000E+00  0.00000000000E+00  0.13543336808E+03  0.13543336808E+03  0.00000000000E+00 0.  1.
         21   -1    0    0  501  502 -0.00000000000E+00 -0.00000000000E+00 -0.38640313496E+03  0.38640313496E+03  0.00000000000E+00 0.  1.
         25    1    1    2    0    0 -0.11155300869E+03  0.86945581063E+02 -0.27289322242E+03  0.33181217376E+03  0.12500000000E+03 0.  0.
         25    1    1    2    0    0  0.11155300869E+03 -0.86945581063E+02  0.21923455542E+02  0.19002432928E+03  0.12500000000E+03 0.  0.
</event>
<event>
 4    0  0.2151074E-002  0.1707622E+03  0.7546771E-02  0.1177055E+00
         21   -1    0    0  502  501  0.00000000000E+00  0.00000000000E+00  0.11477268159E+04  0.11477268159E+04  0.00000000000E+00 0.  1.
         21   -1    0    0  501  502 -0.00000000000E+00 -0.00000000000E+00 -0.25406515538E+02  0.25406515538E+02  0.00000000000E+00 0.  1.
         25    1    1    2    0    0 -0.70731451584E+02  0.73615082934E+02  0.75280124710E+03  0.76990703095E+03  0.12500000000E+03 0.  0.
         25    1    1    2    0    0  0.70731451584E+02 -0.73615082934E+02  0.36951905329E+03  0.40322630051E+03  0.12500000000E+03 0.  0.
</event>
<event>
 4    0  0.2151074E-002  0.2803429E+03  0.7546771E-02  0.1095502E+00
         21   -1    0    0  502  501  0.00000000000E+00  0.00000000000E+00  0.33912529200E+03  0.33912529200E+03  0.00000000000E+00 0.  1.
         21   -1    0    0  501  502 -0.00000000000E+00 -0.00000000000E+00 -0.23174958432E+03  0.23174958432E+03  0.00000000000E+00 0.  1.
         25    1    1    2    0    0  0.18825654874E+03 -0.16534495007E+03  0.67635880472E+02  0.28806091888E+03  0.12500000000E+03 0.  0.
         25    1    1    2    0    0 -0.18825654874E+03  0.16534495007E+03  0.39739827203E+02  0.28281395744E+03  0.12500000000E+03 0.  0.
</event>
<event>
 4    0  0.2151074E-002  0.2110548E+03  0.7546771E-02  0.1140733E+00
         21   -1    0    0  502  501  0.00000000000E+00  0.00000000000E+00  0.59644232953E+02  0.59644232953E+02  0.00000000000E+00 0. -1.
         21   -1    0    0  501  502 -0.00000000000E+00 -0.00000000000E+00 -0.74683028579E+03  0.74683028579E+03  0.00000000000E+00 0. -1.
         25    1    1    2    0    0 -0.95700371936E+02 -0.62137805278E+02 -0.58450397412E+03  0.60851422646E+03  0.12500000000E+03 0.  0.
         25    1    1    2    0    0  0.95700371936E+02  0.62137805278E+02 -0.10268207871E+03  0.19796029229E+03  0.12500000000E+03 0.  0.
</event>
<event>
 4    0  0.2151074E-002  0.2900750E+03  0.7546771E-02  0.1090310E+00
         21   -1    0    0  502  501  0.00000000000E+00  0.00000000000E+00  0.32083446826E+03  0.32083446826E+03  0.00000000000E+00 0.  1.
         21   -1    0    0  501  502 -0.00000000000E+00 -0.00000000000E+00 -0.26226461094E+03  0.26226461094E+03  0.00000000000E+00 0.  1.
         25    1    1    2    0    0  0.27694753456E+01  0.11572109315E+03 -0.20668387018E+03  0.26784746328E+03  0.12500000000E+03 0.  0.
         25    1    1    2    0    0 -0.27694753456E+01 -0.11572109315E+03  0.26525372750E+03  0.31525161593E+03  0.12500000000E+03 0.  0.
</event>
<event>
 4    0  0.2151074E-002  0.3039071E+03  0.7546771E-02  0.1083304E+00
         21   -1    0    0  502  501  0.00000000000E+00  0.00000000000E+00  0.83149417095E+02  0.83149417095E+02  0.00000000000E+00 0.  1.
         21   -1    0    0  501  502 -0.00000000000E+00 -0.00000000000E+00 -0.11107654709E+04  0.11107654709E+04  0.00000000000E+00 0.  1.
         25    1    1    2    0    0 -0.63925497688E+02 -0.25815475734E+03 -0.36160318319E+03  0.46595301274E+03  0.12500000000E+03 0.  0.
         25    1    1    2    0    0  0.63925497688E+02  0.25815475734E+03 -0.66601287063E+03  0.72796187526E+03  0.12500000000E+03 0.  0.
</event>
<event>
 4    0  0.2151074E-002  0.2316599E+03  0.7546771E-02  0.1125477E+00
         21   -1    0    0  502  501  0.00000000000E+00  0.00000000000E+00  0.29714136438E+03  0.29714136438E+03  0.00000000000E+00 0. -1.
         21   -1    0    0  501  502 -0.00000000000E+00 -0.00000000000E+00 -0.18060861785E+03  0.18060861785E+03  0.00000000000E+00 0. -1.
         25    1    1    2    0    0  0.12759486690E+03 -0.14252809213E+03  0.19047805923E+02  0.22930880056E+03  0.12500000000E+03 0.  0.
         25    1    1    2    0    0 -0.12759486690E+03  0.14252809213E+03  0.97484940611E+02  0.24844118167E+03  0.12500000000E+03 0.  0.
</event>
<event>
 4    0  0.2151074E-002  0.2657234E+03  0.7546771E-02  0.1103752E+00
         21   -1    0    0  502  501  0.00000000000E+00  0.00000000000E+00  0.32014173924E+03  0.32014173924E+03  0.00000000000E+00 0.  1.
         21   -1    0    0  501  502 -0.00000000000E+00 -0.00000000000E+00 -0.22055517329E+03  0.22055517329E+03  0.00000000000E+00 0.  1.
         25    1    1    2    0    0  0.13861272296E+03  0.49623895711E+01  0.24214969045E+03  0.30577701821E+03  0.12500000000E+03 0.  0.
         25    1    1    2    0    0 -0.13861272296E+03 -0.49623895711E+01 -0.14256312450E+03  0.23491989432E+03  0.12500000000E+03 0.  0.
</event>
<event>
 4    0  0.2151074E-002  0.2042788E+03  0.7546771E-02  0.1146178E+00
         21   -1    0    0  502  501  0.00000000000E+00  0.00000000000E+00  0.25953721814E+03  0.25953721814E+03  0.00000000000E+00 0.  1.
         21   -1    0    0  501  502 -0.00000000000E+00 -0.00000000000E+00 -0.16078555246E+03  0.16078555246E+03  0.00000000000E+00 0.  1.
         25    1    1    2    0    0  0.12312433302E+03  0.58155361157E+02  0.13884677794E+03  0.23118190923E+03  0.12500000000E+03 0.  0.
         25    1    1    2    0    0 -0.12312433302E+03 -0.58155361157E+02 -0.40095112260E+02  0.18914086137E+03  0.12500000000E+03 0.  0.
</event>
<event>
 4    0  0.2151074E-002  0.2017964E+03  0.7546771E-02  0.1148232E+00
         21   -1    0    0  502  501  0.00000000000E+00  0.00000000000E+00  0.37402091842E+02  0.37402091842E+02  0.00000000000E+00 0. -1.
         21   -1    0    0  501  502 -0.00000000000E+00 -0.00000000000E+00 -0.10887573761E+04  0.10887573761E+04  0.00000000000E+00 0. -1.
         25    1    1    2    0    0 -0.99477147901E+02 -0.11934406972E+03 -0.61204712698E+03  0.64371219934E+03  0.12500000000E+03 0.  0.
         25    1    1    2    0    0  0.99477147901E+02  0.11934406972E+03 -0.43930815730E+03  0.48244726862E+03  0.12500000000E+03 0.  0.
</event>
<event>
 4    0  0.2151074E-002  0.3738780E+03  0.7546771E-02  0.1053220E+00
         21   -1    0    0  502  501  0.00000000000E+00  0.00000000000E+00  0.50179735726E+03  0.50179735726E+03  0.00000000000E+00 0. -1.
         21   -1    0    0  501  502 -0.00000000000E+00 -0.00000000000E+00 -0.27856817368E+03  0.27856817368E+03  0.00000000000E+00 0.  1.
         25    1    1    2    0    0  0.31998171617E+03 -0.12427812237E+03  0.28607105586E+02  0.36643787588E+03  0.12500000000E+03 0.  0.
         25    1    1    2    0    0 -0.31998171617E+03  0.12427812237E+03  0.19462207799E+03  0.41392765507E+03  0.12500000000E+03 0.  0.
</event>
<event>
 4    0  0.2151074E-002  0.3108625E+03  0.7546771E-02  0.1079933E+00
         21   -1    0    0  502  501  0.00000000000E+00  0.00000000000E+00  0.18330670325E+03  0.18330670325E+03  0.00000000000E+00 0. -1.
         21   -1    0    0  501  502 -0.00000000000E+00 -0.00000000000E+00 -0.52717923388E+03  0.52717923388E+03  0.00000000000E+00 0. -1.
         25    1    1    2    0    0  0.74064013104E+02  0.18492084462E+03  0.60383491903E+02  0.24280107682E+03  0.12500000000E+03 0.  0.
         25    1    1    2    0    0 -0.74064013104E+02 -0.18492084462E+03 -0.40425602253E+03  0.46768486031E+03  0.12500000000E+03 0.  0.
</event>
<event>
 4    0  0.2151074E-002  0.1945156E+03  0.7546771E-02  0.1154450E+00
         21   -1    0    0  502  501  0.00000000000E+00  0.00000000000E+00  0.52186408068E+02  0.52186408068E+02  0.00000000000E+00 0. -1.
         21   -1    0    0  501  502 -0.00000000000E+00 -0.00000000000E+00 -0.72502276839E+03  0.72502276839E+03  0.00000000000E+00 0. -1.
         25    1    1    2    0    0 -0.43236485452E+02 -0.14250166836E+03 -0.34827358997E+03  0.39886791376E+03  0.12500000000E+03 0.  0.
         25    1    1    2    0    0  0.43236485452E+02  0.14250166836E+03 -0.32456277036E+03  0.37834126270E+03  0.12500000000E+03 0.  0.
</event>
<event>
 4    0  0.2151074E-002  0.1807521E+03  0.7546771E-02  0.1167077E+00
         21   -1    0    0  502  501  0.00000000000E+00  0.00000000000E+00  0.34805727486E+03  0.34805727486E+03  0.00000000000E+00 0. -1.
         21   -1    0    0  501  502 -0.00000000000E+00 -0.00000000000E+00 -0.93867676449E+02  0.93867676449E+02  0.00000000000E+00 0. -1.
         25    1    1    2    0    0  0.55815475709E+02  0.10072957126E+03  0.20229866792E+03  0.26421878225E+03  0.12500000000E+03 0.  0.
         25    1    1    2    0    0 -0.55815475709E+02 -0.10072957126E+03  0.51890930501E+02  0.17770616906E+03  0.12500000000E+03 0.  0.
</event>
<event>
 4    0  0.2151074E-002  0.2481455E+03  0.7546771E-02  0.1114482E+00
         21   -1    0    0  502  501  0.00000000000E+00  0.00000000000E+00  0.59952854400E+03  0.59952854400E+03  0.00000000000E+00 0.  1.
         21   -1    0    0  501  502 -0.00000000000E+00 -0.00000000000E+00 -0.10270770124E+03  0.10270770124E+03  0.00000000000E+00 0.  1.
         25    1    1    2    0    0 -0.31266281334E+02  0.12367501094E+03  0.49217181719E+03  0.52357538742E+03  0.12500000000E+03 0.  0.
         25    1    1    2    0    0  0.31266281334E+02 -0.12367501094E+03  0.46490255696E+01  0.17866085782E+03  0.12500000000E+03 0.  0.
</event>
<event>
 4    0  0.2151074E-002  0.1846017E+03  0.7546771E-02  0.1163422E+00
         21   -1    0    0  502  501  0.00000000000E+00  0.00000000000E+00  0.10267870176E+03  0.10267870176E+03  0.00000000000E+00 0. -1.
         21   -1    0    0  501  502 -0.00000000000E+00 -0.00000000000E+00 -0.33188746298E+03  0.33188746298E+03  0.00000000000E+00 0. -1.
         25    1    1    2    0    0  0.88818415956E+02  0.98504590153E+01  0.58165741739E+01  0.15376792608E+03  0.12500000000E+03 0.  0.
         25    1    1    2    0    0 -0.88818415956E+02 -0.98504590153E+01 -0.23502533539E+03  0.28079823865E+03  0.12500000000E+03 0.  0.
</event>
<event>
 4    0  0.2151074E-002  0.2604450E+03  0.7546771E-02  0.1106876E+00
         21   -1    0    0  502  501  0.00000000000E+00  0.00000000000E+00  0.30063174059E+04  0.30063174059E+04  0.00000000000E+00 0.  1.
         21   -1    0    0  501  502 -0.00000000000E+00 -0.00000000000E+00 -0.22563022773E+02  0.22563022773E+02  0.00000000000E+00 0.  1.
         25    1    1    2    0    0  0.59961572886E+02  0.21690760888E+03  0.17217138384E+04  0.17408526193E+04  0.12500000000E+03 0.  0.
         25    1    1    2    0    0 -0.59961572886E+02 -0.21690760888E+03  0.12620405447E+04  0.12880278093E+04  0.12500000000E+03 0.  0.
</event>
<event>
 4    0  0.2151074E-002  0.3026983E+03  0.7546771E-02  0.1083899E+00
         21   -1    0    0  502  501  0.00000000000E+00  0.00000000000E+00  0.20522660738E+04  0.20522660738E+04  0.00000000000E+00 0.  1.
         21   -1    0    0  501  502 -0.00000000000E+00 -0.00000000000E+00 -0.44646385240E+02  0.44646385240E+02  0.00000000000E+00 0.  1.
         25    1    1    2    0    0 -0.19231265141E+03 -0.12416664592E+03  0.15359107775E+04  0.15578987220E+04  0.12500000000E+03 0.  0.
         25    1    1    2    0    0  0.19231265141E+03  0.12416664592E+03  0.47170891109E+03  0.53901373698E+03  0.12500000000E+03 0.  0.
</event>
<event>
 4    0  0.2151074E-002  0.2903264E+03  0.7546771E-02  0.1090179E+00
         21   -1    0    0  502  501  0.00000000000E+00  0.00000000000E+00  0.28374828684E+03  0.28374828684E+03  0.00000000000E+00 0. -1.
         21   -1    0    0  501  502 -0.00000000000E+00 -0.00000000000E+00 -0.29705708168E+03  0.29705708168E+03  0.00000000000E+00 0. -1.
         25    1    1    2    0    0 -0.30123030426E+02  0.25970394338E+03 -0.24291465926E+02  0.29080682675E+03  0.12500000000E+03 0.  0.
         25    1    1    2    0    0  0.30123030426E+02 -0.25970394338E+03  0.10982671084E+02  0.28999854178E+03  0.12500000000E+03 0.  0.
</event>
<event>
 4    0  0.2151074E-002  0.2231612E+03  0.7546771E-02  0.1131548E+00
         21   -1    0    0  502  501  0.00000000000E+00  0.00000000000E+00  0.61381563277E+03  0.61381563277E+03  0.00000000000E+00 0.  1.
         21   -1    0    0  501  502 -0.00000000000E+00 -0.00000000000E+00 -0.81133324300E+02  0.81133324300E+02  0.00000000000E+00 0.  1.
         25    1    1    2    0    0  0.80468966897E+02  0.11509329291E+03  0.79143214479E+02  0.20398619832E+03  0.12500000000E+03 0.  0.
         25    1    1    2    0    0 -0.80468966897E+02 -0.11509329291E+03  0.45353909399E+03  0.49096275876E+03  0.12500000000E+03 0.  0.
</event>
<event>
 4    0  0.2151074E-002  0.3240621E+03  0.7546771E-02  0.1073795E+00
         21   -1    0    0  502  501  0.00000000000E+00  0.00000000000E+00  0.32333607522E+03  0.32333607522E+03  0.00000000000E+00 0.  1.
         21   -1    0    0  501  502 -0.00000000000E+00 -0.00000000000E+00 -0.32478970596E+03  0.32478970596E+03  0.00000000000E+00 0.  1.
         25    1    1    2    0    0  0.12657280019E+03 -0.18299735882E+03 -0.20043340598E+03  0.32451079692E+03  0.12500000000E+03 0.  0.
         25    1    1    2    0    0 -0.12657280019E+03  0.18299735882E+03  0.19897977524E+03  0.32361498426E+03  0.12500000000E+03 0.  0.
</event>
<event>
 4    0  0.2151074E-002  0.2748179E+03  0.7546771E-02  0.1098553E+00
         21   -1    0    0  502  501  0.00000000000E+00  0.00000000000E+00  0.49282101245E+02  0.49282101245E+02  0.00000000000E+00 0.  1.
         21   -1    0    0  501  502 -0.00000000000E+00 -0.00000000000E+00 -0.15325016291E+04  0.15325016291E+04  0.00000000000E+00 0.  1.
         25    1    1    2    0    0  0.36582906146E+02  0.16428402099E+03 -0.23025124552E+03  0.31139714937E+03  0.12500000000E+03 0.  0.
         25    1    1    2    0    0 -0.36582906146E+02 -0.16428402099E+03 -0.12529682823E+04  0.12703865809E+04  0.12500000000E+03 0.  0.
</event>
<event>
 4    0  0.2151074E-002  0.1968608E+03  0.7546771E-02  0.1152415E+00
         21   -1    0    0  502  501  0.00000000000E+00  0.00000000000E+00  0.22074031955E+03  0.22074031955E+03  0.00000000000E+00 0.  1.
         21   -1    0    0  501  502 -0.00000000000E+00 -0.00000000000E+00 -0.17556446590E+03  0.17556446590E+03  0.00000000000E+00 0.  1.
         25    1    1    2    0    0 -0.10534089954E+03 -0.96797634469E+02  0.74527548362E+02  0.20407313057E+03  0.12500000000E+03 0.  0.
         25    1    1    2    0    0  0.10534089954E+03  0.96797634469E+02 -0.29351694713E+02  0.19223165488E+03  0.12500000000E+03 0.  0.
</event>
<event>
 4    0  0.2151074E-002  0.3298100E+03  0.7546771E-02  0.1071221E+00
         21   -1    0    0  502  501  0.00000000000E+00  0.00000000000E+00  0.39688924427E+03  0.39688924427E+03  0.00000000000E+00 0. -1.
         21   -1    0    0  501  502 -0.00000000000E+00 -0.00000000000E+00 -0.27406791751E+03  0.27406791751E+03  0.00000000000E+00 0. -1.
         25    1    1    2    0    0  0.21371533160E+03  0.21763175970E+03  0.72165124618E+02  0.33744722699E+03  0.12500000000E+03 0.  0.
         25    1    1    2    0    0 -0.21371533160E+03 -0.21763175970E+03  0.50656202142E+02  0.33350993479E+03  0.12500000000E+03 0.  0.
</event>
<event>
 4    0  0.2151074E-002  0.2197961E+03  0.7546771E-02  0.1134035E+00
         21   -1    0    0  502  501  0.00000000000E+00  0.00000000000E+00  0.35376371265E+03  0.35376371265E+03  0.00000000000E+00 0.  1.
         21   -1    0    0  501  502 -0.00000000000E+00 -0.00000000000E+00 -0.13656097812E+03  0.13656097812E+03  0.00000000000E+00 0.  1.
         25    1    1    2    0    0 -0.13699020093E+03  0.83014001299E+02  0.15095303235E+02  0.20374127648E+03  0.12500000000E+03 0.  0.
         25    1    1    2    0    0  0.13699020093E+03 -0.83014001299E+02  0.20210743129E+03  0.28658341429E+03  0.12500000000E+03 0.  0.
</event>
<event>
 4    0  0.2151074E-002  0.1889030E+03  0.7546771E-02  0.1159454E+00
         21   -1    0    0  502  501  0.00000000000E+00  0.00000000000E+00  0.96836013605E+03  0.96836013605E+03  0.00000000000E+00 0. -1.
         21   -1    0    0  501  502 -0.00000000000E+00 -0.00000000000E+00 -0.36850283959E+02  0.36850283959E+02  0.00000000000E+00 0. -1.
         25    1    1    2    0    0 -0.84702874487E+02  0.42097233337E+02  0.18527886484E+03  0.24269324622E+03  0.12500000000E+03 0.  0.
         25    1    1    2    0    0  0.84702874487E+02 -0.42097233337E+02  0.74623098725E+03  0.76251717380E+03  0.12500000000E+03 0.  0.
</event>
<event>
 4    0  0.2151074E-002  0.1401828E+03  0.7546771E-02  0.1213083E+00
         21   -1    0    0  502  501  0.00000000000E+00  0.00000000000E+00  0.19230282471E+02  0.19230282471E+02  0.00000000000E+00 0.  1.
         21   -1    0    0  501  502 -0.00000000000E+00 -0.00000000000E+00 -0.10218897804E+04  0.10218897804E+04  0.00000000000E+00 0.  1.
         25    1    1    2    0    0  0.34386505976E+02  0.43402783796E+02 -0.61638610181E+03  0.63136602691E+03  0.12500000000E+03 0.  0.
         25    1    1    2    0    0 -0.34386505976E+02 -0.43402783796E+02 -0.38627339609E+03  0.40975403593E+03  0.12500000000E+03 0.  0.
</event>
<event>
 4    0  0.2151074E-002  0.2600677E+03  0.7546771E-02  0.1107103E+00
         21   -1    0    0  502  501  0.00000000000E+00  0.00000000000E+00  0.51290061521E+03  0.51290061521E+03  0.00000000000E+00 0.  1.
         21   -1    0    0  501  502 -0.00000000000E+00 -0.00000000000E+00 -0.13186804457E+03  0.13186804457E+03  0.00000000000E+00 0.  1.
         25    1    1    2    0    0  0.16616484761E+03 -0.35796027660E+02  0.20370563188E+01  0.21100062032E+03  0.12500000000E+03 0.  0.
         25    1    1    2    0    0 -0.16616484761E+03  0.35796027660E+02  0.37899551432E+03  0.43376803946E+03  0.12500000000E+03 0.  0.
</event>
<event>
 4    0  0.2151074E-002  0.2628511E+03  0.7546771E-02  0.1105442E+00
         21   -1    0    0  502  501  0.00000000000E+00  0.00000000000E+00  0.19644477240E+03  0.19644477240E+03  0.00000000000E+00 0. -1.
         21   -1    0    0  501  502 -0.00000000000E+00 -0.00000000000E+00 -0.35170549454E+03  0.35170549454E+03  0.00000000000E+00 0. -1.
         25    1    1    2    0    0 -0.62560782313E+02  0.18901369437E+03  0.44973185586E+02  0.23934831431E+03  0.12500000000E+03 0.  0.
         25    1    1    2    0    0  0.62560782313E+02 -0.18901369437E+03 -0.20023390773E+03  0.30880195263E+03  0.12500000000E+03 0.  0.
</event>
<event>
 4    0  0.2151074E-002  0.3197976E+03  0.7546771E-02  0.1075742E+00
         21   -1    0    0  502  501  0.00000000000E+00  0.00000000000E+00  0.17110381256E+03  0.17110381256E+03  0.00000000000E+00 0. -1.
         21   -1    0    0  501  502 -0.00000000000E+00 -0.00000000000E+00 -0.59771025382E+03  0.59771025382E+03  0.00000000000E+00 0. -1.
         25    1    1    2    0    0  0.22262021275E+03  0.13630283410E+03 -0.37682945806E+03  0.47514593776E+03  0.12500000000E+03 0.  0.
         25    1    1    2    0    0 -0.22262021275E+03 -0.13630283410E+03 -0.49776983202E+02  0.29366812862E+03  0.12500000000E+03 0.  0.
</event>
<event>
 4    0  0.2151074E-002  0.2321698E+03  0.7546771E-02  0.1125122E+00
         21   -1    0    0  502  501  0.00000000000E+00  0.00000000000E+00  0.26200806733E+03  0.26200806733E+03  0.00000000000E+00 0. -1.
         21   -1    0    0  501  502 -0.00000000000E+00 -0.00000000000E+00 -0.20572956043E+03  0.20572956043E+03  0.00000000000E+00 0. -1.
         25    1    1    2    0    0  0.33717760025E+02 -0.19137303186E+03  0.52290251892E+01  0.23111223976E+03  0.12500000000E+03 0.  0.
         25    1    1    2    0    0 -0.33717760025E+02  0.19137303186E+03  0.51049481711E+02  0.23662538800E+03  0.12500000000E+03 0.  0.
</event>
<event>
 4    0  0.2151074E-002  0.2101749E+03  0.7546771E-02  0.1141428E+00
         21   -1    0    0  502  501  0.00000000000E+00  0.00000000000E+00  0.26420418785E+03  0.26420418785E+03  0.00000000000E+00 0.  1.
         21   -1    0    0  501  502 -0.00000000000E+00 -0.00000000000E+00 -0.16719445826E+03  0.16719445826E+03  0.00000000000E+00 0.  1.
         25    1    1    2    0    0  0.14175869517E+02 -0.13988271724E+03  0.14467136573E+03  0.23732453291E+03  0.12500000000E+03 0.  0.
         25    1    1    2    0    0 -0.14175869517E+02  0.13988271724E+03 -0.47661636136E+02  0.19407411321E+03  0.12500000000E+03 0.  0.
</event>
<event>
 4    0  0.2151074E-002  0.2319842E+03  0.7546771E-02  0.1125251E+00
         21   -1    0    0  502  501  0.00000000000E+00  0.00000000000E+00  0.16105130981E+03  0.16105130981E+03  0.00000000000E+00 0.  1.
         21   -1    0    0  501  502 -0.00000000000E+00 -0.00000000000E+00 -0.33415854046E+03  0.33415854046E+03  0.00000000000E+00 0.  1.
         25    1    1    2    0    0 -0.17373594241E+03 -0.38145234286E+02 -0.17295131799E+03  0.27780639838E+03  0.12500000000E+03 0.  0.
         25    1    1    2    0    0  0.17373594241E+03  0.38145234286E+02 -0.15591266336E+00  0.21740345189E+03  0.12500000000E+03 0.  0.
</event>
<event>
 4    0  0.2151074E-002  0.2694627E+03  0.7546771E-02  0.1101588E+00
         21   -1    0    0  502  501  0.00000000000E+00  0.00000000000E+00  0.93760640806E+03  0.93760640806E+03  0.00000000000E+00 0. -1.
         21   -1    0    0  501  502 -0.00000000000E+00 -0.00000000000E+00 -0.77442029679E+02  0.77442029679E+02  0.00000000000E+00 0. -1.
         25    1    1    2    0    0 -0.78539206457E+02 -0.20955674938E+03  0.27359896526E+03  0.37491843373E+03  0.12500000000E+03 0.  0.
         25    1    1    2    0    0  0.78539206457E+02  0.20955674938E+03  0.58656541312E+03  0.64013000400E+03  0.12500000000E+03 0.  0.
</event>
<event>
 4    0  0.2151074E-002  0.1607970E+03  0.7546771E-02  0.1187800E+00
         21   -1    0    0  502  501  0.00000000000E+00  0.00000000000E+00  0.33419932435E+02  0.33419932435E+02  0.00000000000E+00 0. -1.
         21   -1    0    0  501  502 -0.00000000000E+00 -0.00000000000E+00 -0.77366048174E+03  0.77366048174E+03  0.00000000000E+00 0. -1.
         25    1    1    2    0    0 -0.74141170736E+02  0.14845029600E+02 -0.53872137077E+03  0.55817829000E+03  0.12500000000E+03 0.  0.
         25    1    1    2    0    0  0.74141170736E+02 -0.14845029600E+02 -0.20151917853E+03  0.24890212418E+03  0.12500000000E+03 0.  0.
</event>
<event>
 4    0  0.2151074E-002  0.2195288E+03  0.7546771E-02  0.1134235E+00
         21   -1    0    0  502  501  0.00000000000E+00  0.00000000000E+00  0.84453628430E+03  0.84453628430E+03  0.00000000000E+00 0.  1.
         21   -1    0    0  501  502 -0.00000000000E+00 -0.00000000000E+00 -0.57064349683E+02  0.57064349683E+02  0.00000000000E+00 0.  1.
         25    1    1    2    0    0 -0.22592437102E+02 -0.26175595822E+02  0.30016929308E+02  0.13312248524E+03  0.12500000000E+03 0.  0.
         25    1    1    2    0    0  0.22592437102E+02  0.26175595822E+02  0.75745500531E+03  0.76847814875E+03  0.12500000000E+03 0.  0.
</event>
<event>
 4    0  0.2151074E-002  0.2472207E+03  0.7546771E-02  0.1115074E+00
         21   -1    0    0  502  501  0.00000000000E+00  0.00000000000E+00  0.15915777225E+04  0.15915777225E+04  0.00000000000E+00 0.  1.
         21   -1    0    0  501  502 -0.00000000000E+00 -0.00000000000E+00 -0.38400950381E+02  0.38400950381E+02  0.00000000000E+00 0.  1.
         25    1    1    2    0    0 -0.20545525446E+03 -0.44238734924E+02  0.89654905219E+03  0.92929765427E+03  0.12500000000E+03 0.  0.
         25    1    1    2    0    0  0.20545525446E+03  0.44238734924E+02  0.65662771991E+03  0.70068101859E+03  0.12500000000E+03 0.  0.
</event>
<event>
 4    0  0.2151074E-002  0.1829184E+03  0.7546771E-02  0.1165008E+00
         21   -1    0    0  502  501  0.00000000000E+00  0.00000000000E+00  0.11102456808E+04  0.11102456808E+04  0.00000000000E+00 0.  1.
         21   -1    0    0  501  502 -0.00000000000E+00 -0.00000000000E+00 -0.30136684197E+02  0.30136684197E+02  0.00000000000E+00 0.  1.
         25    1    1    2    0    0 -0.96502094080E+02 -0.64242431908E+02  0.33341564428E+03  0.37447394578E+03  0.12500000000E+03 0.  0.
         25    1    1    2    0    0  0.96502094080E+02  0.64242431908E+02  0.74669335231E+03  0.76590841920E+03  0.12500000000E+03 0.  0.
</event>
<event>
 4    0  0.2151074E-002  0.2918778E+03  0.7546771E-02  0.1089373E+00
         21   -1    0    0  502  501  0.00000000000E+00  0.00000000000E+00  0.46752997819E+03  0.46752997819E+03  0.00000000000E+00 0.  1.
         21   -1    0    0  501  502 -0.00000000000E+00 -0.00000000000E+00 -0.18221857799E+03  0.18221857799E+03  0.00000000000E+00 0.  1.
         25    1    1    2    0    0  0.26010090052E+03  0.30038098410E+02  0.17807938152E+03  0.34042918783E+03  0.12500000000E+03 0.  0.
         25    1    1    2    0    0 -0.26010090052E+03 -0.30038098410E+02  0.10723201868E+03  0.30931936835E+03  0.12500000000E+03 0.  0.
</event>
<event>
 4    0  0.2151074E-002  0.1748285E+03  0.7546771E-02  0.1172904E+00
         21   -1    0    0  502  501  0.00000000000E+00  0.00000000000E+00  0.10908314078E+04  0.10908314078E+04  0.00000000000E+00 0.  1.
         21   -1    0    0  501  502 -0.00000000000E+00 -0.00000000000E+00 -0.28019901117E+02  0.28019901117E+02  0.00000000000E+00 0.  1.
         25    1    1    2    0    0  0.75140212028E+02  0.85335573135E+02  0.38788320172E+03  0.42309170364E+03  0.12500000000E+03 0.  0.
         25    1    1    2    0    0 -0.75140212028E+02 -0.85335573135E+02  0.67492830495E+03  0.69575960527E+03  0.12500000000E+03 0.  0.
</event>
<event>
 4    0  0.2151074E-002  0.1855683E+03  0.7546771E-02  0.1162520E+00
         21   -1    0    0  502  501  0.00000000000E+00  0.00000000000E+00  0.50581348407E+02  0.50581348407E+02  0.00000000000E+00 0.  1.
         21   -1    0    0  501  502 -0.00000000000E+00 -0.00000000000E+00 -0.68079604589E+03  0.68079604589E+03  0.00000000000E+00 0.  1.
         25    1    1    2    0    0  0.46330699795E+02 -0.30640424725E+01 -0.56942453368E+03  0.58482922435E+03  0.12500000000E+03 0.  0.
         25    1    1    2    0    0 -0.46330699795E+02  0.30640424725E+01 -0.60790163806E+02  0.14654816995E+03  0.12500000000E+03 0.  0.
</event>
<event>
 4    0  0.2151074E-002  0.2112115E+03  0.7546771E-02  0.1140610E+00
         21   -1    0    0  502  501  0.00000000000E+00  0.00000000000E+00  0.12671932565E+04  0.12671932565E+04  0.00000000000E+00 0.  1.
         21   -1    0    0  501  502 -0.00000000000E+00 -0.00000000000E+00 -0.35204012013E+02  0.35204012013E+02  0.00000000000E+00 0.  1.
         25    1    1    2    0    0 -0.14981369368E+03  0.78739150183E+02  0.55903622236E+03  0.59731942418E+03  0.12500000000E+03 0.  0.
         25    1    1    2    0    0  0.14981369368E+03 -0.78739150183E+02  0.67295302216E+03  0.70507784437E+03  0.12500000000E+03 0.  0.
</event>
<event>
 4    0  0.2151074E-002  0.2047363E+03  0.7546771E-02  0.1145803E+00
         21   -1    0    0  502  501  0.00000000000E+00  0.00000000000E+00  0.19070808814E+03  0.19070808814E+03  0.00000000000E+00 0. -1.
         21   -1    0    0  501  502 -0.00000000000E+00 -0.00000000000E+00 -0.21979649452E+03  0.21979649452E+03  0.00000000000E+00 0. -1.
         25    1    1    2    0    0 -0.84121366239E+02  0.77832168071E+02 -0.12954037264E+03  0.21340093437E+03  0.12500000000E+03 0.  0.
         25    1    1    2    0    0  0.84121366239E+02 -0.77832168071E+02  0.10045196626E+03  0.19710364829E+03  0.12500000000E+03 0.  0.
</event>
<event>
 4    0  0.2151074E-002  0.1470050E+03  0.7546771E-02  0.1204202E+00
         21   -1    0    0  502  501  0.00000000000E+00  0.00000000000E+00  0.49125340401E+02  0.49125340401E+02  0.00000000000E+00 0. -1.
         21   -1    0    0  501  502 -0.00000000000E+00 -0.00000000000E+00 -0.43990487312E+03  0.43990487312E+03  0.00000000000E+00 0. -1.
         25    1    1    2    0    0  0.70739835524E+02 -0.19799187276E+02 -0.15501052672E+03  0.21224842883E+03  0.12500000000E+03 0.  0.
         25    1    1    2    0    0 -0.70739835524E+02  0.19799187276E+02 -0.23576900599E+03  0.27678178469E+03  0.12500000000E+03 0.  0.
</event>
<event>
 4    0  0.2151074E-002  0.2389195E+03  0.7546771E-02  0.1120515E+00
         21   -1    0    0  502  501  0.00000000000E+00  0.00000000000E+00  0.59246117504E+03  0.59246117504E+03  0.00000000000E+00 0.  1.
         21   -1    0    0  501  502 -0.00000000000E+00 -0.00000000000E+00 -0.96348170644E+02  0.96348170644E+02  0.00000000000E+00 0.  1.
         25    1    1    2    0    0  0.46186177991E+02 -0.19213475729E+03  0.17731053133E+03  0.29345008522E+03  0.12500000000E+03 0.  0.
         25    1    1    2    0    0 -0.46186177991E+02  0.19213475729E+03  0.31880247306E+03  0.39535926046E+03  0.12500000000E+03 0.  0.
</event>
<event>
 4    0  0.2151074E-002  0.3009205E+03  0.7546771E-02  0.1084781E+00
         21   -1    0    0  502  501  0.00000000000E+00  0.00000000000E+00  0.11553537143E+03  0.11553537143E+03  0.00000000000E+00 0.  1.
         21   -1    0    0  501  502 -0.00000000000E+00 -0.00000000000E+00 -0.78377014721E+03  0.78377014721E+03  0.00000000000E+00 0.  1.
         25    1    1    2    0    0  0.87924121701E+02  0.74656667915E+02  0.36819506960E+02  0.17402570308E+03  0.12500000000E+03 0.  0.
         25    1    1    2    0    0 -0.87924121701E+02 -0.74656667915E+02 -0.70505428274E+03  0.72527981555E+03  0.12500000000E+03 0.  0.
</event>
<event>
 4    0  0.2151074E-002  0.1692941E+03  0.7546771E-02  0.1178586E+00
         21   -1    0    0  502  501  0.00000000000E+00  0.00000000000E+00  0.10857928389E+03  0.10857928389E+03  0.00000000000E+00 0.  1.
         21   -1    0    0  501  502 -0.00000000000E+00 -0.00000000000E+00 -0.26395908781E+03  0.26395908781E+03  0.00000000000E+00 0.  1.
         25    1    1    2    0    0  0.83222463565E+02  0.78163356433E+02 -0.77690807907E+02  0.18626956371E+03  0.12500000000E+03 0.  0.
         25    1    1    2    0    0 -0.83222463565E+02 -0.78163356433E+02 -0.77688996006E+02  0.18626880799E+03  0.12500000000E+03 0.  0.
</event>
<event>
 4    0  0.2151074E-002  0.4443105E+03  0.7546771E-02  0.1029432E+00
         21   -1    0    0  502  501  0.00000000000E+00  0.00000000000E+00  0.22963829904E+03  0.22963829904E+03  0.00000000000E+00 0. -1.
         21   -1    0    0  501  502 -0.00000000000E+00 -0.00000000000E+00 -0.85966418000E+03  0.85966418000E+03  0.00000000000E+00 0. -1.
         25    1    1    2    0    0  0.19602603494E+03  0.37572189754E+03 -0.37242690107E+03  0.57785806848E+03  0.12500000000E+03 0.  0.
         25    1    1    2    0    0 -0.19602603494E+03 -0.37572189754E+03 -0.25759897988E+03  0.51144441057E+03  0.12500000000E+03 0.  0.
</event>
<event>
 4    0  0.2151074E-002  0.2518045E+03  0.7546771E-02  0.1112170E+00
         21   -1    0    0  502  501  0.00000000000E+00  0.00000000000E+00  0.10579995666E+04  0.10579995666E+04  0.00000000000E+00 0.  1.
         21   -1    0    0  501  502 -0.00000000000E+00 -0.00000000000E+00 -0.59929599630E+02  0.59929599630E+02  0.00000000000E+00 0.  1.
         25    1    1    2    0    0  0.40385374468E+02  0.28742234894E+02  0.26447647833E+02  0.13704587777E+03  0.12500000000E+03 0.  0.
         25    1    1    2    0    0 -0.40385374468E+02 -0.28742234894E+02  0.97162231915E+03  0.98088328847E+03  0.12500000000E+03 0.  0.
</event>
<event>
 4    0  0.2151074E-002  0.3251299E+03  0.7546771E-02  0.1073312E+00
         21   -1    0    0  502  501  0.00000000000E+00  0.00000000000E+00  0.47620561181E+02  0.47620561181E+02  0.00000000000E+00 0. -1.
         21   -1    0    0  501  502 -0.00000000000E+00 -0.00000000000E+00 -0.22198273193E+04  0.22198273193E+04  0.00000000000E+00 0. -1.
         25    1    1    2    0    0 -0.82630642805E+02 -0.27670533291E+02 -0.84597285070E+02  0.17428477324E+03  0.12500000000E+03 0.  0.
         25    1    1    2    0    0  0.82630642805E+02  0.27670533291E+02 -0.20876094731E+04  0.20931631072E+04  0.12500000000E+03 0.  0.
</event>
<event>
 4    0  0.2151074E-002  0.2558217E+03  0.7546771E-02  0.1109680E+00
         21   -1    0    0  502  501  0.00000000000E+00  0.00000000000E+00  0.10978195112E+04  0.10978195112E+04  0.00000000000E+00 0. -1.
         21   -1    0    0  501  502 -0.00000000000E+00 -0.00000000000E+00 -0.59613404519E+02  0.59613404519E+02  0.00000000000E+00 0. -1.
         25    1    1    2    0    0 -0.21982088112E+03  0.22850854405E+02  0.58978967603E+03  0.64212167326E+03  0.12500000000E+03 0.  0.
         25    1    1    2    0    0  0.21982088112E+03 -0.22850854405E+02  0.44841643063E+03  0.51531124243E+03  0.12500000000E+03 0.  0.
</event>
<event>
 4    0  0.2151074E-002  0.4781455E+03  0.7546771E-02  0.1019646E+00
         21   -1    0    0  502  501  0.00000000000E+00  0.00000000000E+00  0.14587946133E+04  0.14587946133E+04  0.00000000000E+00 0. -1.
         21   -1    0    0  501  502 -0.00000000000E+00 -0.00000000000E+00 -0.15672059454E+03  0.15672059454E+03  0.00000000000E+00 0. -1.
         25    1    1    2    0    0 -0.26995238440E+03 -0.71941469653E+01  0.18775439891E+02  0.29816700477E+03  0.12500000000E+03 0.  0.
         25    1    1    2    0    0  0.26995238440E+03  0.71941469653E+01  0.12832985789E+04  0.13173482031E+04  0.12500000000E+03 0.  0.
</event>
<event>
 4    0  0.2151074E-002  0.2257582E+03  0.7546771E-02  0.1129661E+00
         21   -1    0    0  502  501  0.00000000000E+00  0.00000000000E+00  0.13294991690E+03  0.13294991690E+03  0.00000000000E+00 0. -1.
         21   -1    0    0  501  502 -0.00000000000E+00 -0.00000000000E+00 -0.38335325972E+03  0.38335325972E+03  0.00000000000E+00 0. -1.
         25    1    1    2    0    0  0.11662024404E+03  0.11048433708E+03 -0.13544911665E+02  0.20399885953E+03  0.12500000000E+03 0.  0.
         25    1    1    2    0    0 -0.11662024404E+03 -0.11048433708E+03 -0.23685843116E+03  0.31230431709E+03  0.12500000000E+03 0.  0.
</event>
<event>
 4    0  0.2151074E-002  0.1626865E+03  0.7546771E-02  0.1185697E+00
         21   -1    0    0  502  501  0.00000000000E+00  0.00000000000E+00  0.27296899373E+02  0.27296899373E+02  0.00000000000E+00 0. -1.
         21   -1    0    0  501  502 -0.00000000000E+00 -0.00000000000E+00 -0.96959362900E+03  0.96959362900E+03  0.00000000000E+00 0. -1.
         25    1    1    2    0    0  0.76542320484E+01 -0.65396057245E+02 -0.22400709887E+03  0.26483846382E+03  0.12500000000E+03 0.  0.
         25    1    1    2    0    0 -0.76542320484E+01  0.65396057245E+02 -0.71828963075E+03  0.73205206456E+03  0.12500000000E+03 0.  0.
</event>
<event>
 4    0  0.2151074E-002  0.1851260E+03  0.7546771E-02  0.1162932E+00
         21   -1    0    0  502  501  0.00000000000E+00  0.00000000000E+00  0.35558412620E+03  0.35558412620E+03  0.00000000000E+00 0. -1.
         21   -1    0    0  501  502 -0.00000000000E+00 -0.00000000000E+00 -0.96381241876E+02  0.96381241876E+02  0.00000000000E+00 0. -1.
         25    1    1    2    0    0 -0.19869450671E+02 -0.19718343274E+02  0.29275077552E+03  0.31954909591E+03  0.12500000000E+03 0.  0.
         25    1    1    2    0    0  0.19869450671E+02  0.19718343274E+02 -0.33547891191E+02  0.13241627217E+03  0.12500000000E+03 0.  0.
</event>
<event>
 4    0  0.2151074E-002  0.2430172E+03  0.7546771E-02  0.1117799E+00
         21   -1    0    0  502  501  0.00000000000E+00  0.00000000000E+00  0.63796425130E+03  0.63796425130E+03  0.00000000000E+00 0. -1.
         21   -1    0    0  501  502 -0.00000000000E+00 -0.00000000000E+00 -0.92571617098E+02  0.92571617098E+02  0.00000000000E+00 0.  1.
         25    1    1    2    0    0  0.15299057566E+03 -0.12036001578E+03  0.16082497234E+03  0.28174868477E+03  0.12500000000E+03 0.  0.
         25    1    1    2    0    0 -0.15299057566E+03  0.12036001578E+03  0.38456766186E+03  0.44878718363E+03  0.12500000000E+03 0.  0.
</event>
<event>
 4    0  0.2151074E-002  0.1907341E+03  0.7546771E-02  0.1157801E+00
         21   -1    0    0  502  501  0.00000000000E+00  0.00000000000E+00  0.58760651385E+03  0.58760651385E+03  0.00000000000E+00 0. -1.
         21   -1    0    0  501  502 -0.00000000000E+00 -0.00000000000E+00 -0.61911316357E+02  0.61911316357E+02  0.00000000000E+00 0. -1.
         25    1    1    2    0    0 -0.14114522685E+03  0.12685181843E+02  0.21872212738E+03  0.28904542533E+03  0.12500000000E+03 0.  0.
         25    1    1    2    0    0  0.14114522685E+03 -0.12685181843E+02  0.30697307012E+03  0.36047240488E+03  0.12500000000E+03 0.  0.
</event>
<event>
 4    0  0.2151074E-002  0.1859342E+03  0.7546771E-02  0.1162180E+00
         21   -1    0    0  502  501  0.00000000000E+00  0.00000000000E+00  0.56058208255E+03  0.56058208255E+03  0.00000000000E+00 0.  1.
         21   -1    0    0  501  502 -0.00000000000E+00 -0.00000000000E+00 -0.61670748704E+02  0.61670748704E+02  0.00000000000E+00 0.  1.
         25    1    1    2    0    0 -0.13702215115E+03 -0.12651428195E+02  0.25510250356E+03  0.31565394955E+03  0.12500000000E+03 0.  0.
         25    1    1    2    0    0  0.13702215115E+03  0.12651428195E+02  0.24380883028E+03  0.30659888171E+03  0.12500000000E+03 0.  0.
</event>
<event>
 4    0  0.2151074E-002  0.2777772E+03  0.7546771E-02  0.1096909E+00
         21   -1    0    0  502  501  0.00000000000E+00  0.00000000000E+00  0.78454123934E+02  0.78454123934E+02  0.00000000000E+00 0. -1.
         21   -1    0    0  501  502 -0.00000000000E+00 -0.00000000000E+00 -0.98350716535E+03  0.98350716535E+03  0.00000000000E+00 0. -1.
         25    1    1    2    0    0  0.17387362380E+03  0.59477778628E+02 -0.13400764305E+03  0.25952397114E+03  0.12500000000E+03 0.  0.
         25    1    1    2    0    0 -0.17387362380E+03 -0.59477778628E+02 -0.77104539836E+03  0.80243731814E+03  0.12500000000E+03 0.  0.
</event>
<event>
 4    0  0.2151074E-002  0.4569528E+03  0.7546771E-02  0.1025669E+00
         21   -1    0    0  502  501  0.00000000000E+00  0.00000000000E+00  0.14733296509E+04  0.14733296509E+04  0.00000000000E+00 0.  1.
         21   -1    0    0  501  502 -0.00000000000E+00 -0.00000000000E+00 -0.14172379490E+03  0.14172379490E+03  0.00000000000E+00 0. -1.
         25    1    1    2    0    0 -0.42109458807E+03 -0.10171818698E+03  0.79702420716E+03  0.91571820363E+03  0.12500000000E+03 0.  0.
         25    1    1    2    0    0  0.42109458807E+03  0.10171818698E+03  0.53458164886E+03  0.69933524218E+03  0.12500000000E+03 0.  0.
</event>
<event>
 4    0  0.2151074E-002  0.1990811E+03  0.7546771E-02  0.1150517E+00
         21   -1    0    0  502  501  0.00000000000E+00  0.00000000000E+00  0.13392223079E+03  0.13392223079E+03  0.00000000000E+00 0.  1.
         21   -1    0    0  501  502 -0.00000000000E+00 -0.00000000000E+00 -0.29594247878E+03  0.29594247878E+03  0.00000000000E+00 0.  1.
         25    1    1    2    0    0  0.55317413537E+01 -0.82968826053E+02  0.60143410976E+02  0.16173019552E+03  0.12500000000E+03 0.  0.
         25    1    1    2    0    0 -0.55317413537E+01  0.82968826053E+02 -0.22216365897E+03  0.26813451405E+03  0.12500000000E+03 0.  0.
</event>
<event>
 4    0  0.2151074E-002  0.2467705E+03  0.7546771E-02  0.1115363E+00
         21   -1    0    0  502  501  0.00000000000E+00  0.00000000000E+00  0.24352852345E+03  0.24352852345E+03  0.00000000000E+00 0. -1.
         21   -1    0    0  501  502 -0.00000000000E+00 -0.00000000000E+00 -0.25005553918E+03  0.25005553918E+03  0.00000000000E+00 0. -1.
         25    1    1    2    0    0 -0.49870749241E+01 -0.10515029270E+03 -0.18818289804E+03  0.24923735291E+03  0.12500000000E+03 0.  0.
         25    1    1    2    0    0  0.49870749241E+01  0.10515029270E+03  0.18165588232E+03  0.24434670972E+03  0.12500000000E+03 0.  0.
</event>
<event>
 4    0  0.2151074E-002  0.2520755E+03  0.7546771E-02  0.1112000E+00
         21   -1    0    0  502  501  0.00000000000E+00  0.00000000000E+00  0.53575024960E+02  0.53575024960E+02  0.00000000000E+00 0.  1.
         21   -1    0    0  501  502 -0.00000000000E+00 -0.00000000000E+00 -0.11860385198E+04  0.11860385198E+04  0.00000000000E+00 0.  1.
         25    1    1    2    0    0 -0.14722131021E+03  0.16133975244E+03 -0.60206751316E+03  0.65254495654E+03  0.12500000000E+03 0.  0.
         25    1    1    2    0    0  0.14722131021E+03 -0.16133975244E+03 -0.53039598167E+03  0.58706858821E+03  0.12500000000E+03 0.  0.
</event>
<event>
 4    0  0.2151074E-002  0.2591758E+03  0.7546771E-02  0.1107639E+00
         21   -1    0    0  502  501  0.00000000000E+00  0.00000000000E+00  0.25495258347E+03  0.25495258347E+03  0.00000000000E+00 0.  1.
         21   -1    0    0  501  502 -0.00000000000E+00 -0.00000000000E+00 -0.26346907292E+03  0.26346907292E+03  0.00000000000E+00 0.  1.
         25    1    1    2    0    0  0.75735150826E+02 -0.18656201713E+02  0.20899167055E+03  0.25570761680E+03  0.12500000000E+03 0.  0.
         25    1    1    2    0    0 -0.75735150826E+02  0.18656201713E+02 -0.21750816000E+03  0.26271403959E+03  0.12500000000E+03 0.  0.
</event>
<event>
 4    0  0.2151074E-002  0.3232957E+03  0.7546771E-02  0.1074142E+00
         21   -1    0    0  502  501  0.00000000000E+00  0.00000000000E+00  0.23728877365E+03  0.23728877365E+03  0.00000000000E+00 0.  1.
         21   -1    0    0  501  502 -0.00000000000E+00 -0.00000000000E+00 -0.44047633670E+03  0.44047633670E+03  0.00000000000E+00 0.  1.
         25    1    1    2    0    0  0.10091554521E+03  0.10280387429E+03  0.17203285769E+03  0.25685187941E+03  0.12500000000E+03 0.  0.
         25    1    1    2    0    0 -0.10091554521E+03 -0.10280387429E+03 -0.37522042075E+03  0.42091323094E+03  0.12500000000E+03 0.  0.
</event>
<event>
 4    0  0.2151074E-002  0.1867382E+03  0.7546771E-02  0.1161437E+00
         21   -1    0    0  502  501  0.00000000000E+00  0.00000000000E+00  0.19151289896E+04  0.19151289896E+04  0.00000000000E+00 0.  1.
         21   -1    0    0  501  502 -0.00000000000E+00 -0.00000000000E+00 -0.18208254661E+02  0.18208254661E+02  0.00000000000E+00 0.  1.
         25    1    1    2    0    0  0.44946146980E+02  0.10252722650E+03  0.52428978002E+03  0.55048774895E+03  0.12500000000E+03 0.  0.
         25    1    1    2    0    0 -0.44946146980E+02 -0.10252722650E+03  0.13726309549E+04  0.13828494953E+04  0.12500000000E+03 0.  0.
</event>
<event>
 4    0  0.2151074E-002  0.2031371E+03  0.7546771E-02  0.1147119E+00
         21   -1    0    0  502  501  0.00000000000E+00  0.00000000000E+00  0.11991031001E+03  0.11991031001E+03  0.00000000000E+00 0. -1.
         21   -1    0    0  501  502 -0.00000000000E+00 -0.00000000000E+00 -0.34412959876E+03  0.34412959876E+03  0.00000000000E+00 0. -1.
         25    1    1    2    0    0 -0.15505363530E+03  0.33708554480E+02 -0.87564900069E+02  0.22016018757E+03  0.12500000000E+03 0.  0.
         25    1    1    2    0    0  0.15505363530E+03 -0.33708554480E+02 -0.13665438868E+03  0.24387972120E+03  0.12500000000E+03 0.  0.
</event>
<event>
 4    0  0.2151074E-002  0.2058806E+03  0.7546771E-02  0.1144870E+00
         21   -1    0    0  502  501  0.00000000000E+00  0.00000000000E+00  0.17360731479E+03  0.17360731479E+03  0.00000000000E+00 0.  1.
         21   -1    0    0  501  502 -0.00000000000E+00 -0.00000000000E+00 -0.24415344563E+03  0.24415344563E+03  0.00000000000E+00 0.  1.
         25    1    1    2    0    0  0.12314582388E+03 -0.26353620445E+02  0.70662942237E+02  0.19099125283E+03  0.12500000000E+03 0.  0.
         25    1    1    2    0    0 -0.12314582388E+03  0.26353620445E+02 -0.14120907308E+03  0.22676950758E+03  0.12500000000E+03 0.  0.
</event>
<event>
 4    0  0.2151074E-002  0.1854894E+03  0.7546771E-02  0.1162594E+00
         21   -1    0    0  502  501  0.00000000000E+00  0.00000000000E+00  0.10881232127E+04  0.10881232127E+04  0.00000000000E+00 0. -1.
         21   -1    0    0  501  502 -0.00000000000E+00 -0.00000000000E+00 -0.31619881004E+02  0.31619881004E+02  0.00000000000E+00 0. -1.
         25    1    1    2    0    0 -0.21191963251E+01  0.13270172366E+03  0.63136647800E+03  0.65716274087E+03  0.12500000000E+03 0.  0.
         25    1    1    2    0    0  0.21191963251E+01 -0.13270172366E+03  0.42513685374E+03  0.46258035287E+03  0.12500000000E+03 0.  0.
</event>
<event>
 4    0  0.2151074E-002  0.2591706E+03  0.7546771E-02  0.1107643E+00
         21   -1    0    0  502  501  0.00000000000E+00  0.00000000000E+00  0.92528757839E+02  0.92528757839E+02  0.00000000000E+00 0.  1.
         21   -1    0    0  501  502 -0.00000000000E+00 -0.00000000000E+00 -0.72592983457E+03  0.72592983457E+03  0.00000000000E+00 0.  1.
         25    1    1    2    0    0  0.18384351004E+03 -0.97508378350E+02 -0.46001620141E+03  0.52014058253E+03  0.12500000000E+03 0.  0.
         25    1    1    2    0    0 -0.18384351004E+03  0.97508378350E+02 -0.17338487532E+03  0.29831800988E+03  0.12500000000E+03 0.  0.
</event>
<event>
 4    0  0.2151074E-002  0.2239825E+03  0.7546771E-02  0.1130948E+00
         21   -1    0    0  502  501  0.00000000000E+00  0.00000000000E+00  0.27812266765E+02  0.27812266765E+02  0.00000000000E+00 0. -1.
         21   -1    0    0  501  502 -0.00000000000E+00 -0.00000000000E+00 -0.18038138776E+04  0.18038138776E+04  0.00000000000E+00 0. -1.
         25    1    1    2    0    0 -0.99124954950E+02  0.14323562266E+03 -0.11530134933E+04  0.11727776073E+04  0.12500000000E+03 0.  0.
         25    1    1    2    0    0  0.99124954950E+02 -0.14323562266E+03 -0.62298811750E+03  0.65884853710E+03  0.12500000000E+03 0.  0.
</event>
<event>
 4    0  0.2151074E-002  0.2224651E+03  0.7546771E-02  0.1132058E+00
         21   -1    0    0  502  501  0.00000000000E+00  0.00000000000E+00  0.15578890651E+03  0.15578890651E+03  0.00000000000E+00 0.  1.
         21   -1    0    0  501  502 -0.00000000000E+00 -0.00000000000E+00 -0.31767795193E+03  0.31767795193E+03  0.00000000000E+00 0. -1.
         25    1    1    2    0    0 -0.15532905432E+03 -0.27339419912E+02 -0.18184778557E+03  0.27123454078E+03  0.12500000000E+03 0.  0.
         25    1    1    2    0    0  0.15532905432E+03  0.27339419912E+02  0.19958740148E+02  0.20223231766E+03  0.12500000000E+03 0.  0.
</event>
<event>
 4    0  0.2151074E-002  0.2394509E+03  0.7546771E-02  0.1120159E+00
         21   -1    0    0  502  501  0.00000000000E+00  0.00000000000E+00  0.65581050953E+02  0.65581050953E+02  0.00000000000E+00 0. -1.
         21   -1    0    0  501  502 -0.00000000000E+00 -0.00000000000E+00 -0.87428806631E+03  0.87428806631E+03  0.00000000000E+00 0. -1.
         25    1    1    2    0    0 -0.38316918751E+02 -0.16660260785E+03 -0.62366024742E+03  0.65863625729E+03  0.12500000000E+03 0.  0.
         25    1    1    2    0    0  0.38316918751E+02  0.16660260785E+03 -0.18504676793E+03  0.28123285997E+03  0.12500000000E+03 0.  0.
</event>
<event>
 4    0  0.2151074E-002  0.1932171E+03  0.7546771E-02  0.1155591E+00
         21   -1    0    0  502  501  0.00000000000E+00  0.00000000000E+00  0.18434353459E+03  0.18434353459E+03  0.00000000000E+00 0. -1.
         21   -1    0    0  501  502 -0.00000000000E+00 -0.00000000000E+00 -0.20251789963E+03  0.20251789963E+03  0.00000000000E+00 0. -1.
         25    1    1    2    0    0  0.58002443970E+01 -0.13019202882E+03 -0.77896395998E+02  0.19666330546E+03  0.12500000000E+03 0.  0.
         25    1    1    2    0    0 -0.58002443970E+01  0.13019202882E+03  0.59722030955E+02  0.19019812877E+03  0.12500000000E+03 0.  0.
</event>
<event>
 4    0  0.2151074E-002  0.3546412E+03  0.7546771E-02  0.1060726E+00
         21   -1    0    0  502  501  0.00000000000E+00  0.00000000000E+00  0.83196157593E+03  0.83196157593E+03  0.00000000000E+00 0.  1.
         21   -1    0    0  501  502 -0.00000000000E+00 -0.00000000000E+00 -0.15117326363E+03  0.15117326363E+03  0.00000000000E+00 0.  1.
         25    1    1    2    0    0 -0.25965583746E+03 -0.19996148915E+03  0.26784419401E+03  0.44132897405E+03  0.12500000000E+03 0.  0.
         25    1    1    2    0    0  0.25965583746E+03  0.19996148915E+03  0.41294411829E+03  0.54180586551E+03  0.12500000000E+03 0.  0.
</event>
<event>
 4    0  0.2151074E-002  0.3857478E+03  0.7546771E-02  0.1048830E+00
         21   -1    0    0  502  501  0.00000000000E+00  0.00000000000E+00  0.54124829400E+03  0.54124829400E+03  0.00000000000E+00 0. -1.
         21   -1    0    0  501  502 -0.00000000000E+00 -0.00000000000E+00 -0.27492260944E+03  0.27492260944E+03  0.00000000000E+00 0. -1.
         25    1    1    2    0    0  0.29544847606E+03 -0.20674024430E+03  0.73834492442E+02  0.38872594832E+03  0.12500000000E+03 0.  0.
         25    1    1    2    0    0 -0.29544847606E+03  0.20674024430E+03  0.19249119212E+03  0.42744495513E+03  0.12500000000E+03 0.  0.
</event>
<event>
 4    0  0.2151074E-002  0.1748590E+03  0.7546771E-02  0.1172873E+00
         21   -1    0    0  502  501  0.00000000000E+00  0.00000000000E+00  0.75259044644E+03  0.75259044644E+03  0.00000000000E+00 0. -1.
         21   -1    0    0  501  502 -0.00000000000E+00 -0.00000000000E+00 -0.40627214398E+02  0.40627214398E+02  0.00000000000E+00 0. -1.
         25    1    1    2    0    0  0.53676919918E+02  0.19933024225E+02  0.60102856966E+03  0.61655403554E+03  0.12500000000E+03 0.  0.
         25    1    1    2    0    0 -0.53676919918E+02 -0.19933024225E+02  0.11093466238E+03  0.17666362530E+03  0.12500000000E+03 0.  0.
</event>
<event>
 4    0  0.2151074E-002  0.2031045E+03  0.7546771E-02  0.1147146E+00
         21   -1    0    0  502  501  0.00000000000E+00  0.00000000000E+00  0.27227150821E+03  0.27227150821E+03  0.00000000000E+00 0.  1.
         21   -1    0    0  501  502 -0.00000000000E+00 -0.00000000000E+00 -0.15150853387E+03  0.15150853387E+03  0.00000000000E+00 0.  1.
         25    1    1    2    0    0 -0.13936765027E+03 -0.61369274454E+02  0.11188206935E+03  0.22656594455E+03  0.12500000000E+03 0.  0.
         25    1    1    2    0    0  0.13936765027E+03  0.61369274454E+02  0.88809049890E+01  0.19721409752E+03  0.12500000000E+03 0.  0.
</event>
<event>
 4    0  0.2151074E-002  0.2484898E+03  0.7546771E-02  0.1114263E+00
         21   -1    0    0  502  501  0.00000000000E+00  0.00000000000E+00  0.69048396951E+02  0.69048396951E+02  0.00000000000E+00 0.  1.
         21   -1    0    0  501  502 -0.00000000000E+00 -0.00000000000E+00 -0.89425949817E+03  0.89425949817E+03  0.00000000000E+00 0.  1.
         25    1    1    2    0    0  0.15178544145E+03 -0.72260558397E+02 -0.67165869357E+03  0.70357004569E+03  0.12500000000E+03 0.  0.
         25    1    1    2    0    0 -0.15178544145E+03  0.72260558397E+02 -0.15355240764E+03  0.25973784943E+03  0.12500000000E+03 0.  0.
</event>
<event>
 4    0  0.2151074E-002  0.2201802E+03  0.7546771E-02  0.1133749E+00
         21   -1    0    0  502  501  0.00000000000E+00  0.00000000000E+00  0.49099676801E+03  0.49099676801E+03  0.00000000000E+00 0.  1.
         21   -1    0    0  501  502 -0.00000000000E+00 -0.00000000000E+00 -0.98736559390E+02  0.98736559390E+02  0.00000000000E+00 0.  1.
         25    1    1    2    0    0  0.23290191780E+02 -0.11453005432E+03  0.10589585725E+02  0.17145467535E+03  0.12500000000E+03 0.  0.
         25    1    1    2    0    0 -0.23290191780E+02  0.11453005432E+03  0.38167062290E+03  0.41827865205E+03  0.12500000000E+03 0.  0.
</event>
<event>
 4    0  0.2151074E-002  0.1960109E+03  0.7546771E-02  0.1153149E+00
         21   -1    0    0  502  501  0.00000000000E+00  0.00000000000E+00  0.13468063531E+04  0.13468063531E+04  0.00000000000E+00 0.  1.
         21   -1    0    0  501  502 -0.00000000000E+00 -0.00000000000E+00 -0.28526941303E+02  0.28526941303E+02  0.00000000000E+00 0.  1.
         25    1    1    2    0    0  0.39853778439E+01  0.52887770889E+02  0.16320997033E+03  0.21230990076E+03  0.12500000000E+03 0.  0.
         25    1    1    2    0    0 -0.39853778439E+01 -0.52887770889E+02  0.11550694414E+04  0.11630233936E+04  0.12500000000E+03 0.  0.
</event>
<event>
 4    0  0.2151074E-002  0.1885127E+03  0.7546771E-02  0.1159810E+00
         21   -1    0    0  502  501  0.00000000000E+00  0.00000000000E+00  0.10506474245E+03  0.10506474245E+03  0.00000000000E+00 0.  1.
         21   -1    0    0  501  502 -0.00000000000E+00 -0.00000000000E+00 -0.33823930766E+03  0.33823930766E+03  0.00000000000E+00 0.  1.
         25    1    1    2    0    0 -0.22914711734E+02  0.26894388761E+02 -0.27721824625E+03  0.30614269257E+03  0.12500000000E+03 0.  0.
         25    1    1    2    0    0  0.22914711734E+02 -0.26894388761E+02  0.44043681040E+02  0.13716135753E+03  0.12500000000E+03 0.  0.
</event>
<event>
 4    0  0.2151074E-002  0.1897020E+03  0.7546771E-02  0.1158730E+00
         21   -1    0    0  502  501  0.00000000000E+00  0.00000000000E+00  0.12310493736E+03  0.12310493736E+03  0.00000000000E+00 0.  1.
         21   -1    0    0  501  502 -0.00000000000E+00 -0.00000000000E+00 -0.29232647530E+03  0.29232647530E+03  0.00000000000E+00 0.  1.
         25    1    1    2    0    0  0.88091904408E+01  0.15426350640E+02  0.70418674129E+02  0.14456612257E+03  0.12500000000E+03 0.  0.
         25    1    1    2    0    0 -0.88091904408E+01 -0.15426350640E+02 -0.23964021207E+03  0.27086529008E+03  0.12500000000E+03 0.  0.
</event>
<event>
 4    0  0.2151074E-002  0.2496572E+03  0.7546771E-02  0.1113522E+00
         21   -1    0    0  502  501  0.00000000000E+00  0.00000000000E+00  0.32922339878E+03  0.32922339878E+03  0.00000000000E+00 0.  1.
         21   -1    0    0  501  502 -0.00000000000E+00 -0.00000000000E+00 -0.18932046145E+03  0.18932046145E+03  0.00000000000E+00 0.  1.
         25    1    1    2    0    0 -0.19313673285E+03 -0.87691076442E+02  0.11292381261E+03  0.27086585226E+03  0.12500000000E+03 0.  0.
         25    1    1    2    0    0  0.19313673285E+03  0.87691076442E+02  0.26979124719E+02  0.24767800798E+03  0.12500000000E+03 0.  0.
</event>
<event>
 4    0  0.2151074E-002  0.2705814E+03  0.7546771E-02  0.1100947E+00
         21   -1    0    0  502  501  0.00000000000E+00  0.00000000000E+00  0.66866818444E+03  0.66866818444E+03  0.00000000000E+00 0. -1.
         21   -1    0    0  501  502 -0.00000000000E+00 -0.00000000000E+00 -0.10949271487E+03  0.10949271487E+03  0.00000000000E+00 0. -1.
         25    1    1    2    0    0 -0.68550861442E+02  0.14349975539E+03  0.53800919292E+03  0.57477847217E+03  0.12500000000E+03 0.  0.
         25    1    1    2    0    0  0.68550861442E+02 -0.14349975539E+03  0.21166276651E+02  0.20338242714E+03  0.12500000000E+03 0.  0.
</event>
<event>
 4    0  0.2151074E-002  0.2247722E+03  0.7546771E-02  0.1130374E+00
         21   -1    0    0  502  501  0.00000000000E+00  0.00000000000E+00  0.67392752364E+02  0.67392752364E+02  0.00000000000E+00 0.  1.
         21   -1    0    0  501  502 -0.00000000000E+00 -0.00000000000E+00 -0.74967306728E+03  0.74967306728E+03  0.00000000000E+00 0.  1.
         25    1    1    2    0    0 -0.17960718685E+03  0.18076283324E+02 -0.25374608840E+03  0.33555561531E+03  0.12500000000E+03 0.  0.
         25    1    1    2    0    0  0.17960718685E+03 -0.18076283324E+02 -0.42853422652E+03  0.48151020434E+03  0.12500000000E+03 0.  0.
</event>
<event>
 4    0  0.2151074E-002  0.2530434E+03  0.7546771E-02  0.1111396E+00
         21   -1    0    0  502  501  0.00000000000E+00  0.00000000000E+00  0.10001422044E+03  0.10001422044E+03  0.00000000000E+00 0.  1.
         21   -1    0    0  501  502 -0.00000000000E+00 -0.00000000000E+00 -0.64021841422E+03  0.64021841422E+03  0.00000000000E+00 0.  1.
         25    1    1    2    0    0  0.83764055284E+02  0.15628396628E+03 -0.79591870373E+02  0.23108647928E+03  0.12500000000E+03 0.  0.
         25    1    1    2    0    0 -0.83764055284E+02 -0.15628396628E+03 -0.46061232340E+03  0.50914615538E+03  0.12500000000E+03 0.  0.
</event>
<event>
 4    0  0.2151074E-002  0.2353462E+03  0.7546771E-02  0.1122932E+00
         21   -1    0    0  502  501  0.00000000000E+00  0.00000000000E+00  0.61697191387E+02  0.61697191387E+02  0.00000000000E+00 0.  1.
         21   -1    0    0  501  502 -0.00000000000E+00 -0.00000000000E+00 -0.89773646606E+03  0.89773646606E+03  0.00000000000E+00 0.  1.
         25    1    1    2    0    0 -0.88625440107E+02  0.16001275721E+03 -0.25617618332E+03  0.33868833461E+03  0.12500000000E+03 0.  0.
         25    1    1    2    0    0  0.88625440107E+02 -0.16001275721E+03 -0.57986309135E+03  0.62074532283E+03  0.12500000000E+03 0.  0.
</event>
<event>
 4    0  0.2151074E-002  0.2053190E+03  0.7546771E-02  0.1145327E+00
         21   -1    0    0  502  501  0.00000000000E+00  0.00000000000E+00  0.41045196510E+02  0.41045196510E+02  0.00000000000E+00 0.  1.
         21   -1    0    0  501  502 -0.00000000000E+00 -0.00000000000E+00 -0.10270604135E+04  0.10270604135E+04  0.00000000000E+00 0.  1.
         25    1    1    2    0    0 -0.11426702201E+03  0.69087468159E+02 -0.25038220319E+03  0.31007463336E+03  0.12500000000E+03 0.  0.
         25    1    1    2    0    0  0.11426702201E+03 -0.69087468159E+02 -0.73563301377E+03  0.75803097663E+03  0.12500000000E+03 0.  0.
</event>
<event>
 4    0  0.2151074E-002  0.2423868E+03  0.7546771E-02  0.1118213E+00
         21   -1    0    0  502  501  0.00000000000E+00  0.00000000000E+00  0.51833832800E+03  0.51833832800E+03  0.00000000000E+00 0. -1.
         21   -1    0    0  501  502 -0.00000000000E+00 -0.00000000000E+00 -0.11334562684E+03  0.11334562684E+03  0.00000000000E+00 0. -1.
         25    1    1    2    0    0  0.42938024971E+02 -0.13903980030E+03  0.39555284850E+03  0.43961664665E+03  0.12500000000E+03 0.  0.
         25    1    1    2    0    0 -0.42938024971E+02  0.13903980030E+03  0.94398526558E+01  0.19206730819E+03  0.12500000000E+03 0.  0.
</event>
<event>
 4    0  0.2151074E-002  0.1765900E+03  0.7546771E-02  0.1171145E+00
         21   -1    0    0  502  501  0.00000000000E+00  0.00000000000E+00  0.51564185875E+03  0.51564185875E+03  0.00000000000E+00 0.  1.
         21   -1    0    0  501  502 -0.00000000000E+00 -0.00000000000E+00 -0.60476141931E+02  0.60476141931E+02  0.00000000000E+00 0.  1.
         25    1    1    2    0    0  0.10553328924E+03 -0.65644467013E+02  0.21027650631E+03  0.27438600601E+03  0.12500000000E+03 0.  0.
         25    1    1    2    0    0 -0.10553328924E+03  0.65644467013E+02  0.24488921051E+03  0.30173199467E+03  0.12500000000E+03 0.  0.
</event>
<event>
 4    0  0.2151074E-002  0.2107886E+03  0.7546771E-02  0.1140943E+00
         21   -1    0    0  502  501  0.00000000000E+00  0.00000000000E+00  0.34093627707E+04  0.34093627707E+04  0.00000000000E+00 0. -1.
         21   -1    0    0  501  502 -0.00000000000E+00 -0.00000000000E+00 -0.13032296479E+02  0.13032296479E+02  0.00000000000E+00 0. -1.
         25    1    1    2    0    0 -0.97330668747E+02 -0.10905214034E+03  0.23984497054E+04  0.24061487107E+04  0.12500000000E+03 0.  0.
         25    1    1    2    0    0  0.97330668747E+02  0.10905214034E+03  0.99788076877E+03  0.10162463565E+04  0.12500000000E+03 0.  0.
</event>
<event>
 4    0  0.2151074E-002  0.2186613E+03  0.7546771E-02  0.1134885E+00
         21   -1    0    0  502  501  0.00000000000E+00  0.00000000000E+00  0.66202997980E+02  0.66202997980E+02  0.00000000000E+00 0. -1.
         21   -1    0    0  501  502 -0.00000000000E+00 -0.00000000000E+00 -0.72221458738E+03  0.72221458738E+03  0.00000000000E+00 0. -1.
         25    1    1    2    0    0 -0.14863471304E+03  0.61881168972E+02 -0.47071663305E+03  0.51295292730E+03  0.12500000000E+03 0.  0.
         25    1    1    2    0    0  0.14863471304E+03 -0.61881168972E+02 -0.18529495635E+03  0.27546465807E+03  0.12500000000E+03 0.  0.
</event>
<event>
 4    0  0.2151074E-002  0.2663471E+03  0.7546771E-02  0.1103389E+00
         21   -1    0    0  502  501  0.00000000000E+00  0.00000000000E+00  0.29703861851E+03  0.29703861851E+03  0.00000000000E+00 0. -1.
         21   -1    0    0  501  502 -0.00000000000E+00 -0.00000000000E+00 -0.23882679857E+03  0.23882679857E+03  0.00000000000E+00 0. -1.
         25    1    1    2    0    0  0.12937042984E+03 -0.19594957119E+03  0.42708231794E+02  0.26941034804E+03  0.12500000000E+03 0.  0.
         25    1    1    2    0    0 -0.12937042984E+03  0.19594957119E+03  0.15503588145E+02  0.26645506903E+03  0.12500000000E+03 0.  0.
</event>
<event>
 4    0  0.2151074E-002  0.2034499E+03  0.7546771E-02  0.1146861E+00
         21   -1    0    0  502  501  0.00000000000E+00  0.00000000000E+00  0.47390284037E+03  0.47390284037E+03  0.00000000000E+00 0.  1.
         21   -1    0    0  501  502 -0.00000000000E+00 -0.00000000000E+00 -0.87342540987E+02  0.87342540987E+02  0.00000000000E+00 0.  1.
         25    1    1    2    0    0 -0.64704400961E+02 -0.12712881864E+03  0.91747891847E+02  0.21069188805E+03  0.12500000000E+03 0.  0.
         25    1    1    2    0    0  0.64704400961E+02  0.12712881864E+03  0.29481240753E+03  0.35055349330E+03  0.12500000000E+03 0.  0.
</event>
<event>
 4    0  0.2151074E-002  0.1926595E+03  0.7546771E-02  0.1156084E+00
         21   -1    0    0  502  501  0.00000000000E+00  0.00000000000E+00  0.43592012266E+03  0.43592012266E+03  0.00000000000E+00 0.  1.
         21   -1    0    0  501  502 -0.00000000000E+00 -0.00000000000E+00 -0.85147919292E+02  0.85147919292E+02  0.00000000000E+00 0.  1.
         25    1    1    2    0    0  0.17166788119E+02 -0.12079765872E+03  0.28529695205E+03  0.33452372684E+03  0.12500000000E+03 0.  0.
         25    1    1    2    0    0 -0.17166788119E+02  0.12079765872E+03  0.65475251322E+02  0.18654431512E+03  0.12500000000E+03 0.  0.
</event>
<event>
 4    0  0.2151074E-002  0.1838552E+03  0.7546771E-02  0.1164123E+00
         21   -1    0    0  502  501  0.00000000000E+00  0.00000000000E+00  0.15349565967E+03  0.15349565967E+03  0.00000000000E+00 0. -1.
         21   -1    0    0  501  502 -0.00000000000E+00 -0.00000000000E+00 -0.22021942189E+03  0.22021942189E+03  0.00000000000E+00 0. -1.
         25    1    1    2    0    0 -0.11556860464E+03  0.56097591697E+02 -0.74953048447E+02  0.19428330254E+03  0.12500000000E+03 0.  0.
         25    1    1    2    0    0  0.11556860464E+03 -0.56097591697E+02  0.82292862274E+01  0.17943177903E+03  0.12500000000E+03 0.  0.
</event>
<event>
 4    0  0.2151074E-002  0.3051161E+03  0.7546771E-02  0.1082711E+00
         21   -1    0    0  502  501  0.00000000000E+00  0.00000000000E+00  0.22532894981E+04  0.22532894981E+04  0.00000000000E+00 0.  1.
         21   -1    0    0  501  502 -0.00000000000E+00 -0.00000000000E+00 -0.41315514291E+02  0.41315514291E+02  0.00000000000E+00 0.  1.
         25    1    1    2    0    0  0.15555685514E+03 -0.12270827907E+03  0.37090977166E+03  0.43869615413E+03  0.12500000000E+03 0.  0.
         25    1    1    2    0    0 -0.15555685514E+03  0.12270827907E+03  0.18410642122E+04  0.18559088583E+04  0.12500000000E+03 0.  0.
</event>
<event>
 4    0  0.2151074E-002  0.1688909E+03  0.7546771E-02  0.1179009E+00
         21   -1    0    0  502  501  0.00000000000E+00  0.00000000000E+00  0.26475863757E+03  0.26475863757E+03  0.00000000000E+00 0. -1.
         21   -1    0    0  501  502 -0.00000000000E+00 -0.00000000000E+00 -0.10773638678E+03  0.10773638678E+03  0.00000000000E+00 0. -1.
         25    1    1    2    0    0 -0.52352574181E+02 -0.45125631980E+02 -0.20872846754E+02  0.14435300626E+03  0.12500000000E+03 0.  0.
         25    1    1    2    0    0  0.52352574181E+02  0.45125631980E+02  0.17789509755E+03  0.22814201809E+03  0.12500000000E+03 0.  0.
</event>
<event>
 4    0  0.2151074E-002  0.1995290E+03  0.7546771E-02  0.1150137E+00
         21   -1    0    0  502  501  0.00000000000E+00  0.00000000000E+00  0.78448130327E+03  0.78448130327E+03  0.00000000000E+00 0. -1.
         21   -1    0    0  501  502 -0.00000000000E+00 -0.00000000000E+00 -0.50749231390E+02  0.50749231390E+02  0.00000000000E+00 0. -1.
         25    1    1    2    0    0 -0.11841974945E+03  0.79545151151E+01  0.57721371513E+03  0.60240118219E+03  0.12500000000E+03 0.  0.
         25    1    1    2    0    0  0.11841974945E+03 -0.79545151151E+01  0.15651835675E+03  0.23282935247E+03  0.12500000000E+03 0.  0.
</event>
<event>
 4    0  0.2151074E-002  0.2084457E+03  0.7546771E-02  0.1142803E+00
         21   -1    0    0  502  501  0.00000000000E+00  0.00000000000E+00  0.19924313400E+03  0.19924313400E+03  0.00000000000E+00 0.  1.
         21   -1    0    0  501  502 -0.00000000000E+00 -0.00000000000E+00 -0.21807336818E+03  0.21807336818E+03  0.00000000000E+00 0.  1.
         25    1    1    2    0    0  0.14812554890E+03  0.67398304649E+02 -0.46070911920E+02  0.21031224080E+03  0.12500000000E+03 0.  0.
         25    1    1    2    0    0 -0.14812554890E+03 -0.67398304649E+02  0.27240677736E+02  0.20700426138E+03  0.12500000000E+03 0.  0.
</event>
<event>
 4    0  0.2151074E-002  0.3685592E+03  0.7546771E-02  0.1055245E+00
         21   -1    0    0  502  501  0.00000000000E+00  0.00000000000E+00  0.68230336053E+03  0.68230336053E+03  0.00000000000E+00 0.  1.
         21   -1    0    0  501  502 -0.00000000000E+00 -0.00000000000E+00 -0.19908424896E+03  0.19908424896E+03  0.00000000000E+00 0.  1.
         25    1    1    2    0    0 -0.32656789577E+03  0.79157421801E+02  0.13945858392E+03  0.38468972511E+03  0.12500000000E+03 0.  0.
         25    1    1    2    0    0  0.32656789577E+03 -0.79157421801E+02  0.34376052765E+03  0.49669788438E+03  0.12500000000E+03 0.  0.
</event>
<event>
 4    0  0.2151074E-002  0.1634235E+03  0.7546771E-02  0.1184885E+00
         21   -1    0    0  502  501  0.00000000000E+00  0.00000000000E+00  0.66488705992E+03  0.66488705992E+03  0.00000000000E+00 0.  1.
         21   -1    0    0  501  502 -0.00000000000E+00 -0.00000000000E+00 -0.40168077421E+02  0.40168077421E+02  0.00000000000E+00 0.  1.
         25    1    1    2    0    0 -0.45614345406E+02  0.25208780736E+02  0.50966523446E+03  0.52735168754E+03  0.12500000000E+03 0.  0.
         25    1    1    2    0    0  0.45614345406E+02 -0.25208780736E+02  0.11505374803E+03  0.17770344980E+03  0.12500000000E+03 0.  0.
</event>
<event>
 4    0  0.2151074E-002  0.2923487E+03  0.7546771E-02  0.1089129E+00
         21   -1    0    0  502  501  0.00000000000E+00  0.00000000000E+00  0.53433102718E+03  0.53433102718E+03  0.00000000000E+00 0. -1.
         21   -1    0    0  501  502 -0.00000000000E+00 -0.00000000000E+00 -0.15995286905E+03  0.15995286905E+03  0.00000000000E+00 0. -1.
         25    1    1    2    0    0 -0.26203592441E+03  0.31230111713E+02  0.17020288349E+03  0.33798249527E+03  0.12500000000E+03 0.  0.
         25    1    1    2    0    0  0.26203592441E+03 -0.31230111713E+02  0.20417527463E+03  0.35630140097E+03  0.12500000000E+03 0.  0.
</event>
<event>
 4    0  0.2151074E-002  0.1908418E+03  0.7546771E-02  0.1157704E+00
         21   -1    0    0  502  501  0.00000000000E+00  0.00000000000E+00  0.79586470620E+03  0.79586470620E+03  0.00000000000E+00 0. -1.
         21   -1    0    0  501  502 -0.00000000000E+00 -0.00000000000E+00 -0.45762311709E+02  0.45762311709E+02  0.00000000000E+00 0. -1.
         25    1    1    2    0    0 -0.46711516766E+02 -0.62652872897E+02  0.10781132491E+03  0.18263523772E+03  0.12500000000E+03 0.  0.
         25    1    1    2    0    0  0.46711516766E+02  0.62652872897E+02  0.64229106958E+03  0.65899178018E+03  0.12500000000E+03 0.  0.
</event>
<event>
 4    0  0.2151074E-002  0.2454401E+03  0.7546771E-02  0.1116221E+00
         21   -1    0    0  502  501  0.00000000000E+00  0.00000000000E+00  0.12386021906E+03  0.12386021906E+03  0.00000000000E+00 0. -1.
         21   -1    0    0  501  502 -0.00000000000E+00 -0.00000000000E+00 -0.48636155941E+03  0.48636155941E+03  0.00000000000E+00 0. -1.
         25    1    1    2    0    0 -0.12669554032E+03  0.59802685462E+02 -0.37775655054E+03  0.42184491534E+03  0.12500000000E+03 0.  0.
         25    1    1    2    0    0  0.12669554032E+03 -0.59802685462E+02  0.15255210183E+02  0.18837686313E+03  0.12500000000E+03 0.  0.
</event>
<event>
 4    0  0.2151074E-002  0.1779320E+03  0.7546771E-02  0.1169820E+00
         21   -1    0    0  502  501  0.00000000000E+00  0.00000000000E+00  0.52157575666E+03  0.52157575666E+03  0.00000000000E+00 0.  1.
         21   -1    0    0  501  502 -0.00000000000E+00 -0.00000000000E+00 -0.60700256029E+02  0.60700256029E+02  0.00000000000E+00 0.  1.
         25    1    1    2    0    0 -0.73791596041E+02  0.24241362676E+02  0.66798667288E+02  0.16161653771E+03  0.12500000000E+03 0.  0.
         25    1    1    2    0    0  0.73791596041E+02 -0.24241362676E+02  0.39407683335E+03  0.42065947498E+03  0.12500000000E+03 0.  0.
</event>
<event>
 4    0  0.2151074E-002  0.1798707E+03  0.7546771E-02  0.1167928E+00
         21   -1    0    0  502  501  0.00000000000E+00  0.00000000000E+00  0.91612015637E+02  0.91612015637E+02  0.00000000000E+00 0. -1.
         21   -1    0    0  501  502 -0.00000000000E+00 -0.00000000000E+00 -0.35315751213E+03  0.35315751213E+03  0.00000000000E+00 0. -1.
         25    1    1    2    0    0 -0.10160105400E+03 -0.71092491654E+02 -0.17622563221E+03  0.24911320718E+03  0.12500000000E+03 0.  0.
         25    1    1    2    0    0  0.10160105400E+03  0.71092491654E+02 -0.85319864283E+02  0.19565632059E+03  0.12500000000E+03 0.  0.
</event>
<event>
 4    0  0.2151074E-002  0.1803436E+03  0.7546771E-02  0.1167471E+00
         21   -1    0    0  502  501  0.00000000000E+00  0.00000000000E+00  0.23590706543E+02  0.23590706543E+02  0.00000000000E+00 0.  1.
         21   -1    0    0  501  502 -0.00000000000E+00 -0.00000000000E+00 -0.13786707387E+04  0.13786707387E+04  0.00000000000E+00 0.  1.
         25    1    1    2    0    0 -0.12724984613E+03  0.15116822548E+02 -0.59256132745E+03  0.61901128298E+03  0.12500000000E+03 0.  0.
         25    1    1    2    0    0  0.12724984613E+03 -0.15116822548E+02 -0.76251870470E+03  0.78325016226E+03  0.12500000000E+03 0.  0.
</event>
<event>
 4    0  0.2151074E-002  0.1864764E+03  0.7546771E-02  0.1161678E+00
         21   -1    0    0  502  501  0.00000000000E+00  0.00000000000E+00  0.94448087645E+02  0.94448087645E+02  0.00000000000E+00 0. -1.
         21   -1    0    0  501  502 -0.00000000000E+00 -0.00000000000E+00 -0.36817518801E+03  0.36817518801E+03  0.00000000000E+00 0. -1.
         25    1    1    2    0    0 -0.11167120398E+03  0.55737758025E+02 -0.21099218713E+03  0.27517241594E+03  0.12500000000E+03 0.  0.
         25    1    1    2    0    0  0.11167120398E+03 -0.55737758025E+02 -0.62734913240E+02  0.18745085971E+03  0.12500000000E+03 0.  0.
</event>
<event>
 4    0  0.2151074E-002  0.2225882E+03  0.7546771E-02  0.1131968E+00
         21   -1    0    0  502  501  0.00000000000E+00  0.00000000000E+00  0.33812887580E+02  0.33812887580E+02  0.00000000000E+00 0. -1.
         21   -1    0    0  501  502 -0.00000000000E+00 -0.00000000000E+00 -0.14652849323E+04  0.14652849323E+04  0.00000000000E+00 0. -1.
         25    1    1    2    0    0 -0.16073564579E+03 -0.27892716030E+02 -0.10035781651E+04  0.10244062109E+04  0.12500000000E+03 0.  0.
         25    1    1    2    0    0  0.16073564579E+03  0.27892716030E+02 -0.42789387962E+03  0.47469160900E+03  0.12500000000E+03 0.  0.
</event>
<event>
 4    0  0.2151074E-002  0.2073036E+03  0.7546771E-02  0.1143719E+00
         21   -1    0    0  502  501  0.00000000000E+00  0.00000000000E+00  0.30539157999E+03  0.30539157999E+03  0.00000000000E+00 0. -1.
         21   -1    0    0  501  502 -0.00000000000E+00 -0.00000000000E+00 -0.14072022428E+03  0.14072022428E+03  0.00000000000E+00 0. -1.
         25    1    1    2    0    0  0.12268731643E+03  0.84963731128E+02  0.56550415976E+01  0.19475110453E+03  0.12500000000E+03 0.  0.
         25    1    1    2    0    0 -0.12268731643E+03 -0.84963731128E+02  0.15901631412E+03  0.25136069974E+03  0.12500000000E+03 0.  0.
</event>
<event>
 4    0  0.2151074E-002  0.2366271E+03  0.7546771E-02  0.1122060E+00
         21   -1    0    0  502  501  0.00000000000E+00  0.00000000000E+00  0.52523073684E+02  0.52523073684E+02  0.00000000000E+00 0. -1.
         21   -1    0    0  501  502 -0.00000000000E+00 -0.00000000000E+00 -0.10660530860E+04  0.10660530860E+04  0.00000000000E+00 0. -1.
         25    1    1    2    0    0 -0.12876593866E+03  0.13704915540E+03 -0.33956340110E+03  0.40778847620E+03  0.12500000000E+03 0.  0.
         25    1    1    2    0    0  0.12876593866E+03 -0.13704915540E+03 -0.67396661119E+03  0.71078768346E+03  0.12500000000E+03 0.  0.
</event>
<event>
 4    0  0.2151074E-002  0.1856356E+03  0.7546771E-02  0.1162458E+00
         21   -1    0    0  502  501  0.00000000000E+00  0.00000000000E+00  0.10360634850E+04  0.10360634850E+04  0.00000000000E+00 0.  1.
         21   -1    0    0  501  502 -0.00000000000E+00 -0.00000000000E+00 -0.33261077087E+02  0.33261077087E+02  0.00000000000E+00 0.  1.
         25    1    1    2    0    0  0.10411541745E+03 -0.92621664990E+01  0.75755476564E+03  0.77488065586E+03  0.12500000000E+03 0.  0.
         25    1    1    2    0    0 -0.10411541745E+03  0.92621664990E+01  0.24524764231E+03  0.29444390627E+03  0.12500000000E+03 0.  0.
</event>
<event>
 4    0  0.2151074E-002  0.2597637E+03  0.7546771E-02  0.1107285E+00
         21   -1    0    0  502  501  0.00000000000E+00  0.00000000000E+00  0.75182480314E+03  0.75182480314E+03  0.00000000000E+00 0.  1.
         21   -1    0    0  501  502 -0.00000000000E+00 -0.00000000000E+00 -0.89751201442E+02  0.89751201442E+02  0.00000000000E+00 0.  1.
         25    1    1    2    0    0  0.12426943352E+03  0.12708106566E+03  0.10046760425E+03  0.23939763754E+03  0.12500000000E+03 0.  0.
         25    1    1    2    0    0 -0.12426943352E+03 -0.12708106566E+03  0.56160599746E+03  0.60217836705E+03  0.12500000000E+03 0.  0.
</event>
<event>
 4    0  0.2151074E-002  0.2055398E+03  0.7546771E-02  0.1145147E+00
         21   -1    0    0  502  501  0.00000000000E+00  0.00000000000E+00  0.21697469831E+04  0.21697469831E+04  0.00000000000E+00 0. -1.
         21   -1    0    0  501  502 -0.00000000000E+00 -0.00000000000E+00 -0.19470749030E+02  0.19470749030E+02  0.00000000000E+00 0. -1.
         25    1    1    2    0    0 -0.12181820732E+03  0.34465970808E+02  0.52699560780E+03  0.55621663892E+03  0.12500000000E+03 0.  0.
         25    1    1    2    0    0  0.12181820732E+03 -0.34465970808E+02  0.16232806263E+04  0.16330010932E+04  0.12500000000E+03 0.  0.
</event>
<event>
 4    0  0.2151074E-002  0.1437083E+03  0.7546771E-02  0.1208425E+00
         21   -1    0    0  502  501  0.00000000000E+00  0.00000000000E+00  0.11573623078E+04  0.11573623078E+04  0.00000000000E+00 0. -1.
         21   -1    0    0  501  502 -0.00000000000E+00 -0.00000000000E+00 -0.17844083294E+02  0.17844083294E+02  0.00000000000E+00 0. -1.
         25    1    1    2    0    0  0.27386239689E+02 -0.49285364636E+02  0.39398486790E+03  0.41716678849E+03  0.12500000000E+03 0.  0.
         25    1    1    2    0    0 -0.27386239689E+02  0.49285364636E+02  0.74553335659E+03  0.75803960258E+03  0.12500000000E+03 0.  0.
</event>
<event>
 4    0  0.2151074E-002  0.1913986E+03  0.7546771E-02  0.1157206E+00
         21   -1    0    0  502  501  0.00000000000E+00  0.00000000000E+00  0.34577980686E+02  0.34577980686E+02  0.00000000000E+00 0.  1.
         21   -1    0    0  501  502 -0.00000000000E+00 -0.00000000000E+00 -0.10594438755E+04  0.10594438755E+04  0.00000000000E+00 0.  1.
         25    1    1    2    0    0 -0.36973277365E+02 -0.28411145914E+02 -0.12021184572E+03  0.17958314036E+03  0.12500000000E+03 0.  0.
         25    1    1    2    0    0  0.36973277365E+02  0.28411145914E+02 -0.90465404912E+03  0.91443871585E+03  0.12500000000E+03 0.  0.
</event>
<event>
 4    0  0.2151074E-002  0.2243097E+03  0.7546771E-02  0.1130710E+00
         21   -1    0    0  502  501  0.00000000000E+00  0.00000000000E+00  0.32113631913E+02  0.32113631913E+02  0.00000000000E+00 0.  1.
         21   -1    0    0  501  502 -0.00000000000E+00 -0.00000000000E+00 -0.15667758527E+04  0.15667758527E+04  0.00000000000E+00 0.  1.
         25    1    1    2    0    0 -0.13049446969E+03  0.10123572900E+03 -0.10741762481E+04  0.10939639352E+04  0.12500000000E+03 0.  0.
         25    1    1    2    0    0  0.13049446969E+03 -0.10123572900E+03 -0.46048597260E+03  0.50492554937E+03  0.12500000000E+03 0.  0.
</event>
<event>
 4    0  0.2151074E-002  0.2582359E+03  0.7546771E-02  0.1108208E+00
         21   -1    0    0  502  501  0.00000000000E+00  0.00000000000E+00  0.11607769500E+03  0.11607769500E+03  0.00000000000E+00 0. -1.
         21   -1    0    0  501  502 -0.00000000000E+00 -0.00000000000E+00 -0.57449259500E+03  0.57449259500E+03  0.00000000000E+00 0.  1.
         25    1    1    2    0    0  0.10947416677E+03 -0.15641755344E+03 -0.39082272805E+03  0.45256872293E+03  0.12500000000E+03 0.  0.
         25    1    1    2    0    0 -0.10947416677E+03  0.15641755344E+03 -0.67592171952E+02  0.23800156706E+03  0.12500000000E+03 0.  0.
</event>
<event>
 4    0  0.2151074E-002  0.2610430E+03  0.7546771E-02  0.1106518E+00
         21   -1    0    0  502  501  0.00000000000E+00  0.00000000000E+00  0.10185274458E+03  0.10185274458E+03  0.00000000000E+00 0.  1.
         21   -1    0    0  501  502 -0.00000000000E+00 -0.00000000000E+00 -0.66903877006E+03  0.66903877006E+03  0.00000000000E+00 0.  1.
         25    1    1    2    0    0  0.44651862309E+02  0.95252579328E+02  0.17029754216E+02  0.16426154512E+03  0.12500000000E+03 0.  0.
         25    1    1    2    0    0 -0.44651862309E+02 -0.95252579328E+02 -0.58421577969E+03  0.60662996952E+03  0.12500000000E+03 0.  0.
</event>
<event>
 4    0  0.2151074E-002  0.3151428E+03  0.7546771E-02  0.1077907E+00
         21   -1    0    0  502  501  0.00000000000E+00  0.00000000000E+00  0.36751875210E+03  0.36751875210E+03  0.00000000000E+00 0.  1.
         21   -1    0    0  501  502 -0.00000000000E+00 -0.00000000000E+00 -0.27023112173E+03  0.27023112173E+03  0.00000000000E+00 0.  1.
         25    1    1    2    0    0 -0.17474082676E+03  0.10166102284E+03 -0.16073838301E+03  0.28693404795E+03  0.12500000000E+03 0.  0.
         25    1    1    2    0    0  0.17474082676E+03 -0.10166102284E+03  0.25802601338E+03  0.35081582587E+03  0.12500000000E+03 0.  0.
</event>
<event>
 4    0  0.2151074E-002  0.2043570E+03  0.7546771E-02  0.1146114E+00
         21   -1    0    0  502  501  0.00000000000E+00  0.00000000000E+00  0.10500808164E+03  0.10500808164E+03  0.00000000000E+00 0. -1.
         21   -1    0    0  501  502 -0.00000000000E+00 -0.00000000000E+00 -0.39770076791E+03  0.39770076791E+03  0.00000000000E+00 0. -1.
         25    1    1    2    0    0 -0.38896245855E+02  0.15691755408E+03 -0.14741719046E+03  0.25197790531E+03  0.12500000000E+03 0.  0.
         25    1    1    2    0    0  0.38896245855E+02 -0.15691755408E+03 -0.14527549581E+03  0.25073094425E+03  0.12500000000E+03 0.  0.
</event>
<event>
 4    0  0.2151074E-002  0.1745229E+03  0.7546771E-02  0.1173212E+00
         21   -1    0    0  502  501  0.00000000000E+00  0.00000000000E+00  0.14239469349E+02  0.14239469349E+02  0.00000000000E+00 0. -1.
         21   -1    0    0  501  502 -0.00000000000E+00 -0.00000000000E+00 -0.21390010669E+04  0.21390010669E+04  0.00000000000E+00 0. -1.
         25    1    1    2    0    0  0.11524459184E+02 -0.11414804371E+02 -0.31774853446E+03  0.34183657217E+03  0.12500000000E+03 0.  0.
         25    1    1    2    0    0 -0.11524459184E+02  0.11414804371E+02 -0.18070130631E+04  0.18114039641E+04  0.12500000000E+03 0.  0.
</event>
<event>
 4    0  0.2151074E-002  0.2183802E+03  0.7546771E-02  0.1135096E+00
         21   -1    0    0  502  501  0.00000000000E+00  0.00000000000E+00  0.58519613430E+03  0.58519613430E+03  0.00000000000E+00 0. -1.
         21   -1    0    0  501  502 -0.00000000000E+00 -0.00000000000E+00 -0.81493913369E+02  0.81493913369E+02  0.00000000000E+00 0. -1.
         25    1    1    2    0    0 -0.16833088872E+03  0.23924659604E+02  0.16608122079E+03  0.26854357064E+03  0.12500000000E+03 0.  0.
         25    1    1    2    0    0  0.16833088872E+03 -0.23924659604E+02  0.33762100014E+03  0.39814647702E+03  0.12500000000E+03 0.  0.
</event>
<event>
 4    0  0.2151074E-002  0.1924360E+03  0.7546771E-02  0.1156282E+00
         21   -1    0    0  502  501  0.00000000000E+00  0.00000000000E+00  0.68628797056E+02  0.68628797056E+02  0.00000000000E+00 0. -1.
         21   -1    0    0  501  502 -0.00000000000E+00 -0.00000000000E+00 -0.53959297350E+03  0.53959297350E+03  0.00000000000E+00 0. -1.
         25    1    1    2    0    0  0.18734813409E+02 -0.12797532243E+03 -0.12739521184E+03  0.22041600755E+03  0.12500000000E+03 0.  0.
         25    1    1    2    0    0 -0.18734813409E+02  0.12797532243E+03 -0.34356896460E+03  0.38780576301E+03  0.12500000000E+03 0.  0.
</event>
<event>
 4    0  0.2151074E-002  0.1593840E+03  0.7546771E-02  0.1189394E+00
         21   -1    0    0  502  501  0.00000000000E+00  0.00000000000E+00  0.34797674749E+02  0.34797674749E+02  0.00000000000E+00 0. -1.
         21   -1    0    0  501  502 -0.00000000000E+00 -0.00000000000E+00 -0.73002778706E+03  0.73002778706E+03  0.00000000000E+00 0. -1.
         25    1    1    2    0    0  0.61005770405E+02  0.77697198713E+02 -0.35826725975E+03  0.39209563645E+03  0.12500000000E+03 0.  0.
         25    1    1    2    0    0 -0.61005770405E+02 -0.77697198713E+02 -0.33696285256E+03  0.37272982536E+03  0.12500000000E+03 0.  0.
</event>
<event>
 4    0  0.2151074E-002  0.1844894E+03  0.7546771E-02  0.1163528E+00
         21   -1    0    0  502  501  0.00000000000E+00  0.00000000000E+00  0.16394851929E+03  0.16394851929E+03  0.00000000000E+00 0.  1.
         21   -1    0    0  501  502 -0.00000000000E+00 -0.00000000000E+00 -0.20760372459E+03  0.20760372459E+03  0.00000000000E+00 0.  1.
         25    1    1    2    0    0  0.86900713422E+02  0.23756471754E+02  0.80345451172E+02  0.17377138852E+03  0.12500000000E+03 0.  0.
         25    1    1    2    0    0 -0.86900713422E+02 -0.23756471754E+02 -0.12400065647E+03  0.19778085536E+03  0.12500000000E+03 0.  0.
</event>
<event>
 4    0  0.2151074E-002  0.1785927E+03  0.7546771E-02  0.1169172E+00
         21   -1    0    0  502  501  0.00000000000E+00  0.00000000000E+00  0.67445782860E+02  0.67445782860E+02  0.00000000000E+00 0. -1.
         21   -1    0    0  501  502 -0.00000000000E+00 -0.00000000000E+00 -0.47290360366E+03  0.47290360366E+03  0.00000000000E+00 0. -1.
         25    1    1    2    0    0  0.17307254445E+02 -0.12416646359E+03 -0.23831994100E+03  0.29688086165E+03  0.12500000000E+03 0.  0.
         25    1    1    2    0    0 -0.17307254445E+02  0.12416646359E+03 -0.16713787980E+03  0.24346852487E+03  0.12500000000E+03 0.  0.
</event>
<event>
 4    0  0.2151074E-002  0.1885792E+03  0.7546771E-02  0.1159749E+00
         21   -1    0    0  502  501  0.00000000000E+00  0.00000000000E+00  0.98901251834E+02  0.98901251834E+02  0.00000000000E+00 0. -1.
         21   -1    0    0  501  502 -0.00000000000E+00 -0.00000000000E+00 -0.35957208405E+03  0.35957208405E+03  0.00000000000E+00 0. -1.
         25    1    1    2    0    0 -0.71043174555E+02  0.10669811941E+03 -0.20230776629E+03  0.27015746082E+03  0.12500000000E+03 0.  0.
         25    1    1    2    0    0  0.71043174555E+02 -0.10669811941E+03 -0.58363065923E+02  0.18831587506E+03  0.12500000000E+03 0.  0.
</event>
<event>
 4    0  0.2151074E-002  0.2688936E+03  0.7546771E-02  0.1101914E+00
         21   -1    0    0  502  501  0.00000000000E+00  0.00000000000E+00  0.31220479158E+03  0.31220479158E+03  0.00000000000E+00 0.  1.
         21   -1    0    0  501  502 -0.00000000000E+00 -0.00000000000E+00 -0.23159086053E+03  0.23159086053E+03  0.00000000000E+00 0. -1.
         25    1    1    2    0    0 -0.70137159709E+02 -0.21793926720E+03 -0.25706654046E+02  0.26211176514E+03  0.12500000000E+03 0.  0.
         25    1    1    2    0    0  0.70137159709E+02  0.21793926720E+03  0.10632058510E+03  0.28168388697E+03  0.12500000000E+03 0.  0.
</event>
<event>
 4    0  0.2151074E-002  0.2413914E+03  0.7546771E-02  0.1118869E+00
         21   -1    0    0  502  501  0.00000000000E+00  0.00000000000E+00  0.24844823753E+03  0.24844823753E+03  0.00000000000E+00 0. -1.
         21   -1    0    0  501  502 -0.00000000000E+00 -0.00000000000E+00 -0.23453497321E+03  0.23453497321E+03  0.00000000000E+00 0. -1.
         25    1    1    2    0    0 -0.93125915695E+02  0.33454957470E+02  0.18828621012E+03  0.24671515413E+03  0.12500000000E+03 0.  0.
         25    1    1    2    0    0  0.93125915695E+02 -0.33454957470E+02 -0.17437294580E+03  0.23626805662E+03  0.12500000000E+03 0.  0.
</event>
<event>
 4    0  0.2151074E-002  0.2457048E+03  0.7546771E-02  0.1116050E+00
         21   -1    0    0  502  501  0.00000000000E+00  0.00000000000E+00  0.67655479172E+03  0.67655479172E+03  0.00000000000E+00 0.  1.
         21   -1    0    0  501  502 -0.00000000000E+00 -0.00000000000E+00 -0.89232731308E+02  0.89232731308E+02  0.00000000000E+00 0.  1.
         25    1    1    2    0    0 -0.10225887981E+03  0.18020517839E+03  0.22727011390E+03  0.33197513384E+03  0.12500000000E+03 0.  0.
         25    1    1    2    0    0  0.10225887981E+03 -0.18020517839E+03  0.36005194652E+03  0.43381238919E+03  0.12500000000E+03 0.  0.
</event>
<event>
 4    0  0.2151074E-002  0.2055650E+03  0.7546771E-02  0.1145127E+00
         21   -1    0    0  502  501  0.00000000000E+00  0.00000000000E+00  0.10024874288E+03  0.10024874288E+03  0.00000000000E+00 0. -1.
         21   -1    0    0  501  502 -0.00000000000E+00 -0.00000000000E+00 -0.42152119234E+03  0.42152119234E+03  0.00000000000E+00 0. -1.
         25    1    1    2    0    0 -0.99012354380E+01 -0.13245175352E+03 -0.40301481839E+02  0.18679055359E+03  0.12500000000E+03 0.  0.
         25    1    1    2    0    0  0.99012354380E+01  0.13245175352E+03 -0.28097096762E+03  0.33497938163E+03  0.12500000000E+03 0.  0.
</event>
<event>
 4    0  0.2151074E-002  0.2984311E+03  0.7546771E-02  0.1086028E+00
         21   -1    0    0  502  501  0.00000000000E+00  0.00000000000E+00  0.81337697859E+02  0.81337697859E+02  0.00000000000E+00 0.  1.
         21   -1    0    0  501  502 -0.00000000000E+00 -0.00000000000E+00 -0.10949548459E+04  0.10949548459E+04  0.00000000000E+00 0.  1.
         25    1    1    2    0    0 -0.95247126027E+02 -0.16736632431E+03 -0.88256729903E+03  0.91193943814E+03  0.12500000000E+03 0.  0.
         25    1    1    2    0    0  0.95247126027E+02  0.16736632431E+03 -0.13104984904E+03  0.26435310565E+03  0.12500000000E+03 0.  0.
</event>
<event>
 4    0  0.2151074E-002  0.2500397E+03  0.7546771E-02  0.1113280E+00
         21   -1    0    0  502  501  0.00000000000E+00  0.00000000000E+00  0.31661183889E+03  0.31661183889E+03  0.00000000000E+00 0.  1.
         21   -1    0    0  501  502 -0.00000000000E+00 -0.00000000000E+00 -0.19746525236E+03  0.19746525236E+03  0.00000000000E+00 0.  1.
         25    1    1    2    0    0 -0.13636041945E+03 -0.16715883425E+03  0.79040002764E+02  0.26155030471E+03  0.12500000000E+03 0.  0.
         25    1    1    2    0    0  0.13636041945E+03  0.16715883425E+03  0.40106583769E+02  0.25252678654E+03  0.12500000000E+03 0.  0.
</event>
<event>
 4    0  0.2151074E-002  0.2010064E+03  0.7546771E-02  0.1148893E+00
         21   -1    0    0  502  501  0.00000000000E+00  0.00000000000E+00  0.11826871854E+04  0.11826871854E+04  0.00000000000E+00 0.  1.
         21   -1    0    0  501  502 -0.00000000000E+00 -0.00000000000E+00 -0.34162533166E+02  0.34162533166E+02  0.00000000000E+00 0.  1.
         25    1    1    2    0    0  0.91357201626E+02  0.80804310958E+01  0.18701929026E+03  0.24292518722E+03  0.12500000000E+03 0.  0.
         25    1    1    2    0    0 -0.91357201626E+02 -0.80804310958E+01  0.96150536201E+03  0.97392453138E+03  0.12500000000E+03 0.  0.
</event>
<event>
 4    0  0.2151074E-002  0.1878240E+03  0.7546771E-02  0.1160439E+00
         21   -1    0    0  502  501  0.00000000000E+00  0.00000000000E+00  0.44405889188E+03  0.44405889188E+03  0.00000000000E+00 0. -1.
         21   -1    0    0  501  502 -0.00000000000E+00 -0.00000000000E+00 -0.79444120756E+02  0.79444120756E+02  0.00000000000E+00 0. -1.
         25    1    1    2    0    0 -0.10054371657E+03 -0.83458091424E+02  0.11154083727E+03  0.21246329176E+03  0.12500000000E+03 0.  0.
         25    1    1    2    0    0  0.10054371657E+03  0.83458091424E+02  0.25307393385E+03  0.31103972087E+03  0.12500000000E+03 0.  0.
</event>
<event>
 4    0  0.2151074E-002  0.2542933E+03  0.7546771E-02  0.1110621E+00
         21   -1    0    0  502  501  0.00000000000E+00  0.00000000000E+00  0.78107404219E+03  0.78107404219E+03  0.00000000000E+00 0. -1.
         21   -1    0    0  501  502 -0.00000000000E+00 -0.00000000000E+00 -0.82789921128E+02  0.82789921128E+02  0.00000000000E+00 0. -1.
         25    1    1    2    0    0  0.12915065001E+02 -0.17664492339E+03  0.12335621298E+03  0.24942330113E+03  0.12500000000E+03 0.  0.
         25    1    1    2    0    0 -0.12915065001E+02  0.17664492339E+03  0.57492790808E+03  0.61444066219E+03  0.12500000000E+03 0.  0.
</event>
<event>
 4    0  0.2151074E-002  0.1855412E+03  0.7546771E-02  0.1162545E+00
         21   -1    0    0  502  501  0.00000000000E+00  0.00000000000E+00  0.83200306818E+02  0.83200306818E+02  0.00000000000E+00 0. -1.
         21   -1    0    0  501  502 -0.00000000000E+00 -0.00000000000E+00 -0.41376714547E+03  0.41376714547E+03  0.00000000000E+00 0. -1.
         25    1    1    2    0    0 -0.41749667286E+01  0.50412959293E+02 -0.33595949470E+03  0.36201198722E+03  0.12500000000E+03 0.  0.
         25    1    1    2    0    0  0.41749667286E+01 -0.50412959293E+02  0.53926560493E+01  0.13495546507E+03  0.12500000000E+03 0.  0.
</event>
<event>
 4    0  0.2151074E-002  0.2253484E+03  0.7546771E-02  0.1129957E+00
         21   -1    0    0  502  501  0.00000000000E+00  0.00000000000E+00  0.10087915966E+03  0.10087915966E+03  0.00000000000E+00 0. -1.
         21   -1    0    0  501  502 -0.00000000000E+00 -0.00000000000E+00 -0.50339329465E+03  0.50339329465E+03  0.00000000000E+00 0. -1.
         25    1    1    2    0    0  0.46681897596E+02 -0.69484182744E+02 -0.42620644386E+03  0.45197807912E+03  0.12500000000E+03 0.  0.
         25    1    1    2    0    0 -0.46681897596E+02  0.69484182744E+02  0.23692308879E+02  0.15229437519E+03  0.12500000000E+03 0.  0.
</event>
<event>
 4    0  0.2151074E-002  0.2491858E+03  0.7546771E-02  0.1113820E+00
         21   -1    0    0  502  501  0.00000000000E+00  0.00000000000E+00  0.41480177568E+03  0.41480177568E+03  0.00000000000E+00 0. -1.
         21   -1    0    0  501  502 -0.00000000000E+00 -0.00000000000E+00 -0.14969450833E+03  0.14969450833E+03  0.00000000000E+00 0. -1.
         25    1    1    2    0    0  0.33402375679E+02  0.20797307908E+03  0.18445996677E+03  0.30662517781E+03  0.12500000000E+03 0.  0.
         25    1    1    2    0    0 -0.33402375679E+02 -0.20797307908E+03  0.80647300579E+02  0.25787110620E+03  0.12500000000E+03 0.  0.
</event>
<event>
 4    0  0.2151074E-002  0.2028022E+03  0.7546771E-02  0.1147396E+00
         21   -1    0    0  502  501  0.00000000000E+00  0.00000000000E+00  0.70783530827E+02  0.70783530827E+02  0.00000000000E+00 0.  1.
         21   -1    0    0  501  502 -0.00000000000E+00 -0.00000000000E+00 -0.58104961522E+03  0.58104961522E+03  0.00000000000E+00 0.  1.
         25    1    1    2    0    0  0.68623451167E+02 -0.15398498035E+02 -0.24714002251E+02  0.14554062560E+03  0.12500000000E+03 0.  0.
         25    1    1    2    0    0 -0.68623451167E+02  0.15398498035E+02 -0.48555208214E+03  0.50629252045E+03  0.12500000000E+03 0.  0.
</event>
<event>
 4    0  0.2151074E-002  0.1426369E+03  0.7546771E-02  0.1209824E+00
         21   -1    0    0  502  501  0.00000000000E+00  0.00000000000E+00  0.52709801288E+03  0.52709801288E+03  0.00000000000E+00 0.  1.
         21   -1    0    0  501  502 -0.00000000000E+00 -0.00000000000E+00 -0.38598690707E+02  0.38598690707E+02  0.00000000000E+00 0.  1.
         25    1    1    2    0    0  0.31213959615E+02  0.61203664613E+02  0.24485547946E+03  0.28337149761E+03  0.12500000000E+03 0.  0.
         25    1    1    2    0    0 -0.31213959615E+02 -0.61203664613E+02  0.24364384271E+03  0.28232520597E+03  0.12500000000E+03 0.  0.
</event>
<event>
 4    0  0.2151074E-002  0.1755961E+03  0.7546771E-02  0.1172135E+00
         21   -1    0    0  502  501  0.00000000000E+00  0.00000000000E+00  0.55031974806E+02  0.55031974806E+02  0.00000000000E+00 0. -1.
         21   -1    0    0  501  502 -0.00000000000E+00 -0.00000000000E+00 -0.56029217535E+03  0.56029217535E+03  0.00000000000E+00 0. -1.
         25    1    1    2    0    0 -0.97073675105E+02 -0.18208469078E+02 -0.12323369730E+03  0.20141099994E+03  0.12500000000E+03 0.  0.
         25    1    1    2    0    0  0.97073675105E+02  0.18208469078E+02 -0.38202650325E+03  0.41391315022E+03  0.12500000000E+03 0.  0.
</event>
<event>
 4    0  0.2151074E-002  0.2043309E+03  0.7546771E-02  0.1146136E+00
         21   -1    0    0  502  501  0.00000000000E+00  0.00000000000E+00  0.43866541899E+02  0.43866541899E+02  0.00000000000E+00 0. -1.
         21   -1    0    0  501  502 -0.00000000000E+00 -0.00000000000E+00 -0.95177613516E+03  0.95177613516E+03  0.00000000000E+00 0. -1.
         25    1    1    2    0    0  0.62090489520E+02  0.14824480585E+03 -0.41215339257E+03  0.45970335038E+03  0.12500000000E+03 0.  0.
         25    1    1    2    0    0 -0.62090489520E+02 -0.14824480585E+03 -0.49575620070E+03  0.53593932668E+03  0.12500000000E+03 0.  0.
</event>
<event>
 4    0  0.2151074E-002  0.2079636E+03  0.7546771E-02  0.1143189E+00
         21   -1    0    0  502  501  0.00000000000E+00  0.00000000000E+00  0.19466405313E+04  0.19466405313E+04  0.00000000000E+00 0. -1.
         21   -1    0    0  501  502 -0.00000000000E+00 -0.00000000000E+00 -0.22217181888E+02  0.22217181888E+02  0.00000000000E+00 0. -1.
         25    1    1    2    0    0  0.13201347359E+03 -0.98019259715E+02  0.10770489416E+04  0.10966744071E+04  0.12500000000E+03 0.  0.
         25    1    1    2    0    0 -0.13201347359E+03  0.98019259715E+02  0.84737440779E+03  0.87218330611E+03  0.12500000000E+03 0.  0.
</event>
<event>
 4    0  0.2151074E-002  0.1754745E+03  0.7546771E-02  0.1172256E+00
         21   -1    0    0  502  501  0.00000000000E+00  0.00000000000E+00  0.16613213517E+03  0.16613213517E+03  0.00000000000E+00 0. -1.
         21   -1    0    0  501  502 -0.00000000000E+00 -0.00000000000E+00 -0.18534213705E+03  0.18534213705E+03  0.00000000000E+00 0. -1.
         25    1    1    2    0    0 -0.64647003836E+02 -0.88912835314E+01  0.94992691128E+02  0.17002029701E+03  0.12500000000E+03 0.  0.
         25    1    1    2    0    0  0.64647003836E+02  0.88912835314E+01 -0.11420269301E+03  0.18145397521E+03  0.12500000000E+03 0.  0.
</event>
<event>
 4    0  0.2151074E-002  0.1804333E+03  0.7546771E-02  0.1167384E+00
         21   -1    0    0  502  501  0.00000000000E+00  0.00000000000E+00  0.31989059269E+02  0.31989059269E+02  0.00000000000E+00 0. -1.
         21   -1    0    0  501  502 -0.00000000000E+00 -0.00000000000E+00 -0.10177288208E+04  0.10177288208E+04  0.00000000000E+00 0. -1.
         25    1    1    2    0    0 -0.19444382410E+02  0.21811831432E+02 -0.12403411437E+03  0.17850294543E+03  0.12500000000E+03 0.  0.
         25    1    1    2    0    0  0.19444382410E+02 -0.21811831432E+02 -0.86170564715E+03  0.87121493463E+03  0.12500000000E+03 0.  0.
</event>
<event>
 4    0  0.2151074E-002  0.2056823E+03  0.7546771E-02  0.1145031E+00
         21   -1    0    0  502  501  0.00000000000E+00  0.00000000000E+00  0.27144708359E+03  0.27144708359E+03  0.00000000000E+00 0. -1.
         21   -1    0    0  501  502 -0.00000000000E+00 -0.00000000000E+00 -0.15585071213E+03  0.15585071213E+03  0.00000000000E+00 0. -1.
         25    1    1    2    0    0 -0.14650481500E+03  0.71705677937E+02  0.66785245016E+02  0.21608015647E+03  0.12500000000E+03 0.  0.
         25    1    1    2    0    0  0.14650481500E+03 -0.71705677937E+02  0.48811126441E+02  0.21121763925E+03  0.12500000000E+03 0.  0.
</event>
<event>
 4    0  0.2151074E-002  0.1930878E+03  0.7546771E-02  0.1155705E+00
         21   -1    0    0  502  501  0.00000000000E+00  0.00000000000E+00  0.27514720330E+03  0.27514720330E+03  0.00000000000E+00 0. -1.
         21   -1    0    0  501  502 -0.00000000000E+00 -0.00000000000E+00 -0.13550165065E+03  0.13550165065E+03  0.00000000000E+00 0. -1.
         25    1    1    2    0    0  0.11459141018E+03  0.91575895011E+02  0.57215437638E+02  0.20103716606E+03  0.12500000000E+03 0.  0.
         25    1    1    2    0    0 -0.11459141018E+03 -0.91575895011E+02  0.82430115015E+02  0.20961168788E+03  0.12500000000E+03 0.  0.
</event>
<event>
 4    0  0.2151074E-002  0.2578562E+03  0.7546771E-02  0.1108438E+00
         21   -1    0    0  502  501  0.00000000000E+00  0.00000000000E+00  0.42735572313E+03  0.42735572313E+03  0.00000000000E+00 0.  1.
         21   -1    0    0  501  502 -0.00000000000E+00 -0.00000000000E+00 -0.15558421055E+03  0.15558421055E+03  0.00000000000E+00 0. -1.
         25    1    1    2    0    0  0.19754476046E+03 -0.89864256766E+02  0.66524769834E+02  0.25913329009E+03  0.12500000000E+03 0.  0.
         25    1    1    2    0    0 -0.19754476046E+03  0.89864256766E+02  0.20524674275E+03  0.32380664360E+03  0.12500000000E+03 0.  0.
</event>
<event>
 4    0  0.2151074E-002  0.3192987E+03  0.7546771E-02  0.1075972E+00
         21   -1    0    0  502  501  0.00000000000E+00  0.00000000000E+00  0.28886130101E+03  0.28886130101E+03  0.00000000000E+00 0. -1.
         21   -1    0    0  501  502 -0.00000000000E+00 -0.00000000000E+00 -0.35294340224E+03  0.35294340224E+03  0.00000000000E+00 0. -1.
         25    1    1    2    0    0 -0.19876926671E+03 -0.96546845820E+01 -0.24928459600E+03  0.34259340935E+03  0.12500000000E+03 0.  0.
         25    1    1    2    0    0  0.19876926671E+03  0.96546845820E+01  0.18520249477E+03  0.29921129390E+03  0.12500000000E+03 0.  0.
</event>
<event>
 4    0  0.2151074E-002  0.2033199E+03  0.7546771E-02  0.1146968E+00
         21   -1    0    0  502  501  0.00000000000E+00  0.00000000000E+00  0.65752493313E+03  0.65752493313E+03  0.00000000000E+00 0. -1.
         21   -1    0    0  501  502 -0.00000000000E+00 -0.00000000000E+00 -0.62870584165E+02  0.62870584165E+02  0.00000000000E+00 0. -1.
         25    1    1    2    0    0  0.13954094988E+03  0.37472949668E+02  0.42055182020E+03  0.46191420429E+03  0.12500000000E+03 0.  0.
         25    1    1    2    0    0 -0.13954094988E+03 -0.37472949668E+02  0.17410252876E+03  0.25848131300E+03  0.12500000000E+03 0.  0.
</event>
<event>
 4    0  0.2151074E-002  0.2335395E+03  0.7546771E-02  0.1124173E+00
         21   -1    0    0  502  501  0.00000000000E+00  0.00000000000E+00  0.33254989512E+03  0.33254989512E+03  0.00000000000E+00 0. -1.
         21   -1    0    0  501  502 -0.00000000000E+00 -0.00000000000E+00 -0.16400753792E+03  0.16400753792E+03  0.00000000000E+00 0. -1.
         25    1    1    2    0    0 -0.16586618417E+03 -0.62310692364E+01  0.19760749711E+03  0.28674751994E+03  0.12500000000E+03 0.  0.
         25    1    1    2    0    0  0.16586618417E+03  0.62310692364E+01 -0.29065139919E+02  0.20980991310E+03  0.12500000000E+03 0.  0.
</event>
<event>
 4    0  0.2151074E-002  0.2026242E+03  0.7546771E-02  0.1147544E+00
         21   -1    0    0  502  501  0.00000000000E+00  0.00000000000E+00  0.57260447757E+02  0.57260447757E+02  0.00000000000E+00 0.  1.
         21   -1    0    0  501  502 -0.00000000000E+00 -0.00000000000E+00 -0.71701422073E+03  0.71701422073E+03  0.00000000000E+00 0.  1.
         25    1    1    2    0    0 -0.96576371320E+02  0.65411209991E+02 -0.53765103725E+03  0.56418016603E+03  0.12500000000E+03 0.  0.
         25    1    1    2    0    0  0.96576371320E+02 -0.65411209991E+02 -0.12210273572E+03  0.21009450245E+03  0.12500000000E+03 0.  0.
</event>
<event>
 4    0  0.2151074E-002  0.2003213E+03  0.7546771E-02  0.1149468E+00
         21   -1    0    0  502  501  0.00000000000E+00  0.00000000000E+00  0.97975363715E+03  0.97975363715E+03  0.00000000000E+00 0.  1.
         21   -1    0    0  501  502 -0.00000000000E+00 -0.00000000000E+00 -0.40957855771E+02  0.40957855771E+02  0.00000000000E+00 0.  1.
         25    1    1    2    0    0  0.78982438315E+01 -0.10228941591E+03  0.77060835290E+03  0.78739300253E+03  0.12500000000E+03 0.  0.
         25    1    1    2    0    0 -0.78982438315E+01  0.10228941591E+03  0.16818742848E+03  0.23331849040E+03  0.12500000000E+03 0.  0.
</event>
<event>
 4    0  0.2151074E-002  0.2508184E+03  0.7546771E-02  0.1112789E+00
         21   -1    0    0  502  501  0.00000000000E+00  0.00000000000E+00  0.20685730098E+03  0.20685730098E+03  0.00000000000E+00 0.  1.
         21   -1    0    0  501  502 -0.00000000000E+00 -0.00000000000E+00 -0.30412218694E+03  0.30412218694E+03  0.00000000000E+00 0.  1.
         25    1    1    2    0    0 -0.17770487334E+03 -0.12130344738E+03 -0.16560393786E+02  0.24938483314E+03  0.12500000000E+03 0.  0.
         25    1    1    2    0    0  0.17770487334E+03  0.12130344738E+03 -0.80704492172E+02  0.26159465479E+03  0.12500000000E+03 0.  0.
</event>
<event>
 4    0  0.2151074E-002  0.2565576E+03  0.7546771E-02  0.1109229E+00
         21   -1    0    0  502  501  0.00000000000E+00  0.00000000000E+00  0.19284611127E+03  0.19284611127E+03  0.00000000000E+00 0. -1.
         21   -1    0    0  501  502 -0.00000000000E+00 -0.00000000000E+00 -0.34131781409E+03  0.34131781409E+03  0.00000000000E+00 0. -1.
         25    1    1    2    0    0 -0.18641375807E+03  0.12423588396E+03 -0.70604328727E+02  0.26607257524E+03  0.12500000000E+03 0.  0.
         25    1    1    2    0    0  0.18641375807E+03 -0.12423588396E+03 -0.77867374089E+02  0.26809135012E+03  0.12500000000E+03 0.  0.
</event>
<event>
 4    0  0.2151074E-002  0.1582794E+03  0.7546771E-02  0.1190653E+00
         21   -1    0    0  502  501  0.00000000000E+00  0.00000000000E+00  0.37933745894E+02  0.37933745894E+02  0.00000000000E+00 0.  1.
         21   -1    0    0  501  502 -0.00000000000E+00 -0.00000000000E+00 -0.66042433205E+03  0.66042433205E+03  0.00000000000E+00 0.  1.
         25    1    1    2    0    0  0.38272103989E+02  0.76294137340E+02 -0.41334281404E+03  0.44018499663E+03  0.12500000000E+03 0.  0.
         25    1    1    2    0    0 -0.38272103989E+02 -0.76294137340E+02 -0.20914777211E+03  0.25817308132E+03  0.12500000000E+03 0.  0.
</event>
<event>
 4    0  0.2151074E-002  0.6023758E+03  0.7546771E-02  0.9900489E-01
         21   -1    0    0  502  501  0.00000000000E+00  0.00000000000E+00  0.48464380518E+03  0.48464380518E+03  0.00000000000E+00 0.  1.
         21   -1    0    0  501  502 -0.00000000000E+00 -0.00000000000E+00 -0.74870789514E+03  0.74870789514E+03  0.00000000000E+00 0.  1.
         25    1    1    2    0    0  0.37775527838E+03  0.27098132883E+03 -0.50270729055E+03  0.69603846941E+03  0.12500000000E+03 0.  0.
         25    1    1    2    0    0 -0.37775527838E+03 -0.27098132883E+03  0.23864320060E+03  0.53731323091E+03  0.12500000000E+03 0.  0.
</event>
<event>
 4    0  0.2151074E-002  0.2588180E+03  0.7546771E-02  0.1107855E+00
         21   -1    0    0  502  501  0.00000000000E+00  0.00000000000E+00  0.81877244169E+03  0.81877244169E+03  0.00000000000E+00 0. -1.
         21   -1    0    0  501  502 -0.00000000000E+00 -0.00000000000E+00 -0.81813632977E+02  0.81813632977E+02  0.00000000000E+00 0. -1.
         25    1    1    2    0    0  0.13766135203E+03  0.33937341624E+02  0.60876235791E+02  0.19857821402E+03  0.12500000000E+03 0.  0.
         25    1    1    2    0    0 -0.13766135203E+03 -0.33937341624E+02  0.67608257293E+03  0.70200786065E+03  0.12500000000E+03 0.  0.
</event>
<event>
 4    0  0.2151074E-002  0.2957892E+03  0.7546771E-02  0.1087365E+00
         21   -1    0    0  502  501  0.00000000000E+00  0.00000000000E+00  0.25062577292E+03  0.25062577292E+03  0.00000000000E+00 0. -1.
         21   -1    0    0  501  502 -0.00000000000E+00 -0.00000000000E+00 -0.34909118653E+03  0.34909118653E+03  0.00000000000E+00 0. -1.
         25    1    1    2    0    0  0.20495426619E+03 -0.90835214735E+02 -0.19825490681E+03  0.32432590945E+03  0.12500000000E+03 0.  0.
         25    1    1    2    0    0 -0.20495426619E+03  0.90835214735E+02  0.99789493201E+02  0.27539104999E+03  0.12500000000E+03 0.  0.
</event>
<event>
 4    0  0.2151074E-002  0.2049183E+03  0.7546771E-02  0.1145655E+00
         21   -1    0    0  502  501  0.00000000000E+00  0.00000000000E+00  0.14047625798E+02  0.14047625798E+02  0.00000000000E+00 0.  1.
         21   -1    0    0  501  502 -0.00000000000E+00 -0.00000000000E+00 -0.29892239463E+04  0.29892239463E+04  0.00000000000E+00 0.  1.
         25    1    1    2    0    0  0.47732771283E+02  0.14959250442E+03 -0.11845461253E+04  0.12014286736E+04  0.12500000000E+03 0.  0.
         25    1    1    2    0    0 -0.47732771283E+02 -0.14959250442E+03 -0.17906301953E+04  0.18018428985E+04  0.12500000000E+03 0.  0.
</event>
<event>
 4    0  0.2151074E-002  0.1864422E+03  0.7546771E-02  0.1161710E+00
         21   -1    0    0  502  501  0.00000000000E+00  0.00000000000E+00  0.94866527624E+02  0.94866527624E+02  0.00000000000E+00 0.  1.
         21   -1    0    0  501  502 -0.00000000000E+00 -0.00000000000E+00 -0.36641690848E+03  0.36641690848E+03  0.00000000000E+00 0.  1.
         25    1    1    2    0    0 -0.46794067054E+02  0.78624779389E+02 -0.26412158219E+03  0.30619724170E+03  0.12500000000E+03 0.  0.
         25    1    1    2    0    0  0.46794067054E+02 -0.78624779389E+02 -0.74287986665E+01  0.15508619441E+03  0.12500000000E+03 0.  0.
</event>
<event>
 4    0  0.2151074E-002  0.1607211E+03  0.7546771E-02  0.1187885E+00
         21   -1    0    0  502  501  0.00000000000E+00  0.00000000000E+00  0.95559734186E+02  0.95559734186E+02  0.00000000000E+00 0. -1.
         21   -1    0    0  501  502 -0.00000000000E+00 -0.00000000000E+00 -0.27031542372E+03  0.27031542372E+03  0.00000000000E+00 0. -1.
         25    1    1    2    0    0  0.40395800147E+01  0.55459685236E+02  0.86268174429E+01  0.13708215373E+03  0.12500000000E+03 0.  0.
         25    1    1    2    0    0 -0.40395800147E+01 -0.55459685236E+02 -0.18338250698E+03  0.22879300418E+03  0.12500000000E+03 0.  0.
</event>
<event>
 4    0  0.2151074E-002  0.2175617E+03  0.7546771E-02  0.1135714E+00
         21   -1    0    0  502  501  0.00000000000E+00  0.00000000000E+00  0.46733537218E+03  0.46733537218E+03  0.00000000000E+00 0. -1.
         21   -1    0    0  501  502 -0.00000000000E+00 -0.00000000000E+00 -0.10128287941E+03  0.10128287941E+03  0.00000000000E+00 0. -1.
         25    1    1    2    0    0 -0.49683519591E+02 -0.16117245974E+03  0.25767470875E+03  0.33236466333E+03  0.12500000000E+03 0.  0.
         25    1    1    2    0    0  0.49683519591E+02  0.16117245974E+03  0.10837778402E+03  0.23625358827E+03  0.12500000000E+03 0.  0.
</event>
<event>
 4    0  0.2151074E-002  0.2671853E+03  0.7546771E-02  0.1102901E+00
         21   -1    0    0  502  501  0.00000000000E+00  0.00000000000E+00  0.19111620669E+03  0.19111620669E+03  0.00000000000E+00 0.  1.
         21   -1    0    0  501  502 -0.00000000000E+00 -0.00000000000E+00 -0.37353190854E+03  0.37353190854E+03  0.00000000000E+00 0.  1.
         25    1    1    2    0    0  0.15738574453E+03 -0.17468645086E+03 -0.68121032614E+02  0.27486561040E+03  0.12500000000E+03 0.  0.
         25    1    1    2    0    0 -0.15738574453E+03  0.17468645086E+03 -0.11429466923E+03  0.28978250484E+03  0.12500000000E+03 0.  0.
</event>
<event>
 4    0  0.2151074E-002  0.1783386E+03  0.7546771E-02  0.1169421E+00
         21   -1    0    0  502  501  0.00000000000E+00  0.00000000000E+00  0.63358067004E+03  0.63358067004E+03  0.00000000000E+00 0.  1.
         21   -1    0    0  501  502 -0.00000000000E+00 -0.00000000000E+00 -0.50198272952E+02  0.50198272952E+02  0.00000000000E+00 0.  1.
         25    1    1    2    0    0 -0.10984523469E+03 -0.37791986138E+02  0.39103678093E+03  0.42664853667E+03  0.12500000000E+03 0.  0.
         25    1    1    2    0    0  0.10984523469E+03  0.37791986138E+02  0.19234561615E+03  0.25713040632E+03  0.12500000000E+03 0.  0.
</event>
<event>
 4    0  0.2151074E-002  0.1842529E+03  0.7546771E-02  0.1163749E+00
         21   -1    0    0  502  501  0.00000000000E+00  0.00000000000E+00  0.44927414864E+02  0.44927414864E+02  0.00000000000E+00 0.  1.
         21   -1    0    0  501  502 -0.00000000000E+00 -0.00000000000E+00 -0.75564374391E+03  0.75564374391E+03  0.00000000000E+00 0.  1.
         25    1    1    2    0    0  0.12282086896E+03 -0.62250006404E+01 -0.47825991019E+03  0.50939302918E+03  0.12500000000E+03 0.  0.
         25    1    1    2    0    0 -0.12282086896E+03  0.62250006404E+01 -0.23245641886E+03  0.29117812959E+03  0.12500000000E+03 0.  0.
</event>
<event>
 4    0  0.2151074E-002  0.2698927E+03  0.7546771E-02  0.1101341E+00
         21   -1    0    0  502  501  0.00000000000E+00  0.00000000000E+00  0.26642792268E+03  0.26642792268E+03  0.00000000000E+00 0.  1.
         21   -1    0    0  501  502 -0.00000000000E+00 -0.00000000000E+00 -0.27340257513E+03  0.27340257513E+03  0.00000000000E+00 0.  1.
         25    1    1    2    0    0 -0.92127925204E+02 -0.20615241429E+03  0.75454094345E+02  0.26889531955E+03  0.12500000000E+03 0.  0.
         25    1    1    2    0    0  0.92127925204E+02  0.20615241429E+03 -0.82428746802E+02  0.27093517826E+03  0.12500000000E+03 0.  0.
</event>
<event>
 4    0  0.2151074E-002  0.2238738E+03  0.7546771E-02  0.1131028E+00
         21   -1    0    0  502  501  0.00000000000E+00  0.00000000000E+00  0.48748862951E+03  0.48748862951E+03  0.00000000000E+00 0.  1.
         21   -1    0    0  501  502 -0.00000000000E+00 -0.00000000000E+00 -0.10281157061E+03  0.10281157061E+03  0.00000000000E+00 0.  1.
         25    1    1    2    0    0  0.17299611091E+03 -0.26388190762E+02  0.27435897864E+03  0.34859982811E+03  0.12500000000E+03 0.  0.
         25    1    1    2    0    0 -0.17299611091E+03  0.26388190762E+02  0.11031808026E+03  0.24170037202E+03  0.12500000000E+03 0.  0.
</event>
<event>
 4    0  0.2151074E-002  0.2053213E+03  0.7546771E-02  0.1145326E+00
         21   -1    0    0  502  501  0.00000000000E+00  0.00000000000E+00  0.38575031646E+03  0.38575031646E+03  0.00000000000E+00 0. -1.
         21   -1    0    0  501  502 -0.00000000000E+00 -0.00000000000E+00 -0.10928528158E+03  0.10928528158E+03  0.00000000000E+00 0. -1.
         25    1    1    2    0    0 -0.63616658465E+02  0.11220691456E+03  0.18319500941E+02  0.18054937004E+03  0.12500000000E+03 0.  0.
         25    1    1    2    0    0  0.63616658465E+02 -0.11220691456E+03  0.25814553394E+03  0.31448622800E+03  0.12500000000E+03 0.  0.
</event>
<event>
 4    0  0.2151074E-002  0.2175445E+03  0.7546771E-02  0.1135727E+00
         21   -1    0    0  502  501  0.00000000000E+00  0.00000000000E+00  0.28202967841E+03  0.28202967841E+03  0.00000000000E+00 0.  1.
         21   -1    0    0  501  502 -0.00000000000E+00 -0.00000000000E+00 -0.16780357597E+03  0.16780357597E+03  0.00000000000E+00 0.  1.
         25    1    1    2    0    0  0.48950577943E+02  0.15082041852E+03 -0.26610382733E+02  0.20365674600E+03  0.12500000000E+03 0.  0.
         25    1    1    2    0    0 -0.48950577943E+02 -0.15082041852E+03  0.14083648517E+03  0.24617650838E+03  0.12500000000E+03 0.  0.
</event>
<event>
 4    0  0.2151074E-002  0.2528931E+03  0.7546771E-02  0.1111490E+00
         21   -1    0    0  502  501  0.00000000000E+00  0.00000000000E+00  0.41017495325E+03  0.41017495325E+03  0.00000000000E+00 0.  1.
         21   -1    0    0  501  502 -0.00000000000E+00 -0.00000000000E+00 -0.15592107553E+03  0.15592107553E+03  0.00000000000E+00 0.  1.
         25    1    1    2    0    0  0.69096650445E+02 -0.12630519115E+03 -0.58823798328E+02  0.19953091907E+03  0.12500000000E+03 0.  0.
         25    1    1    2    0    0 -0.69096650445E+02  0.12630519115E+03  0.31307767605E+03  0.36656510971E+03  0.12500000000E+03 0.  0.
</event>
<event>
 4    0  0.2151074E-002  0.2508121E+03  0.7546771E-02  0.1112793E+00
         21   -1    0    0  502  501  0.00000000000E+00  0.00000000000E+00  0.66038980660E+03  0.66038980660E+03  0.00000000000E+00 0.  1.
         21   -1    0    0  501  502 -0.00000000000E+00 -0.00000000000E+00 -0.95256916158E+02  0.95256916158E+02  0.00000000000E+00 0.  1.
         25    1    1    2    0    0  0.21645308856E+03  0.48865077231E+01  0.25221784794E+03  0.35512625970E+03  0.12500000000E+03 0.  0.
         25    1    1    2    0    0 -0.21645308856E+03 -0.48865077231E+01  0.31291504251E+03  0.40052046306E+03  0.12500000000E+03 0.  0.
</event>
<event>
 4    0  0.2151074E-002  0.1878738E+03  0.7546771E-02  0.1160393E+00
         21   -1    0    0  502  501  0.00000000000E+00  0.00000000000E+00  0.12583304159E+03  0.12583304159E+03  0.00000000000E+00 0. -1.
         21   -1    0    0  501  502 -0.00000000000E+00 -0.00000000000E+00 -0.28050312116E+03  0.28050312116E+03  0.00000000000E+00 0. -1.
         25    1    1    2    0    0  0.75612875905E+01 -0.35138512678E+02 -0.22394320905E+03  0.25897383849E+03  0.12500000000E+03 0.  0.
         25    1    1    2    0    0 -0.75612875905E+01  0.35138512678E+02  0.69273129475E+02  0.14736232426E+03  0.12500000000E+03 0.  0.
</event>
<event>
 4    0  0.2151074E-002  0.3009650E+03  0.7546771E-02  0.1084759E+00
         21   -1    0    0  502  501  0.00000000000E+00  0.00000000000E+00  0.13930942183E+04  0.13930942183E+04  0.00000000000E+00 0.  1.
         21   -1    0    0  501  502 -0.00000000000E+00 -0.00000000000E+00 -0.65020664029E+02  0.65020664029E+02  0.00000000000E+00 0.  1.
         25    1    1    2    0    0 -0.13337491378E+02 -0.26301576779E+03  0.48276538025E+03  0.56395265329E+03  0.12500000000E+03 0.  0.
         25    1    1    2    0    0  0.13337491378E+02  0.26301576779E+03  0.84530817400E+03  0.89416222902E+03  0.12500000000E+03 0.  0.
</event>
<event>
 4    0  0.2151074E-002  0.2179586E+03  0.7546771E-02  0.1135414E+00
         21   -1    0    0  502  501  0.00000000000E+00  0.00000000000E+00  0.62102167227E+03  0.62102167227E+03  0.00000000000E+00 0. -1.
         21   -1    0    0  501  502 -0.00000000000E+00 -0.00000000000E+00 -0.76496454891E+02  0.76496454891E+02  0.00000000000E+00 0. -1.
         25    1    1    2    0    0  0.26702573867E+02 -0.32294007982E+02  0.54998774272E+03  0.56556825189E+03  0.12500000000E+03 0.  0.
         25    1    1    2    0    0 -0.26702573867E+02  0.32294007982E+02 -0.54625253349E+01  0.13194987528E+03  0.12500000000E+03 0.  0.
</event>
<event>
 4    0  0.2151074E-002  0.2047189E+03  0.7546771E-02  0.1145818E+00
         21   -1    0    0  502  501  0.00000000000E+00  0.00000000000E+00  0.79649939386E+02  0.79649939386E+02  0.00000000000E+00 0.  1.
         21   -1    0    0  501  502 -0.00000000000E+00 -0.00000000000E+00 -0.52617504772E+03  0.52617504772E+03  0.00000000000E+00 0.  1.
         25    1    1    2    0    0  0.35628556209E+01  0.79408714866E+01  0.16281311214E+02  0.12635597522E+03  0.12500000000E+03 0.  0.
         25    1    1    2    0    0 -0.35628556209E+01 -0.79408714866E+01 -0.46280641955E+03  0.47946901188E+03  0.12500000000E+03 0.  0.
</event>
<event>
 4    0  0.2151074E-002  0.2550576E+03  0.7546771E-02  0.1110150E+00
         21   -1    0    0  502  501  0.00000000000E+00  0.00000000000E+00  0.51267990794E+03  0.51267990794E+03  0.00000000000E+00 0.  1.
         21   -1    0    0  501  502 -0.00000000000E+00 -0.00000000000E+00 -0.12689085151E+03  0.12689085151E+03  0.00000000000E+00 0.  1.
         25    1    1    2    0    0  0.58797412903E+02 -0.19754475772E+03  0.29740511815E+03  0.38282616338E+03  0.12500000000E+03 0.  0.
         25    1    1    2    0    0 -0.58797412903E+02  0.19754475772E+03  0.88383938275E+02  0.25674459607E+03  0.12500000000E+03 0.  0.
</event>
<event>
 4    0  0.2151074E-002  0.2740411E+03  0.7546771E-02  0.1098989E+00
         21   -1    0    0  502  501  0.00000000000E+00  0.00000000000E+00  0.57651102020E+03  0.57651102020E+03  0.00000000000E+00 0.  1.
         21   -1    0    0  501  502 -0.00000000000E+00 -0.00000000000E+00 -0.13026378501E+03  0.13026378501E+03  0.00000000000E+00 0.  1.
         25    1    1    2    0    0  0.29659944127E+01  0.48270593155E+02 -0.85113713390E+02  0.15877087735E+03  0.12500000000E+03 0.  0.
         25    1    1    2    0    0 -0.29659944127E+01 -0.48270593155E+02  0.53136094858E+03  0.54800392787E+03  0.12500000000E+03 0.  0.
</event>
<event>
 4    0  0.2151074E-002  0.2065593E+03  0.7546771E-02  0.1144320E+00
         21   -1    0    0  502  501  0.00000000000E+00  0.00000000000E+00  0.11869870379E+03  0.11869870379E+03  0.00000000000E+00 0.  1.
         21   -1    0    0  501  502 -0.00000000000E+00 -0.00000000000E+00 -0.35945402642E+03  0.35945402642E+03  0.00000000000E+00 0.  1.
         25    1    1    2    0    0 -0.43389928042E+02  0.10384283106E+03  0.18395855660E+02  0.16920232541E+03  0.12500000000E+03 0.  0.
         25    1    1    2    0    0  0.43389928042E+02 -0.10384283106E+03 -0.25915117829E+03  0.30895040480E+03  0.12500000000E+03 0.  0.
</event>
<event>
 4    0  0.2151074E-002  0.3647489E+03  0.7546771E-02  0.1056719E+00
         21   -1    0    0  502  501  0.00000000000E+00  0.00000000000E+00  0.82060934172E+03  0.82060934172E+03  0.00000000000E+00 0.  1.
         21   -1    0    0  501  502 -0.00000000000E+00 -0.00000000000E+00 -0.16212559008E+03  0.16212559008E+03  0.00000000000E+00 0.  1.
         25    1    1    2    0    0 -0.20037833800E+03  0.24847510764E+03  0.16138698045E+03  0.37889591568E+03  0.12500000000E+03 0.  0.
         25    1    1    2    0    0  0.20037833800E+03 -0.24847510764E+03  0.49709677119E+03  0.60383901612E+03  0.12500000000E+03 0.  0.
</event>
<event>
 4    0  0.2151074E-002  0.2037414E+03  0.7546771E-02  0.1146620E+00
         21   -1    0    0  502  501  0.00000000000E+00  0.00000000000E+00  0.22470931678E+02  0.22470931678E+02  0.00000000000E+00 0.  1.
         21   -1    0    0  501  502 -0.00000000000E+00 -0.00000000000E+00 -0.18472996101E+04  0.18472996101E+04  0.00000000000E+00 0.  1.
         25    1    1    2    0    0 -0.15019455865E+03 -0.21661273362E+02 -0.11577183691E+04  0.11742931655E+04  0.12500000000E+03 0.  0.
         25    1    1    2    0    0  0.15019455865E+03  0.21661273362E+02 -0.66711030927E+03  0.69547737630E+03  0.12500000000E+03 0.  0.
</event>
<event>
 4    0  0.2151074E-002  0.2384511E+03  0.7546771E-02  0.1120829E+00
         21   -1    0    0  502  501  0.00000000000E+00  0.00000000000E+00  0.25453208772E+03  0.25453208772E+03  0.00000000000E+00 0. -1.
         21   -1    0    0  501  502 -0.00000000000E+00 -0.00000000000E+00 -0.22338605614E+03  0.22338605614E+03  0.00000000000E+00 0. -1.
         25    1    1    2    0    0 -0.11738375107E+03 -0.95913739836E+02  0.15097387823E+03  0.24778317621E+03  0.12500000000E+03 0.  0.
         25    1    1    2    0    0  0.11738375107E+03  0.95913739836E+02 -0.11982784665E+03  0.23013496765E+03  0.12500000000E+03 0.  0.
</event>
<event>
 4    0  0.2151074E-002  0.1946977E+03  0.7546771E-02  0.1154291E+00
         21   -1    0    0  502  501  0.00000000000E+00  0.00000000000E+00  0.55542553104E+02  0.55542553104E+02  0.00000000000E+00 0.  1.
         21   -1    0    0  501  502 -0.00000000000E+00 -0.00000000000E+00 -0.68248947305E+03  0.68248947305E+03  0.00000000000E+00 0.  1.
         25    1    1    2    0    0  0.94495626861E+02  0.25845392521E+02 -0.52693818891E+03  0.55035103593E+03  0.12500000000E+03 0.  0.
         25    1    1    2    0    0 -0.94495626861E+02 -0.25845392521E+02 -0.10000873103E+03  0.18768099023E+03  0.12500000000E+03 0.  0.
</event>
<event>
 4    0  0.2151074E-002  0.2205823E+03  0.7546771E-02  0.1133450E+00
         21   -1    0    0  502  501  0.00000000000E+00  0.00000000000E+00  0.22606642998E+03  0.22606642998E+03  0.00000000000E+00 0.  1.
         21   -1    0    0  501  502 -0.00000000000E+00 -0.00000000000E+00 -0.21523114027E+03  0.21523114027E+03  0.00000000000E+00 0.  1.
         25    1    1    2    0    0  0.74531281090E-01 -0.17104943070E+02 -0.17557600102E+03  0.21620480283E+03  0.12500000000E+03 0.  0.
         25    1    1    2    0    0 -0.74531281090E-01  0.17104943070E+02  0.18641129073E+03  0.22509276742E+03  0.12500000000E+03 0.  0.
</event>
<event>
 4    0  0.2151074E-002  0.2049680E+03  0.7546771E-02  0.1145614E+00
         21   -1    0    0  502  501  0.00000000000E+00  0.00000000000E+00  0.25212732815E+03  0.25212732815E+03  0.00000000000E+00 0. -1.
         21   -1    0    0  501  502 -0.00000000000E+00 -0.00000000000E+00 -0.16662960928E+03  0.16662960928E+03  0.00000000000E+00 0. -1.
         25    1    1    2    0    0 -0.13608762372E+03  0.80619855532E+02  0.49737452366E+01  0.20166591328E+03  0.12500000000E+03 0.  0.
         25    1    1    2    0    0  0.13608762372E+03 -0.80619855532E+02  0.80523973632E+02  0.21709102415E+03  0.12500000000E+03 0.  0.
</event>
<event>
 4    0  0.2151074E-002  0.2149879E+03  0.7546771E-02  0.1137676E+00
         21   -1    0    0  502  501  0.00000000000E+00  0.00000000000E+00  0.95483527720E+02  0.95483527720E+02  0.00000000000E+00 0. -1.
         21   -1    0    0  501  502 -0.00000000000E+00 -0.00000000000E+00 -0.48406041986E+03  0.48406041986E+03  0.00000000000E+00 0. -1.
         25    1    1    2    0    0 -0.85583774306E+02  0.14470311376E+03 -0.25936645699E+03  0.33340595760E+03  0.12500000000E+03 0.  0.
         25    1    1    2    0    0  0.85583774306E+02 -0.14470311376E+03 -0.12921043515E+03  0.24613798997E+03  0.12500000000E+03 0.  0.
</event>
<event>
 4    0  0.2151074E-002  0.2263676E+03  0.7546771E-02  0.1129223E+00
         21   -1    0    0  502  501  0.00000000000E+00  0.00000000000E+00  0.17835033728E+03  0.17835033728E+03  0.00000000000E+00 0. -1.
         21   -1    0    0  501  502 -0.00000000000E+00 -0.00000000000E+00 -0.28731259316E+03  0.28731259316E+03  0.00000000000E+00 0. -1.
         25    1    1    2    0    0 -0.35692894199E+02  0.10150565423E+03  0.10499433001E+03  0.19551519090E+03  0.12500000000E+03 0.  0.
         25    1    1    2    0    0  0.35692894199E+02 -0.10150565423E+03 -0.21395658588E+03  0.27014773954E+03  0.12500000000E+03 0.  0.
</event>
<event>
 4    0  0.2151074E-002  0.1886137E+03  0.7546771E-02  0.1159718E+00
         21   -1    0    0  502  501  0.00000000000E+00  0.00000000000E+00  0.28056847515E+02  0.28056847515E+02  0.00000000000E+00 0. -1.
         21   -1    0    0  501  502 -0.00000000000E+00 -0.00000000000E+00 -0.12679663395E+04  0.12679663395E+04  0.00000000000E+00 0. -1.
         25    1    1    2    0    0  0.75994583168E+02  0.48370079670E+02 -0.99372011302E+03  0.10055941051E+04  0.12500000000E+03 0.  0.
         25    1    1    2    0    0 -0.75994583168E+02 -0.48370079670E+02 -0.24618937893E+03  0.29042908184E+03  0.12500000000E+03 0.  0.
</event>
<event>
 4    0  0.2151074E-002  0.4612647E+03  0.7546771E-02  0.1024415E+00
         21   -1    0    0  502  501  0.00000000000E+00  0.00000000000E+00  0.38634577396E+03  0.38634577396E+03  0.00000000000E+00 0.  1.
         21   -1    0    0  501  502 -0.00000000000E+00 -0.00000000000E+00 -0.55071162623E+03  0.55071162623E+03  0.00000000000E+00 0.  1.
         25    1    1    2    0    0 -0.31717193269E+03  0.16857917936E+03 -0.34729731906E+03  0.51503145770E+03  0.12500000000E+03 0.  0.
         25    1    1    2    0    0  0.31717193269E+03 -0.16857917936E+03  0.18293146679E+03  0.42202594249E+03  0.12500000000E+03 0.  0.
</event>
<event>
 4    0  0.2151074E-002  0.2620866E+03  0.7546771E-02  0.1105896E+00
         21   -1    0    0  502  501  0.00000000000E+00  0.00000000000E+00  0.24109316973E+03  0.24109316973E+03  0.00000000000E+00 0. -1.
         21   -1    0    0  501  502 -0.00000000000E+00 -0.00000000000E+00 -0.28490815618E+03  0.28490815618E+03  0.00000000000E+00 0. -1.
         25    1    1    2    0    0  0.18736655364E+03  0.12345336858E+03  0.30403479416E+02  0.25864325083E+03  0.12500000000E+03 0.  0.
         25    1    1    2    0    0 -0.18736655364E+03 -0.12345336858E+03 -0.74218465867E+02  0.26735807508E+03  0.12500000000E+03 0.  0.
</event>
<event>
 4    0  0.2151074E-002  0.2005941E+03  0.7546771E-02  0.1149239E+00
         21   -1    0    0  502  501  0.00000000000E+00  0.00000000000E+00  0.12803086243E+03  0.12803086243E+03  0.00000000000E+00 0. -1.
         21   -1    0    0  501  502 -0.00000000000E+00 -0.00000000000E+00 -0.31428352363E+03  0.31428352363E+03  0.00000000000E+00 0. -1.
         25    1    1    2    0    0  0.15249694767E+03 -0.16404243513E+02 -0.12950204834E+03  0.23647452036E+03  0.12500000000E+03 0.  0.
         25    1    1    2    0    0 -0.15249694767E+03  0.16404243513E+02 -0.56750612857E+02  0.20583986571E+03  0.12500000000E+03 0.  0.
</event>
<event>
 4    0  0.2151074E-002  0.1908572E+03  0.7546771E-02  0.1157690E+00
         21   -1    0    0  502  501  0.00000000000E+00  0.00000000000E+00  0.38185380981E+02  0.38185380981E+02  0.00000000000E+00 0. -1.
         21   -1    0    0  501  502 -0.00000000000E+00 -0.00000000000E+00 -0.95393798433E+03  0.95393798433E+03  0.00000000000E+00 0. -1.
         25    1    1    2    0    0 -0.11086267274E+03  0.29358046379E+02 -0.23055976443E+03  0.28624330921E+03  0.12500000000E+03 0.  0.
         25    1    1    2    0    0  0.11086267274E+03 -0.29358046379E+02 -0.68519283892E+03  0.70588005610E+03  0.12500000000E+03 0.  0.
</event>
<event>
 4    0  0.2151074E-002  0.2633497E+03  0.7546771E-02  0.1105147E+00
         21   -1    0    0  502  501  0.00000000000E+00  0.00000000000E+00  0.68733043056E+02  0.68733043056E+02  0.00000000000E+00 0. -1.
         21   -1    0    0  501  502 -0.00000000000E+00 -0.00000000000E+00 -0.10090204761E+04  0.10090204761E+04  0.00000000000E+00 0. -1.
         25    1    1    2    0    0 -0.62088537574E+02 -0.22323759142E+03 -0.48276407969E+03  0.54988741153E+03  0.12500000000E+03 0.  0.
         25    1    1    2    0    0  0.62088537574E+02  0.22323759142E+03 -0.45752335336E+03  0.52786610764E+03  0.12500000000E+03 0.  0.
</event>
<event>
 4    0  0.2151074E-002  0.1926538E+03  0.7546771E-02  0.1156089E+00
         21   -1    0    0  502  501  0.00000000000E+00  0.00000000000E+00  0.11098916885E+03  0.11098916885E+03  0.00000000000E+00 0. -1.
         21   -1    0    0  501  502 -0.00000000000E+00 -0.00000000000E+00 -0.33440652428E+03  0.33440652428E+03  0.00000000000E+00 0. -1.
         25    1    1    2    0    0  0.32415785766E+02 -0.99100329325E+02  0.74092041221E+01  0.16294647816E+03  0.12500000000E+03 0.  0.
         25    1    1    2    0    0 -0.32415785766E+02  0.99100329325E+02 -0.23082655956E+03  0.28244921497E+03  0.12500000000E+03 0.  0.
</event>
<event>
 4    0  0.2151074E-002  0.3117498E+03  0.7546771E-02  0.1079510E+00
         21   -1    0    0  502  501  0.00000000000E+00  0.00000000000E+00  0.96267575580E+03  0.96267575580E+03  0.00000000000E+00 0. -1.
         21   -1    0    0  501  502 -0.00000000000E+00 -0.00000000000E+00 -0.10095604733E+03  0.10095604733E+03  0.00000000000E+00 0. -1.
         25    1    1    2    0    0 -0.20040251396E+03 -0.71934404858E+02  0.75555260635E+03  0.79487135259E+03  0.12500000000E+03 0.  0.
         25    1    1    2    0    0  0.20040251396E+03  0.71934404858E+02  0.10616710213E+03  0.26876045055E+03  0.12500000000E+03 0.  0.
</event>
<event>
 4    0  0.2151074E-002  0.2490400E+03  0.7546771E-02  0.1113913E+00
         21   -1    0    0  502  501  0.00000000000E+00  0.00000000000E+00  0.84355964895E+03  0.84355964895E+03  0.00000000000E+00 0. -1.
         21   -1    0    0  501  502 -0.00000000000E+00 -0.00000000000E+00 -0.73522845706E+02  0.73522845706E+02  0.00000000000E+00 0. -1.
         25    1    1    2    0    0 -0.47844590226E+02 -0.20961864944E+03  0.36123701368E+03  0.43857298487E+03  0.12500000000E+03 0.  0.
         25    1    1    2    0    0  0.47844590226E+02  0.20961864944E+03  0.40879978957E+03  0.47850950979E+03  0.12500000000E+03 0.  0.
</event>
<event>
 4    0  0.2151074E-002  0.2108529E+03  0.7546771E-02  0.1140892E+00
         21   -1    0    0  502  501  0.00000000000E+00  0.00000000000E+00  0.17140566979E+04  0.17140566979E+04  0.00000000000E+00 0. -1.
         21   -1    0    0  501  502 -0.00000000000E+00 -0.00000000000E+00 -0.25937861168E+02  0.25937861168E+02  0.00000000000E+00 0. -1.
         25    1    1    2    0    0 -0.15764956264E+03 -0.90026637298E+01  0.11017179174E+04  0.11199740185E+04  0.12500000000E+03 0.  0.
         25    1    1    2    0    0  0.15764956264E+03  0.90026637298E+01  0.58640091933E+03  0.62002054058E+03  0.12500000000E+03 0.  0.
</event>
<event>
 4    0  0.2151074E-002  0.3065530E+03  0.7546771E-02  0.1082010E+00
         21   -1    0    0  502  501  0.00000000000E+00  0.00000000000E+00  0.12273734793E+03  0.12273734793E+03  0.00000000000E+00 0.  1.
         21   -1    0    0  501  502 -0.00000000000E+00 -0.00000000000E+00 -0.76565703715E+03  0.76565703715E+03  0.00000000000E+00 0.  1.
         25    1    1    2    0    0 -0.15252527149E+03  0.96282383593E+02 -0.63161308321E+03  0.66865113678E+03  0.12500000000E+03 0.  0.
         25    1    1    2    0    0  0.15252527149E+03 -0.96282383593E+02 -0.11306606011E+02  0.21974324830E+03  0.12500000000E+03 0.  0.
</event>
<event>
 4    0  0.2151074E-002  0.2145252E+03  0.7546771E-02  0.1138032E+00
         21   -1    0    0  502  501  0.00000000000E+00  0.00000000000E+00  0.75592047533E+03  0.75592047533E+03  0.00000000000E+00 0.  1.
         21   -1    0    0  501  502 -0.00000000000E+00 -0.00000000000E+00 -0.60880842728E+02  0.60880842728E+02  0.00000000000E+00 0.  1.
         25    1    1    2    0    0  0.16191861787E+03 -0.56652671968E+02  0.40677824233E+03  0.45882535074E+03  0.12500000000E+03 0.  0.
         25    1    1    2    0    0 -0.16191861787E+03  0.56652671968E+02  0.28826139027E+03  0.35797596732E+03  0.12500000000E+03 0.  0.
</event>
<event>
 4    0  0.2151074E-002  0.2333696E+03  0.7546771E-02  0.1124290E+00
         21   -1    0    0  502  501  0.00000000000E+00  0.00000000000E+00  0.61146700192E+03  0.61146700192E+03  0.00000000000E+00 0.  1.
         21   -1    0    0  501  502 -0.00000000000E+00 -0.00000000000E+00 -0.89066698880E+02  0.89066698880E+02  0.00000000000E+00 0.  1.
         25    1    1    2    0    0 -0.77928154487E+02 -0.98745588139E+02  0.48888814710E+03  0.52005779372E+03  0.12500000000E+03 0.  0.
         25    1    1    2    0    0  0.77928154487E+02  0.98745588139E+02  0.33512155939E+02  0.18047590707E+03  0.12500000000E+03 0.  0.
</event>
<event>
 4    0  0.2151074E-002  0.1874508E+03  0.7546771E-02  0.1160781E+00
         21   -1    0    0  502  501  0.00000000000E+00  0.00000000000E+00  0.84126199586E+03  0.84126199586E+03  0.00000000000E+00 0. -1.
         21   -1    0    0  501  502 -0.00000000000E+00 -0.00000000000E+00 -0.41767945977E+02  0.41767945977E+02  0.00000000000E+00 0. -1.
         25    1    1    2    0    0  0.63513437253E+02 -0.35490480229E+02  0.68061140005E+03  0.69580917555E+03  0.12500000000E+03 0.  0.
         25    1    1    2    0    0 -0.63513437253E+02  0.35490480229E+02  0.11888264983E+03  0.18722076629E+03  0.12500000000E+03 0.  0.
</event>
<event>
 4    0  0.2151074E-002  0.3513096E+03  0.7546771E-02  0.1062079E+00
         21   -1    0    0  502  501  0.00000000000E+00  0.00000000000E+00  0.10633270997E+03  0.10633270997E+03  0.00000000000E+00 0.  1.
         21   -1    0    0  501  502 -0.00000000000E+00 -0.00000000000E+00 -0.11606819226E+04  0.11606819226E+04  0.00000000000E+00 0.  1.
         25    1    1    2    0    0 -0.13609650811E+03 -0.41204523212E+01  0.11561340683E+02  0.18519692828E+03  0.12500000000E+03 0.  0.
         25    1    1    2    0    0  0.13609650811E+03  0.41204523212E+01 -0.10659105534E+04  0.10818177043E+04  0.12500000000E+03 0.  0.
</event>
<event>
 4    0  0.2151074E-002  0.2206735E+03  0.7546771E-02  0.1133382E+00
         21   -1    0    0  502  501  0.00000000000E+00  0.00000000000E+00  0.34646915945E+02  0.34646915945E+02  0.00000000000E+00 0. -1.
         21   -1    0    0  501  502 -0.00000000000E+00 -0.00000000000E+00 -0.14055156427E+04  0.14055156427E+04  0.00000000000E+00 0. -1.
         25    1    1    2    0    0 -0.96536741256E+02 -0.14260598677E+03 -0.87615099488E+03  0.90162152576E+03  0.12500000000E+03 0.  0.
         25    1    1    2    0    0  0.96536741256E+02  0.14260598677E+03 -0.49471773188E+03  0.53854103290E+03  0.12500000000E+03 0.  0.
</event>
<event>
 4    0  0.2151074E-002  0.1987759E+03  0.7546771E-02  0.1150776E+00
         21   -1    0    0  502  501  0.00000000000E+00  0.00000000000E+00  0.64066011264E+02  0.64066011264E+02  0.00000000000E+00 0. -1.
         21   -1    0    0  501  502 -0.00000000000E+00 -0.00000000000E+00 -0.61673659233E+03  0.61673659233E+03  0.00000000000E+00 0. -1.
         25    1    1    2    0    0 -0.14483957786E+03  0.53882331396E+02 -0.28018153970E+03  0.34352365878E+03  0.12500000000E+03 0.  0.
         25    1    1    2    0    0  0.14483957786E+03 -0.53882331396E+02 -0.27248904136E+03  0.33727894481E+03  0.12500000000E+03 0.  0.
</event>
<event>
 4    0  0.2151074E-002  0.2095471E+03  0.7546771E-02  0.1141925E+00
         21   -1    0    0  502  501  0.00000000000E+00  0.00000000000E+00  0.89030564376E+03  0.89030564376E+03  0.00000000000E+00 0.  1.
         21   -1    0    0  501  502 -0.00000000000E+00 -0.00000000000E+00 -0.49320119106E+02  0.49320119106E+02  0.00000000000E+00 0.  1.
         25    1    1    2    0    0 -0.30935060725E+02 -0.31031686765E+01  0.79106315004E+03  0.80148145019E+03  0.12500000000E+03 0.  0.
         25    1    1    2    0    0  0.30935060725E+02  0.31031686765E+01  0.49922374608E+02  0.13814431267E+03  0.12500000000E+03 0.  0.
</event>
<event>
 4    0  0.2151074E-002  0.4399430E+03  0.7546771E-02  0.1030764E+00
         21   -1    0    0  502  501  0.00000000000E+00  0.00000000000E+00  0.80350308287E+03  0.80350308287E+03  0.00000000000E+00 0. -1.
         21   -1    0    0  501  502 -0.00000000000E+00 -0.00000000000E+00 -0.24088251880E+03  0.24088251880E+03  0.00000000000E+00 0. -1.
         25    1    1    2    0    0 -0.32726037575E+02  0.18500911828E+03 -0.16695285152E+03  0.28070914130E+03  0.12500000000E+03 0.  0.
         25    1    1    2    0    0  0.32726037575E+02 -0.18500911828E+03  0.72957341559E+03  0.76367646036E+03  0.12500000000E+03 0.  0.
</event>
<event>
 4    0  0.2151074E-002  0.2045810E+03  0.7546771E-02  0.1145931E+00
         21   -1    0    0  502  501  0.00000000000E+00  0.00000000000E+00  0.33037347572E+02  0.33037347572E+02  0.00000000000E+00 0.  1.
         21   -1    0    0  501  502 -0.00000000000E+00 -0.00000000000E+00 -0.12668512319E+04  0.12668512319E+04  0.00000000000E+00 0.  1.
         25    1    1    2    0    0  0.15034580920E+03  0.30362395262E+02 -0.45174612875E+03  0.49317877309E+03  0.12500000000E+03 0.  0.
         25    1    1    2    0    0 -0.15034580920E+03 -0.30362395262E+02 -0.78206775555E+03  0.80670980635E+03  0.12500000000E+03 0.  0.
</event>
<event>
 4    0  0.2151074E-002  0.3263270E+03  0.7546771E-02  0.1072774E+00
         21   -1    0    0  502  501  0.00000000000E+00  0.00000000000E+00  0.46794791866E+03  0.46794791866E+03  0.00000000000E+00 0.  1.
         21   -1    0    0  501  502 -0.00000000000E+00 -0.00000000000E+00 -0.22756660900E+03  0.22756660900E+03  0.00000000000E+00 0.  1.
         25    1    1    2    0    0  0.41675762225E+02 -0.29809164012E+03  0.10271800423E+03  0.34171842716E+03  0.12500000000E+03 0.  0.
         25    1    1    2    0    0 -0.41675762225E+02  0.29809164012E+03  0.13766330543E+03  0.35379610050E+03  0.12500000000E+03 0.  0.
</event>
<event>
 4    0  0.2151074E-002  0.2250674E+03  0.7546771E-02  0.1130161E+00
         21   -1    0    0  502  501  0.00000000000E+00  0.00000000000E+00  0.20599825703E+03  0.20599825703E+03  0.00000000000E+00 0.  1.
         21   -1    0    0  501  502 -0.00000000000E+00 -0.00000000000E+00 -0.24590170223E+03  0.24590170223E+03  0.00000000000E+00 0.  1.
         25    1    1    2    0    0 -0.10489761690E+03  0.13875978523E+03 -0.89306164786E+02  0.23207408105E+03  0.12500000000E+03 0.  0.
         25    1    1    2    0    0  0.10489761690E+03 -0.13875978523E+03  0.49402719582E+02  0.21982587821E+03  0.12500000000E+03 0.  0.
</event>
<event>
 4    0  0.2151074E-002  0.2879184E+03  0.7546771E-02  0.1091441E+00
         21   -1    0    0  502  501  0.00000000000E+00  0.00000000000E+00  0.59624114429E+03  0.59624114429E+03  0.00000000000E+00 0.  1.
         21   -1    0    0  501  502 -0.00000000000E+00 -0.00000000000E+00 -0.13903265575E+03  0.13903265575E+03  0.00000000000E+00 0.  1.
         25    1    1    2    0    0 -0.67018570254E+02 -0.51948500382E+02  0.54158769841E+03  0.56225649886E+03  0.12500000000E+03 0.  0.
         25    1    1    2    0    0  0.67018570254E+02  0.51948500382E+02 -0.84379209862E+02  0.17301730118E+03  0.12500000000E+03 0.  0.
</event>
<event>
 4    0  0.2151074E-002  0.2861592E+03  0.7546771E-02  0.1092372E+00
         21   -1    0    0  502  501  0.00000000000E+00  0.00000000000E+00  0.97111028813E+03  0.97111028813E+03  0.00000000000E+00 0. -1.
         21   -1    0    0  501  502 -0.00000000000E+00 -0.00000000000E+00 -0.84323133101E+02  0.84323133101E+02  0.00000000000E+00 0. -1.
         25    1    1    2    0    0 -0.21275594393E+03  0.14478495846E+03  0.45419181631E+03  0.53678951357E+03  0.12500000000E+03 0.  0.
         25    1    1    2    0    0  0.21275594393E+03 -0.14478495846E+03  0.43259533872E+03  0.51864390766E+03  0.12500000000E+03 0.  0.
</event>
<event>
 4    0  0.2151074E-002  0.2074106E+03  0.7546771E-02  0.1143633E+00
         21   -1    0    0  502  501  0.00000000000E+00  0.00000000000E+00  0.96707347618E+03  0.96707347618E+03  0.00000000000E+00 0. -1.
         21   -1    0    0  501  502 -0.00000000000E+00 -0.00000000000E+00 -0.44483843545E+02  0.44483843545E+02  0.00000000000E+00 0. -1.
         25    1    1    2    0    0 -0.71108863519E+02  0.42357249804E+02  0.81081095534E+03  0.82455443264E+03  0.12500000000E+03 0.  0.
         25    1    1    2    0    0  0.71108863519E+02 -0.42357249804E+02  0.11177867730E+03  0.18700288709E+03  0.12500000000E+03 0.  0.
</event>
<event>
 4    0  0.2151074E-002  0.2343939E+03  0.7546771E-02  0.1123585E+00
         21   -1    0    0  502  501  0.00000000000E+00  0.00000000000E+00  0.46917739761E+02  0.46917739761E+02  0.00000000000E+00 0. -1.
         21   -1    0    0  501  502 -0.00000000000E+00 -0.00000000000E+00 -0.11709958667E+04  0.11709958667E+04  0.00000000000E+00 0. -1.
         25    1    1    2    0    0  0.13429714478E+03 -0.23974521503E+02 -0.93587208177E+03  0.95398744972E+03  0.12500000000E+03 0.  0.
         25    1    1    2    0    0 -0.13429714478E+03  0.23974521503E+02 -0.18820604517E+03  0.26392615675E+03  0.12500000000E+03 0.  0.
</event>
<event>
 4    0  0.2151074E-002  0.2058097E+03  0.7546771E-02  0.1144928E+00
         21   -1    0    0  502  501  0.00000000000E+00  0.00000000000E+00  0.22166816081E+03  0.22166816081E+03  0.00000000000E+00 0. -1.
         21   -1    0    0  501  502 -0.00000000000E+00 -0.00000000000E+00 -0.19108579715E+03  0.19108579715E+03  0.00000000000E+00 0. -1.
         25    1    1    2    0    0 -0.32699690721E+02  0.14199725290E+03  0.89658575297E+02  0.21188711553E+03  0.12500000000E+03 0.  0.
         25    1    1    2    0    0  0.32699690721E+02 -0.14199725290E+03 -0.59076211636E+02  0.20086684243E+03  0.12500000000E+03 0.  0.
</event>
<event>
 4    0  0.2151074E-002  0.2129734E+03  0.7546771E-02  0.1139233E+00
         21   -1    0    0  502  501  0.00000000000E+00  0.00000000000E+00  0.27065914815E+04  0.27065914815E+04  0.00000000000E+00 0.  1.
         21   -1    0    0  501  502 -0.00000000000E+00 -0.00000000000E+00 -0.16758224571E+02  0.16758224571E+02  0.00000000000E+00 0. -1.
         25    1    1    2    0    0  0.16547031092E+03  0.40478752741E+02  0.15157254765E+04  0.15303815450E+04  0.12500000000E+03 0.  0.
         25    1    1    2    0    0 -0.16547031092E+03 -0.40478752741E+02  0.11741077804E+04  0.11929681610E+04  0.12500000000E+03 0.  0.
</event>
<event>
 4    0  0.2151074E-002  0.2282250E+03  0.7546771E-02  0.1127895E+00
         21   -1    0    0  502  501  0.00000000000E+00  0.00000000000E+00  0.53739856257E+03  0.53739856257E+03  0.00000000000E+00 0. -1.
         21   -1    0    0  501  502 -0.00000000000E+00 -0.00000000000E+00 -0.96923665755E+02  0.96923665755E+02  0.00000000000E+00 0. -1.
         25    1    1    2    0    0 -0.17598178461E+03 -0.35622338623E+02  0.31054673405E+03  0.37987210158E+03  0.12500000000E+03 0.  0.
         25    1    1    2    0    0  0.17598178461E+03  0.35622338623E+02  0.12992816277E+03  0.25445012675E+03  0.12500000000E+03 0.  0.
</event>
<event>
 4    0  0.2151074E-002  0.2465797E+03  0.7546771E-02  0.1115486E+00
         21   -1    0    0  502  501  0.00000000000E+00  0.00000000000E+00  0.60786971813E+03  0.60786971813E+03  0.00000000000E+00 0. -1.
         21   -1    0    0  501  502 -0.00000000000E+00 -0.00000000000E+00 -0.10002394579E+03  0.10002394579E+03  0.00000000000E+00 0. -1.
         25    1    1    2    0    0  0.21822885919E+02 -0.21044005216E+03  0.22467139134E+03  0.33296169148E+03  0.12500000000E+03 0.  0.
         25    1    1    2    0    0 -0.21822885919E+02  0.21044005216E+03  0.28317438100E+03  0.37493197244E+03  0.12500000000E+03 0.  0.
</event>
<event>
 4    0  0.2151074E-002  0.2755614E+03  0.7546771E-02  0.1098138E+00
         21   -1    0    0  502  501  0.00000000000E+00  0.00000000000E+00  0.30384634654E+03  0.30384634654E+03  0.00000000000E+00 0. -1.
         21   -1    0    0  501  502 -0.00000000000E+00 -0.00000000000E+00 -0.24990949005E+03  0.24990949005E+03  0.00000000000E+00 0. -1.
         25    1    1    2    0    0  0.85249993304E+01  0.47606226718E+02 -0.21495158720E+03  0.25331445532E+03  0.12500000000E+03 0.  0.
         25    1    1    2    0    0 -0.85249993304E+01 -0.47606226718E+02  0.26888844368E+03  0.30044138127E+03  0.12500000000E+03 0.  0.
</event>
<event>
 4    0  0.2151074E-002  0.1938955E+03  0.7546771E-02  0.1154994E+00
         21   -1    0    0  502  501  0.00000000000E+00  0.00000000000E+00  0.54381492886E+03  0.54381492886E+03  0.00000000000E+00 0. -1.
         21   -1    0    0  501  502 -0.00000000000E+00 -0.00000000000E+00 -0.69132805661E+02  0.69132805661E+02  0.00000000000E+00 0. -1.
         25    1    1    2    0    0  0.37860765577E+02 -0.11025597747E+03  0.92642497070E+02  0.19441566398E+03  0.12500000000E+03 0.  0.
         25    1    1    2    0    0 -0.37860765577E+02  0.11025597747E+03  0.38203962612E+03  0.41853207054E+03  0.12500000000E+03 0.  0.
</event>
<event>
 4    0  0.2151074E-002  0.3127657E+03  0.7546771E-02  0.1079028E+00
         21   -1    0    0  502  501  0.00000000000E+00  0.00000000000E+00  0.19339698056E+04  0.19339698056E+04  0.00000000000E+00 0.  1.
         21   -1    0    0  501  502 -0.00000000000E+00 -0.00000000000E+00 -0.50581129858E+02  0.50581129858E+02  0.00000000000E+00 0.  1.
         25    1    1    2    0    0 -0.17325730771E+02 -0.11645562381E+03  0.11234853648E+03  0.20520547486E+03  0.12500000000E+03 0.  0.
         25    1    1    2    0    0  0.17325730771E+02  0.11645562381E+03  0.17710401393E+04  0.17793454606E+04  0.12500000000E+03 0.  0.
</event>
<event>
 4    0  0.2151074E-002  0.2401440E+03  0.7546771E-02  0.1119697E+00
         21   -1    0    0  502  501  0.00000000000E+00  0.00000000000E+00  0.54617340095E+03  0.54617340095E+03  0.00000000000E+00 0.  1.
         21   -1    0    0  501  502 -0.00000000000E+00 -0.00000000000E+00 -0.10558764569E+03  0.10558764569E+03  0.00000000000E+00 0.  1.
         25    1    1    2    0    0 -0.16496183116E+03  0.72711739386E+02  0.87715598292E+02  0.23625924102E+03  0.12500000000E+03 0.  0.
         25    1    1    2    0    0  0.16496183116E+03 -0.72711739386E+02  0.35287015697E+03  0.41550180561E+03  0.12500000000E+03 0.  0.
</event>
<event>
 4    0  0.2151074E-002  0.1625883E+03  0.7546771E-02  0.1185805E+00
         21   -1    0    0  502  501  0.00000000000E+00  0.00000000000E+00  0.68202442190E+03  0.68202442190E+03  0.00000000000E+00 0.  1.
         21   -1    0    0  501  502 -0.00000000000E+00 -0.00000000000E+00 -0.38759539710E+02  0.38759539710E+02  0.00000000000E+00 0.  1.
         25    1    1    2    0    0 -0.51572767861E+02 -0.74008642891E+02  0.43623097956E+03  0.46266564292E+03  0.12500000000E+03 0.  0.
         25    1    1    2    0    0  0.51572767861E+02  0.74008642891E+02  0.20703390263E+03  0.25811831870E+03  0.12500000000E+03 0.  0.
</event>
<event>
 4    0  0.2151074E-002  0.1803918E+03  0.7546771E-02  0.1167424E+00
         21   -1    0    0  502  501  0.00000000000E+00  0.00000000000E+00  0.84204933042E+03  0.84204933042E+03  0.00000000000E+00 0. -1.
         21   -1    0    0  501  502 -0.00000000000E+00 -0.00000000000E+00 -0.38645223333E+02  0.38645223333E+02  0.00000000000E+00 0. -1.
         25    1    1    2    0    0 -0.20422842286E+02 -0.12811935506E+03  0.37925984532E+03  0.41987461450E+03  0.12500000000E+03 0.  0.
         25    1    1    2    0    0  0.20422842286E+02  0.12811935506E+03  0.42414426177E+03  0.46081993926E+03  0.12500000000E+03 0.  0.
</event>
<event>
 4    0  0.2151074E-002  0.2395171E+03  0.7546771E-02  0.1120115E+00
         21   -1    0    0  502  501  0.00000000000E+00  0.00000000000E+00  0.23273844999E+02  0.23273844999E+02  0.00000000000E+00 0. -1.
         21   -1    0    0  501  502 -0.00000000000E+00 -0.00000000000E+00 -0.24649321309E+04  0.24649321309E+04  0.00000000000E+00 0. -1.
         25    1    1    2    0    0  0.13455291224E+03 -0.10779674496E+01 -0.20194181167E+04  0.20277524943E+04  0.12500000000E+03 0.  0.
         25    1    1    2    0    0 -0.13455291224E+03  0.10779674496E+01 -0.42224016924E+03  0.46045348161E+03  0.12500000000E+03 0.  0.
</event>
<event>
 4    0  0.2151074E-002  0.2257158E+03  0.7546771E-02  0.1129692E+00
         21   -1    0    0  502  501  0.00000000000E+00  0.00000000000E+00  0.17925266561E+03  0.17925266561E+03  0.00000000000E+00 0.  1.
         21   -1    0    0  501  502 -0.00000000000E+00 -0.00000000000E+00 -0.28422232652E+03  0.28422232652E+03  0.00000000000E+00 0.  1.
         25    1    1    2    0    0 -0.36349181323E+02  0.11898166122E+03 -0.19711429977E+03  0.26449375392E+03  0.12500000000E+03 0.  0.
         25    1    1    2    0    0  0.36349181323E+02 -0.11898166122E+03  0.92144638853E+02  0.19898123821E+03  0.12500000000E+03 0.  0.
</event>
<event>
 4    0  0.2151074E-002  0.1855480E+03  0.7546771E-02  0.1162539E+00
         21   -1    0    0  502  501  0.00000000000E+00  0.00000000000E+00  0.30771850046E+03  0.30771850046E+03  0.00000000000E+00 0. -1.
         21   -1    0    0  501  502 -0.00000000000E+00 -0.00000000000E+00 -0.11188165795E+03  0.11188165795E+03  0.00000000000E+00 0. -1.
         25    1    1    2    0    0  0.94003896013E+02 -0.39952075356E+02  0.20136500510E+03  0.25808092930E+03  0.12500000000E+03 0.  0.
         25    1    1    2    0    0 -0.94003896013E+02  0.39952075356E+02 -0.55281625791E+01  0.16151922911E+03  0.12500000000E+03 0.  0.
</event>
<event>
 4    0  0.2151074E-002  0.2312480E+03  0.7546771E-02  0.1125764E+00
         21   -1    0    0  502  501  0.00000000000E+00  0.00000000000E+00  0.21374646518E+03  0.21374646518E+03  0.00000000000E+00 0.  1.
         21   -1    0    0  501  502 -0.00000000000E+00 -0.00000000000E+00 -0.25018259858E+03  0.25018259858E+03  0.00000000000E+00 0.  1.
         25    1    1    2    0    0  0.19294068589E+03  0.18252428958E+02 -0.10951241185E+01  0.23061972754E+03  0.12500000000E+03 0.  0.
         25    1    1    2    0    0 -0.19294068589E+03 -0.18252428958E+02 -0.35341009277E+02  0.23330933623E+03  0.12500000000E+03 0.  0.
</event>
<event>
 4    0  0.2151074E-002  0.2064174E+03  0.7546771E-02  0.1144435E+00
         21   -1    0    0  502  501  0.00000000000E+00  0.00000000000E+00  0.19024164855E+02  0.19024164855E+02  0.00000000000E+00 0.  1.
         21   -1    0    0  501  502 -0.00000000000E+00 -0.00000000000E+00 -0.22396842919E+04  0.22396842919E+04  0.00000000000E+00 0.  1.
         25    1    1    2    0    0 -0.10563047732E+03 -0.28428086125E+02 -0.43986211811E+03  0.47018043001E+03  0.12500000000E+03 0.  0.
         25    1    1    2    0    0  0.10563047732E+03  0.28428086125E+02 -0.17807980089E+04  0.17885280267E+04  0.12500000000E+03 0.  0.
</event>
<event>
 4    0  0.2151074E-002  0.1754421E+03  0.7546771E-02  0.1172289E+00
         21   -1    0    0  502  501  0.00000000000E+00  0.00000000000E+00  0.15102369912E+02  0.15102369912E+02  0.00000000000E+00 0. -1.
         21   -1    0    0  501  502 -0.00000000000E+00 -0.00000000000E+00 -0.20380861429E+04  0.20380861429E+04  0.00000000000E+00 0.  1.
         25    1    1    2    0    0 -0.51932829869E+02 -0.98357387501E+02 -0.70276172481E+03  0.72240586678E+03  0.12500000000E+03 0.  0.
         25    1    1    2    0    0  0.51932829869E+02  0.98357387501E+02 -0.13202220482E+04  0.13307826460E+04  0.12500000000E+03 0.  0.
</event>
<event>
 4    0  0.2151074E-002  0.2283222E+03  0.7546771E-02  0.1127826E+00
         21   -1    0    0  502  501  0.00000000000E+00  0.00000000000E+00  0.16335426396E+02  0.16335426396E+02  0.00000000000E+00 0. -1.
         21   -1    0    0  501  502 -0.00000000000E+00 -0.00000000000E+00 -0.31912861339E+04  0.31912861339E+04  0.00000000000E+00 0. -1.
         25    1    1    2    0    0 -0.57300198633E+02  0.13711784285E+03 -0.74392931148E+03  0.76885657705E+03  0.12500000000E+03 0.  0.
         25    1    1    2    0    0  0.57300198633E+02 -0.13711784285E+03 -0.24310213960E+04  0.24387649832E+04  0.12500000000E+03 0.  0.
</event>
<event>
 4    0  0.2151074E-002  0.2216594E+03  0.7546771E-02  0.1132652E+00
         21   -1    0    0  502  501  0.00000000000E+00  0.00000000000E+00  0.80826182082E+03  0.80826182082E+03  0.00000000000E+00 0.  1.
         21   -1    0    0  501  502 -0.00000000000E+00 -0.00000000000E+00 -0.60788343532E+02  0.60788343532E+02  0.00000000000E+00 0.  1.
         25    1    1    2    0    0 -0.11968028910E+03  0.69188177743E+02  0.13851766564E+03  0.23221222887E+03  0.12500000000E+03 0.  0.
         25    1    1    2    0    0  0.11968028910E+03 -0.69188177743E+02  0.60895581164E+03  0.63683793549E+03  0.12500000000E+03 0.  0.
</event>
<event>
 4    0  0.2151074E-002  0.2963165E+03  0.7546771E-02  0.1087097E+00
         21   -1    0    0  502  501  0.00000000000E+00  0.00000000000E+00  0.70827065280E+02  0.70827065280E+02  0.00000000000E+00 0. -1.
         21   -1    0    0  501  502 -0.00000000000E+00 -0.00000000000E+00 -0.12396880510E+04  0.12396880510E+04  0.00000000000E+00 0. -1.
         25    1    1    2    0    0 -0.95458798457E+02 -0.54363367904E+02 -0.11265963088E+04  0.11388204429E+04  0.12500000000E+03 0.  0.
         25    1    1    2    0    0  0.95458798457E+02  0.54363367904E+02 -0.42264676888E+02  0.17169467343E+03  0.12500000000E+03 0.  0.
</event>
<event>
 4    0  0.2151074E-002  0.3159057E+03  0.7546771E-02  0.1077549E+00
         21   -1    0    0  502  501  0.00000000000E+00  0.00000000000E+00  0.26877446314E+03  0.26877446314E+03  0.00000000000E+00 0. -1.
         21   -1    0    0  501  502 -0.00000000000E+00 -0.00000000000E+00 -0.37130178819E+03  0.37130178819E+03  0.00000000000E+00 0. -1.
         25    1    1    2    0    0  0.57201624783E+02  0.25176290029E+03 -0.18533855853E+03  0.34151422389E+03  0.12500000000E+03 0.  0.
         25    1    1    2    0    0 -0.57201624783E+02 -0.25176290029E+03  0.82811233485E+02  0.29856202744E+03  0.12500000000E+03 0.  0.
</event>
<event>
 4    0  0.2151074E-002  0.1929491E+03  0.7546771E-02  0.1155828E+00
         21   -1    0    0  502  501  0.00000000000E+00  0.00000000000E+00  0.13761624345E+03  0.13761624345E+03  0.00000000000E+00 0.  1.
         21   -1    0    0  501  502 -0.00000000000E+00 -0.00000000000E+00 -0.27053023477E+03  0.27053023477E+03  0.00000000000E+00 0.  1.
         25    1    1    2    0    0  0.60768937659E+02 -0.11509340346E+03  0.57815671839E+01  0.18054855807E+03  0.12500000000E+03 0.  0.
         25    1    1    2    0    0 -0.60768937659E+02  0.11509340346E+03 -0.13869555851E+03  0.22759792014E+03  0.12500000000E+03 0.  0.
</event>
<event>
 4    0  0.2151074E-002  0.2592982E+03  0.7546771E-02  0.1107566E+00
         21   -1    0    0  502  501  0.00000000000E+00  0.00000000000E+00  0.14505945567E+03  0.14505945567E+03  0.00000000000E+00 0.  1.
         21   -1    0    0  501  502 -0.00000000000E+00 -0.00000000000E+00 -0.46350338903E+03  0.46350338903E+03  0.00000000000E+00 0.  1.
         25    1    1    2    0    0  0.51598080106E+02 -0.21696793318E+03 -0.21000946678E+03  0.33085710215E+03  0.12500000000E+03 0.  0.
         25    1    1    2    0    0 -0.51598080106E+02  0.21696793318E+03 -0.10843446657E+03  0.27770574254E+03  0.12500000000E+03 0.  0.
</event>
<event>
 4    0  0.2151074E-002  0.1641743E+03  0.7546771E-02  0.1184063E+00
         21   -1    0    0  502  501  0.00000000000E+00  0.00000000000E+00  0.17830795539E+03  0.17830795539E+03  0.00000000000E+00 0. -1.
         21   -1    0    0  501  502 -0.00000000000E+00 -0.00000000000E+00 -0.15116103671E+03  0.15116103671E+03  0.00000000000E+00 0. -1.
         25    1    1    2    0    0 -0.78185931322E+01 -0.11351831169E+02 -0.92324398373E+02  0.15600893886E+03  0.12500000000E+03 0.  0.
         25    1    1    2    0    0  0.78185931322E+01  0.11351831169E+02  0.11947131706E+03  0.17346005324E+03  0.12500000000E+03 0.  0.
</event>
<event>
 4    0  0.2151074E-002  0.2078112E+03  0.7546771E-02  0.1143311E+00
         21   -1    0    0  502  501  0.00000000000E+00  0.00000000000E+00  0.83491241247E+02  0.83491241247E+02  0.00000000000E+00 0. -1.
         21   -1    0    0  501  502 -0.00000000000E+00 -0.00000000000E+00 -0.51724583607E+03  0.51724583607E+03  0.00000000000E+00 0. -1.
         25    1    1    2    0    0  0.11112328643E+03  0.19480848162E+02 -0.39291036225E+03  0.42747098263E+03  0.12500000000E+03 0.  0.
         25    1    1    2    0    0 -0.11112328643E+03 -0.19480848162E+02 -0.40844232572E+02  0.17326609468E+03  0.12500000000E+03 0.  0.
</event>
<event>
 4    0  0.2151074E-002  0.1530007E+03  0.7546771E-02  0.1196834E+00
         21   -1    0    0  502  501  0.00000000000E+00  0.00000000000E+00  0.10715736538E+03  0.10715736538E+03  0.00000000000E+00 0. -1.
         21   -1    0    0  501  502 -0.00000000000E+00 -0.00000000000E+00 -0.21845635784E+03  0.21845635784E+03  0.00000000000E+00 0. -1.
         25    1    1    2    0    0  0.15745875331E+02 -0.63141868107E+02  0.77455867346E+01  0.14113760028E+03  0.12500000000E+03 0.  0.
         25    1    1    2    0    0 -0.15745875331E+02  0.63141868107E+02 -0.11904457919E+03  0.18447612294E+03  0.12500000000E+03 0.  0.
</event>
<event>
 4    0  0.2151074E-002  0.2559699E+03  0.7546771E-02  0.1109589E+00
         21   -1    0    0  502  501  0.00000000000E+00  0.00000000000E+00  0.93162521262E+03  0.93162521262E+03  0.00000000000E+00 0.  1.
         21   -1    0    0  501  502 -0.00000000000E+00 -0.00000000000E+00 -0.70329353500E+02  0.70329353500E+02  0.00000000000E+00 0.  1.
         25    1    1    2    0    0  0.48424598253E+02  0.20778703952E+03  0.30119012794E+03  0.38969332645E+03  0.12500000000E+03 0.  0.
         25    1    1    2    0    0 -0.48424598253E+02 -0.20778703952E+03  0.56010573118E+03  0.61226123967E+03  0.12500000000E+03 0.  0.
</event>
<event>
 4    0  0.2151074E-002  0.2226053E+03  0.7546771E-02  0.1131955E+00
         21   -1    0    0  502  501  0.00000000000E+00  0.00000000000E+00  0.11960123236E+04  0.11960123236E+04  0.00000000000E+00 0. -1.
         21   -1    0    0  501  502 -0.00000000000E+00 -0.00000000000E+00 -0.41431964653E+02  0.41431964653E+02  0.00000000000E+00 0. -1.
         25    1    1    2    0    0 -0.59721868807E+02 -0.52198752962E+02  0.10393555141E+04  0.10498458440E+04  0.12500000000E+03 0.  0.
         25    1    1    2    0    0  0.59721868807E+02  0.52198752962E+02  0.11522484485E+03  0.18759844427E+03  0.12500000000E+03 0.  0.
</event>
<event>
 4    0  0.2151074E-002  0.2373017E+03  0.7546771E-02  0.1121604E+00
         21   -1    0    0  502  501  0.00000000000E+00  0.00000000000E+00  0.36133438068E+03  0.36133438068E+03  0.00000000000E+00 0. -1.
         21   -1    0    0  501  502 -0.00000000000E+00 -0.00000000000E+00 -0.15584480456E+03  0.15584480456E+03  0.00000000000E+00 0. -1.
         25    1    1    2    0    0  0.79236843859E+02  0.52570473974E+02  0.29659329812E+03  0.33561096026E+03  0.12500000000E+03 0.  0.
         25    1    1    2    0    0 -0.79236843859E+02 -0.52570473974E+02 -0.91103722003E+02  0.18156822498E+03  0.12500000000E+03 0.  0.
</event>
<event>
 4    0  0.2151074E-002  0.3265694E+03  0.7546771E-02  0.1072665E+00
         21   -1    0    0  502  501  0.00000000000E+00  0.00000000000E+00  0.92396451433E+02  0.92396451433E+02  0.00000000000E+00 0.  1.
         21   -1    0    0  501  502 -0.00000000000E+00 -0.00000000000E+00 -0.11542389309E+04  0.11542389309E+04  0.00000000000E+00 0. -1.
         25    1    1    2    0    0  0.99151859491E+02  0.28231897520E+03 -0.60453524353E+03  0.68601964671E+03  0.12500000000E+03 0.  0.
         25    1    1    2    0    0 -0.99151859491E+02 -0.28231897520E+03 -0.45730723596E+03  0.56061573565E+03  0.12500000000E+03 0.  0.
</event>
<event>
 4    0  0.2151074E-002  0.2512886E+03  0.7546771E-02  0.1112493E+00
         21   -1    0    0  502  501  0.00000000000E+00  0.00000000000E+00  0.94009174569E+03  0.94009174569E+03  0.00000000000E+00 0. -1.
         21   -1    0    0  501  502 -0.00000000000E+00 -0.00000000000E+00 -0.67169977221E+02  0.67169977221E+02  0.00000000000E+00 0. -1.
         25    1    1    2    0    0  0.16780411735E+03 -0.32776309216E+01  0.71526698872E+03  0.74525219209E+03  0.12500000000E+03 0.  0.
         25    1    1    2    0    0 -0.16780411735E+03  0.32776309216E+01  0.15765477975E+03  0.26200953082E+03  0.12500000000E+03 0.  0.
</event>
<event>
 4    0  0.2151074E-002  0.1806185E+03  0.7546771E-02  0.1167206E+00
         21   -1    0    0  502  501  0.00000000000E+00  0.00000000000E+00  0.19621956663E+02  0.19621956663E+02  0.00000000000E+00 0. -1.
         21   -1    0    0  501  502 -0.00000000000E+00 -0.00000000000E+00 -0.16625788063E+04  0.16625788063E+04  0.00000000000E+00 0. -1.
         25    1    1    2    0    0  0.11634795640E+03 -0.57716723414E+02 -0.76838662610E+03  0.78924715666E+03  0.12500000000E+03 0.  0.
         25    1    1    2    0    0 -0.11634795640E+03  0.57716723414E+02 -0.87457022357E+03  0.89295360634E+03  0.12500000000E+03 0.  0.
</event>
<event>
 4    0  0.2151074E-002  0.2846771E+03  0.7546771E-02  0.1093162E+00
         21   -1    0    0  502  501  0.00000000000E+00  0.00000000000E+00  0.18617526475E+03  0.18617526475E+03  0.00000000000E+00 0.  1.
         21   -1    0    0  501  502 -0.00000000000E+00 -0.00000000000E+00 -0.43529431456E+03  0.43529431456E+03  0.00000000000E+00 0.  1.
         25    1    1    2    0    0  0.24507221574E+03 -0.61748503048E+02 -0.16743287100E+03  0.32792077526E+03  0.12500000000E+03 0.  0.
         25    1    1    2    0    0 -0.24507221574E+03  0.61748503048E+02 -0.81686178813E+02  0.29354880406E+03  0.12500000000E+03 0.  0.
</event>
<event>
 4    0  0.2151074E-002  0.2373366E+03  0.7546771E-02  0.1121580E+00
         21   -1    0    0  502  501  0.00000000000E+00  0.00000000000E+00  0.41585714545E+03  0.41585714545E+03  0.00000000000E+00 0. -1.
         21   -1    0    0  501  502 -0.00000000000E+00 -0.00000000000E+00 -0.13545195344E+03  0.13545195344E+03  0.00000000000E+00 0. -1.
         25    1    1    2    0    0  0.11761175814E+03  0.14981608293E+03  0.62931013829E+02  0.23635290745E+03  0.12500000000E+03 0.  0.
         25    1    1    2    0    0 -0.11761175814E+03 -0.14981608293E+03  0.21747417818E+03  0.31495619145E+03  0.12500000000E+03 0.  0.
</event>
<event>
 4    0  0.2151074E-002  0.4123874E+03  0.7546771E-02  0.1039573E+00
         21   -1    0    0  502  501  0.00000000000E+00  0.00000000000E+00  0.67162726897E+03  0.67162726897E+03  0.00000000000E+00 0.  1.
         21   -1    0    0  501  502 -0.00000000000E+00 -0.00000000000E+00 -0.25321092187E+03  0.25321092187E+03  0.00000000000E+00 0.  1.
         25    1    1    2    0    0 -0.43226393362E+02 -0.36937277855E+03  0.66780007882E+02  0.39798158258E+03  0.12500000000E+03 0.  0.
         25    1    1    2    0    0  0.43226393362E+02  0.36937277855E+03  0.35163633922E+03  0.52685660827E+03  0.12500000000E+03 0.  0.
</event>
<event>
 4    0  0.2151074E-002  0.3318920E+03  0.7546771E-02  0.1070303E+00
         21   -1    0    0  502  501  0.00000000000E+00  0.00000000000E+00  0.55334580331E+03  0.55334580331E+03  0.00000000000E+00 0.  1.
         21   -1    0    0  501  502 -0.00000000000E+00 -0.00000000000E+00 -0.19906592904E+03  0.19906592904E+03  0.00000000000E+00 0.  1.
         25    1    1    2    0    0 -0.23244464125E+03  0.17943410730E+03  0.28040958727E+03  0.42483131563E+03  0.12500000000E+03 0.  0.
         25    1    1    2    0    0  0.23244464125E+03 -0.17943410730E+03  0.73870287006E+02  0.32758041671E+03  0.12500000000E+03 0.  0.
</event>
<event>
 4    0  0.2151074E-002  0.1801924E+03  0.7546771E-02  0.1167617E+00
         21   -1    0    0  502  501  0.00000000000E+00  0.00000000000E+00  0.55524109918E+02  0.55524109918E+02  0.00000000000E+00 0.  1.
         21   -1    0    0  501  502 -0.00000000000E+00 -0.00000000000E+00 -0.58477828261E+03  0.58477828261E+03  0.00000000000E+00 0.  1.
         25    1    1    2    0    0 -0.11721020586E+03 -0.16761026398E+02 -0.17019102373E+03  0.24209326493E+03  0.12500000000E+03 0.  0.
         25    1    1    2    0    0  0.11721020586E+03  0.16761026398E+02 -0.35906314896E+03  0.39820912760E+03  0.12500000000E+03 0.  0.
</event>
<event>
 4    0  0.2151074E-002  0.2361929E+03  0.7546771E-02  0.1122355E+00
         21   -1    0    0  502  501  0.00000000000E+00  0.00000000000E+00  0.14274366987E+04  0.14274366987E+04  0.00000000000E+00 0. -1.
         21   -1    0    0  501  502 -0.00000000000E+00 -0.00000000000E+00 -0.39082019416E+02  0.39082019416E+02  0.00000000000E+00 0. -1.
         25    1    1    2    0    0  0.14794059227E+03 -0.12901739882E+03  0.81952355631E+03  0.85192474280E+03  0.12500000000E+03 0.  0.
         25    1    1    2    0    0 -0.14794059227E+03  0.12901739882E+03  0.56883112298E+03  0.61459397533E+03  0.12500000000E+03 0.  0.
</event>
<event>
 4    0  0.2151074E-002  0.1525043E+03  0.7546771E-02  0.1197429E+00
         21   -1    0    0  502  501  0.00000000000E+00  0.00000000000E+00  0.77241043075E+02  0.77241043075E+02  0.00000000000E+00 0. -1.
         21   -1    0    0  501  502 -0.00000000000E+00 -0.00000000000E+00 -0.30110365251E+03  0.30110365251E+03  0.00000000000E+00 0. -1.
         25    1    1    2    0    0 -0.57862424322E+02 -0.64396217376E+02 -0.97379134521E+02  0.18056198050E+03  0.12500000000E+03 0.  0.
         25    1    1    2    0    0  0.57862424322E+02  0.64396217376E+02 -0.12648347491E+03  0.19778271509E+03  0.12500000000E+03 0.  0.
</event>
<event>
 4    0  0.2151074E-002  0.2553949E+03  0.7546771E-02  0.1109942E+00
         21   -1    0    0  502  501  0.00000000000E+00  0.00000000000E+00  0.11481226015E+03  0.11481226015E+03  0.00000000000E+00 0.  1.
         21   -1    0    0  501  502 -0.00000000000E+00 -0.00000000000E+00 -0.56811510646E+03  0.56811510646E+03  0.00000000000E+00 0.  1.
         25    1    1    2    0    0  0.72177821165E+02 -0.96975447084E+02  0.23434900168E+02  0.17546529501E+03  0.12500000000E+03 0.  0.
         25    1    1    2    0    0 -0.72177821165E+02  0.96975447084E+02 -0.47673774648E+03  0.50746207161E+03  0.12500000000E+03 0.  0.
</event>
<event>
 4    0  0.2151074E-002  0.2153478E+03  0.7546771E-02  0.1137400E+00
         21   -1    0    0  502  501  0.00000000000E+00  0.00000000000E+00  0.24709589373E+03  0.24709589373E+03  0.00000000000E+00 0. -1.
         21   -1    0    0  501  502 -0.00000000000E+00 -0.00000000000E+00 -0.18767880993E+03  0.18767880993E+03  0.00000000000E+00 0. -1.
         25    1    1    2    0    0 -0.12589750923E+03  0.97693467458E+02  0.10358270188E+03  0.22748312585E+03  0.12500000000E+03 0.  0.
         25    1    1    2    0    0  0.12589750923E+03 -0.97693467458E+02 -0.44165618082E+02  0.20729157782E+03  0.12500000000E+03 0.  0.
</event>
<event>
 4    0  0.2151074E-002  0.2857460E+03  0.7546771E-02  0.1092591E+00
         21   -1    0    0  502  501  0.00000000000E+00  0.00000000000E+00  0.10265244983E+04  0.10265244983E+04  0.00000000000E+00 0. -1.
         21   -1    0    0  501  502 -0.00000000000E+00 -0.00000000000E+00 -0.79540971665E+02  0.79540971665E+02  0.00000000000E+00 0. -1.
         25    1    1    2    0    0 -0.14137911637E+03 -0.15769536792E+03  0.19189357659E+03  0.31193593628E+03  0.12500000000E+03 0.  0.
         25    1    1    2    0    0  0.14137911637E+03  0.15769536792E+03  0.75508995008E+03  0.79412953371E+03  0.12500000000E+03 0.  0.
</event>
<event>
 4    0  0.2151074E-002  0.2643151E+03  0.7546771E-02  0.1104578E+00
         21   -1    0    0  502  501  0.00000000000E+00  0.00000000000E+00  0.30601253854E+03  0.30601253854E+03  0.00000000000E+00 0.  1.
         21   -1    0    0  501  502 -0.00000000000E+00 -0.00000000000E+00 -0.22829932656E+03  0.22829932656E+03  0.00000000000E+00 0.  1.
         25    1    1    2    0    0 -0.15233844382E+03  0.13604002794E+03  0.15196814140E+03  0.28360748698E+03  0.12500000000E+03 0.  0.
         25    1    1    2    0    0  0.15233844382E+03 -0.13604002794E+03 -0.74254929424E+02  0.25070437812E+03  0.12500000000E+03 0.  0.
</event>
<event>
 4    0  0.2151074E-002  0.2548479E+03  0.7546771E-02  0.1110279E+00
         21   -1    0    0  502  501  0.00000000000E+00  0.00000000000E+00  0.14483799120E+04  0.14483799120E+04  0.00000000000E+00 0.  1.
         21   -1    0    0  501  502 -0.00000000000E+00 -0.00000000000E+00 -0.44841435751E+02  0.44841435751E+02  0.00000000000E+00 0.  1.
         25    1    1    2    0    0  0.20678962016E+03 -0.80978499515E+02  0.69672008050E+03  0.74186476865E+03  0.12500000000E+03 0.  0.
         25    1    1    2    0    0 -0.20678962016E+03  0.80978499515E+02  0.70681839571E+03  0.75135657907E+03  0.12500000000E+03 0.  0.
</event>
<event>
 4    0  0.2151074E-002  0.2501970E+03  0.7546771E-02  0.1113180E+00
         21   -1    0    0  502  501  0.00000000000E+00  0.00000000000E+00  0.97843932194E+02  0.97843932194E+02  0.00000000000E+00 0. -1.
         21   -1    0    0  501  502 -0.00000000000E+00 -0.00000000000E+00 -0.63977929454E+03  0.63977929454E+03  0.00000000000E+00 0. -1.
         25    1    1    2    0    0 -0.27457770518E+02 -0.19582561329E+03 -0.40175418722E+03  0.46490109371E+03  0.12500000000E+03 0.  0.
         25    1    1    2    0    0  0.27457770518E+02  0.19582561329E+03 -0.14018117513E+03  0.27272213303E+03  0.12500000000E+03 0.  0.
</event>
<event>
 4    0  0.2151074E-002  0.2743456E+03  0.7546771E-02  0.1098818E+00
         21   -1    0    0  502  501  0.00000000000E+00  0.00000000000E+00  0.25155125021E+03  0.25155125021E+03  0.00000000000E+00 0.  1.
         21   -1    0    0  501  502 -0.00000000000E+00 -0.00000000000E+00 -0.29920541090E+03  0.29920541090E+03  0.00000000000E+00 0.  1.
         25    1    1    2    0    0  0.16867829708E+02  0.24317627526E+03 -0.88959148678E+01  0.27408641307E+03  0.12500000000E+03 0.  0.
         25    1    1    2    0    0 -0.16867829708E+02 -0.24317627526E+03 -0.38758245828E+02  0.27667024804E+03  0.12500000000E+03 0.  0.
</event>
<event>
 4    0  0.2151074E-002  0.2253760E+03  0.7546771E-02  0.1129937E+00
         21   -1    0    0  502  501  0.00000000000E+00  0.00000000000E+00  0.12221107553E+04  0.12221107553E+04  0.00000000000E+00 0. -1.
         21   -1    0    0  501  502 -0.00000000000E+00 -0.00000000000E+00 -0.41562815017E+02  0.41562815017E+02  0.00000000000E+00 0. -1.
         25    1    1    2    0    0  0.17141502982E+03 -0.32356660232E+02  0.78327255517E+03  0.81213974265E+03  0.12500000000E+03 0.  0.
         25    1    1    2    0    0 -0.17141502982E+03  0.32356660232E+02  0.39727538511E+03  0.45153382766E+03  0.12500000000E+03 0.  0.
</event>
<event>
 4    0  0.2151074E-002  0.2127219E+03  0.7546771E-02  0.1139428E+00
         21   -1    0    0  502  501  0.00000000000E+00  0.00000000000E+00  0.10903134534E+04  0.10903134534E+04  0.00000000000E+00 0. -1.
         21   -1    0    0  501  502 -0.00000000000E+00 -0.00000000000E+00 -0.41502386133E+02  0.41502386133E+02  0.00000000000E+00 0. -1.
         25    1    1    2    0    0 -0.23092691898E+02 -0.47927024274E+02  0.95988047750E+03  0.96944613216E+03  0.12500000000E+03 0.  0.
         25    1    1    2    0    0  0.23092691898E+02  0.47927024274E+02  0.88930589759E+02  0.16236970736E+03  0.12500000000E+03 0.  0.
</event>
<event>
 4    0  0.2151074E-002  0.2736708E+03  0.7546771E-02  0.1099197E+00
         21   -1    0    0  502  501  0.00000000000E+00  0.00000000000E+00  0.11327530793E+03  0.11327530793E+03  0.00000000000E+00 0. -1.
         21   -1    0    0  501  502 -0.00000000000E+00 -0.00000000000E+00 -0.66118280665E+03  0.66118280665E+03  0.00000000000E+00 0. -1.
         25    1    1    2    0    0  0.38367926680E+02  0.17762489215E+03 -0.50319223427E+03  0.54940888666E+03  0.12500000000E+03 0.  0.
         25    1    1    2    0    0 -0.38367926680E+02 -0.17762489215E+03 -0.44715264447E+02  0.22504922791E+03  0.12500000000E+03 0.  0.
</event>
<event>
 4    0  0.2151074E-002  0.2997001E+03  0.7546771E-02  0.1085391E+00
         21   -1    0    0  502  501  0.00000000000E+00  0.00000000000E+00  0.20379792294E+04  0.20379792294E+04  0.00000000000E+00 0. -1.
         21   -1    0    0  501  502 -0.00000000000E+00 -0.00000000000E+00 -0.44073145561E+02  0.44073145561E+02  0.00000000000E+00 0. -1.
         25    1    1    2    0    0  0.24497195681E+03  0.75040814776E+02  0.67571409447E+03  0.73338729262E+03  0.12500000000E+03 0.  0.
         25    1    1    2    0    0 -0.24497195681E+03 -0.75040814776E+02  0.13181919894E+04  0.13486650824E+04  0.12500000000E+03 0.  0.
</event>
<event>
 4    0  0.2151074E-002  0.1549571E+03  0.7546771E-02  0.1194511E+00
         21   -1    0    0  502  501  0.00000000000E+00  0.00000000000E+00  0.23530894800E+03  0.23530894800E+03  0.00000000000E+00 0.  1.
         21   -1    0    0  501  502 -0.00000000000E+00 -0.00000000000E+00 -0.10204336468E+03  0.10204336468E+03  0.00000000000E+00 0.  1.
         25    1    1    2    0    0 -0.12604416918E+02  0.37992806253E+00  0.16537011357E+03  0.20768074088E+03  0.12500000000E+03 0.  0.
         25    1    1    2    0    0  0.12604416918E+02 -0.37992806253E+00 -0.32104530244E+02  0.12967157180E+03  0.12500000000E+03 0.  0.
</event>
<event>
 4    0  0.2151074E-002  0.1863999E+03  0.7546771E-02  0.1161749E+00
         21   -1    0    0  502  501  0.00000000000E+00  0.00000000000E+00  0.20179246933E+03  0.20179246933E+03  0.00000000000E+00 0.  1.
         21   -1    0    0  501  502 -0.00000000000E+00 -0.00000000000E+00 -0.17218147951E+03  0.17218147951E+03  0.00000000000E+00 0. -1.
         25    1    1    2    0    0  0.28150827757E+02  0.12925650749E+03  0.55184126229E+02  0.19018412557E+03  0.12500000000E+03 0.  0.
         25    1    1    2    0    0 -0.28150827757E+02 -0.12925650749E+03 -0.25573136405E+02  0.18378982327E+03  0.12500000000E+03 0.  0.
</event>
<event>
 4    0  0.2151074E-002  0.1972524E+03  0.7546771E-02  0.1152078E+00
         21   -1    0    0  502  501  0.00000000000E+00  0.00000000000E+00  0.36869072342E+03  0.36869072342E+03  0.00000000000E+00 0. -1.
         21   -1    0    0  501  502 -0.00000000000E+00 -0.00000000000E+00 -0.10553156894E+03  0.10553156894E+03  0.00000000000E+00 0. -1.
         25    1    1    2    0    0  0.13678882432E+03  0.34126857889E+02  0.20175086186E+03  0.27605114589E+03  0.12500000000E+03 0.  0.
         25    1    1    2    0    0 -0.13678882432E+03 -0.34126857889E+02  0.61408292621E+02  0.19817114647E+03  0.12500000000E+03 0.  0.
</event>
<event>
 4    0  0.2151074E-002  0.1881732E+03  0.7546771E-02  0.1160119E+00
         21   -1    0    0  502  501  0.00000000000E+00  0.00000000000E+00  0.56311000057E+02  0.56311000057E+02  0.00000000000E+00 0.  1.
         21   -1    0    0  501  502 -0.00000000000E+00 -0.00000000000E+00 -0.62881418987E+03  0.62881418987E+03  0.00000000000E+00 0.  1.
         25    1    1    2    0    0  0.31117322058E+02  0.67263234341E+02 -0.50388294013E+03  0.52441934344E+03  0.12500000000E+03 0.  0.
         25    1    1    2    0    0 -0.31117322058E+02 -0.67263234341E+02 -0.68620249679E+02  0.16070584648E+03  0.12500000000E+03 0.  0.
</event>
<event>
 4    0  0.2151074E-002  0.2663225E+03  0.7546771E-02  0.1103403E+00
         21   -1    0    0  502  501  0.00000000000E+00  0.00000000000E+00  0.21034760716E+03  0.21034760716E+03  0.00000000000E+00 0. -1.
         21   -1    0    0  501  502 -0.00000000000E+00 -0.00000000000E+00 -0.33719277189E+03  0.33719277189E+03  0.00000000000E+00 0. -1.
         25    1    1    2    0    0  0.20897846646E+03  0.28773203571E+02 -0.17026564501E+03  0.29852183598E+03  0.12500000000E+03 0.  0.
         25    1    1    2    0    0 -0.20897846646E+03 -0.28773203571E+02  0.43420480279E+02  0.24901854307E+03  0.12500000000E+03 0.  0.
</event>
<event>
 4    0  0.2151074E-002  0.2227601E+03  0.7546771E-02  0.1131842E+00
         21   -1    0    0  502  501  0.00000000000E+00  0.00000000000E+00  0.39552705713E+03  0.39552705713E+03  0.00000000000E+00 0.  1.
         21   -1    0    0  501  502 -0.00000000000E+00 -0.00000000000E+00 -0.12545812590E+03  0.12545812590E+03  0.00000000000E+00 0.  1.
         25    1    1    2    0    0  0.15621394356E+03  0.97076690270E+02  0.15029947145E+03  0.26840568375E+03  0.12500000000E+03 0.  0.
         25    1    1    2    0    0 -0.15621394356E+03 -0.97076690270E+02  0.11976945979E+03  0.25257949927E+03  0.12500000000E+03 0.  0.
</event>
<event>
 4    0  0.2151074E-002  0.2321443E+03  0.7546771E-02  0.1125140E+00
         21   -1    0    0  502  501  0.00000000000E+00  0.00000000000E+00  0.25919210803E+03  0.25919210803E+03  0.00000000000E+00 0. -1.
         21   -1    0    0  501  502 -0.00000000000E+00 -0.00000000000E+00 -0.20791909908E+03  0.20791909908E+03  0.00000000000E+00 0. -1.
         25    1    1    2    0    0 -0.29959609982E+02  0.18014807385E+03 -0.44897352626E+02  0.22581337209E+03  0.12500000000E+03 0.  0.
         25    1    1    2    0    0  0.29959609982E+02 -0.18014807385E+03  0.96170361573E+02  0.24129783502E+03  0.12500000000E+03 0.  0.
</event>
<event>
 4    0  0.2151074E-002  0.1474715E+03  0.7546771E-02  0.1203615E+00
         21   -1    0    0  502  501  0.00000000000E+00  0.00000000000E+00  0.87228674370E+03  0.87228674370E+03  0.00000000000E+00 0.  1.
         21   -1    0    0  501  502 -0.00000000000E+00 -0.00000000000E+00 -0.24931985685E+02  0.24931985685E+02  0.00000000000E+00 0.  1.
         25    1    1    2    0    0  0.23621826942E+02 -0.74342582871E+02  0.44243703946E+03  0.46632643526E+03  0.12500000000E+03 0.  0.
         25    1    1    2    0    0 -0.23621826942E+02  0.74342582871E+02  0.40491771855E+03  0.43089229412E+03  0.12500000000E+03 0.  0.
</event>
<event>
 4    0  0.2151074E-002  0.2116178E+03  0.7546771E-02  0.1140291E+00
         21   -1    0    0  502  501  0.00000000000E+00  0.00000000000E+00  0.47502784493E+03  0.47502784493E+03  0.00000000000E+00 0. -1.
         21   -1    0    0  501  502 -0.00000000000E+00 -0.00000000000E+00 -0.94272543743E+02  0.94272543743E+02  0.00000000000E+00 0. -1.
         25    1    1    2    0    0  0.14055062422E+03  0.60750453396E+02  0.29203832139E+03  0.35264213690E+03  0.12500000000E+03 0.  0.
         25    1    1    2    0    0 -0.14055062422E+03 -0.60750453396E+02  0.88716979797E+02  0.21665825177E+03  0.12500000000E+03 0.  0.
</event>
<event>
 4    0  0.2151074E-002  0.2513312E+03  0.7546771E-02  0.1112466E+00
         21   -1    0    0  502  501  0.00000000000E+00  0.00000000000E+00  0.23098955742E+03  0.23098955742E+03  0.00000000000E+00 0. -1.
         21   -1    0    0  501  502 -0.00000000000E+00 -0.00000000000E+00 -0.27346412059E+03  0.27346412059E+03  0.00000000000E+00 0. -1.
         25    1    1    2    0    0 -0.14269724928E+03  0.48912703365E+02 -0.17923849531E+03  0.26553040448E+03  0.12500000000E+03 0.  0.
         25    1    1    2    0    0  0.14269724928E+03 -0.48912703365E+02  0.13676393214E+03  0.23892327353E+03  0.12500000000E+03 0.  0.
</event>
<event>
 4    0  0.2151074E-002  0.1893197E+03  0.7546771E-02  0.1159076E+00
         21   -1    0    0  502  501  0.00000000000E+00  0.00000000000E+00  0.12841188372E+03  0.12841188372E+03  0.00000000000E+00 0.  1.
         21   -1    0    0  501  502 -0.00000000000E+00 -0.00000000000E+00 -0.27911710025E+03  0.27911710025E+03  0.00000000000E+00 0.  1.
         25    1    1    2    0    0  0.98016764936E+02 -0.56188532085E+02 -0.16826724061E+03  0.23812455062E+03  0.12500000000E+03 0.  0.
         25    1    1    2    0    0 -0.98016764936E+02  0.56188532085E+02  0.17562024086E+02  0.16940443334E+03  0.12500000000E+03 0.  0.
</event>
<event>
 4    0  0.2151074E-002  0.1709023E+03  0.7546771E-02  0.1176910E+00
         21   -1    0    0  502  501  0.00000000000E+00  0.00000000000E+00  0.30445468175E+02  0.30445468175E+02  0.00000000000E+00 0. -1.
         21   -1    0    0  501  502 -0.00000000000E+00 -0.00000000000E+00 -0.95934171951E+03  0.95934171951E+03  0.00000000000E+00 0. -1.
         25    1    1    2    0    0 -0.99539988861E+02  0.31429991797E+02 -0.31435471477E+03  0.35403381261E+03  0.12500000000E+03 0.  0.
         25    1    1    2    0    0  0.99539988861E+02 -0.31429991797E+02 -0.61454153656E+03  0.63575337508E+03  0.12500000000E+03 0.  0.
</event>
<event>
 4    0  0.2151074E-002  0.2230952E+03  0.7546771E-02  0.1131596E+00
         21   -1    0    0  502  501  0.00000000000E+00  0.00000000000E+00  0.47111649656E+03  0.47111649656E+03  0.00000000000E+00 0.  1.
         21   -1    0    0  501  502 -0.00000000000E+00 -0.00000000000E+00 -0.10564575871E+03  0.10564575871E+03  0.00000000000E+00 0.  1.
         25    1    1    2    0    0 -0.10668538673E+03  0.14725826170E+03  0.14026102716E+03  0.26146686811E+03  0.12500000000E+03 0.  0.
         25    1    1    2    0    0  0.10668538673E+03 -0.14725826170E+03  0.22520971068E+03  0.31529538716E+03  0.12500000000E+03 0.  0.
</event>
<event>
 4    0  0.2151074E-002  0.1601658E+03  0.7546771E-02  0.1188510E+00
         21   -1    0    0  502  501  0.00000000000E+00  0.00000000000E+00  0.40192285791E+02  0.40192285791E+02  0.00000000000E+00 0.  1.
         21   -1    0    0  501  502 -0.00000000000E+00 -0.00000000000E+00 -0.63825864968E+03  0.63825864968E+03  0.00000000000E+00 0.  1.
         25    1    1    2    0    0 -0.28588912332E+00  0.10790542925E+02 -0.50989098301E+03  0.52510030671E+03  0.12500000000E+03 0.  0.
         25    1    1    2    0    0  0.28588912332E+00 -0.10790542925E+02 -0.88175380880E+02  0.15335062876E+03  0.12500000000E+03 0.  0.
</event>
<event>
 4    0  0.2151074E-002  0.1794870E+03  0.7546771E-02  0.1168300E+00
         21   -1    0    0  502  501  0.00000000000E+00  0.00000000000E+00  0.22664644319E+03  0.22664644319E+03  0.00000000000E+00 0. -1.
         21   -1    0    0  501  502 -0.00000000000E+00 -0.00000000000E+00 -0.14214019147E+03  0.14214019147E+03  0.00000000000E+00 0. -1.
         25    1    1    2    0    0  0.75922530749E+02 -0.74537948866E+02 -0.32329109615E+02  0.16730304189E+03  0.12500000000E+03 0.  0.
         25    1    1    2    0    0 -0.75922530749E+02  0.74537948866E+02  0.11683536134E+03  0.20148359277E+03  0.12500000000E+03 0.  0.
</event>
<event>
 4    0  0.2151074E-002  0.5517951E+03  0.7546771E-02  0.1001079E+00
         21   -1    0    0  502  501  0.00000000000E+00  0.00000000000E+00  0.83351829754E+03  0.83351829754E+03  0.00000000000E+00 0. -1.
         21   -1    0    0  501  502 -0.00000000000E+00 -0.00000000000E+00 -0.36529237406E+03  0.36529237406E+03  0.00000000000E+00 0. -1.
         25    1    1    2    0    0  0.13141277285E+03  0.40368687351E+03  0.59212577441E+03  0.73923632313E+03  0.12500000000E+03 0.  0.
         25    1    1    2    0    0 -0.13141277285E+03 -0.40368687351E+03 -0.12389985094E+03  0.45957434847E+03  0.12500000000E+03 0.  0.
</event>
<event>
 4    0  0.2151074E-002  0.2101479E+03  0.7546771E-02  0.1141449E+00
         21   -1    0    0  502  501  0.00000000000E+00  0.00000000000E+00  0.81016717930E+03  0.81016717930E+03  0.00000000000E+00 0.  1.
         21   -1    0    0  501  502 -0.00000000000E+00 -0.00000000000E+00 -0.54509927336E+02  0.54509927336E+02  0.00000000000E+00 0.  1.
         25    1    1    2    0    0 -0.14184741121E+03  0.85755568167E+02  0.44488696495E+03  0.49094207105E+03  0.12500000000E+03 0.  0.
         25    1    1    2    0    0  0.14184741121E+03 -0.85755568167E+02  0.31077028701E+03  0.37373503559E+03  0.12500000000E+03 0.  0.
</event>
<event>
 4    0  0.2151074E-002  0.2309018E+03  0.7546771E-02  0.1126007E+00
         21   -1    0    0  502  501  0.00000000000E+00  0.00000000000E+00  0.12879012930E+04  0.12879012930E+04  0.00000000000E+00 0.  1.
         21   -1    0    0  501  502 -0.00000000000E+00 -0.00000000000E+00 -0.41397287824E+02  0.41397287824E+02  0.00000000000E+00 0.  1.
         25    1    1    2    0    0 -0.23162363015E+02  0.12753953495E+03  0.10392694869E+04  0.10547553718E+04  0.12500000000E+03 0.  0.
         25    1    1    2    0    0  0.23162363015E+02 -0.12753953495E+03  0.20723451832E+03  0.27454320902E+03  0.12500000000E+03 0.  0.
</event>
<event>
 4    0  0.2151074E-002  0.1887845E+03  0.7546771E-02  0.1159562E+00
         21   -1    0    0  502  501  0.00000000000E+00  0.00000000000E+00  0.12178826251E+03  0.12178826251E+03  0.00000000000E+00 0. -1.
         21   -1    0    0  501  502 -0.00000000000E+00 -0.00000000000E+00 -0.29263551205E+03  0.29263551205E+03  0.00000000000E+00 0. -1.
         25    1    1    2    0    0 -0.10811357576E+03 -0.74943913901E+02 -0.28290522182E+02  0.18365862119E+03  0.12500000000E+03 0.  0.
         25    1    1    2    0    0  0.10811357576E+03  0.74943913901E+02 -0.14255672735E+03  0.23076515336E+03  0.12500000000E+03 0.  0.
</event>
<event>
 4    0  0.2151074E-002  0.1857867E+03  0.7546771E-02  0.1162317E+00
         21   -1    0    0  502  501  0.00000000000E+00  0.00000000000E+00  0.11500735510E+04  0.11500735510E+04  0.00000000000E+00 0.  1.
         21   -1    0    0  501  502 -0.00000000000E+00 -0.00000000000E+00 -0.30012600379E+02  0.30012600379E+02  0.00000000000E+00 0.  1.
         25    1    1    2    0    0  0.43670531519E+02 -0.11352729127E+03  0.35676841717E+03  0.39711996257E+03  0.12500000000E+03 0.  0.
         25    1    1    2    0    0 -0.43670531519E+02  0.11352729127E+03  0.76329253342E+03  0.78296618877E+03  0.12500000000E+03 0.  0.
</event>
<event>
 4    0  0.2151074E-002  0.2252105E+03  0.7546771E-02  0.1130057E+00
         21   -1    0    0  502  501  0.00000000000E+00  0.00000000000E+00  0.13020638272E+04  0.13020638272E+04  0.00000000000E+00 0. -1.
         21   -1    0    0  501  502 -0.00000000000E+00 -0.00000000000E+00 -0.38953368462E+02  0.38953368462E+02  0.00000000000E+00 0. -1.
         25    1    1    2    0    0 -0.32302017568E+02 -0.17821655626E+03  0.48907538573E+03  0.53630615715E+03  0.12500000000E+03 0.  0.
         25    1    1    2    0    0  0.32302017568E+02  0.17821655626E+03  0.77403507301E+03  0.80471103852E+03  0.12500000000E+03 0.  0.
</event>
<event>
 4    0  0.2151074E-002  0.3769025E+03  0.7546771E-02  0.1052085E+00
         21   -1    0    0  502  501  0.00000000000E+00  0.00000000000E+00  0.42409181298E+03  0.42409181298E+03  0.00000000000E+00 0. -1.
         21   -1    0    0  501  502 -0.00000000000E+00 -0.00000000000E+00 -0.33496407205E+03  0.33496407205E+03  0.00000000000E+00 0.  1.
         25    1    1    2    0    0 -0.32625883289E+03 -0.13911155109E+03  0.19215702032E+02  0.37655158065E+03  0.12500000000E+03 0.  0.
         25    1    1    2    0    0  0.32625883289E+03  0.13911155109E+03  0.69912038892E+02  0.38250430438E+03  0.12500000000E+03 0.  0.
</event>
<event>
 4    0  0.2151074E-002  0.2452583E+03  0.7546771E-02  0.1116339E+00
         21   -1    0    0  502  501  0.00000000000E+00  0.00000000000E+00  0.90219065250E+03  0.90219065250E+03  0.00000000000E+00 0.  1.
         21   -1    0    0  501  502 -0.00000000000E+00 -0.00000000000E+00 -0.66672883276E+02  0.66672883276E+02  0.00000000000E+00 0.  1.
         25    1    1    2    0    0  0.11108428985E+03  0.10786687329E+03  0.13459856282E+03  0.24024311628E+03  0.12500000000E+03 0.  0.
         25    1    1    2    0    0 -0.11108428985E+03 -0.10786687329E+03  0.70091920640E+03  0.72862041949E+03  0.12500000000E+03 0.  0.
</event>
<event>
 4    0  0.2151074E-002  0.3534021E+03  0.7546771E-02  0.1061227E+00
         21   -1    0    0  502  501  0.00000000000E+00  0.00000000000E+00  0.74744236340E+02  0.74744236340E+02  0.00000000000E+00 0. -1.
         21   -1    0    0  501  502 -0.00000000000E+00 -0.00000000000E+00 -0.16709387376E+04  0.16709387376E+04  0.00000000000E+00 0. -1.
         25    1    1    2    0    0  0.93793546648E+02  0.66053911416E+02 -0.15637737799E+04  0.15729506614E+04  0.12500000000E+03 0.  0.
         25    1    1    2    0    0 -0.93793546648E+02 -0.66053911416E+02 -0.32420721348E+02  0.17273231249E+03  0.12500000000E+03 0.  0.
</event>
<event>
 4    0  0.2151074E-002  0.2521856E+03  0.7546771E-02  0.1111931E+00
         21   -1    0    0  502  501  0.00000000000E+00  0.00000000000E+00  0.12329267098E+04  0.12329267098E+04  0.00000000000E+00 0. -1.
         21   -1    0    0  501  502 -0.00000000000E+00 -0.00000000000E+00 -0.51582596948E+02  0.51582596948E+02  0.00000000000E+00 0. -1.
         25    1    1    2    0    0 -0.15195523603E+03  0.11936165262E+03  0.85330852652E+03  0.88379751035E+03  0.12500000000E+03 0.  0.
         25    1    1    2    0    0  0.15195523603E+03 -0.11936165262E+03  0.32803558637E+03  0.40071179643E+03  0.12500000000E+03 0.  0.
</event>
<event>
 4    0  0.2151074E-002  0.2209584E+03  0.7546771E-02  0.1133171E+00
         21   -1    0    0  502  501  0.00000000000E+00  0.00000000000E+00  0.40889078046E+03  0.40889078046E+03  0.00000000000E+00 0.  1.
         21   -1    0    0  501  502 -0.00000000000E+00 -0.00000000000E+00 -0.11940254792E+03  0.11940254792E+03  0.00000000000E+00 0.  1.
         25    1    1    2    0    0 -0.11981466360E+02 -0.82449294184E+02  0.33845332809E+03  0.37029325803E+03  0.12500000000E+03 0.  0.
         25    1    1    2    0    0  0.11981466360E+02  0.82449294184E+02 -0.48965095552E+02  0.15800007035E+03  0.12500000000E+03 0.  0.
</event>
<event>
 4    0  0.2151074E-002  0.1734505E+03  0.7546771E-02  0.1174297E+00
         21   -1    0    0  502  501  0.00000000000E+00  0.00000000000E+00  0.56174593283E+03  0.56174593283E+03  0.00000000000E+00 0. -1.
         21   -1    0    0  501  502 -0.00000000000E+00 -0.00000000000E+00 -0.53556345683E+02  0.53556345683E+02  0.00000000000E+00 0. -1.
         25    1    1    2    0    0 -0.54850956218E+02  0.98057065585E+02  0.33010086213E+03  0.37042596384E+03  0.12500000000E+03 0.  0.
         25    1    1    2    0    0  0.54850956218E+02 -0.98057065585E+02  0.17808872502E+03  0.24487631467E+03  0.12500000000E+03 0.  0.
</event>
<event>
 4    0  0.2151074E-002  0.1914758E+03  0.7546771E-02  0.1157137E+00
         21   -1    0    0  502  501  0.00000000000E+00  0.00000000000E+00  0.68565194770E+03  0.68565194770E+03  0.00000000000E+00 0. -1.
         21   -1    0    0  501  502 -0.00000000000E+00 -0.00000000000E+00 -0.53471701742E+02  0.53471701742E+02  0.00000000000E+00 0. -1.
         25    1    1    2    0    0  0.25730089427E+02 -0.14257172547E+03  0.30254630013E+03  0.35797765032E+03  0.12500000000E+03 0.  0.
         25    1    1    2    0    0 -0.25730089427E+02  0.14257172547E+03  0.32963394582E+03  0.38114599912E+03  0.12500000000E+03 0.  0.
</event>
<event>
 4    0  0.2151074E-002  0.2138866E+03  0.7546771E-02  0.1138525E+00
         21   -1    0    0  502  501  0.00000000000E+00  0.00000000000E+00  0.93148273554E+03  0.93148273554E+03  0.00000000000E+00 0.  1.
         21   -1    0    0  501  502 -0.00000000000E+00 -0.00000000000E+00 -0.49112529127E+02  0.49112529127E+02  0.00000000000E+00 0.  1.
         25    1    1    2    0    0 -0.61532441698E+02 -0.11834945457E+03  0.69572238844E+03  0.71933822125E+03  0.12500000000E+03 0.  0.
         25    1    1    2    0    0  0.61532441698E+02  0.11834945457E+03  0.18664781797E+03  0.26125704342E+03  0.12500000000E+03 0.  0.
</event>
<event>
 4    0  0.2151074E-002  0.1975892E+03  0.7546771E-02  0.1151789E+00
         21   -1    0    0  502  501  0.00000000000E+00  0.00000000000E+00  0.44920814101E+03  0.44920814101E+03  0.00000000000E+00 0. -1.
         21   -1    0    0  501  502 -0.00000000000E+00 -0.00000000000E+00 -0.86911837201E+02  0.86911837201E+02  0.00000000000E+00 0. -1.
         25    1    1    2    0    0  0.80095682625E+02  0.12414931311E+03  0.12708363071E+03  0.23152455489E+03  0.12500000000E+03 0.  0.
         25    1    1    2    0    0 -0.80095682625E+02 -0.12414931311E+03  0.23521267310E+03  0.30459542333E+03  0.12500000000E+03 0.  0.
</event>
<event>
 4    0  0.2151074E-002  0.2095627E+03  0.7546771E-02  0.1141913E+00
         21   -1    0    0  502  501  0.00000000000E+00  0.00000000000E+00  0.94979923164E+02  0.94979923164E+02  0.00000000000E+00 0.  1.
         21   -1    0    0  501  502 -0.00000000000E+00 -0.00000000000E+00 -0.46237697537E+03  0.46237697537E+03  0.00000000000E+00 0.  1.
         25    1    1    2    0    0 -0.93557396979E+02 -0.12553215186E+03 -0.10193718130E+03  0.22478322137E+03  0.12500000000E+03 0.  0.
         25    1    1    2    0    0  0.93557396979E+02  0.12553215186E+03 -0.26545987090E+03  0.33257367716E+03  0.12500000000E+03 0.  0.
</event>
<event>
 4    0  0.2151074E-002  0.3285755E+03  0.7546771E-02  0.1071769E+00
         21   -1    0    0  502  501  0.00000000000E+00  0.00000000000E+00  0.86488071237E+03  0.86488071237E+03  0.00000000000E+00 0.  1.
         21   -1    0    0  501  502 -0.00000000000E+00 -0.00000000000E+00 -0.12482863314E+03  0.12482863314E+03  0.00000000000E+00 0.  1.
         25    1    1    2    0    0 -0.85069567530E+01  0.22475975726E+03  0.62304417855E+02  0.26475678892E+03  0.12500000000E+03 0.  0.
         25    1    1    2    0    0  0.85069567530E+01 -0.22475975726E+03  0.67774766137E+03  0.72495255658E+03  0.12500000000E+03 0.  0.
</event>
<event>
 4    0  0.2151074E-002  0.3677619E+03  0.7546771E-02  0.1055552E+00
         21   -1    0    0  502  501  0.00000000000E+00  0.00000000000E+00  0.11077201364E+04  0.11077201364E+04  0.00000000000E+00 0. -1.
         21   -1    0    0  501  502 -0.00000000000E+00 -0.00000000000E+00 -0.12209658490E+03  0.12209658490E+03  0.00000000000E+00 0. -1.
         25    1    1    2    0    0 -0.32450582046E+03 -0.86400093792E+02  0.35437791288E+03  0.50396201132E+03  0.12500000000E+03 0.  0.
         25    1    1    2    0    0  0.32450582046E+03  0.86400093792E+02  0.63124563859E+03  0.72585470995E+03  0.12500000000E+03 0.  0.
</event>
<event>
 4    0  0.2151074E-002  0.2567396E+03  0.7546771E-02  0.1109118E+00
         21   -1    0    0  502  501  0.00000000000E+00  0.00000000000E+00  0.14577952381E+03  0.14577952381E+03  0.00000000000E+00 0.  1.
         21   -1    0    0  501  502 -0.00000000000E+00 -0.00000000000E+00 -0.45215697981E+03  0.45215697981E+03  0.00000000000E+00 0.  1.
         25    1    1    2    0    0 -0.14691471579E+03 -0.11563499937E+03 -0.89865409089E+01  0.22508030725E+03  0.12500000000E+03 0.  0.
         25    1    1    2    0    0  0.14691471579E+03  0.11563499937E+03 -0.29739091509E+03  0.37285619637E+03  0.12500000000E+03 0.  0.
</event>
<event>
 4    0  0.2151074E-002  0.2272540E+03  0.7546771E-02  0.1128588E+00
         21   -1    0    0  502  501  0.00000000000E+00  0.00000000000E+00  0.28004252890E+03  0.28004252890E+03  0.00000000000E+00 0. -1.
         21   -1    0    0  501  502 -0.00000000000E+00 -0.00000000000E+00 -0.18441619350E+03  0.18441619350E+03  0.00000000000E+00 0. -1.
         25    1    1    2    0    0  0.38606207168E+02 -0.16503750999E+03  0.13507328259E+03  0.25019514505E+03  0.12500000000E+03 0.  0.
         25    1    1    2    0    0 -0.38606207168E+02  0.16503750999E+03 -0.39446947197E+02  0.21426357735E+03  0.12500000000E+03 0.  0.
</event>
<event>
 4    0  0.2151074E-002  0.2537029E+03  0.7546771E-02  0.1110987E+00
         21   -1    0    0  502  501  0.00000000000E+00  0.00000000000E+00  0.11414540265E+04  0.11414540265E+04  0.00000000000E+00 0.  1.
         21   -1    0    0  501  502 -0.00000000000E+00 -0.00000000000E+00 -0.56388740978E+02  0.56388740978E+02  0.00000000000E+00 0.  1.
         25    1    1    2    0    0  0.11741890308E+03 -0.17981244526E+03  0.66337845766E+03  0.70838950610E+03  0.12500000000E+03 0.  0.
         25    1    1    2    0    0 -0.11741890308E+03  0.17981244526E+03  0.42168682782E+03  0.48945326133E+03  0.12500000000E+03 0.  0.
</event>
<event>
 4    0  0.2151074E-002  0.2349644E+03  0.7546771E-02  0.1123194E+00
         21   -1    0    0  502  501  0.00000000000E+00  0.00000000000E+00  0.62364078322E+03  0.62364078322E+03  0.00000000000E+00 0. -1.
         21   -1    0    0  501  502 -0.00000000000E+00 -0.00000000000E+00 -0.88525761565E+02  0.88525761565E+02  0.00000000000E+00 0. -1.
         25    1    1    2    0    0  0.88277704286E+02  0.33537597982E+02  0.21734263788E+01  0.15667625007E+03  0.12500000000E+03 0.  0.
         25    1    1    2    0    0 -0.88277704286E+02 -0.33537597982E+02  0.53294159527E+03  0.55549029471E+03  0.12500000000E+03 0.  0.
</event>
<event>
 4    0  0.2151074E-002  0.3271740E+03  0.7546771E-02  0.1072394E+00
         21   -1    0    0  502  501  0.00000000000E+00  0.00000000000E+00  0.49107798832E+02  0.49107798832E+02  0.00000000000E+00 0.  1.
         21   -1    0    0  501  502 -0.00000000000E+00 -0.00000000000E+00 -0.21797521486E+04  0.21797521486E+04  0.00000000000E+00 0.  1.
         25    1    1    2    0    0  0.46521486749E+02  0.28931333859E+03 -0.81153234577E+03  0.87182349409E+03  0.12500000000E+03 0.  0.
         25    1    1    2    0    0 -0.46521486749E+02 -0.28931333859E+03 -0.13191120040E+04  0.13570364534E+04  0.12500000000E+03 0.  0.
</event>
<event>
 4    0  0.2151074E-002  0.1752780E+03  0.7546771E-02  0.1172453E+00
         21   -1    0    0  502  501  0.00000000000E+00  0.00000000000E+00  0.13179096685E+03  0.13179096685E+03  0.00000000000E+00 0.  1.
         21   -1    0    0  501  502 -0.00000000000E+00 -0.00000000000E+00 -0.23311453670E+03  0.23311453670E+03  0.00000000000E+00 0.  1.
         25    1    1    2    0    0  0.56136353345E+02  0.21165526710E+02 -0.16228032692E+03  0.21344595146E+03  0.12500000000E+03 0.  0.
         25    1    1    2    0    0 -0.56136353345E+02 -0.21165526710E+02  0.60956757069E+02  0.15145955209E+03  0.12500000000E+03 0.  0.
</event>
<event>
 4    0  0.2151074E-002  0.1970129E+03  0.7546771E-02  0.1152284E+00
         21   -1    0    0  502  501  0.00000000000E+00  0.00000000000E+00  0.17854501377E+03  0.17854501377E+03  0.00000000000E+00 0. -1.
         21   -1    0    0  501  502 -0.00000000000E+00 -0.00000000000E+00 -0.21739105446E+03  0.21739105446E+03  0.00000000000E+00 0. -1.
         25    1    1    2    0    0 -0.11427567543E+03 -0.61931963272E+01 -0.12036800766E+03  0.20787193881E+03  0.12500000000E+03 0.  0.
         25    1    1    2    0    0  0.11427567543E+03  0.61931963272E+01  0.81521966979E+02  0.18806412942E+03  0.12500000000E+03 0.  0.
</event>
<event>
 4    0  0.2151074E-002  0.2986037E+03  0.7546771E-02  0.1085941E+00
         21   -1    0    0  502  501  0.00000000000E+00  0.00000000000E+00  0.36936273333E+03  0.36936273333E+03  0.00000000000E+00 0.  1.
         21   -1    0    0  501  502 -0.00000000000E+00 -0.00000000000E+00 -0.24140002740E+03  0.24140002740E+03  0.00000000000E+00 0.  1.
         25    1    1    2    0    0 -0.11042039489E+03 -0.14902684486E+03  0.26630374622E+03  0.34777054123E+03  0.12500000000E+03 0.  0.
         25    1    1    2    0    0  0.11042039489E+03  0.14902684486E+03 -0.13834104028E+03  0.26299221951E+03  0.12500000000E+03 0.  0.
</event>
<event>
 4    0  0.2151074E-002  0.2369032E+03  0.7546771E-02  0.1121873E+00
         21   -1    0    0  502  501  0.00000000000E+00  0.00000000000E+00  0.14566076383E+03  0.14566076383E+03  0.00000000000E+00 0.  1.
         21   -1    0    0  501  502 -0.00000000000E+00 -0.00000000000E+00 -0.38530016540E+03  0.38530016540E+03  0.00000000000E+00 0.  1.
         25    1    1    2    0    0  0.18466881872E+02  0.12976385646E+03  0.51304468872E+02  0.18824673356E+03  0.12500000000E+03 0.  0.
         25    1    1    2    0    0 -0.18466881872E+02 -0.12976385646E+03 -0.29094387044E+03  0.34271419567E+03  0.12500000000E+03 0.  0.
</event>
<event>
 4    0  0.2151074E-002  0.2223083E+03  0.7546771E-02  0.1132174E+00
         21   -1    0    0  502  501  0.00000000000E+00  0.00000000000E+00  0.25993752560E+03  0.25993752560E+03  0.00000000000E+00 0.  1.
         21   -1    0    0  501  502 -0.00000000000E+00 -0.00000000000E+00 -0.19012630858E+03  0.19012630858E+03  0.00000000000E+00 0.  1.
         25    1    1    2    0    0 -0.42554894609E+02  0.10295092612E+03 -0.11312612522E+03  0.20207011766E+03  0.12500000000E+03 0.  0.
         25    1    1    2    0    0  0.42554894609E+02 -0.10295092612E+03  0.18293734224E+03  0.24799371652E+03  0.12500000000E+03 0.  0.
</event>
<event>
 4    0  0.2151074E-002  0.2902491E+03  0.7546771E-02  0.1090219E+00
         21   -1    0    0  502  501  0.00000000000E+00  0.00000000000E+00  0.98461662506E+02  0.98461662506E+02  0.00000000000E+00 0. -1.
         21   -1    0    0  501  502 -0.00000000000E+00 -0.00000000000E+00 -0.85560752626E+03  0.85560752626E+03  0.00000000000E+00 0. -1.
         25    1    1    2    0    0 -0.14345628442E+03 -0.20077373308E+03 -0.52307081857E+03  0.59170759559E+03  0.12500000000E+03 0.  0.
         25    1    1    2    0    0  0.14345628442E+03  0.20077373308E+03 -0.23407504518E+03  0.36236159318E+03  0.12500000000E+03 0.  0.
</event>
<event>
 4    0  0.2151074E-002  0.1893486E+03  0.7546771E-02  0.1159050E+00
         21   -1    0    0  502  501  0.00000000000E+00  0.00000000000E+00  0.13126658559E+03  0.13126658559E+03  0.00000000000E+00 0. -1.
         21   -1    0    0  501  502 -0.00000000000E+00 -0.00000000000E+00 -0.27313043883E+03  0.27313043883E+03  0.00000000000E+00 0. -1.
         25    1    1    2    0    0  0.71370229541E+02 -0.48516193247E+02  0.49790377081E+02  0.15984871699E+03  0.12500000000E+03 0.  0.
         25    1    1    2    0    0 -0.71370229541E+02  0.48516193247E+02 -0.19165423032E+03  0.24454830744E+03  0.12500000000E+03 0.  0.
</event>
<event>
 4    0  0.2151074E-002  0.3771179E+03  0.7546771E-02  0.1052004E+00
         21   -1    0    0  502  501  0.00000000000E+00  0.00000000000E+00  0.11384891389E+04  0.11384891389E+04  0.00000000000E+00 0. -1.
         21   -1    0    0  501  502 -0.00000000000E+00 -0.00000000000E+00 -0.12491813005E+03  0.12491813005E+03  0.00000000000E+00 0. -1.
         25    1    1    2    0    0  0.98746774274E+02  0.27721634187E+03  0.84177313738E+03  0.90044813313E+03  0.12500000000E+03 0.  0.
         25    1    1    2    0    0 -0.98746774274E+02 -0.27721634187E+03  0.17179787145E+03  0.36295913581E+03  0.12500000000E+03 0.  0.
</event>
<event>
 4    0  0.2151074E-002  0.1906851E+03  0.7546771E-02  0.1157845E+00
         21   -1    0    0  502  501  0.00000000000E+00  0.00000000000E+00  0.26638874942E+03  0.26638874942E+03  0.00000000000E+00 0. -1.
         21   -1    0    0  501  502 -0.00000000000E+00 -0.00000000000E+00 -0.13649535204E+03  0.13649535204E+03  0.00000000000E+00 0. -1.
         25    1    1    2    0    0 -0.27395701005E+02 -0.11543185211E+03  0.15116433419E+03  0.22923937892E+03  0.12500000000E+03 0.  0.
         25    1    1    2    0    0  0.27395701005E+02  0.11543185211E+03 -0.21270936801E+02  0.17364472255E+03  0.12500000000E+03 0.  0.
</event>
<event>
 4    0  0.2151074E-002  0.2425836E+03  0.7546771E-02  0.1118084E+00
         21   -1    0    0  502  501  0.00000000000E+00  0.00000000000E+00  0.13586437049E+03  0.13586437049E+03  0.00000000000E+00 0.  1.
         21   -1    0    0  501  502 -0.00000000000E+00 -0.00000000000E+00 -0.43312909171E+03  0.43312909171E+03  0.00000000000E+00 0.  1.
         25    1    1    2    0    0  0.10680261090E+03  0.17136773824E+03 -0.90605182262E+02  0.25418103481E+03  0.12500000000E+03 0.  0.
         25    1    1    2    0    0 -0.10680261090E+03 -0.17136773824E+03 -0.20665953895E+03  0.31481242740E+03  0.12500000000E+03 0.  0.
</event>
<event>
 4    0  0.2151074E-002  0.2273945E+03  0.7546771E-02  0.1128487E+00
         21   -1    0    0  502  501  0.00000000000E+00  0.00000000000E+00  0.16221101033E+04  0.16221101033E+04  0.00000000000E+00 0. -1.
         21   -1    0    0  501  502 -0.00000000000E+00 -0.00000000000E+00 -0.31877143954E+02  0.31877143954E+02  0.00000000000E+00 0. -1.
         25    1    1    2    0    0  0.13229225506E+03  0.94149005952E+02  0.43659937954E+03  0.48229585763E+03  0.12500000000E+03 0.  0.
         25    1    1    2    0    0 -0.13229225506E+03 -0.94149005952E+02  0.11536335798E+04  0.11716913897E+04  0.12500000000E+03 0.  0.
</event>
<event>
 4    0  0.2151074E-002  0.2563412E+03  0.7546771E-02  0.1109362E+00
         21   -1    0    0  502  501  0.00000000000E+00  0.00000000000E+00  0.34628842703E+03  0.34628842703E+03  0.00000000000E+00 0. -1.
         21   -1    0    0  501  502 -0.00000000000E+00 -0.00000000000E+00 -0.18975750818E+03  0.18975750818E+03  0.00000000000E+00 0. -1.
         25    1    1    2    0    0  0.10185685700E+03 -0.64153861182E+02 -0.11899944074E+03  0.21041959063E+03  0.12500000000E+03 0.  0.
         25    1    1    2    0    0 -0.10185685700E+03  0.64153861182E+02  0.27553035959E+03  0.32562634457E+03  0.12500000000E+03 0.  0.
</event>
<event>
 4    0  0.2151074E-002  0.2734442E+03  0.7546771E-02  0.1099324E+00
         21   -1    0    0  502  501  0.00000000000E+00  0.00000000000E+00  0.12045049503E+03  0.12045049503E+03  0.00000000000E+00 0.  1.
         21   -1    0    0  501  502 -0.00000000000E+00 -0.00000000000E+00 -0.62076738604E+03  0.62076738604E+03  0.00000000000E+00 0.  1.
         25    1    1    2    0    0 -0.12308813700E+03  0.10373515743E+03 -0.30739876962E+01  0.20382865784E+03  0.12500000000E+03 0.  0.
         25    1    1    2    0    0  0.12308813700E+03 -0.10373515743E+03 -0.49724290331E+03  0.53738922324E+03  0.12500000000E+03 0.  0.
</event>
<event>
 4    0  0.2151074E-002  0.1922950E+03  0.7546771E-02  0.1156408E+00
         21   -1    0    0  502  501  0.00000000000E+00  0.00000000000E+00  0.28266966850E+02  0.28266966850E+02  0.00000000000E+00 0.  1.
         21   -1    0    0  501  502 -0.00000000000E+00 -0.00000000000E+00 -0.13081472075E+04  0.13081472075E+04  0.00000000000E+00 0.  1.
         25    1    1    2    0    0  0.10199747378E+03 -0.61055641329E+02 -0.34465322461E+03  0.38541162570E+03  0.12500000000E+03 0.  0.
         25    1    1    2    0    0 -0.10199747378E+03  0.61055641329E+02 -0.93522701603E+03  0.95100254863E+03  0.12500000000E+03 0.  0.
</event>
<event>
 4    0  0.2151074E-002  0.3820394E+03  0.7546771E-02  0.1050183E+00
         21   -1    0    0  502  501  0.00000000000E+00  0.00000000000E+00  0.21569970821E+03  0.21569970821E+03  0.00000000000E+00 0. -1.
         21   -1    0    0  501  502 -0.00000000000E+00 -0.00000000000E+00 -0.67665413991E+03  0.67665413991E+03  0.00000000000E+00 0. -1.
         25    1    1    2    0    0 -0.11324842999E+03  0.16338612793E+03 -0.58241272090E+03  0.62797277899E+03  0.12500000000E+03 0.  0.
         25    1    1    2    0    0  0.11324842999E+03 -0.16338612793E+03  0.12145828920E+03  0.26438106912E+03  0.12500000000E+03 0.  0.
</event>
<event>
 4    0  0.2151074E-002  0.1314634E+03  0.7546771E-02  0.1225300E+00
         21   -1    0    0  502  501  0.00000000000E+00  0.00000000000E+00  0.10448175409E+03  0.10448175409E+03  0.00000000000E+00 0.  1.
         21   -1    0    0  501  502 -0.00000000000E+00 -0.00000000000E+00 -0.16541292162E+03  0.16541292162E+03  0.00000000000E+00 0.  1.
         25    1    1    2    0    0  0.32399763765E+02  0.23422634242E+02 -0.22563011695E+02  0.13316326064E+03  0.12500000000E+03 0.  0.
         25    1    1    2    0    0 -0.32399763765E+02 -0.23422634242E+02 -0.38368155833E+02  0.13673141508E+03  0.12500000000E+03 0.  0.
</event>
<event>
 4    0  0.2151074E-002  0.2022264E+03  0.7546771E-02  0.1147874E+00
         21   -1    0    0  502  501  0.00000000000E+00  0.00000000000E+00  0.15904410032E+03  0.15904410032E+03  0.00000000000E+00 0.  1.
         21   -1    0    0  501  502 -0.00000000000E+00 -0.00000000000E+00 -0.25713317002E+03  0.25713317002E+03  0.00000000000E+00 0.  1.
         25    1    1    2    0    0  0.39001253723E+02  0.14976441086E+03 -0.86430070103E+02  0.21690005433E+03  0.12500000000E+03 0.  0.
         25    1    1    2    0    0 -0.39001253723E+02 -0.14976441086E+03 -0.11658999600E+02  0.19927721601E+03  0.12500000000E+03 0.  0.
</event>
<event>
 4    0  0.2151074E-002  0.2218190E+03  0.7546771E-02  0.1132534E+00
         21   -1    0    0  502  501  0.00000000000E+00  0.00000000000E+00  0.12326377058E+03  0.12326377058E+03  0.00000000000E+00 0. -1.
         21   -1    0    0  501  502 -0.00000000000E+00 -0.00000000000E+00 -0.39917390842E+03  0.39917390842E+03  0.00000000000E+00 0. -1.
         25    1    1    2    0    0  0.11309282497E+03  0.14805324870E+02 -0.30685035463E+03  0.35041593120E+03  0.12500000000E+03 0.  0.
         25    1    1    2    0    0 -0.11309282497E+03 -0.14805324870E+02  0.30940216784E+02  0.17202174780E+03  0.12500000000E+03 0.  0.
</event>
<event>
 4    0  0.2151074E-002  0.2792704E+03  0.7546771E-02  0.1096088E+00
         21   -1    0    0  502  501  0.00000000000E+00  0.00000000000E+00  0.30865385689E+02  0.30865385689E+02  0.00000000000E+00 0. -1.
         21   -1    0    0  501  502 -0.00000000000E+00 -0.00000000000E+00 -0.25268414552E+04  0.25268414552E+04  0.00000000000E+00 0. -1.
         25    1    1    2    0    0 -0.24568117415E+03 -0.17030161528E+02 -0.14377747586E+04  0.14640596033E+04  0.12500000000E+03 0.  0.
         25    1    1    2    0    0  0.24568117415E+03  0.17030161528E+02 -0.10582013110E+04  0.10936472376E+04  0.12500000000E+03 0.  0.
</event>
<event>
 4    0  0.2151074E-002  0.5166069E+03  0.7546771E-02  0.1009533E+00
         21   -1    0    0  502  501  0.00000000000E+00  0.00000000000E+00  0.15090712070E+04  0.15090712070E+04  0.00000000000E+00 0.  1.
         21   -1    0    0  501  502 -0.00000000000E+00 -0.00000000000E+00 -0.17685228008E+03  0.17685228008E+03  0.00000000000E+00 0.  1.
         25    1    1    2    0    0 -0.72426795296E+01 -0.48581441093E+01  0.14838990964E+04  0.14891801726E+04  0.12500000000E+03 0.  0.
         25    1    1    2    0    0  0.72426795296E+01  0.48581441093E+01 -0.15168016953E+03  0.19674331450E+03  0.12500000000E+03 0.  0.
</event>
<event>
 4    0  0.2151074E-002  0.3114504E+03  0.7546771E-02  0.1079653E+00
         21   -1    0    0  502  501  0.00000000000E+00  0.00000000000E+00  0.82041907644E+03  0.82041907644E+03  0.00000000000E+00 0.  1.
         21   -1    0    0  501  502 -0.00000000000E+00 -0.00000000000E+00 -0.11823389664E+03  0.11823389664E+03  0.00000000000E+00 0.  1.
         25    1    1    2    0    0 -0.70746507205E+02  0.25669746971E+03  0.19684483275E+03  0.35393720830E+03  0.12500000000E+03 0.  0.
         25    1    1    2    0    0  0.70746507205E+02 -0.25669746971E+03  0.50534034705E+03  0.58471576479E+03  0.12500000000E+03 0.  0.
</event>
<event>
 4    0  0.2151074E-002  0.2328693E+03  0.7546771E-02  0.1124636E+00
         21   -1    0    0  502  501  0.00000000000E+00  0.00000000000E+00  0.22375534723E+02  0.22375534723E+02  0.00000000000E+00 0. -1.
         21   -1    0    0  501  502 -0.00000000000E+00 -0.00000000000E+00 -0.24235442026E+04  0.24235442026E+04  0.00000000000E+00 0. -1.
         25    1    1    2    0    0  0.12445658505E+03 -0.13429631569E+03 -0.15748267595E+04  0.15903550749E+04  0.12500000000E+03 0.  0.
         25    1    1    2    0    0 -0.12445658505E+03  0.13429631569E+03 -0.82634190842E+03  0.85556466242E+03  0.12500000000E+03 0.  0.
</event>
<event>
 4    0  0.2151074E-002  0.1479276E+03  0.7546771E-02  0.1203043E+00
         21   -1    0    0  502  501  0.00000000000E+00  0.00000000000E+00  0.42251350344E+03  0.42251350344E+03  0.00000000000E+00 0.  1.
         21   -1    0    0  501  502 -0.00000000000E+00 -0.00000000000E+00 -0.51791429297E+02  0.51791429297E+02  0.00000000000E+00 0.  1.
         25    1    1    2    0    0  0.72051319964E+02  0.20690841990E+02  0.14486485079E+03  0.20550019135E+03  0.12500000000E+03 0.  0.
         25    1    1    2    0    0 -0.72051319964E+02 -0.20690841990E+02  0.22585722336E+03  0.26880474139E+03  0.12500000000E+03 0.  0.
</event>
<event>
 4    0  0.2151074E-002  0.1836869E+03  0.7546771E-02  0.1164282E+00
         21   -1    0    0  502  501  0.00000000000E+00  0.00000000000E+00  0.15714692942E+03  0.15714692942E+03  0.00000000000E+00 0.  1.
         21   -1    0    0  501  502 -0.00000000000E+00 -0.00000000000E+00 -0.21470900894E+03  0.21470900894E+03  0.00000000000E+00 0.  1.
         25    1    1    2    0    0  0.61379273643E+02  0.41257164949E+02 -0.14260881690E+03  0.20354813571E+03  0.12500000000E+03 0.  0.
         25    1    1    2    0    0 -0.61379273643E+02 -0.41257164949E+02  0.85046737381E+02  0.16830780265E+03  0.12500000000E+03 0.  0.
</event>
<event>
 4    0  0.2151074E-002  0.1885064E+03  0.7546771E-02  0.1159815E+00
         21   -1    0    0  502  501  0.00000000000E+00  0.00000000000E+00  0.37536220307E+03  0.37536220307E+03  0.00000000000E+00 0.  1.
         21   -1    0    0  501  502 -0.00000000000E+00 -0.00000000000E+00 -0.94667645616E+02  0.94667645616E+02  0.00000000000E+00 0.  1.
         25    1    1    2    0    0 -0.11851455910E+03 -0.70138023591E+02  0.10202985239E+03  0.21213234985E+03  0.12500000000E+03 0.  0.
         25    1    1    2    0    0  0.11851455910E+03  0.70138023591E+02  0.17866470506E+03  0.25789749884E+03  0.12500000000E+03 0.  0.
</event>
<event>
 4    0  0.2151074E-002  0.1793235E+03  0.7546771E-02  0.1168459E+00
         21   -1    0    0  502  501  0.00000000000E+00  0.00000000000E+00  0.52591058604E+03  0.52591058604E+03  0.00000000000E+00 0.  1.
         21   -1    0    0  501  502 -0.00000000000E+00 -0.00000000000E+00 -0.61145220466E+02  0.61145220466E+02  0.00000000000E+00 0.  1.
         25    1    1    2    0    0  0.93118588162E+02 -0.72311898244E+02  0.31635606441E+03  0.36000866876E+03  0.12500000000E+03 0.  0.
         25    1    1    2    0    0 -0.93118588162E+02  0.72311898244E+02  0.14840930116E+03  0.22704713775E+03  0.12500000000E+03 0.  0.
</event>
<event>
 4    0  0.2151074E-002  0.1703094E+03  0.7546771E-02  0.1177526E+00
         21   -1    0    0  502  501  0.00000000000E+00  0.00000000000E+00  0.29774197443E+02  0.29774197443E+02  0.00000000000E+00 0. -1.
         21   -1    0    0  501  502 -0.00000000000E+00 -0.00000000000E+00 -0.97417487375E+03  0.97417487375E+03  0.00000000000E+00 0. -1.
         25    1    1    2    0    0 -0.85917317901E+01 -0.11459209274E+03 -0.51120333696E+03  0.53866410433E+03  0.12500000000E+03 0.  0.
         25    1    1    2    0    0  0.85917317901E+01  0.11459209274E+03 -0.43319733935E+03  0.46528496686E+03  0.12500000000E+03 0.  0.
</event>
<event>
 4    0  0.2151074E-002  0.3214193E+03  0.7546771E-02  0.1074998E+00
         21   -1    0    0  502  501  0.00000000000E+00  0.00000000000E+00  0.10806721338E+03  0.10806721338E+03  0.00000000000E+00 0. -1.
         21   -1    0    0  501  502 -0.00000000000E+00 -0.00000000000E+00 -0.95598238104E+03  0.95598238104E+03  0.00000000000E+00 0. -1.
         25    1    1    2    0    0  0.11261119971E+03  0.25861099637E+03 -0.57315324619E+03  0.65091518139E+03  0.12500000000E+03 0.  0.
         25    1    1    2    0    0 -0.11261119971E+03 -0.25861099637E+03 -0.27476192147E+03  0.41313441304E+03  0.12500000000E+03 0.  0.
</event>
<event>
 4    0  0.2151074E-002  0.2324613E+03  0.7546771E-02  0.1124919E+00
         21   -1    0    0  502  501  0.00000000000E+00  0.00000000000E+00  0.83851972725E+02  0.83851972725E+02  0.00000000000E+00 0.  1.
         21   -1    0    0  501  502 -0.00000000000E+00 -0.00000000000E+00 -0.64444798569E+03  0.64444798569E+03  0.00000000000E+00 0.  1.
         25    1    1    2    0    0 -0.12364768408E+03 -0.14292016252E+03 -0.36167016139E+03  0.42678475637E+03  0.12500000000E+03 0.  0.
         25    1    1    2    0    0  0.12364768408E+03  0.14292016252E+03 -0.19892585158E+03  0.30151520204E+03  0.12500000000E+03 0.  0.
</event>
<event>
 4    0  0.2151074E-002  0.1504824E+03  0.7546771E-02  0.1199881E+00
         21   -1    0    0  502  501  0.00000000000E+00  0.00000000000E+00  0.15088033152E+03  0.15088033152E+03  0.00000000000E+00 0.  1.
         21   -1    0    0  501  502 -0.00000000000E+00 -0.00000000000E+00 -0.15008561687E+03  0.15008561687E+03  0.00000000000E+00 0.  1.
         25    1    1    2    0    0  0.53515510347E+02  0.45600849144E+02  0.45967466155E+02  0.15060330420E+03  0.12500000000E+03 0.  0.
         25    1    1    2    0    0 -0.53515510347E+02 -0.45600849144E+02 -0.45172751502E+02  0.15036264419E+03  0.12500000000E+03 0.  0.
</event>
<event>
 4    0  0.2151074E-002  0.3466431E+03  0.7546771E-02  0.1064001E+00
         21   -1    0    0  502  501  0.00000000000E+00  0.00000000000E+00  0.68967734604E+02  0.68967734604E+02  0.00000000000E+00 0. -1.
         21   -1    0    0  501  502 -0.00000000000E+00 -0.00000000000E+00 -0.17422853050E+04  0.17422853050E+04  0.00000000000E+00 0. -1.
         25    1    1    2    0    0  0.24131849194E+03 -0.69878392249E+02 -0.13683575089E+04  0.13968338758E+04  0.12500000000E+03 0.  0.
         25    1    1    2    0    0 -0.24131849194E+03  0.69878392249E+02 -0.30496006142E+03  0.41441916379E+03  0.12500000000E+03 0.  0.
</event>
<event>
 4    0  0.2151074E-002  0.2065628E+03  0.7546771E-02  0.1144317E+00
         21   -1    0    0  502  501  0.00000000000E+00  0.00000000000E+00  0.93951675203E+02  0.93951675203E+02  0.00000000000E+00 0. -1.
         21   -1    0    0  501  502 -0.00000000000E+00 -0.00000000000E+00 -0.45415030802E+03  0.45415030802E+03  0.00000000000E+00 0. -1.
         25    1    1    2    0    0 -0.13863401254E+02 -0.10449011326E+03 -0.34756484391E+03  0.38410506165E+03  0.12500000000E+03 0.  0.
         25    1    1    2    0    0  0.13863401254E+02  0.10449011326E+03 -0.12633788909E+02  0.16399692157E+03  0.12500000000E+03 0.  0.
</event>
<event>
 4    0  0.2151074E-002  0.1852801E+03  0.7546771E-02  0.1162789E+00
         21   -1    0    0  502  501  0.00000000000E+00  0.00000000000E+00  0.63867230250E+03  0.63867230250E+03  0.00000000000E+00 0. -1.
         21   -1    0    0  501  502 -0.00000000000E+00 -0.00000000000E+00 -0.53750114205E+02  0.53750114205E+02  0.00000000000E+00 0. -1.
         25    1    1    2    0    0 -0.13103372668E+03  0.32993161605E+02  0.25302899210E+03  0.31290103401E+03  0.12500000000E+03 0.  0.
         25    1    1    2    0    0  0.13103372668E+03 -0.32993161605E+02  0.33189319619E+03  0.37952138269E+03  0.12500000000E+03 0.  0.
</event>
<event>
 4    0  0.2151074E-002  0.2622603E+03  0.7546771E-02  0.1105793E+00
         21   -1    0    0  502  501  0.00000000000E+00  0.00000000000E+00  0.47493306475E+02  0.47493306475E+02  0.00000000000E+00 0. -1.
         21   -1    0    0  501  502 -0.00000000000E+00 -0.00000000000E+00 -0.14482141342E+04  0.14482141342E+04  0.00000000000E+00 0. -1.
         25    1    1    2    0    0  0.80800216347E+02 -0.42760766218E+02 -0.13039127378E+04  0.13130767632E+04  0.12500000000E+03 0.  0.
         25    1    1    2    0    0 -0.80800216347E+02  0.42760766218E+02 -0.96808089843E+02  0.18263067746E+03  0.12500000000E+03 0.  0.
</event>
<event>
 4    0  0.2151074E-002  0.2270551E+03  0.7546771E-02  0.1128730E+00
         21   -1    0    0  502  501  0.00000000000E+00  0.00000000000E+00  0.48458330941E+02  0.48458330941E+02  0.00000000000E+00 0.  1.
         21   -1    0    0  501  502 -0.00000000000E+00 -0.00000000000E+00 -0.10638830683E+04  0.10638830683E+04  0.00000000000E+00 0.  1.
         25    1    1    2    0    0 -0.17068551521E+03 -0.73213429893E+02 -0.41491403829E+03  0.47145775058E+03  0.12500000000E+03 0.  0.
         25    1    1    2    0    0  0.17068551521E+03  0.73213429893E+02 -0.60051069911E+03  0.64088364870E+03  0.12500000000E+03 0.  0.
</event>
<event>
 4    0  0.2151074E-002  0.3463008E+03  0.7546771E-02  0.1064144E+00
         21   -1    0    0  502  501  0.00000000000E+00  0.00000000000E+00  0.16714022138E+03  0.16714022138E+03  0.00000000000E+00 0.  1.
         21   -1    0    0  501  502 -0.00000000000E+00 -0.00000000000E+00 -0.71750679947E+03  0.71750679947E+03  0.00000000000E+00 0.  1.
         25    1    1    2    0    0  0.40435820091E+02 -0.69599400888E+02 -0.67466840873E+03  0.69085569687E+03  0.12500000000E+03 0.  0.
         25    1    1    2    0    0 -0.40435820091E+02  0.69599400888E+02  0.12430183064E+03  0.19379132398E+03  0.12500000000E+03 0.  0.
</event>
<event>
 4    0  0.2151074E-002  0.1909487E+03  0.7546771E-02  0.1157608E+00
         21   -1    0    0  502  501  0.00000000000E+00  0.00000000000E+00  0.23133075118E+03  0.23133075118E+03  0.00000000000E+00 0. -1.
         21   -1    0    0  501  502 -0.00000000000E+00 -0.00000000000E+00 -0.15761586852E+03  0.15761586852E+03  0.00000000000E+00 0. -1.
         25    1    1    2    0    0  0.94109505137E+02 -0.10244381220E+03 -0.23904099766E+01  0.18703488358E+03  0.12500000000E+03 0.  0.
         25    1    1    2    0    0 -0.94109505137E+02  0.10244381220E+03  0.76105292639E+02  0.20191173612E+03  0.12500000000E+03 0.  0.
</event>
<event>
 4    0  0.2151074E-002  0.2517678E+03  0.7546771E-02  0.1112193E+00
         21   -1    0    0  502  501  0.00000000000E+00  0.00000000000E+00  0.45156846324E+03  0.45156846324E+03  0.00000000000E+00 0. -1.
         21   -1    0    0  501  502 -0.00000000000E+00 -0.00000000000E+00 -0.14037078593E+03  0.14037078593E+03  0.00000000000E+00 0. -1.
         25    1    1    2    0    0  0.11216196272E+03  0.12394127034E+03 -0.99026176490E+01  0.20896125528E+03  0.12500000000E+03 0.  0.
         25    1    1    2    0    0 -0.11216196272E+03 -0.12394127034E+03  0.32110029496E+03  0.38297799388E+03  0.12500000000E+03 0.  0.
</event>
<event>
 4    0  0.2151074E-002  0.2143099E+03  0.7546771E-02  0.1138198E+00
         21   -1    0    0  502  501  0.00000000000E+00  0.00000000000E+00  0.57933929994E+02  0.57933929994E+02  0.00000000000E+00 0.  1.
         21   -1    0    0  501  502 -0.00000000000E+00 -0.00000000000E+00 -0.79277756350E+03  0.79277756350E+03  0.00000000000E+00 0.  1.
         25    1    1    2    0    0 -0.11215396192E+02 -0.13601365411E+03 -0.58190758094E+03  0.61062830918E+03  0.12500000000E+03 0.  0.
         25    1    1    2    0    0  0.11215396192E+02  0.13601365411E+03 -0.15293605257E+03  0.24008318432E+03  0.12500000000E+03 0.  0.
</event>
<event>
 4    0  0.2151074E-002  0.2618367E+03  0.7546771E-02  0.1106045E+00
         21   -1    0    0  502  501  0.00000000000E+00  0.00000000000E+00  0.36886753220E+02  0.36886753220E+02  0.00000000000E+00 0.  1.
         21   -1    0    0  501  502 -0.00000000000E+00 -0.00000000000E+00 -0.18586207082E+04  0.18586207082E+04  0.00000000000E+00 0.  1.
         25    1    1    2    0    0 -0.15010647796E+03 -0.83525479507E+02 -0.14648607900E+04  0.14801860000E+04  0.12500000000E+03 0.  0.
         25    1    1    2    0    0  0.15010647796E+03  0.83525479507E+02 -0.35687316497E+03  0.41532146143E+03  0.12500000000E+03 0.  0.
</event>
<event>
 4    0  0.2151074E-002  0.2545909E+03  0.7546771E-02  0.1110437E+00
         21   -1    0    0  502  501  0.00000000000E+00  0.00000000000E+00  0.10018213530E+03  0.10018213530E+03  0.00000000000E+00 0. -1.
         21   -1    0    0  501  502 -0.00000000000E+00 -0.00000000000E+00 -0.64698674097E+03  0.64698674097E+03  0.00000000000E+00 0. -1.
         25    1    1    2    0    0 -0.97332225497E+02  0.11863183037E+03 -0.38415996880E+02  0.20161314965E+03  0.12500000000E+03 0.  0.
         25    1    1    2    0    0  0.97332225497E+02 -0.11863183037E+03 -0.50838860880E+03  0.54555572662E+03  0.12500000000E+03 0.  0.
</event>
<event>
 4    0  0.2151074E-002  0.1696190E+03  0.7546771E-02  0.1178246E+00
         21   -1    0    0  502  501  0.00000000000E+00  0.00000000000E+00  0.10095117703E+03  0.10095117703E+03  0.00000000000E+00 0.  1.
         21   -1    0    0  501  502 -0.00000000000E+00 -0.00000000000E+00 -0.28499509524E+03  0.28499509524E+03  0.00000000000E+00 0.  1.
         25    1    1    2    0    0  0.35782133307E+02  0.88218520666E+02 -0.16471575807E+03  0.22763819848E+03  0.12500000000E+03 0.  0.
         25    1    1    2    0    0 -0.35782133307E+02 -0.88218520666E+02 -0.19328160135E+02  0.15830807379E+03  0.12500000000E+03 0.  0.
</event>
<event>
 4    0  0.2151074E-002  0.2377448E+03  0.7546771E-02  0.1121304E+00
         21   -1    0    0  502  501  0.00000000000E+00  0.00000000000E+00  0.37737391963E+02  0.37737391963E+02  0.00000000000E+00 0.  1.
         21   -1    0    0  501  502 -0.00000000000E+00 -0.00000000000E+00 -0.14977875774E+04  0.14977875774E+04  0.00000000000E+00 0.  1.
         25    1    1    2    0    0  0.10828169815E+03 -0.16583215856E+03 -0.59796199242E+03  0.64219060671E+03  0.12500000000E+03 0.  0.
         25    1    1    2    0    0 -0.10828169815E+03  0.16583215856E+03 -0.86208819305E+03  0.89333436269E+03  0.12500000000E+03 0.  0.
</event>
<event>
 4    0  0.2151074E-002  0.1954079E+03  0.7546771E-02  0.1153672E+00
         21   -1    0    0  502  501  0.00000000000E+00  0.00000000000E+00  0.77638017896E+03  0.77638017896E+03  0.00000000000E+00 0.  1.
         21   -1    0    0  501  502 -0.00000000000E+00 -0.00000000000E+00 -0.49182407208E+02  0.49182407208E+02  0.00000000000E+00 0.  1.
         25    1    1    2    0    0 -0.76821249642E+02 -0.12451730126E+03  0.29186454897E+03  0.34959401833E+03  0.12500000000E+03 0.  0.
         25    1    1    2    0    0  0.76821249642E+02  0.12451730126E+03  0.43533322279E+03  0.47596856784E+03  0.12500000000E+03 0.  0.
</event>
<event>
 4    0  0.2151074E-002  0.1823593E+03  0.7546771E-02  0.1165539E+00
         21   -1    0    0  502  501  0.00000000000E+00  0.00000000000E+00  0.15320546922E+03  0.15320546922E+03  0.00000000000E+00 0. -1.
         21   -1    0    0  501  502 -0.00000000000E+00 -0.00000000000E+00 -0.21706093713E+03  0.21706093713E+03  0.00000000000E+00 0. -1.
         25    1    1    2    0    0 -0.18712308847E+02 -0.13138994983E+03 -0.27809766658E+02  0.18442302606E+03  0.12500000000E+03 0.  0.
         25    1    1    2    0    0  0.18712308847E+02  0.13138994983E+03 -0.36045701247E+02  0.18584338029E+03  0.12500000000E+03 0.  0.
</event>
<event>
 4    0  0.2151074E-002  0.2174385E+03  0.7546771E-02  0.1135807E+00
         21   -1    0    0  502  501  0.00000000000E+00  0.00000000000E+00  0.52735174555E+03  0.52735174555E+03  0.00000000000E+00 0. -1.
         21   -1    0    0  501  502 -0.00000000000E+00 -0.00000000000E+00 -0.89654594901E+02  0.89654594901E+02  0.00000000000E+00 0. -1.
         25    1    1    2    0    0 -0.13060736881E+03 -0.18920724462E+02  0.38814630747E+03  0.42860102030E+03  0.12500000000E+03 0.  0.
         25    1    1    2    0    0  0.13060736881E+03  0.18920724462E+02  0.49550843184E+02  0.18840532015E+03  0.12500000000E+03 0.  0.
</event>
<event>
 4    0  0.2151074E-002  0.1831409E+03  0.7546771E-02  0.1164797E+00
         21   -1    0    0  502  501  0.00000000000E+00  0.00000000000E+00  0.48607095612E+03  0.48607095612E+03  0.00000000000E+00 0.  1.
         21   -1    0    0  501  502 -0.00000000000E+00 -0.00000000000E+00 -0.69003477061E+02  0.69003477061E+02  0.00000000000E+00 0.  1.
         25    1    1    2    0    0  0.98364634559E+02 -0.28710032890E+02  0.78033133010E+02  0.17948269323E+03  0.12500000000E+03 0.  0.
         25    1    1    2    0    0 -0.98364634559E+02  0.28710032890E+02  0.33903434605E+03  0.37559173996E+03  0.12500000000E+03 0.  0.
</event>
<event>
 4    0  0.2151074E-002  0.3441876E+03  0.7546771E-02  0.1065026E+00
         21   -1    0    0  502  501  0.00000000000E+00  0.00000000000E+00  0.65399703091E+03  0.65399703091E+03  0.00000000000E+00 0.  1.
         21   -1    0    0  501  502 -0.00000000000E+00 -0.00000000000E+00 -0.18114017314E+03  0.18114017314E+03  0.00000000000E+00 0.  1.
         25    1    1    2    0    0  0.15012013591E+03 -0.16796058493E+03 -0.40471972410E+02  0.26078687438E+03  0.12500000000E+03 0.  0.
         25    1    1    2    0    0 -0.15012013591E+03  0.16796058493E+03  0.51332883018E+03  0.57435032967E+03  0.12500000000E+03 0.  0.
</event>
<event>
 4    0  0.2151074E-002  0.2273272E+03  0.7546771E-02  0.1128535E+00
         21   -1    0    0  502  501  0.00000000000E+00  0.00000000000E+00  0.19330536248E+03  0.19330536248E+03  0.00000000000E+00 0. -1.
         21   -1    0    0  501  502 -0.00000000000E+00 -0.00000000000E+00 -0.26733679508E+03  0.26733679508E+03  0.00000000000E+00 0. -1.
         25    1    1    2    0    0  0.27571911153E+02  0.17612781795E+03 -0.10323254533E+03  0.24096301989E+03  0.12500000000E+03 0.  0.
         25    1    1    2    0    0 -0.27571911153E+02 -0.17612781795E+03  0.29201112727E+02  0.21967913767E+03  0.12500000000E+03 0.  0.
</event>
<event>
 4    0  0.2151074E-002  0.2329750E+03  0.7546771E-02  0.1124563E+00
         21   -1    0    0  502  501  0.00000000000E+00  0.00000000000E+00  0.93920368969E+03  0.93920368969E+03  0.00000000000E+00 0. -1.
         21   -1    0    0  501  502 -0.00000000000E+00 -0.00000000000E+00 -0.57790822124E+02  0.57790822124E+02  0.00000000000E+00 0. -1.
         25    1    1    2    0    0 -0.65880050887E+02  0.15907239114E+03  0.23762455889E+03  0.31895867713E+03  0.12500000000E+03 0.  0.
         25    1    1    2    0    0  0.65880050887E+02 -0.15907239114E+03  0.64378830868E+03  0.67803583469E+03  0.12500000000E+03 0.  0.
</event>
<event>
 4    0  0.2151074E-002  0.1389758E+03  0.7546771E-02  0.1214714E+00
         21   -1    0    0  502  501  0.00000000000E+00  0.00000000000E+00  0.24093182605E+03  0.24093182605E+03  0.00000000000E+00 0. -1.
         21   -1    0    0  501  502 -0.00000000000E+00 -0.00000000000E+00 -0.80164836576E+02  0.80164836576E+02  0.00000000000E+00 0. -1.
         25    1    1    2    0    0 -0.48357994296E+02 -0.79569487442E+01  0.38932758752E+02  0.13979473649E+03  0.12500000000E+03 0.  0.
         25    1    1    2    0    0  0.48357994296E+02  0.79569487442E+01  0.12183423072E+03  0.18130192614E+03  0.12500000000E+03 0.  0.
</event>
<event>
 4    0  0.2151074E-002  0.2711010E+03  0.7546771E-02  0.1100651E+00
         21   -1    0    0  502  501  0.00000000000E+00  0.00000000000E+00  0.28926007685E+03  0.28926007685E+03  0.00000000000E+00 0. -1.
         21   -1    0    0  501  502 -0.00000000000E+00 -0.00000000000E+00 -0.25408196646E+03  0.25408196646E+03  0.00000000000E+00 0. -1.
         25    1    1    2    0    0 -0.15570747168E+03 -0.66782942176E+02  0.18872865631E+03  0.28275127553E+03  0.12500000000E+03 0.  0.
         25    1    1    2    0    0  0.15570747168E+03  0.66782942176E+02 -0.15355054591E+03  0.26059076778E+03  0.12500000000E+03 0.  0.
</event>
<event>
 4    0  0.2151074E-002  0.2083661E+03  0.7546771E-02  0.1142866E+00
         21   -1    0    0  502  501  0.00000000000E+00  0.00000000000E+00  0.73408050814E+03  0.73408050814E+03  0.00000000000E+00 0.  1.
         21   -1    0    0  501  502 -0.00000000000E+00 -0.00000000000E+00 -0.59143973357E+02  0.59143973357E+02  0.00000000000E+00 0.  1.
         25    1    1    2    0    0 -0.88958153297E+02 -0.53375408090E+02  0.89078921388E+02  0.18526343801E+03  0.12500000000E+03 0.  0.
         25    1    1    2    0    0  0.88958153297E+02  0.53375408090E+02  0.58585761340E+03  0.60796104349E+03  0.12500000000E+03 0.  0.
</event>
<event>
 4    0  0.2151074E-002  0.3597516E+03  0.7546771E-02  0.1058682E+00
         21   -1    0    0  502  501  0.00000000000E+00  0.00000000000E+00  0.15842199338E+04  0.15842199338E+04  0.00000000000E+00 0. -1.
         21   -1    0    0  501  502 -0.00000000000E+00 -0.00000000000E+00 -0.81693973044E+02  0.81693973044E+02  0.00000000000E+00 0. -1.
         25    1    1    2    0    0  0.62248601586E+02  0.26412878630E+03  0.12152460712E+04  0.12514339446E+04  0.12500000000E+03 0.  0.
         25    1    1    2    0    0 -0.62248601586E+02 -0.26412878630E+03  0.28727988956E+03  0.41447996224E+03  0.12500000000E+03 0.  0.
</event>
<event>
 4    0  0.2151074E-002  0.1859142E+03  0.7546771E-02  0.1162199E+00
         21   -1    0    0  502  501  0.00000000000E+00  0.00000000000E+00  0.50314844356E+03  0.50314844356E+03  0.00000000000E+00 0. -1.
         21   -1    0    0  501  502 -0.00000000000E+00 -0.00000000000E+00 -0.68695582111E+02  0.68695582111E+02  0.00000000000E+00 0. -1.
         25    1    1    2    0    0 -0.12147706286E+03  0.30911559137E+02  0.12986371600E+03  0.21954905152E+03  0.12500000000E+03 0.  0.
         25    1    1    2    0    0  0.12147706286E+03 -0.30911559137E+02  0.30458914545E+03  0.35229497416E+03  0.12500000000E+03 0.  0.
</event>
<event>
 4    0  0.2151074E-002  0.2672016E+03  0.7546771E-02  0.1102892E+00
         21   -1    0    0  502  501  0.00000000000E+00  0.00000000000E+00  0.10272542102E+03  0.10272542102E+03  0.00000000000E+00 0.  1.
         21   -1    0    0  501  502 -0.00000000000E+00 -0.00000000000E+00 -0.69502451788E+03  0.69502451788E+03  0.00000000000E+00 0.  1.
         25    1    1    2    0    0  0.12006811443E+03 -0.26847821467E+02  0.47665133287E+01  0.17545619758E+03  0.12500000000E+03 0.  0.
         25    1    1    2    0    0 -0.12006811443E+03  0.26847821467E+02 -0.59706561018E+03  0.62229374132E+03  0.12500000000E+03 0.  0.
</event>
<event>
 4    0  0.2151074E-002  0.3033494E+03  0.7546771E-02  0.1083578E+00
         21   -1    0    0  502  501  0.00000000000E+00  0.00000000000E+00  0.59563967161E+03  0.59563967161E+03  0.00000000000E+00 0.  1.
         21   -1    0    0  501  502 -0.00000000000E+00 -0.00000000000E+00 -0.15449082667E+03  0.15449082667E+03  0.00000000000E+00 0.  1.
         25    1    1    2    0    0 -0.10136656367E+02 -0.27568755859E+03  0.19953782116E+03  0.36269370527E+03  0.12500000000E+03 0.  0.
         25    1    1    2    0    0  0.10136656367E+02  0.27568755859E+03  0.24161102378E+03  0.38743679301E+03  0.12500000000E+03 0.  0.
</event>
<event>
 4    0  0.2151074E-002  0.2478113E+03  0.7546771E-02  0.1114696E+00
         21   -1    0    0  502  501  0.00000000000E+00  0.00000000000E+00  0.65671912181E+02  0.65671912181E+02  0.00000000000E+00 0. -1.
         21   -1    0    0  501  502 -0.00000000000E+00 -0.00000000000E+00 -0.93510946800E+03  0.93510946800E+03  0.00000000000E+00 0. -1.
         25    1    1    2    0    0  0.56558290975E+02 -0.19340275198E+03 -0.58007555315E+03  0.62667065681E+03  0.12500000000E+03 0.  0.
         25    1    1    2    0    0 -0.56558290975E+02  0.19340275198E+03 -0.28936200268E+03  0.37411072337E+03  0.12500000000E+03 0.  0.
</event>
<event>
 4    0  0.2151074E-002  0.2053901E+03  0.7546771E-02  0.1145269E+00
         21   -1    0    0  502  501  0.00000000000E+00  0.00000000000E+00  0.69741592690E+03  0.69741592690E+03  0.00000000000E+00 0.  1.
         21   -1    0    0  501  502 -0.00000000000E+00 -0.00000000000E+00 -0.60487693220E+02  0.60487693220E+02  0.00000000000E+00 0.  1.
         25    1    1    2    0    0 -0.16209731840E+03  0.43929995981E+00  0.28735204864E+03  0.35280580136E+03  0.12500000000E+03 0.  0.
         25    1    1    2    0    0  0.16209731840E+03 -0.43929995981E+00  0.34957618504E+03  0.40509781876E+03  0.12500000000E+03 0.  0.
</event>
<event>
 4    0  0.2151074E-002  0.4741693E+03  0.7546771E-02  0.1020750E+00
         21   -1    0    0  502  501  0.00000000000E+00  0.00000000000E+00  0.28560886837E+04  0.28560886837E+04  0.00000000000E+00 0. -1.
         21   -1    0    0  501  502 -0.00000000000E+00 -0.00000000000E+00 -0.78721818148E+02  0.78721818148E+02  0.00000000000E+00 0. -1.
         25    1    1    2    0    0 -0.98632788917E+02  0.61600377057E+02  0.27576702777E+04  0.27629501251E+04  0.12500000000E+03 0.  0.
         25    1    1    2    0    0  0.98632788917E+02 -0.61600377057E+02  0.19696587833E+02  0.17186037669E+03  0.12500000000E+03 0.  0.
</event>
<event>
 4    0  0.2151074E-002  0.2034982E+03  0.7546771E-02  0.1146821E+00
         21   -1    0    0  502  501  0.00000000000E+00  0.00000000000E+00  0.78238634991E+02  0.78238634991E+02  0.00000000000E+00 0.  1.
         21   -1    0    0  501  502 -0.00000000000E+00 -0.00000000000E+00 -0.52929776412E+03  0.52929776412E+03  0.00000000000E+00 0.  1.
         25    1    1    2    0    0  0.28872019479E+02  0.13566537513E+03 -0.10473958490E+03  0.21408892583E+03  0.12500000000E+03 0.  0.
         25    1    1    2    0    0 -0.28872019479E+02 -0.13566537513E+03 -0.34631954423E+03  0.39344747329E+03  0.12500000000E+03 0.  0.
</event>
<event>
 4    0  0.2151074E-002  0.3616047E+03  0.7546771E-02  0.1057950E+00
         21   -1    0    0  502  501  0.00000000000E+00  0.00000000000E+00  0.25524542784E+03  0.25524542784E+03  0.00000000000E+00 0.  1.
         21   -1    0    0  501  502 -0.00000000000E+00 -0.00000000000E+00 -0.51228333212E+03  0.51228333212E+03  0.00000000000E+00 0.  1.
         25    1    1    2    0    0 -0.19516273257E+03 -0.26664008515E+03 -0.21036536582E+03  0.41117394656E+03  0.12500000000E+03 0.  0.
         25    1    1    2    0    0  0.19516273257E+03  0.26664008515E+03 -0.46672538459E+02  0.35635481340E+03  0.12500000000E+03 0.  0.
</event>
<event>
 4    0  0.2151074E-002  0.2046817E+03  0.7546771E-02  0.1145848E+00
         21   -1    0    0  502  501  0.00000000000E+00  0.00000000000E+00  0.20311310894E+03  0.20311310894E+03  0.00000000000E+00 0. -1.
         21   -1    0    0  501  502 -0.00000000000E+00 -0.00000000000E+00 -0.20626242330E+03  0.20626242330E+03  0.00000000000E+00 0. -1.
         25    1    1    2    0    0  0.19491641809E+02  0.10351992985E+03 -0.12475826044E+03  0.20563541408E+03  0.12500000000E+03 0.  0.
         25    1    1    2    0    0 -0.19491641809E+02 -0.10351992985E+03  0.12160894608E+03  0.20374011815E+03  0.12500000000E+03 0.  0.
</event>
<event>
 4    0  0.2151074E-002  0.1935179E+03  0.7546771E-02  0.1155326E+00
         21   -1    0    0  502  501  0.00000000000E+00  0.00000000000E+00  0.24828937796E+03  0.24828937796E+03  0.00000000000E+00 0.  1.
         21   -1    0    0  501  502 -0.00000000000E+00 -0.00000000000E+00 -0.15082878676E+03  0.15082878676E+03  0.00000000000E+00 0.  1.
         25    1    1    2    0    0  0.11233582907E+03  0.78125444083E+02  0.10615774762E+03  0.21358228130E+03  0.12500000000E+03 0.  0.
         25    1    1    2    0    0 -0.11233582907E+03 -0.78125444083E+02 -0.86971564242E+01  0.18553588342E+03  0.12500000000E+03 0.  0.
</event>
<event>
 4    0  0.2151074E-002  0.2328452E+03  0.7546771E-02  0.1124653E+00
         21   -1    0    0  502  501  0.00000000000E+00  0.00000000000E+00  0.23391407348E+02  0.23391407348E+02  0.00000000000E+00 0. -1.
         21   -1    0    0  501  502 -0.00000000000E+00 -0.00000000000E+00 -0.23178125037E+04  0.23178125037E+04  0.00000000000E+00 0. -1.
         25    1    1    2    0    0  0.98252026030E+02 -0.12939363724E+03 -0.59201537118E+03  0.62650089680E+03  0.12500000000E+03 0.  0.
         25    1    1    2    0    0 -0.98252026030E+02  0.12939363724E+03 -0.17024057251E+04  0.17147030142E+04  0.12500000000E+03 0.  0.
</event>
<event>
 4    0  0.2151074E-002  0.2183824E+03  0.7546771E-02  0.1135095E+00
         21   -1    0    0  502  501  0.00000000000E+00  0.00000000000E+00  0.14335096503E+04  0.14335096503E+04  0.00000000000E+00 0.  1.
         21   -1    0    0  501  502 -0.00000000000E+00 -0.00000000000E+00 -0.33268622230E+02  0.33268622230E+02  0.00000000000E+00 0.  1.
         25    1    1    2    0    0 -0.17534157829E+03  0.17299698143E+02  0.80747741356E+03  0.83587602073E+03  0.12500000000E+03 0.  0.
         25    1    1    2    0    0  0.17534157829E+03 -0.17299698143E+02  0.59276361454E+03  0.63090225182E+03  0.12500000000E+03 0.  0.
</event>
<event>
 4    0  0.2151074E-002  0.1709340E+03  0.7546771E-02  0.1176877E+00
         21   -1    0    0  502  501  0.00000000000E+00  0.00000000000E+00  0.19184592964E+03  0.19184592964E+03  0.00000000000E+00 0.  1.
         21   -1    0    0  501  502 -0.00000000000E+00 -0.00000000000E+00 -0.15230155868E+03  0.15230155868E+03  0.00000000000E+00 0.  1.
         25    1    1    2    0    0 -0.10326006029E+03 -0.45133197695E+02  0.49867821611E+02  0.17553189231E+03  0.12500000000E+03 0.  0.
         25    1    1    2    0    0  0.10326006029E+03  0.45133197695E+02 -0.10323450651E+02  0.16861559601E+03  0.12500000000E+03 0.  0.
</event>
<event>
 4    0  0.2151074E-002  0.2760325E+03  0.7546771E-02  0.1097876E+00
         21   -1    0    0  502  501  0.00000000000E+00  0.00000000000E+00  0.12257803016E+04  0.12257803016E+04  0.00000000000E+00 0. -1.
         21   -1    0    0  501  502 -0.00000000000E+00 -0.00000000000E+00 -0.62159532936E+02  0.62159532936E+02  0.00000000000E+00 0. -1.
         25    1    1    2    0    0 -0.23772523239E+03 -0.35552633554E+02  0.70507438952E+03  0.75533579991E+03  0.12500000000E+03 0.  0.
         25    1    1    2    0    0  0.23772523239E+03  0.35552633554E+02  0.45854637911E+03  0.53260403459E+03  0.12500000000E+03 0.  0.
</event>
<event>
 4    0  0.2151074E-002  0.1858878E+03  0.7546771E-02  0.1162223E+00
         21   -1    0    0  502  501  0.00000000000E+00  0.00000000000E+00  0.91530301059E+02  0.91530301059E+02  0.00000000000E+00 0. -1.
         21   -1    0    0  501  502 -0.00000000000E+00 -0.00000000000E+00 -0.37751728459E+03  0.37751728459E+03  0.00000000000E+00 0. -1.
         25    1    1    2    0    0 -0.23347707771E+02 -0.45011615128E+02 -0.30435598753E+03  0.33290948935E+03  0.12500000000E+03 0.  0.
         25    1    1    2    0    0  0.23347707771E+02  0.45011615128E+02  0.18369004003E+02  0.13613809629E+03  0.12500000000E+03 0.  0.
</event>
<event>
 4    0  0.2151074E-002  0.2029578E+03  0.7546771E-02  0.1147267E+00
         21   -1    0    0  502  501  0.00000000000E+00  0.00000000000E+00  0.14517651557E+03  0.14517651557E+03  0.00000000000E+00 0.  1.
         21   -1    0    0  501  502 -0.00000000000E+00 -0.00000000000E+00 -0.28373633594E+03  0.28373633594E+03  0.00000000000E+00 0.  1.
         25    1    1    2    0    0  0.12975102160E+03 -0.82815633615E+01 -0.16762803230E+03  0.24622767739E+03  0.12500000000E+03 0.  0.
         25    1    1    2    0    0 -0.12975102160E+03  0.82815633615E+01  0.29068211927E+02  0.18268517412E+03  0.12500000000E+03 0.  0.
</event>
<event>
 4    0  0.2151074E-002  0.2453039E+03  0.7546771E-02  0.1116309E+00
         21   -1    0    0  502  501  0.00000000000E+00  0.00000000000E+00  0.11749290046E+04  0.11749290046E+04  0.00000000000E+00 0.  1.
         21   -1    0    0  501  502 -0.00000000000E+00 -0.00000000000E+00 -0.51215004914E+02  0.51215004914E+02  0.00000000000E+00 0.  1.
         25    1    1    2    0    0 -0.18182241113E+03 -0.44825047946E+02  0.31851415777E+03  0.39005761473E+03  0.12500000000E+03 0.  0.
         25    1    1    2    0    0  0.18182241113E+03  0.44825047946E+02  0.80519984189E+03  0.83608639476E+03  0.12500000000E+03 0.  0.
</event>
<event>
 4    0  0.2151074E-002  0.1979172E+03  0.7546771E-02  0.1151508E+00
         21   -1    0    0  502  501  0.00000000000E+00  0.00000000000E+00  0.11167482243E+03  0.11167482243E+03  0.00000000000E+00 0.  1.
         21   -1    0    0  501  502 -0.00000000000E+00 -0.00000000000E+00 -0.35076158390E+03  0.35076158390E+03  0.00000000000E+00 0.  1.
         25    1    1    2    0    0 -0.87358737140E+02 -0.96255668941E+02 -0.21480852035E+03  0.28047175111E+03  0.12500000000E+03 0.  0.
         25    1    1    2    0    0  0.87358737140E+02  0.96255668941E+02 -0.24278241122E+02  0.18196465522E+03  0.12500000000E+03 0.  0.
</event>
<event>
 4    0  0.2151074E-002  0.2026987E+03  0.7546771E-02  0.1147482E+00
         21   -1    0    0  502  501  0.00000000000E+00  0.00000000000E+00  0.10369577080E+03  0.10369577080E+03  0.00000000000E+00 0.  1.
         21   -1    0    0  501  502 -0.00000000000E+00 -0.00000000000E+00 -0.39622420603E+03  0.39622420603E+03  0.00000000000E+00 0.  1.
         25    1    1    2    0    0 -0.10201857241E+03  0.69371014892E+02 -0.21467148297E+02  0.17693491820E+03  0.12500000000E+03 0.  0.
         25    1    1    2    0    0  0.10201857241E+03 -0.69371014892E+02 -0.27106128693E+03  0.32298505862E+03  0.12500000000E+03 0.  0.
</event>
<event>
 4    0  0.2151074E-002  0.2327990E+03  0.7546771E-02  0.1124685E+00
         21   -1    0    0  502  501  0.00000000000E+00  0.00000000000E+00  0.15345911815E+03  0.15345911815E+03  0.00000000000E+00 0. -1.
         21   -1    0    0  501  502 -0.00000000000E+00 -0.00000000000E+00 -0.35315833322E+03  0.35315833322E+03  0.00000000000E+00 0.  1.
         25    1    1    2    0    0 -0.14201792018E+03  0.11191640650E+03 -0.16441211624E+02  0.22043068102E+03  0.12500000000E+03 0.  0.
         25    1    1    2    0    0  0.14201792018E+03 -0.11191640650E+03 -0.18325800345E+03  0.28618677035E+03  0.12500000000E+03 0.  0.
</event>
<event>
 4    0  0.2151074E-002  0.1999701E+03  0.7546771E-02  0.1149764E+00
         21   -1    0    0  502  501  0.00000000000E+00  0.00000000000E+00  0.15731532374E+04  0.15731532374E+04  0.00000000000E+00 0.  1.
         21   -1    0    0  501  502 -0.00000000000E+00 -0.00000000000E+00 -0.25419034982E+02  0.25419034982E+02  0.00000000000E+00 0. -1.
         25    1    1    2    0    0 -0.13579663929E+03 -0.68895622348E+02  0.91091932214E+03  0.93197979886E+03  0.12500000000E+03 0.  0.
         25    1    1    2    0    0  0.13579663929E+03  0.68895622348E+02  0.63681488025E+03  0.66659247350E+03  0.12500000000E+03 0.  0.
</event>
<event>
 4    0  0.2151074E-002  0.1483874E+03  0.7546771E-02  0.1202469E+00
         21   -1    0    0  502  501  0.00000000000E+00  0.00000000000E+00  0.86054569858E+03  0.86054569858E+03  0.00000000000E+00 0. -1.
         21   -1    0    0  501  502 -0.00000000000E+00 -0.00000000000E+00 -0.25587053761E+02  0.25587053761E+02  0.00000000000E+00 0. -1.
         25    1    1    2    0    0 -0.68639026758E+02 -0.40873609185E+02  0.40719596972E+03  0.43337688641E+03  0.12500000000E+03 0.  0.
         25    1    1    2    0    0  0.68639026758E+02  0.40873609185E+02  0.42776267510E+03  0.45275586592E+03  0.12500000000E+03 0.  0.
</event>
<event>
 4    0  0.2151074E-002  0.3206865E+03  0.7546771E-02  0.1075334E+00
         21   -1    0    0  502  501  0.00000000000E+00  0.00000000000E+00  0.28846422852E+03  0.28846422852E+03  0.00000000000E+00 0.  1.
         21   -1    0    0  501  502 -0.00000000000E+00 -0.00000000000E+00 -0.35650799446E+03  0.35650799446E+03  0.00000000000E+00 0. -1.
         25    1    1    2    0    0  0.29263150113E+03  0.36704583938E+02 -0.49417326258E+02  0.32411031158E+03  0.12500000000E+03 0.  0.
         25    1    1    2    0    0 -0.29263150113E+03 -0.36704583938E+02 -0.18626439684E+02  0.32086191141E+03  0.12500000000E+03 0.  0.
</event>
<event>
 4    0  0.2151074E-002  0.2354285E+03  0.7546771E-02  0.1122876E+00
         21   -1    0    0  502  501  0.00000000000E+00  0.00000000000E+00  0.14856538073E+03  0.14856538073E+03  0.00000000000E+00 0. -1.
         21   -1    0    0  501  502 -0.00000000000E+00 -0.00000000000E+00 -0.37307857101E+03  0.37307857101E+03  0.00000000000E+00 0.  1.
         25    1    1    2    0    0 -0.18605435651E+03 -0.35812282127E+01 -0.19193413878E+03  0.29511482918E+03  0.12500000000E+03 0.  0.
         25    1    1    2    0    0  0.18605435651E+03  0.35812282127E+01 -0.32579051499E+02  0.22652912256E+03  0.12500000000E+03 0.  0.
</event>
<event>
 4    0  0.2151074E-002  0.1951624E+03  0.7546771E-02  0.1153886E+00
         21   -1    0    0  502  501  0.00000000000E+00  0.00000000000E+00  0.24955348286E+02  0.24955348286E+02  0.00000000000E+00 0. -1.
         21   -1    0    0  501  502 -0.00000000000E+00 -0.00000000000E+00 -0.15262607147E+04  0.15262607147E+04  0.00000000000E+00 0. -1.
         25    1    1    2    0    0  0.12925260967E+03 -0.16107382376E+02 -0.45598265968E+03  0.49041907671E+03  0.12500000000E+03 0.  0.
         25    1    1    2    0    0 -0.12925260967E+03  0.16107382376E+02 -0.10453227067E+04  0.10607969863E+04  0.12500000000E+03 0.  0.
</event>
<event>
 4    0  0.2151074E-002  0.1900542E+03  0.7546771E-02  0.1158412E+00
         21   -1    0    0  502  501  0.00000000000E+00  0.00000000000E+00  0.80531231939E+03  0.80531231939E+03  0.00000000000E+00 0. -1.
         21   -1    0    0  501  502 -0.00000000000E+00 -0.00000000000E+00 -0.44852912947E+02  0.44852912947E+02  0.00000000000E+00 0. -1.
         25    1    1    2    0    0 -0.11181294402E+03  0.20757528947E+02  0.57473491228E+03  0.59906446135E+03  0.12500000000E+03 0.  0.
         25    1    1    2    0    0  0.11181294402E+03 -0.20757528947E+02  0.18572449416E+03  0.25110077099E+03  0.12500000000E+03 0.  0.
</event>
<event>
 4    0  0.2151074E-002  0.1844744E+03  0.7546771E-02  0.1163542E+00
         21   -1    0    0  502  501  0.00000000000E+00  0.00000000000E+00  0.13141441526E+04  0.13141441526E+04  0.00000000000E+00 0. -1.
         21   -1    0    0  501  502 -0.00000000000E+00 -0.00000000000E+00 -0.25895804749E+02  0.25895804749E+02  0.00000000000E+00 0. -1.
         25    1    1    2    0    0 -0.42653553872E+02  0.38983056811E+02  0.10899469848E+04  0.10986120489E+04  0.12500000000E+03 0.  0.
         25    1    1    2    0    0  0.42653553872E+02 -0.38983056811E+02  0.19830136305E+03  0.24142790842E+03  0.12500000000E+03 0.  0.
</event>
<event>
 4    0  0.2151074E-002  0.1933815E+03  0.7546771E-02  0.1155446E+00
         21   -1    0    0  502  501  0.00000000000E+00  0.00000000000E+00  0.74307747515E+02  0.74307747515E+02  0.00000000000E+00 0. -1.
         21   -1    0    0  501  502 -0.00000000000E+00 -0.00000000000E+00 -0.50326387125E+03  0.50326387125E+03  0.00000000000E+00 0. -1.
         25    1    1    2    0    0  0.12440245590E+03 -0.78075082836E+02 -0.19337398514E+03  0.27311204243E+03  0.12500000000E+03 0.  0.
         25    1    1    2    0    0 -0.12440245590E+03  0.78075082836E+02 -0.23558213860E+03  0.30445957633E+03  0.12500000000E+03 0.  0.
</event>
<event>
 4    0  0.2151074E-002  0.2365174E+03  0.7546771E-02  0.1122135E+00
         21   -1    0    0  502  501  0.00000000000E+00  0.00000000000E+00  0.56125359282E+03  0.56125359282E+03  0.00000000000E+00 0. -1.
         21   -1    0    0  501  502 -0.00000000000E+00 -0.00000000000E+00 -0.99670599321E+02  0.99670599321E+02  0.00000000000E+00 0. -1.
         25    1    1    2    0    0 -0.80919932453E+02  0.13809531963E+03  0.40017644166E+03  0.44875888541E+03  0.12500000000E+03 0.  0.
         25    1    1    2    0    0  0.80919932453E+02 -0.13809531963E+03  0.61406551832E+02  0.21216530673E+03  0.12500000000E+03 0.  0.
</event>
<event>
 4    0  0.2151074E-002  0.3487108E+03  0.7546771E-02  0.1063145E+00
         21   -1    0    0  502  501  0.00000000000E+00  0.00000000000E+00  0.86285457203E+03  0.86285457203E+03  0.00000000000E+00 0.  1.
         21   -1    0    0  501  502 -0.00000000000E+00 -0.00000000000E+00 -0.14092668787E+03  0.14092668787E+03  0.00000000000E+00 0.  1.
         25    1    1    2    0    0 -0.12170911893E+03  0.54738233774E+02  0.78832151767E+03  0.80924977546E+03  0.12500000000E+03 0.  0.
         25    1    1    2    0    0  0.12170911893E+03 -0.54738233774E+02 -0.66393633503E+02  0.19453148443E+03  0.12500000000E+03 0.  0.
</event>
<event>
 4    0  0.2151074E-002  0.2206996E+03  0.7546771E-02  0.1133363E+00
         21   -1    0    0  502  501  0.00000000000E+00  0.00000000000E+00  0.21749018990E+03  0.21749018990E+03  0.00000000000E+00 0. -1.
         21   -1    0    0  501  502 -0.00000000000E+00 -0.00000000000E+00 -0.22395642654E+03  0.22395642654E+03  0.00000000000E+00 0. -1.
         25    1    1    2    0    0  0.11212929685E+03  0.13604605655E+03  0.41513352187E+02  0.22006786936E+03  0.12500000000E+03 0.  0.
         25    1    1    2    0    0 -0.11212929685E+03 -0.13604605655E+03 -0.47979588827E+02  0.22137874708E+03  0.12500000000E+03 0.  0.
</event>
<event>
 4    0  0.2151074E-002  0.2572231E+03  0.7546771E-02  0.1108823E+00
         21   -1    0    0  502  501  0.00000000000E+00  0.00000000000E+00  0.47823509802E+03  0.47823509802E+03  0.00000000000E+00 0. -1.
         21   -1    0    0  501  502 -0.00000000000E+00 -0.00000000000E+00 -0.13834975932E+03  0.13834975932E+03  0.00000000000E+00 0. -1.
         25    1    1    2    0    0  0.13935828232E+03 -0.54686146978E+02 -0.31067378401E+02  0.19748794273E+03  0.12500000000E+03 0.  0.
         25    1    1    2    0    0 -0.13935828232E+03  0.54686146978E+02  0.37095271710E+03  0.41909691462E+03  0.12500000000E+03 0.  0.
</event>
<event>
 4    0  0.2151074E-002  0.2538831E+03  0.7546771E-02  0.1110875E+00
         21   -1    0    0  502  501  0.00000000000E+00  0.00000000000E+00  0.37077896181E+03  0.37077896181E+03  0.00000000000E+00 0.  1.
         21   -1    0    0  501  502 -0.00000000000E+00 -0.00000000000E+00 -0.17384114239E+03  0.17384114239E+03  0.00000000000E+00 0.  1.
         25    1    1    2    0    0  0.14053832574E+03  0.23872674191E+02 -0.82637526480E+02  0.20682090406E+03  0.12500000000E+03 0.  0.
         25    1    1    2    0    0 -0.14053832574E+03 -0.23872674191E+02  0.27957534590E+03  0.33779920014E+03  0.12500000000E+03 0.  0.
</event>
<event>
 4    0  0.2151074E-002  0.2589165E+03  0.7546771E-02  0.1107796E+00
         21   -1    0    0  502  501  0.00000000000E+00  0.00000000000E+00  0.45435125666E+03  0.45435125666E+03  0.00000000000E+00 0. -1.
         21   -1    0    0  501  502 -0.00000000000E+00 -0.00000000000E+00 -0.14754604683E+03  0.14754604683E+03  0.00000000000E+00 0. -1.
         25    1    1    2    0    0 -0.20406755913E+03  0.92878438569E+02  0.11411007205E+03  0.28092006262E+03  0.12500000000E+03 0.  0.
         25    1    1    2    0    0  0.20406755913E+03 -0.92878438569E+02  0.19269513777E+03  0.32097724088E+03  0.12500000000E+03 0.  0.
</event>
<event>
 4    0  0.2151074E-002  0.1748424E+03  0.7546771E-02  0.1172890E+00
         21   -1    0    0  502  501  0.00000000000E+00  0.00000000000E+00  0.13505404547E+03  0.13505404547E+03  0.00000000000E+00 0.  1.
         21   -1    0    0  501  502 -0.00000000000E+00 -0.00000000000E+00 -0.22635271609E+03  0.22635271609E+03  0.00000000000E+00 0.  1.
         25    1    1    2    0    0  0.82483851203E+02  0.37837227607E+02  0.39008705628E+02  0.15931704434E+03  0.12500000000E+03 0.  0.
         25    1    1    2    0    0 -0.82483851203E+02 -0.37837227607E+02 -0.13030737625E+03  0.20208971722E+03  0.12500000000E+03 0.  0.
</event>
<event>
 4    0  0.2151074E-002  0.4305625E+03  0.7546771E-02  0.1033682E+00
         21   -1    0    0  502  501  0.00000000000E+00  0.00000000000E+00  0.34512292601E+03  0.34512292601E+03  0.00000000000E+00 0.  1.
         21   -1    0    0  501  502 -0.00000000000E+00 -0.00000000000E+00 -0.53715378362E+03  0.53715378362E+03  0.00000000000E+00 0. -1.
         25    1    1    2    0    0  0.18242929862E+03  0.28873043755E+03  0.14010878645E+03  0.38974502768E+03  0.12500000000E+03 0.  0.
         25    1    1    2    0    0 -0.18242929862E+03 -0.28873043755E+03 -0.33213964406E+03  0.49253168194E+03  0.12500000000E+03 0.  0.
</event>
<event>
 4    0  0.2151074E-002  0.2019053E+03  0.7546771E-02  0.1148141E+00
         21   -1    0    0  502  501  0.00000000000E+00  0.00000000000E+00  0.90985823212E+03  0.90985823212E+03  0.00000000000E+00 0. -1.
         21   -1    0    0  501  502 -0.00000000000E+00 -0.00000000000E+00 -0.44804500200E+02  0.44804500200E+02  0.00000000000E+00 0. -1.
         25    1    1    2    0    0  0.12473748173E+03  0.97695680919E+02  0.41817402986E+03  0.46432575275E+03  0.12500000000E+03 0.  0.
         25    1    1    2    0    0 -0.12473748173E+03 -0.97695680919E+02  0.44687970206E+03  0.49033697957E+03  0.12500000000E+03 0.  0.
</event>
<event>
 4    0  0.2151074E-002  0.2127567E+03  0.7546771E-02  0.1139401E+00
         21   -1    0    0  502  501  0.00000000000E+00  0.00000000000E+00  0.89316464454E+03  0.89316464454E+03  0.00000000000E+00 0.  1.
         21   -1    0    0  501  502 -0.00000000000E+00 -0.00000000000E+00 -0.50679812384E+02  0.50679812384E+02  0.00000000000E+00 0.  1.
         25    1    1    2    0    0  0.12042969865E+03  0.40144252430E+02  0.16327519077E+03  0.24165814954E+03  0.12500000000E+03 0.  0.
         25    1    1    2    0    0 -0.12042969865E+03 -0.40144252430E+02  0.67920964139E+03  0.70218630738E+03  0.12500000000E+03 0.  0.
</event>
<event>
 4    0  0.2151074E-002  0.1842354E+03  0.7546771E-02  0.1163766E+00
         21   -1    0    0  502  501  0.00000000000E+00  0.00000000000E+00  0.13124564392E+04  0.13124564392E+04  0.00000000000E+00 0.  1.
         21   -1    0    0  501  502 -0.00000000000E+00 -0.00000000000E+00 -0.25861959761E+02  0.25861959761E+02  0.00000000000E+00 0.  1.
         25    1    1    2    0    0  0.11275216235E+02  0.60258732021E+02  0.10815541551E+04  0.10904781684E+04  0.12500000000E+03 0.  0.
         25    1    1    2    0    0 -0.11275216235E+02 -0.60258732021E+02  0.20504032426E+03  0.24784023051E+03  0.12500000000E+03 0.  0.
</event>
<event>
 4    0  0.2151074E-002  0.2637830E+03  0.7546771E-02  0.1104891E+00
         21   -1    0    0  502  501  0.00000000000E+00  0.00000000000E+00  0.11746172907E+03  0.11746172907E+03  0.00000000000E+00 0.  1.
         21   -1    0    0  501  502 -0.00000000000E+00 -0.00000000000E+00 -0.59237558215E+03  0.59237558215E+03  0.00000000000E+00 0.  1.
         25    1    1    2    0    0  0.11906393818E+03  0.64427809014E+02 -0.49142883387E+03  0.52483755840E+03  0.12500000000E+03 0.  0.
         25    1    1    2    0    0 -0.11906393818E+03 -0.64427809014E+02  0.16514980800E+02  0.18499975281E+03  0.12500000000E+03 0.  0.
</event>
<event>
 4    0  0.2151074E-002  0.3570293E+03  0.7546771E-02  0.1059766E+00
         21   -1    0    0  502  501  0.00000000000E+00  0.00000000000E+00  0.14103482048E+03  0.14103482048E+03  0.00000000000E+00 0. -1.
         21   -1    0    0  501  502 -0.00000000000E+00 -0.00000000000E+00 -0.90381879124E+03  0.90381879124E+03  0.00000000000E+00 0. -1.
         25    1    1    2    0    0  0.12795985384E+03  0.14495693409E+03  0.17889591942E+02  0.23093564999E+03  0.12500000000E+03 0.  0.
         25    1    1    2    0    0 -0.12795985384E+03 -0.14495693409E+03 -0.78067356270E+03  0.81391796173E+03  0.12500000000E+03 0.  0.
</event>
<event>
 4    0  0.2151074E-002  0.2784571E+03  0.7546771E-02  0.1096535E+00
         21   -1    0    0  502  501  0.00000000000E+00  0.00000000000E+00  0.14470929566E+03  0.14470929566E+03  0.00000000000E+00 0. -1.
         21   -1    0    0  501  502 -0.00000000000E+00 -0.00000000000E+00 -0.53582135231E+03  0.53582135231E+03  0.00000000000E+00 0. -1.
         25    1    1    2    0    0 -0.25098415841E+02 -0.31892910939E+02 -0.49553894717E+03  0.51267039744E+03  0.12500000000E+03 0.  0.
         25    1    1    2    0    0  0.25098415841E+02  0.31892910939E+02  0.10442689052E+03  0.16786025054E+03  0.12500000000E+03 0.  0.
</event>
<event>
 4    0  0.2151074E-002  0.2054400E+03  0.7546771E-02  0.1145229E+00
         21   -1    0    0  502  501  0.00000000000E+00  0.00000000000E+00  0.25289091666E+02  0.25289091666E+02  0.00000000000E+00 0.  1.
         21   -1    0    0  501  502 -0.00000000000E+00 -0.00000000000E+00 -0.16689244390E+04  0.16689244390E+04  0.00000000000E+00 0.  1.
         25    1    1    2    0    0  0.97698321203E+02 -0.11670620321E+03 -0.58084568364E+03  0.61332862973E+03  0.12500000000E+03 0.  0.
         25    1    1    2    0    0 -0.97698321203E+02  0.11670620321E+03 -0.10627896637E+04  0.10808849010E+04  0.12500000000E+03 0.  0.
</event>
<event>
 4    0  0.2151074E-002  0.2279241E+03  0.7546771E-02  0.1128109E+00
         21   -1    0    0  502  501  0.00000000000E+00  0.00000000000E+00  0.30525137642E+03  0.30525137642E+03  0.00000000000E+00 0.  1.
         21   -1    0    0  501  502 -0.00000000000E+00 -0.00000000000E+00 -0.17018568476E+03  0.17018568476E+03  0.00000000000E+00 0.  1.
         25    1    1    2    0    0  0.12266753813E+03  0.12619331686E+03  0.14383633694E+03  0.25939539309E+03  0.12500000000E+03 0.  0.
         25    1    1    2    0    0 -0.12266753813E+03 -0.12619331686E+03 -0.87706452781E+01  0.21604166809E+03  0.12500000000E+03 0.  0.
</event>
<event>
 4    0  0.2151074E-002  0.1517833E+03  0.7546771E-02  0.1198299E+00
         21   -1    0    0  502  501  0.00000000000E+00  0.00000000000E+00  0.11553231926E+03  0.11553231926E+03  0.00000000000E+00 0. -1.
         21   -1    0    0  501  502 -0.00000000000E+00 -0.00000000000E+00 -0.19940882380E+03  0.19940882380E+03  0.00000000000E+00 0. -1.
         25    1    1    2    0    0 -0.63784241872E+02 -0.42498272121E+02 -0.12430935833E+01  0.14663245864E+03  0.12500000000E+03 0.  0.
         25    1    1    2    0    0  0.63784241872E+02  0.42498272121E+02 -0.82633410962E+02  0.16830868442E+03  0.12500000000E+03 0.  0.
</event>
<event>
 4    0  0.2151074E-002  0.1959135E+03  0.7546771E-02  0.1153233E+00
         21   -1    0    0  502  501  0.00000000000E+00  0.00000000000E+00  0.94745604908E+02  0.94745604908E+02  0.00000000000E+00 0.  1.
         21   -1    0    0  501  502 -0.00000000000E+00 -0.00000000000E+00 -0.40510710629E+03  0.40510710629E+03  0.00000000000E+00 0.  1.
         25    1    1    2    0    0 -0.13772380409E+03 -0.59706894521E+02 -0.17428890453E+03  0.26179072120E+03  0.12500000000E+03 0.  0.
         25    1    1    2    0    0  0.13772380409E+03  0.59706894521E+02 -0.13607259685E+03  0.23806199000E+03  0.12500000000E+03 0.  0.
</event>
<event>
 4    0  0.2151074E-002  0.1556798E+03  0.7546771E-02  0.1193662E+00
         21   -1    0    0  502  501  0.00000000000E+00  0.00000000000E+00  0.36974543718E+03  0.36974543718E+03  0.00000000000E+00 0.  1.
         21   -1    0    0  501  502 -0.00000000000E+00 -0.00000000000E+00 -0.65548322825E+02  0.65548322825E+02  0.00000000000E+00 0.  1.
         25    1    1    2    0    0  0.66168982026E+02  0.55439101505E+02  0.19970112250E+03  0.25091306559E+03  0.12500000000E+03 0.  0.
         25    1    1    2    0    0 -0.66168982026E+02 -0.55439101505E+02  0.10449599186E+03  0.18438069441E+03  0.12500000000E+03 0.  0.
</event>
<event>
 4    0  0.2151074E-002  0.2554150E+03  0.7546771E-02  0.1109930E+00
         21   -1    0    0  502  501  0.00000000000E+00  0.00000000000E+00  0.25284163355E+03  0.25284163355E+03  0.00000000000E+00 0.  1.
         21   -1    0    0  501  502 -0.00000000000E+00 -0.00000000000E+00 -0.25801448319E+03  0.25801448319E+03  0.00000000000E+00 0.  1.
         25    1    1    2    0    0 -0.18770421320E+01 -0.93681718574E+02  0.19949326930E+03  0.25338183080E+03  0.12500000000E+03 0.  0.
         25    1    1    2    0    0  0.18770421320E+01  0.93681718574E+02 -0.20466611893E+03  0.25747428594E+03  0.12500000000E+03 0.  0.
</event>
<event>
 4    0  0.2151074E-002  0.4771326E+03  0.7546771E-02  0.1019926E+00
         21   -1    0    0  502  501  0.00000000000E+00  0.00000000000E+00  0.58881476983E+03  0.58881476983E+03  0.00000000000E+00 0. -1.
         21   -1    0    0  501  502 -0.00000000000E+00 -0.00000000000E+00 -0.38663346944E+03  0.38663346944E+03  0.00000000000E+00 0. -1.
         25    1    1    2    0    0  0.26674141031E+03 -0.27014074568E+03 -0.16527684457E+03  0.43251408971E+03  0.12500000000E+03 0.  0.
         25    1    1    2    0    0 -0.26674141031E+03  0.27014074568E+03  0.36745814496E+03  0.54293414955E+03  0.12500000000E+03 0.  0.
</event>
<event>
 4    0  0.2151074E-002  0.2363788E+03  0.7546771E-02  0.1122229E+00
         21   -1    0    0  502  501  0.00000000000E+00  0.00000000000E+00  0.12779531143E+03  0.12779531143E+03  0.00000000000E+00 0. -1.
         21   -1    0    0  501  502 -0.00000000000E+00 -0.00000000000E+00 -0.43722225495E+03  0.43722225495E+03  0.00000000000E+00 0.  1.
         25    1    1    2    0    0 -0.19928733050E+03 -0.17612407064E+02 -0.17261354083E+03  0.29231159994E+03  0.12500000000E+03 0.  0.
         25    1    1    2    0    0  0.19928733050E+03  0.17612407064E+02 -0.13681340269E+03  0.27270596645E+03  0.12500000000E+03 0.  0.
</event>
<event>
 4    0  0.2151074E-002  0.1797254E+03  0.7546771E-02  0.1168069E+00
         21   -1    0    0  502  501  0.00000000000E+00  0.00000000000E+00  0.32332309776E+03  0.32332309776E+03  0.00000000000E+00 0. -1.
         21   -1    0    0  501  502 -0.00000000000E+00 -0.00000000000E+00 -0.99903843244E+02  0.99903843244E+02  0.00000000000E+00 0. -1.
         25    1    1    2    0    0  0.11240711574E+03  0.58242560940E+02  0.81721875155E+02  0.19578309542E+03  0.12500000000E+03 0.  0.
         25    1    1    2    0    0 -0.11240711574E+03 -0.58242560940E+02  0.14169737936E+03  0.22744384558E+03  0.12500000000E+03 0.  0.
</event>
<event>
 4    0  0.2151074E-002  0.2300762E+03  0.7546771E-02  0.1126586E+00
         21   -1    0    0  502  501  0.00000000000E+00  0.00000000000E+00  0.77099665665E+02  0.77099665665E+02  0.00000000000E+00 0. -1.
         21   -1    0    0  501  502 -0.00000000000E+00 -0.00000000000E+00 -0.68657959231E+03  0.68657959231E+03  0.00000000000E+00 0. -1.
         25    1    1    2    0    0  0.35305398997E+02  0.12545087625E+03 -0.54134918782E+03  0.57067358157E+03  0.12500000000E+03 0.  0.
         25    1    1    2    0    0 -0.35305398997E+02 -0.12545087625E+03 -0.68130738827E+02  0.19300567640E+03  0.12500000000E+03 0.  0.
</event>
<event>
 4    0  0.2151074E-002  0.1686362E+03  0.7546771E-02  0.1179278E+00
         21   -1    0    0  502  501  0.00000000000E+00  0.00000000000E+00  0.19318677376E+04  0.19318677376E+04  0.00000000000E+00 0. -1.
         21   -1    0    0  501  502 -0.00000000000E+00 -0.00000000000E+00 -0.14720560033E+02  0.14720560033E+02  0.00000000000E+00 0. -1.
         25    1    1    2    0    0 -0.23376090430E+02  0.77899379542E+02  0.14129688086E+04  0.14208168808E+04  0.12500000000E+03 0.  0.
         25    1    1    2    0    0  0.23376090430E+02 -0.77899379542E+02  0.50417836905E+03  0.52577141683E+03  0.12500000000E+03 0.  0.
</event>
<event>
 4    0  0.2151074E-002  0.1842278E+03  0.7546771E-02  0.1163773E+00
         21   -1    0    0  502  501  0.00000000000E+00  0.00000000000E+00  0.61693445365E+02  0.61693445365E+02  0.00000000000E+00 0.  1.
         21   -1    0    0  501  502 -0.00000000000E+00 -0.00000000000E+00 -0.55013736137E+03  0.55013736137E+03  0.00000000000E+00 0.  1.
         25    1    1    2    0    0 -0.10278808441E+01  0.64037246509E+02 -0.46256322106E+02  0.14787316462E+03  0.12500000000E+03 0.  0.
         25    1    1    2    0    0  0.10278808441E+01 -0.64037246509E+02 -0.44218759390E+03  0.46395764211E+03  0.12500000000E+03 0.  0.
</event>
<event>
 4    0  0.2151074E-002  0.2105692E+03  0.7546771E-02  0.1141116E+00
         21   -1    0    0  502  501  0.00000000000E+00  0.00000000000E+00  0.12426267942E+04  0.12426267942E+04  0.00000000000E+00 0.  1.
         21   -1    0    0  501  502 -0.00000000000E+00 -0.00000000000E+00 -0.35681966141E+02  0.35681966141E+02  0.00000000000E+00 0.  1.
         25    1    1    2    0    0  0.16257786079E+03  0.56851108507E+01  0.74746799743E+03  0.77511114589E+03  0.12500000000E+03 0.  0.
         25    1    1    2    0    0 -0.16257786079E+03 -0.56851108507E+01  0.45947683062E+03  0.50319761444E+03  0.12500000000E+03 0.  0.
</event>
<event>
 4    0  0.2151074E-002  0.1817086E+03  0.7546771E-02  0.1166160E+00
         21   -1    0    0  502  501  0.00000000000E+00  0.00000000000E+00  0.52383290062E+03  0.52383290062E+03  0.00000000000E+00 0. -1.
         21   -1    0    0  501  502 -0.00000000000E+00 -0.00000000000E+00 -0.63031604454E+02  0.63031604454E+02  0.00000000000E+00 0. -1.
         25    1    1    2    0    0  0.21388595013E+02  0.10142319040E+03  0.36207674376E+03  0.39682326535E+03  0.12500000000E+03 0.  0.
         25    1    1    2    0    0 -0.21388595013E+02 -0.10142319040E+03  0.98724552401E+02  0.19004123972E+03  0.12500000000E+03 0.  0.
</event>
<event>
 4    0  0.2151074E-002  0.2865209E+03  0.7546771E-02  0.1092180E+00
         21   -1    0    0  502  501  0.00000000000E+00  0.00000000000E+00  0.16848708363E+03  0.16848708363E+03  0.00000000000E+00 0.  1.
         21   -1    0    0  501  502 -0.00000000000E+00 -0.00000000000E+00 -0.48724337103E+03  0.48724337103E+03  0.00000000000E+00 0.  1.
         25    1    1    2    0    0 -0.18912654281E+03 -0.29715086249E+02 -0.35697217229E+03  0.42391740627E+03  0.12500000000E+03 0.  0.
         25    1    1    2    0    0  0.18912654281E+03  0.29715086249E+02  0.38215884890E+02  0.23181304839E+03  0.12500000000E+03 0.  0.
</event>
<event>
 4    0  0.2151074E-002  0.2528949E+03  0.7546771E-02  0.1111489E+00
         21   -1    0    0  502  501  0.00000000000E+00  0.00000000000E+00  0.75089378812E+03  0.75089378812E+03  0.00000000000E+00 0.  1.
         21   -1    0    0  501  502 -0.00000000000E+00 -0.00000000000E+00 -0.85172965702E+02  0.85172965702E+02  0.00000000000E+00 0.  1.
         25    1    1    2    0    0 -0.13179457637E+02 -0.12652502292E+03  0.62924229685E+03  0.65402839974E+03  0.12500000000E+03 0.  0.
         25    1    1    2    0    0  0.13179457637E+02  0.12652502292E+03  0.36478525568E+02  0.18203835408E+03  0.12500000000E+03 0.  0.
</event>
<event>
 4    0  0.2151074E-002  0.1895205E+03  0.7546771E-02  0.1158895E+00
         21   -1    0    0  502  501  0.00000000000E+00  0.00000000000E+00  0.14862002780E+03  0.14862002780E+03  0.00000000000E+00 0.  1.
         21   -1    0    0  501  502 -0.00000000000E+00 -0.00000000000E+00 -0.24167682395E+03  0.24167682395E+03  0.00000000000E+00 0.  1.
         25    1    1    2    0    0  0.77968499115E+02 -0.47922613161E+02 -0.15893680042E+03  0.22194947676E+03  0.12500000000E+03 0.  0.
         25    1    1    2    0    0 -0.77968499115E+02  0.47922613161E+02  0.65880004267E+02  0.16834737500E+03  0.12500000000E+03 0.  0.
</event>
<event>
 4    0  0.2151074E-002  0.2662342E+03  0.7546771E-02  0.1103454E+00
         21   -1    0    0  502  501  0.00000000000E+00  0.00000000000E+00  0.20411779715E+03  0.20411779715E+03  0.00000000000E+00 0.  1.
         21   -1    0    0  501  502 -0.00000000000E+00 -0.00000000000E+00 -0.34725372883E+03  0.34725372883E+03  0.00000000000E+00 0.  1.
         25    1    1    2    0    0 -0.14768012260E+03  0.18145101872E+03 -0.47914638973E+02  0.26954536433E+03  0.12500000000E+03 0.  0.
         25    1    1    2    0    0  0.14768012260E+03 -0.18145101872E+03 -0.95221292706E+02  0.28182616165E+03  0.12500000000E+03 0.  0.
</event>
<event>
 4    0  0.2151074E-002  0.2574456E+03  0.7546771E-02  0.1108688E+00
         21   -1    0    0  502  501  0.00000000000E+00  0.00000000000E+00  0.26310740231E+03  0.26310740231E+03  0.00000000000E+00 0.  1.
         21   -1    0    0  501  502 -0.00000000000E+00 -0.00000000000E+00 -0.25190565331E+03  0.25190565331E+03  0.00000000000E+00 0.  1.
         25    1    1    2    0    0  0.76123912204E+02  0.19638699606E+03 -0.73730816393E+02  0.25578103041E+03  0.12500000000E+03 0.  0.
         25    1    1    2    0    0 -0.76123912204E+02 -0.19638699606E+03  0.84932565393E+02  0.25923202521E+03  0.12500000000E+03 0.  0.
</event>
<event>
 4    0  0.2151074E-002  0.2044687E+03  0.7546771E-02  0.1146023E+00
         21   -1    0    0  502  501  0.00000000000E+00  0.00000000000E+00  0.16633922310E+04  0.16633922310E+04  0.00000000000E+00 0. -1.
         21   -1    0    0  501  502 -0.00000000000E+00 -0.00000000000E+00 -0.25133839655E+02  0.25133839655E+02  0.00000000000E+00 0. -1.
         25    1    1    2    0    0 -0.86176075163E+02  0.12375724679E+03  0.57694446876E+03  0.60928818476E+03  0.12500000000E+03 0.  0.
         25    1    1    2    0    0  0.86176075163E+02 -0.12375724679E+03  0.10613139226E+04  0.10792378859E+04  0.12500000000E+03 0.  0.
</event>
<event>
 4    0  0.2151074E-002  0.1432366E+03  0.7546771E-02  0.1209039E+00
         21   -1    0    0  502  501  0.00000000000E+00  0.00000000000E+00  0.28316161924E+03  0.28316161924E+03  0.00000000000E+00 0. -1.
         21   -1    0    0  501  502 -0.00000000000E+00 -0.00000000000E+00 -0.72455857761E+02  0.72455857761E+02  0.00000000000E+00 0. -1.
         25    1    1    2    0    0  0.69850359811E+02  0.31558217183E+01  0.10331839515E+03  0.17660329202E+03  0.12500000000E+03 0.  0.
         25    1    1    2    0    0 -0.69850359811E+02 -0.31558217183E+01  0.10738736633E+03  0.17901418498E+03  0.12500000000E+03 0.  0.
</event>
<event>
 4    0  0.2151074E-002  0.1909924E+03  0.7546771E-02  0.1157569E+00
         21   -1    0    0  502  501  0.00000000000E+00  0.00000000000E+00  0.12194946515E+03  0.12194946515E+03  0.00000000000E+00 0.  1.
         21   -1    0    0  501  502 -0.00000000000E+00 -0.00000000000E+00 -0.29912470893E+03  0.29912470893E+03  0.00000000000E+00 0.  1.
         25    1    1    2    0    0  0.93539875476E+02  0.10158159377E+03 -0.42020512402E+02  0.19094305947E+03  0.12500000000E+03 0.  0.
         25    1    1    2    0    0 -0.93539875476E+02 -0.10158159377E+03 -0.13515473138E+03  0.23013111461E+03  0.12500000000E+03 0.  0.
</event>
<event>
 4    0  0.2151074E-002  0.2501162E+03  0.7546771E-02  0.1113231E+00
         21   -1    0    0  502  501  0.00000000000E+00  0.00000000000E+00  0.27290674497E+03  0.27290674497E+03  0.00000000000E+00 0.  1.
         21   -1    0    0  501  502 -0.00000000000E+00 -0.00000000000E+00 -0.22922895319E+03  0.22922895319E+03  0.00000000000E+00 0.  1.
         25    1    1    2    0    0 -0.83620359733E+02  0.11332824500E+03  0.18707829920E+03  0.26544103999E+03  0.12500000000E+03 0.  0.
         25    1    1    2    0    0  0.83620359733E+02 -0.11332824500E+03 -0.14340050742E+03  0.23669465817E+03  0.12500000000E+03 0.  0.
</event>
<event>
 4    0  0.2151074E-002  0.2485567E+03  0.7546771E-02  0.1114220E+00
         21   -1    0    0  502  501  0.00000000000E+00  0.00000000000E+00  0.60238952236E+03  0.60238952236E+03  0.00000000000E+00 0. -1.
         21   -1    0    0  501  502 -0.00000000000E+00 -0.00000000000E+00 -0.10255892225E+03  0.10255892225E+03  0.00000000000E+00 0. -1.
         25    1    1    2    0    0  0.20454609123E+03  0.43267652308E+02  0.32002412722E+03  0.40218358392E+03  0.12500000000E+03 0.  0.
         25    1    1    2    0    0 -0.20454609123E+03 -0.43267652308E+02  0.17980647289E+03  0.30276486069E+03  0.12500000000E+03 0.  0.
</event>
<event>
 4    0  0.2151074E-002  0.2537660E+03  0.7546771E-02  0.1110948E+00
         21   -1    0    0  502  501  0.00000000000E+00  0.00000000000E+00  0.47900681558E+03  0.47900681558E+03  0.00000000000E+00 0.  1.
         21   -1    0    0  501  502 -0.00000000000E+00 -0.00000000000E+00 -0.13443899803E+03  0.13443899803E+03  0.00000000000E+00 0.  1.
         25    1    1    2    0    0  0.10433909107E+03 -0.18835708578E+03  0.23158532814E+03  0.34003206011E+03  0.12500000000E+03 0.  0.
         25    1    1    2    0    0 -0.10433909107E+03  0.18835708578E+03  0.11298248940E+03  0.27341375350E+03  0.12500000000E+03 0.  0.
</event>
<event>
 4    0  0.2151074E-002  0.2491057E+03  0.7546771E-02  0.1113871E+00
         21   -1    0    0  502  501  0.00000000000E+00  0.00000000000E+00  0.51057166929E+03  0.51057166929E+03  0.00000000000E+00 0.  1.
         21   -1    0    0  501  502 -0.00000000000E+00 -0.00000000000E+00 -0.12153754707E+03  0.12153754707E+03  0.00000000000E+00 0.  1.
         25    1    1    2    0    0 -0.17572237753E+03 -0.10768768072E+03  0.11474019457E+03  0.26695561952E+03  0.12500000000E+03 0.  0.
         25    1    1    2    0    0  0.17572237753E+03  0.10768768072E+03  0.27429392765E+03  0.36515359685E+03  0.12500000000E+03 0.  0.
</event>
<event>
 4    0  0.2151074E-002  0.4811552E+03  0.7546771E-02  0.1018818E+00
         21   -1    0    0  502  501  0.00000000000E+00  0.00000000000E+00  0.54365298075E+03  0.54365298075E+03  0.00000000000E+00 0.  1.
         21   -1    0    0  501  502 -0.00000000000E+00 -0.00000000000E+00 -0.42584211471E+03  0.42584211471E+03  0.00000000000E+00 0.  1.
         25    1    1    2    0    0  0.34604952284E+03 -0.54995836447E+02  0.36632379680E+03  0.52210433668E+03  0.12500000000E+03 0.  0.
         25    1    1    2    0    0 -0.34604952284E+03  0.54995836447E+02 -0.24851293076E+03  0.44739075878E+03  0.12500000000E+03 0.  0.
</event>
<event>
 4    0  0.2151074E-002  0.1695687E+03  0.7546771E-02  0.1178298E+00
         21   -1    0    0  502  501  0.00000000000E+00  0.00000000000E+00  0.74797923221E+03  0.74797923221E+03  0.00000000000E+00 0. -1.
         21   -1    0    0  501  502 -0.00000000000E+00 -0.00000000000E+00 -0.38441617135E+02  0.38441617135E+02  0.00000000000E+00 0. -1.
         25    1    1    2    0    0 -0.37371369685E+02 -0.10022446674E+03  0.25952584734E+03  0.30727874714E+03  0.12500000000E+03 0.  0.
         25    1    1    2    0    0  0.37371369685E+02  0.10022446674E+03  0.45001176774E+03  0.47914210221E+03  0.12500000000E+03 0.  0.
</event>
<event>
 4    0  0.2151074E-002  0.1816200E+03  0.7546771E-02  0.1166244E+00
         21   -1    0    0  502  501  0.00000000000E+00  0.00000000000E+00  0.30583613259E+02  0.30583613259E+02  0.00000000000E+00 0. -1.
         21   -1    0    0  501  502 -0.00000000000E+00 -0.00000000000E+00 -0.10785458900E+04  0.10785458900E+04  0.00000000000E+00 0. -1.
         25    1    1    2    0    0 -0.12260679229E+03  0.34560000001E+02 -0.42115648929E+03  0.45741076462E+03  0.12500000000E+03 0.  0.
         25    1    1    2    0    0  0.12260679229E+03 -0.34560000001E+02 -0.62680578747E+03  0.65171873866E+03  0.12500000000E+03 0.  0.
</event>
<event>
 4    0  0.2151074E-002  0.2361610E+03  0.7546771E-02  0.1122377E+00
         21   -1    0    0  502  501  0.00000000000E+00  0.00000000000E+00  0.62469618670E+03  0.62469618670E+03  0.00000000000E+00 0.  1.
         21   -1    0    0  501  502 -0.00000000000E+00 -0.00000000000E+00 -0.89278610686E+02  0.89278610686E+02  0.00000000000E+00 0.  1.
         25    1    1    2    0    0 -0.19010994168E+02  0.19063909698E+03  0.17901960629E+03  0.29047840305E+03  0.12500000000E+03 0.  0.
         25    1    1    2    0    0  0.19010994168E+02 -0.19063909698E+03  0.35639796972E+03  0.42349639434E+03  0.12500000000E+03 0.  0.
</event>
<event>
 4    0  0.2151074E-002  0.2736517E+03  0.7546771E-02  0.1099208E+00
         21   -1    0    0  502  501  0.00000000000E+00  0.00000000000E+00  0.51653303811E+03  0.51653303811E+03  0.00000000000E+00 0. -1.
         21   -1    0    0  501  502 -0.00000000000E+00 -0.00000000000E+00 -0.14497667424E+03  0.14497667424E+03  0.00000000000E+00 0. -1.
         25    1    1    2    0    0  0.34264417826E+02  0.21491216366E+03  0.53933536800E+02  0.25670043789E+03  0.12500000000E+03 0.  0.
         25    1    1    2    0    0 -0.34264417826E+02 -0.21491216366E+03  0.31762282706E+03  0.40480927446E+03  0.12500000000E+03 0.  0.
</event>
<event>
 4    0  0.2151074E-002  0.2122937E+03  0.7546771E-02  0.1139762E+00
         21   -1    0    0  502  501  0.00000000000E+00  0.00000000000E+00  0.17502272358E+03  0.17502272358E+03  0.00000000000E+00 0. -1.
         21   -1    0    0  501  502 -0.00000000000E+00 -0.00000000000E+00 -0.25750152214E+03  0.25750152214E+03  0.00000000000E+00 0. -1.
         25    1    1    2    0    0 -0.15482454971E+03  0.64068727257E+02 -0.35591190362E+01  0.20907680487E+03  0.12500000000E+03 0.  0.
         25    1    1    2    0    0  0.15482454971E+03 -0.64068727257E+02 -0.78919679520E+02  0.22344744085E+03  0.12500000000E+03 0.  0.
</event>
<event>
 4    0  0.2151074E-002  0.2115530E+03  0.7546771E-02  0.1140342E+00
         21   -1    0    0  502  501  0.00000000000E+00  0.00000000000E+00  0.19130723993E+03  0.19130723993E+03  0.00000000000E+00 0. -1.
         21   -1    0    0  501  502 -0.00000000000E+00 -0.00000000000E+00 -0.23394131840E+03  0.23394131840E+03  0.00000000000E+00 0. -1.
         25    1    1    2    0    0 -0.95834671406E+02  0.40677995881E+02  0.11461087788E+03  0.19899657515E+03  0.12500000000E+03 0.  0.
         25    1    1    2    0    0  0.95834671406E+02 -0.40677995881E+02 -0.15724495636E+03  0.22625198318E+03  0.12500000000E+03 0.  0.
</event>
<event>
 4    0  0.2151074E-002  0.1485434E+03  0.7546771E-02  0.1202274E+00
         21   -1    0    0  502  501  0.00000000000E+00  0.00000000000E+00  0.32462896969E+03  0.32462896969E+03  0.00000000000E+00 0.  1.
         21   -1    0    0  501  502 -0.00000000000E+00 -0.00000000000E+00 -0.67970359482E+02  0.67970359482E+02  0.00000000000E+00 0.  1.
         25    1    1    2    0    0  0.41002569411E+02  0.30533115215E+02  0.21007716899E+03  0.24974166404E+03  0.12500000000E+03 0.  0.
         25    1    1    2    0    0 -0.41002569411E+02 -0.30533115215E+02  0.46581441219E+02  0.14285766514E+03  0.12500000000E+03 0.  0.
</event>
<event>
 4    0  0.2151074E-002  0.2309390E+03  0.7546771E-02  0.1125981E+00
         21   -1    0    0  502  501  0.00000000000E+00  0.00000000000E+00  0.56605965063E+02  0.56605965063E+02  0.00000000000E+00 0.  1.
         21   -1    0    0  501  502 -0.00000000000E+00 -0.00000000000E+00 -0.94217654704E+03  0.94217654704E+03  0.00000000000E+00 0.  1.
         25    1    1    2    0    0 -0.45573185424E+01  0.15752983792E+03 -0.68811857777E+03  0.71691603138E+03  0.12500000000E+03 0.  0.
         25    1    1    2    0    0  0.45573185424E+01 -0.15752983792E+03 -0.19745200421E+03  0.28186648072E+03  0.12500000000E+03 0.  0.
</event>
<event>
 4    0  0.2151074E-002  0.2258767E+03  0.7546771E-02  0.1129576E+00
         21   -1    0    0  502  501  0.00000000000E+00  0.00000000000E+00  0.63943005912E+03  0.63943005912E+03  0.00000000000E+00 0. -1.
         21   -1    0    0  501  502 -0.00000000000E+00 -0.00000000000E+00 -0.79790273938E+02  0.79790273938E+02  0.00000000000E+00 0. -1.
         25    1    1    2    0    0 -0.13120853934E+03 -0.13261415541E+03  0.31859259706E+03  0.38977998654E+03  0.12500000000E+03 0.  0.
         25    1    1    2    0    0  0.13120853934E+03  0.13261415541E+03  0.24104718813E+03  0.32944034652E+03  0.12500000000E+03 0.  0.
</event>
<event>
 4    0  0.2151074E-002  0.2831660E+03  0.7546771E-02  0.1093972E+00
         21   -1    0    0  502  501  0.00000000000E+00  0.00000000000E+00  0.10541589218E+03  0.10541589218E+03  0.00000000000E+00 0.  1.
         21   -1    0    0  501  502 -0.00000000000E+00 -0.00000000000E+00 -0.76063442134E+03  0.76063442134E+03  0.00000000000E+00 0.  1.
         25    1    1    2    0    0  0.55624378524E+02 -0.24390067239E+03 -0.25962574268E+03  0.38159158238E+03  0.12500000000E+03 0.  0.
         25    1    1    2    0    0 -0.55624378524E+02  0.24390067239E+03 -0.39559278647E+03  0.48445873115E+03  0.12500000000E+03 0.  0.
</event>
<event>
 4    0  0.2151074E-002  0.2116504E+03  0.7546771E-02  0.1140266E+00
         21   -1    0    0  502  501  0.00000000000E+00  0.00000000000E+00  0.30938571355E+02  0.30938571355E+02  0.00000000000E+00 0.  1.
         21   -1    0    0  501  502 -0.00000000000E+00 -0.00000000000E+00 -0.14478980919E+04  0.14478980919E+04  0.00000000000E+00 0.  1.
         25    1    1    2    0    0  0.88701204042E+02  0.11041442533E+02 -0.20003338901E+03  0.25224625621E+03  0.12500000000E+03 0.  0.
         25    1    1    2    0    0 -0.88701204042E+02 -0.11041442533E+02 -0.12169261316E+04  0.12265904071E+04  0.12500000000E+03 0.  0.
</event>
<event>
 4    0  0.2151074E-002  0.5694509E+03  0.7546771E-02  0.9970895E-01
         21   -1    0    0  502  501  0.00000000000E+00  0.00000000000E+00  0.18880413823E+03  0.18880413823E+03  0.00000000000E+00 0.  1.
         21   -1    0    0  501  502 -0.00000000000E+00 -0.00000000000E+00 -0.17175168180E+04  0.17175168180E+04  0.00000000000E+00 0. -1.
         25    1    1    2    0    0 -0.34617932709E+03  0.38021748862E+03 -0.41228062546E+03  0.67082470086E+03  0.12500000000E+03 0.  0.
         25    1    1    2    0    0  0.34617932709E+03 -0.38021748862E+03 -0.11164320543E+04  0.12354962554E+04  0.12500000000E+03 0.  0.
</event>
<event>
 4    0  0.2151074E-002  0.2286654E+03  0.7546771E-02  0.1127583E+00
         21   -1    0    0  502  501  0.00000000000E+00  0.00000000000E+00  0.75806157401E+02  0.75806157401E+02  0.00000000000E+00 0.  1.
         21   -1    0    0  501  502 -0.00000000000E+00 -0.00000000000E+00 -0.68975727152E+03  0.68975727152E+03  0.00000000000E+00 0.  1.
         25    1    1    2    0    0  0.17595545898E+03  0.71577941272E+02 -0.34725989510E+03  0.41508813518E+03  0.12500000000E+03 0.  0.
         25    1    1    2    0    0 -0.17595545898E+03 -0.71577941272E+02 -0.26669121902E+03  0.35047529374E+03  0.12500000000E+03 0.  0.
</event>
<event>
 4    0  0.2151074E-002  0.2362903E+03  0.7546771E-02  0.1122289E+00
         21   -1    0    0  502  501  0.00000000000E+00  0.00000000000E+00  0.14595052970E+03  0.14595052970E+03  0.00000000000E+00 0. -1.
         21   -1    0    0  501  502 -0.00000000000E+00 -0.00000000000E+00 -0.38254807420E+03  0.38254807420E+03  0.00000000000E+00 0. -1.
         25    1    1    2    0    0  0.16171897492E+02  0.13607371209E+03  0.45414632553E+02  0.19095830498E+03  0.12500000000E+03 0.  0.
         25    1    1    2    0    0 -0.16171897492E+02 -0.13607371209E+03 -0.28201217705E+03  0.33754029892E+03  0.12500000000E+03 0.  0.
</event>
<event>
 4    0  0.2151074E-002  0.2894198E+03  0.7546771E-02  0.1090652E+00
         21   -1    0    0  502  501  0.00000000000E+00  0.00000000000E+00  0.74302049641E+03  0.74302049641E+03  0.00000000000E+00 0. -1.
         21   -1    0    0  501  502 -0.00000000000E+00 -0.00000000000E+00 -0.11273423345E+03  0.11273423345E+03  0.00000000000E+00 0. -1.
         25    1    1    2    0    0 -0.23895869734E+03  0.10385088509E+03  0.29164728381E+03  0.41057204425E+03  0.12500000000E+03 0.  0.
         25    1    1    2    0    0  0.23895869734E+03 -0.10385088509E+03  0.33863897915E+03  0.44518268561E+03  0.12500000000E+03 0.  0.
</event>
<event>
 4    0  0.2151074E-002  0.2448665E+03  0.7546771E-02  0.1116593E+00
         21   -1    0    0  502  501  0.00000000000E+00  0.00000000000E+00  0.45579544196E+02  0.45579544196E+02  0.00000000000E+00 0. -1.
         21   -1    0    0  501  502 -0.00000000000E+00 -0.00000000000E+00 -0.13154940415E+04  0.13154940415E+04  0.00000000000E+00 0. -1.
         25    1    1    2    0    0  0.18813389300E+03  0.27408930092E+02 -0.88645714894E+03  0.91519226836E+03  0.12500000000E+03 0.  0.
         25    1    1    2    0    0 -0.18813389300E+03 -0.27408930092E+02 -0.38345734839E+03  0.44588131737E+03  0.12500000000E+03 0.  0.
</event>
<event>
 4    0  0.2151074E-002  0.2424839E+03  0.7546771E-02  0.1118149E+00
         21   -1    0    0  502  501  0.00000000000E+00  0.00000000000E+00  0.16843665531E+04  0.16843665531E+04  0.00000000000E+00 0. -1.
         21   -1    0    0  501  502 -0.00000000000E+00 -0.00000000000E+00 -0.34908341715E+02  0.34908341715E+02  0.00000000000E+00 0. -1.
         25    1    1    2    0    0 -0.29520572885E+02  0.14738249438E+03  0.31614931372E+03  0.37171017264E+03  0.12500000000E+03 0.  0.
         25    1    1    2    0    0  0.29520572885E+02 -0.14738249438E+03  0.13333088976E+04  0.13475647221E+04  0.12500000000E+03 0.  0.
</event>
<event>
 4    0  0.2151074E-002  0.4075138E+03  0.7546771E-02  0.1041209E+00
         21   -1    0    0  502  501  0.00000000000E+00  0.00000000000E+00  0.97898423796E+03  0.97898423796E+03  0.00000000000E+00 0.  1.
         21   -1    0    0  501  502 -0.00000000000E+00 -0.00000000000E+00 -0.16963248056E+03  0.16963248056E+03  0.00000000000E+00 0.  1.
         25    1    1    2    0    0  0.30966092787E+02  0.86983194871E+02  0.93558579042E+03  0.94840431585E+03  0.12500000000E+03 0.  0.
         25    1    1    2    0    0 -0.30966092787E+02 -0.86983194871E+02 -0.12623403301E+03  0.20021240267E+03  0.12500000000E+03 0.  0.
</event>
<event>
 4    0  0.2151074E-002  0.2614174E+03  0.7546771E-02  0.1106295E+00
         21   -1    0    0  502  501  0.00000000000E+00  0.00000000000E+00  0.21603464743E+03  0.21603464743E+03  0.00000000000E+00 0.  1.
         21   -1    0    0  501  502 -0.00000000000E+00 -0.00000000000E+00 -0.31633368960E+03  0.31633368960E+03  0.00000000000E+00 0.  1.
         25    1    1    2    0    0 -0.15392744453E+03 -0.13917572529E+03 -0.15017775963E+03  0.28502964789E+03  0.12500000000E+03 0.  0.
         25    1    1    2    0    0  0.15392744453E+03  0.13917572529E+03  0.49878717464E+02  0.24733868914E+03  0.12500000000E+03 0.  0.
</event>
<event>
 4    0  0.2151074E-002  0.3693542E+03  0.7546771E-02  0.1054940E+00
         21   -1    0    0  502  501  0.00000000000E+00  0.00000000000E+00  0.22951384999E+03  0.22951384999E+03  0.00000000000E+00 0.  1.
         21   -1    0    0  501  502 -0.00000000000E+00 -0.00000000000E+00 -0.59439777361E+03  0.59439777361E+03  0.00000000000E+00 0.  1.
         25    1    1    2    0    0 -0.90495035904E+02  0.32510102736E+03 -0.27520648760E+03  0.45303823275E+03  0.12500000000E+03 0.  0.
         25    1    1    2    0    0  0.90495035904E+02 -0.32510102736E+03 -0.89677436008E+02  0.37087339085E+03  0.12500000000E+03 0.  0.
</event>
<event>
 4    0  0.2151074E-002  0.2253246E+03  0.7546771E-02  0.1129974E+00
         21   -1    0    0  502  501  0.00000000000E+00  0.00000000000E+00  0.41332828379E+03  0.41332828379E+03  0.00000000000E+00 0. -1.
         21   -1    0    0  501  502 -0.00000000000E+00 -0.00000000000E+00 -0.12283500667E+03  0.12283500667E+03  0.00000000000E+00 0. -1.
         25    1    1    2    0    0  0.18006000257E+03  0.43511315189E+02  0.11094232972E+03  0.24949557030E+03  0.12500000000E+03 0.  0.
         25    1    1    2    0    0 -0.18006000257E+03 -0.43511315189E+02  0.17955094740E+03  0.28666772017E+03  0.12500000000E+03 0.  0.
</event>
<event>
 4    0  0.2151074E-002  0.1759373E+03  0.7546771E-02  0.1171794E+00
         21   -1    0    0  502  501  0.00000000000E+00  0.00000000000E+00  0.43186777573E+03  0.43186777573E+03  0.00000000000E+00 0.  1.
         21   -1    0    0  501  502 -0.00000000000E+00 -0.00000000000E+00 -0.71674596561E+02  0.71674596561E+02  0.00000000000E+00 0.  1.
         25    1    1    2    0    0  0.80255705274E+02 -0.74087479792E+02  0.96666140195E+02  0.19209184145E+03  0.12500000000E+03 0.  0.
         25    1    1    2    0    0 -0.80255705274E+02  0.74087479792E+02  0.26352703897E+03  0.31145053084E+03  0.12500000000E+03 0.  0.
</event>
<event>
 4    0  0.2151074E-002  0.2179354E+03  0.7546771E-02  0.1135432E+00
         21   -1    0    0  502  501  0.00000000000E+00  0.00000000000E+00  0.36970889962E+03  0.36970889962E+03  0.00000000000E+00 0. -1.
         21   -1    0    0  501  502 -0.00000000000E+00 -0.00000000000E+00 -0.12846822211E+03  0.12846822211E+03  0.00000000000E+00 0. -1.
         25    1    1    2    0    0 -0.46265985549E+02 -0.34302069703E+02  0.31375354679E+03  0.34261269902E+03  0.12500000000E+03 0.  0.
         25    1    1    2    0    0  0.46265985549E+02  0.34302069703E+02 -0.72512869279E+02  0.15556442272E+03  0.12500000000E+03 0.  0.
</event>
<event>
 4    0  0.2151074E-002  0.3342864E+03  0.7546771E-02  0.1069256E+00
         21   -1    0    0  502  501  0.00000000000E+00  0.00000000000E+00  0.18610215956E+03  0.18610215956E+03  0.00000000000E+00 0.  1.
         21   -1    0    0  501  502 -0.00000000000E+00 -0.00000000000E+00 -0.60046268715E+03  0.60046268715E+03  0.00000000000E+00 0. -1.
         25    1    1    2    0    0  0.27369664313E+03  0.14126932521E+03 -0.24886710978E+03  0.41524295664E+03  0.12500000000E+03 0.  0.
         25    1    1    2    0    0 -0.27369664313E+03 -0.14126932521E+03 -0.16549341781E+03  0.37132189007E+03  0.12500000000E+03 0.  0.
</event>
<event>
 4    0  0.2151074E-002  0.1413593E+03  0.7546771E-02  0.1211511E+00
         21   -1    0    0  502  501  0.00000000000E+00  0.00000000000E+00  0.14583134928E+04  0.14583134928E+04  0.00000000000E+00 0.  1.
         21   -1    0    0  501  502 -0.00000000000E+00 -0.00000000000E+00 -0.13702446710E+02  0.13702446710E+02  0.00000000000E+00 0.  1.
         25    1    1    2    0    0  0.99790987472E+01  0.49673482785E+02  0.94261650737E+03  0.95221736871E+03  0.12500000000E+03 0.  0.
         25    1    1    2    0    0 -0.99790987472E+01 -0.49673482785E+02  0.50199453875E+03  0.51979857083E+03  0.12500000000E+03 0.  0.
</event>
<event>
 4    0  0.2151074E-002  0.1986235E+03  0.7546771E-02  0.1150906E+00
         21   -1    0    0  502  501  0.00000000000E+00  0.00000000000E+00  0.13876196260E+03  0.13876196260E+03  0.00000000000E+00 0.  1.
         21   -1    0    0  501  502 -0.00000000000E+00 -0.00000000000E+00 -0.28430921594E+03  0.28430921594E+03  0.00000000000E+00 0.  1.
         25    1    1    2    0    0 -0.12263712566E+03 -0.25974226412E+02  0.23146740909E+02  0.17853654148E+03  0.12500000000E+03 0.  0.
         25    1    1    2    0    0  0.12263712566E+03  0.25974226412E+02 -0.16869399425E+03  0.24453463706E+03  0.12500000000E+03 0.  0.
</event>
<event>
 4    0  0.2151074E-002  0.3728118E+03  0.7546771E-02  0.1053623E+00
         21   -1    0    0  502  501  0.00000000000E+00  0.00000000000E+00  0.47740720597E+03  0.47740720597E+03  0.00000000000E+00 0. -1.
         21   -1    0    0  501  502 -0.00000000000E+00 -0.00000000000E+00 -0.29113227527E+03  0.29113227527E+03  0.00000000000E+00 0. -1.
         25    1    1    2    0    0 -0.27878478160E+03  0.72297303177E+02 -0.11407795433E+03  0.33404585638E+03  0.12500000000E+03 0.  0.
         25    1    1    2    0    0  0.27878478160E+03 -0.72297303177E+02  0.30035288502E+03  0.43449362486E+03  0.12500000000E+03 0.  0.
</event>
<event>
 4    0  0.2151074E-002  0.2540982E+03  0.7546771E-02  0.1110742E+00
         21   -1    0    0  502  501  0.00000000000E+00  0.00000000000E+00  0.39610144936E+03  0.39610144936E+03  0.00000000000E+00 0.  1.
         21   -1    0    0  501  502 -0.00000000000E+00 -0.00000000000E+00 -0.16300338470E+03  0.16300338470E+03  0.00000000000E+00 0.  1.
         25    1    1    2    0    0 -0.84088587739E+01 -0.16576421272E+03 -0.44364073353E+02  0.21246565400E+03  0.12500000000E+03 0.  0.
         25    1    1    2    0    0  0.84088587739E+01  0.16576421272E+03  0.27746213802E+03  0.34663918007E+03  0.12500000000E+03 0.  0.
</event>
<event>
 4    0  0.2151074E-002  0.2178091E+03  0.7546771E-02  0.1135527E+00
         21   -1    0    0  502  501  0.00000000000E+00  0.00000000000E+00  0.21963021671E+03  0.21963021671E+03  0.00000000000E+00 0.  1.
         21   -1    0    0  501  502 -0.00000000000E+00 -0.00000000000E+00 -0.21600305639E+03  0.21600305639E+03  0.00000000000E+00 0.  1.
         25    1    1    2    0    0 -0.14737201514E+03 -0.29386810450E+02  0.97909068001E+02  0.21861674472E+03  0.12500000000E+03 0.  0.
         25    1    1    2    0    0  0.14737201514E+03  0.29386810450E+02 -0.94281907676E+02  0.21701652838E+03  0.12500000000E+03 0.  0.
</event>
<event>
 4    0  0.2151074E-002  0.2838010E+03  0.7546771E-02  0.1093631E+00
         21   -1    0    0  502  501  0.00000000000E+00  0.00000000000E+00  0.11117774167E+03  0.11117774167E+03  0.00000000000E+00 0. -1.
         21   -1    0    0  501  502 -0.00000000000E+00 -0.00000000000E+00 -0.72445288723E+03  0.72445288723E+03  0.00000000000E+00 0. -1.
         25    1    1    2    0    0 -0.11518156355E+03 -0.17060848734E+03 -0.85590013873E+02  0.25558696956E+03  0.12500000000E+03 0.  0.
         25    1    1    2    0    0  0.11518156355E+03  0.17060848734E+03 -0.52768513169E+03  0.58004365934E+03  0.12500000000E+03 0.  0.
</event>
<event>
 4    0  0.2151074E-002  0.1844327E+03  0.7546771E-02  0.1163581E+00
         21   -1    0    0  502  501  0.00000000000E+00  0.00000000000E+00  0.23523642524E+03  0.23523642524E+03  0.00000000000E+00 0.  1.
         21   -1    0    0  501  502 -0.00000000000E+00 -0.00000000000E+00 -0.14460104920E+03  0.14460104920E+03  0.00000000000E+00 0.  1.
         25    1    1    2    0    0  0.94022980938E+02  0.79976847671E+02  0.10314700155E+03  0.20371774846E+03  0.12500000000E+03 0.  0.
         25    1    1    2    0    0 -0.94022980938E+02 -0.79976847671E+02 -0.12511625507E+02  0.17611972598E+03  0.12500000000E+03 0.  0.
</event>
<event>
 4    0  0.2151074E-002  0.1742573E+03  0.7546771E-02  0.1173479E+00
         21   -1    0    0  502  501  0.00000000000E+00  0.00000000000E+00  0.11195947956E+03  0.11195947956E+03  0.00000000000E+00 0.  1.
         21   -1    0    0  501  502 -0.00000000000E+00 -0.00000000000E+00 -0.27121969675E+03  0.27121969675E+03  0.00000000000E+00 0.  1.
         25    1    1    2    0    0  0.10478276632E+03  0.60999759916E+02 -0.72657630872E+02  0.18869162713E+03  0.12500000000E+03 0.  0.
         25    1    1    2    0    0 -0.10478276632E+03 -0.60999759916E+02 -0.86602586315E+02  0.19448754917E+03  0.12500000000E+03 0.  0.
</event>
<event>
 4    0  0.2151074E-002  0.3515549E+03  0.7546771E-02  0.1061979E+00
         21   -1    0    0  502  501  0.00000000000E+00  0.00000000000E+00  0.43140453741E+03  0.43140453741E+03  0.00000000000E+00 0. -1.
         21   -1    0    0  501  502 -0.00000000000E+00 -0.00000000000E+00 -0.28648481136E+03  0.28648481136E+03  0.00000000000E+00 0. -1.
         25    1    1    2    0    0  0.91926804975E+01 -0.13470593431E+03  0.37831577089E+03  0.42068755225E+03  0.12500000000E+03 0.  0.
         25    1    1    2    0    0 -0.91926804975E+01  0.13470593431E+03 -0.23339604484E+03  0.29720179653E+03  0.12500000000E+03 0.  0.
</event>
<event>
 4    0  0.2151074E-002  0.1793830E+03  0.7546771E-02  0.1168402E+00
         21   -1    0    0  502  501  0.00000000000E+00  0.00000000000E+00  0.18566124850E+04  0.18566124850E+04  0.00000000000E+00 0. -1.
         21   -1    0    0  501  502 -0.00000000000E+00 -0.00000000000E+00 -0.17331699303E+02  0.17331699303E+02  0.00000000000E+00 0. -1.
         25    1    1    2    0    0  0.64553755873E+02  0.10654619849E+03  0.10875978590E+04  0.11018227546E+04  0.12500000000E+03 0.  0.
         25    1    1    2    0    0 -0.64553755873E+02 -0.10654619849E+03  0.75168292675E+03  0.77212142968E+03  0.12500000000E+03 0.  0.
</event>
<event>
 4    0  0.2151074E-002  0.1654988E+03  0.7546771E-02  0.1182625E+00
         21   -1    0    0  502  501  0.00000000000E+00  0.00000000000E+00  0.70106080250E+02  0.70106080250E+02  0.00000000000E+00 0. -1.
         21   -1    0    0  501  502 -0.00000000000E+00 -0.00000000000E+00 -0.39069173355E+03  0.39069173355E+03  0.00000000000E+00 0. -1.
         25    1    1    2    0    0 -0.13237072473E+01  0.10089749831E+03 -0.10490686902E+03  0.19186586078E+03  0.12500000000E+03 0.  0.
         25    1    1    2    0    0  0.13237072473E+01 -0.10089749831E+03 -0.21567878428E+03  0.26893195302E+03  0.12500000000E+03 0.  0.
</event>
<event>
 4    0  0.2151074E-002  0.1820487E+03  0.7546771E-02  0.1165835E+00
         21   -1    0    0  502  501  0.00000000000E+00  0.00000000000E+00  0.73264638620E+02  0.73264638620E+02  0.00000000000E+00 0.  1.
         21   -1    0    0  501  502 -0.00000000000E+00 -0.00000000000E+00 -0.45235642342E+03  0.45235642342E+03  0.00000000000E+00 0.  1.
         25    1    1    2    0    0 -0.13060059882E+03  0.11429013902E+02 -0.21575443830E+03  0.28171282615E+03  0.12500000000E+03 0.  0.
         25    1    1    2    0    0  0.13060059882E+03 -0.11429013902E+02 -0.16333734650E+03  0.24390823589E+03  0.12500000000E+03 0.  0.
</event>
<event>
 4    0  0.2151074E-002  0.1855692E+03  0.7546771E-02  0.1162519E+00
         21   -1    0    0  502  501  0.00000000000E+00  0.00000000000E+00  0.34140468823E+03  0.34140468823E+03  0.00000000000E+00 0. -1.
         21   -1    0    0  501  502 -0.00000000000E+00 -0.00000000000E+00 -0.10086537656E+03  0.10086537656E+03  0.00000000000E+00 0. -1.
         25    1    1    2    0    0  0.81291216994E+01 -0.61185344633E+02 -0.25683843681E+02  0.14175467838E+03  0.12500000000E+03 0.  0.
         25    1    1    2    0    0 -0.81291216994E+01  0.61185344633E+02  0.26622315536E+03  0.30051538640E+03  0.12500000000E+03 0.  0.
</event>
<event>
 4    0  0.2151074E-002  0.2060210E+03  0.7546771E-02  0.1144756E+00
         21   -1    0    0  502  501  0.00000000000E+00  0.00000000000E+00  0.58387491044E+02  0.58387491044E+02  0.00000000000E+00 0. -1.
         21   -1    0    0  501  502 -0.00000000000E+00 -0.00000000000E+00 -0.72694758427E+03  0.72694758427E+03  0.00000000000E+00 0. -1.
         25    1    1    2    0    0 -0.33071367583E+02  0.93463395204E+02 -0.85842672944E+02  0.18117142737E+03  0.12500000000E+03 0.  0.
         25    1    1    2    0    0  0.33071367583E+02 -0.93463395204E+02 -0.58271742028E+03  0.60416364794E+03  0.12500000000E+03 0.  0.
</event>
<event>
 4    0  0.2151074E-002  0.1788485E+03  0.7546771E-02  0.1168922E+00
         21   -1    0    0  502  501  0.00000000000E+00  0.00000000000E+00  0.95053869085E+02  0.95053869085E+02  0.00000000000E+00 0. -1.
         21   -1    0    0  501  502 -0.00000000000E+00 -0.00000000000E+00 -0.33651228785E+03  0.33651228785E+03  0.00000000000E+00 0. -1.
         25    1    1    2    0    0 -0.94169633302E+02  0.40226099811E+01 -0.22506080709E+03  0.27415591935E+03  0.12500000000E+03 0.  0.
         25    1    1    2    0    0  0.94169633302E+02 -0.40226099811E+01 -0.16397611674E+02  0.15741023758E+03  0.12500000000E+03 0.  0.
</event>
<event>
 4    0  0.2151074E-002  0.2168016E+03  0.7546771E-02  0.1136290E+00
         21   -1    0    0  502  501  0.00000000000E+00  0.00000000000E+00  0.23350783289E+03  0.23350783289E+03  0.00000000000E+00 0. -1.
         21   -1    0    0  501  502 -0.00000000000E+00 -0.00000000000E+00 -0.20129066699E+03  0.20129066699E+03  0.00000000000E+00 0. -1.
         25    1    1    2    0    0  0.25061867300E+01  0.15555888954E+03 -0.68819024167E+02  0.21110638828E+03  0.12500000000E+03 0.  0.
         25    1    1    2    0    0 -0.25061867300E+01 -0.15555888954E+03  0.10103619007E+03  0.22369211160E+03  0.12500000000E+03 0.  0.
</event>
<event>
 4    0  0.2151074E-002  0.2410972E+03  0.7546771E-02  0.1119064E+00
         21   -1    0    0  502  501  0.00000000000E+00  0.00000000000E+00  0.25013327232E+03  0.25013327232E+03  0.00000000000E+00 0. -1.
         21   -1    0    0  501  502 -0.00000000000E+00 -0.00000000000E+00 -0.23238752090E+03  0.23238752090E+03  0.00000000000E+00 0. -1.
         25    1    1    2    0    0 -0.14938680318E+03 -0.14133153167E+03  0.23437186357E+02  0.24179603080E+03  0.12500000000E+03 0.  0.
         25    1    1    2    0    0  0.14938680318E+03  0.14133153167E+03 -0.56914349353E+01  0.24072476242E+03  0.12500000000E+03 0.  0.
</event>
<event>
 4    0  0.2151074E-002  0.2319900E+03  0.7546771E-02  0.1125247E+00
         21   -1    0    0  502  501  0.00000000000E+00  0.00000000000E+00  0.69643758459E+02  0.69643758459E+02  0.00000000000E+00 0.  1.
         21   -1    0    0  501  502 -0.00000000000E+00 -0.00000000000E+00 -0.77278111695E+03  0.77278111695E+03  0.00000000000E+00 0.  1.
         25    1    1    2    0    0 -0.18140703631E+03 -0.72679785755E+02 -0.35497386502E+03  0.42405460607E+03  0.12500000000E+03 0.  0.
         25    1    1    2    0    0  0.18140703631E+03  0.72679785755E+02 -0.34816349346E+03  0.41837026933E+03  0.12500000000E+03 0.  0.
</event>
<event>
 4    0  0.2151074E-002  0.2437117E+03  0.7546771E-02  0.1117345E+00
         21   -1    0    0  502  501  0.00000000000E+00  0.00000000000E+00  0.39966725397E+03  0.39966725397E+03  0.00000000000E+00 0.  1.
         21   -1    0    0  501  502 -0.00000000000E+00 -0.00000000000E+00 -0.14861208355E+03  0.14861208355E+03  0.00000000000E+00 0.  1.
         25    1    1    2    0    0 -0.68344275052E+02 -0.19691905850E+03  0.10533255886E+03  0.26489243758E+03  0.12500000000E+03 0.  0.
         25    1    1    2    0    0  0.68344275052E+02  0.19691905850E+03  0.14572261157E+03  0.28338689993E+03  0.12500000000E+03 0.  0.
</event>
<event>
 4    0  0.2151074E-002  0.3083781E+03  0.7546771E-02  0.1081126E+00
         21   -1    0    0  502  501  0.00000000000E+00  0.00000000000E+00  0.87624209707E+03  0.87624209707E+03  0.00000000000E+00 0. -1.
         21   -1    0    0  501  502 -0.00000000000E+00 -0.00000000000E+00 -0.10852826946E+03  0.10852826946E+03  0.00000000000E+00 0. -1.
         25    1    1    2    0    0  0.16097537756E+03 -0.91141354084E+02  0.44199245582E+02  0.22759260074E+03  0.12500000000E+03 0.  0.
         25    1    1    2    0    0 -0.16097537756E+03  0.91141354084E+02  0.72351458202E+03  0.75717776579E+03  0.12500000000E+03 0.  0.
</event>
<event>
 4    0  0.2151074E-002  0.4826121E+03  0.7546771E-02  0.1018420E+00
         21   -1    0    0  502  501  0.00000000000E+00  0.00000000000E+00  0.18897314744E+04  0.18897314744E+04  0.00000000000E+00 0.  1.
         21   -1    0    0  501  502 -0.00000000000E+00 -0.00000000000E+00 -0.12325263902E+03  0.12325263902E+03  0.00000000000E+00 0. -1.
         25    1    1    2    0    0 -0.38007588686E+03  0.25670397131E+03  0.70956789364E+03  0.85408793712E+03  0.12500000000E+03 0.  0.
         25    1    1    2    0    0  0.38007588686E+03 -0.25670397131E+03  0.10569109417E+04  0.11588961763E+04  0.12500000000E+03 0.  0.
</event>
<event>
 4    0  0.2151074E-002  0.3097060E+03  0.7546771E-02  0.1080487E+00
         21   -1    0    0  502  501  0.00000000000E+00  0.00000000000E+00  0.89343383797E+02  0.89343383797E+02  0.00000000000E+00 0. -1.
         21   -1    0    0  501  502 -0.00000000000E+00 -0.00000000000E+00 -0.10735862053E+04  0.10735862053E+04  0.00000000000E+00 0. -1.
         25    1    1    2    0    0 -0.80709400713E+02  0.12736251964E+03 -0.94254914630E+03  0.96268328746E+03  0.12500000000E+03 0.  0.
         25    1    1    2    0    0  0.80709400713E+02 -0.12736251964E+03 -0.41693675223E+02  0.20024630165E+03  0.12500000000E+03 0.  0.
</event>
<event>
 4    0  0.2151074E-002  0.1911288E+03  0.7546771E-02  0.1157447E+00
         21   -1    0    0  502  501  0.00000000000E+00  0.00000000000E+00  0.13724163303E+03  0.13724163303E+03  0.00000000000E+00 0. -1.
         21   -1    0    0  501  502 -0.00000000000E+00 -0.00000000000E+00 -0.26617436620E+03  0.26617436620E+03  0.00000000000E+00 0. -1.
         25    1    1    2    0    0  0.94331248684E+02 -0.43053587201E+02 -0.17080687421E+03  0.23569468413E+03  0.12500000000E+03 0.  0.
         25    1    1    2    0    0 -0.94331248684E+02  0.43053587201E+02  0.41874141041E+02  0.16772131509E+03  0.12500000000E+03 0.  0.
</event>
<event>
 4    0  0.2151074E-002  0.1879415E+03  0.7546771E-02  0.1160331E+00
         21   -1    0    0  502  501  0.00000000000E+00  0.00000000000E+00  0.33695775384E+02  0.33695775384E+02  0.00000000000E+00 0. -1.
         21   -1    0    0  501  502 -0.00000000000E+00 -0.00000000000E+00 -0.10482617274E+04  0.10482617274E+04  0.00000000000E+00 0. -1.
         25    1    1    2    0    0  0.10789234432E+03  0.27994870449E+02 -0.26181202434E+03  0.31079737261E+03  0.12500000000E+03 0.  0.
         25    1    1    2    0    0 -0.10789234432E+03 -0.27994870449E+02 -0.75275392769E+03  0.77116013018E+03  0.12500000000E+03 0.  0.
</event>
<event>
 4    0  0.2151074E-002  0.2672207E+03  0.7546771E-02  0.1102881E+00
         21   -1    0    0  502  501  0.00000000000E+00  0.00000000000E+00  0.26320939159E+03  0.26320939159E+03  0.00000000000E+00 0. -1.
         21   -1    0    0  501  502 -0.00000000000E+00 -0.00000000000E+00 -0.27129319751E+03  0.27129319751E+03  0.00000000000E+00 0. -1.
         25    1    1    2    0    0  0.19940545333E+01  0.10108082060E+03  0.20943182514E+03  0.26402272237E+03  0.12500000000E+03 0.  0.
         25    1    1    2    0    0 -0.19940545333E+01 -0.10108082060E+03 -0.21751563107E+03  0.27047986673E+03  0.12500000000E+03 0.  0.
</event>
<event>
 4    0  0.2151074E-002  0.2574689E+03  0.7546771E-02  0.1108674E+00
         21   -1    0    0  502  501  0.00000000000E+00  0.00000000000E+00  0.44149581206E+03  0.44149581206E+03  0.00000000000E+00 0. -1.
         21   -1    0    0  501  502 -0.00000000000E+00 -0.00000000000E+00 -0.15014915743E+03  0.15014915743E+03  0.00000000000E+00 0. -1.
         25    1    1    2    0    0  0.19627573559E+03  0.91013606284E+02  0.74311807292E+02  0.26068157897E+03  0.12500000000E+03 0.  0.
         25    1    1    2    0    0 -0.19627573559E+03 -0.91013606284E+02  0.21703484734E+03  0.33096339053E+03  0.12500000000E+03 0.  0.
</event>
<event>
 4    0  0.2151074E-002  0.3477266E+03  0.7546771E-02  0.1063552E+00
         21   -1    0    0  502  501  0.00000000000E+00  0.00000000000E+00  0.47386129580E+03  0.47386129580E+03  0.00000000000E+00 0. -1.
         21   -1    0    0  501  502 -0.00000000000E+00 -0.00000000000E+00 -0.25516704930E+03  0.25516704930E+03  0.00000000000E+00 0. -1.
         25    1    1    2    0    0 -0.12192113768E+03 -0.64754753967E+02 -0.19848067010E+03  0.27217185449E+03  0.12500000000E+03 0.  0.
         25    1    1    2    0    0  0.12192113768E+03  0.64754753967E+02  0.41717491660E+03  0.45685649061E+03  0.12500000000E+03 0.  0.
</event>
<event>
 4    0  0.2151074E-002  0.1853101E+03  0.7546771E-02  0.1162761E+00
         21   -1    0    0  502  501  0.00000000000E+00  0.00000000000E+00  0.22300667693E+02  0.22300667693E+02  0.00000000000E+00 0. -1.
         21   -1    0    0  501  502 -0.00000000000E+00 -0.00000000000E+00 -0.15398574297E+04  0.15398574297E+04  0.00000000000E+00 0. -1.
         25    1    1    2    0    0  0.16408598075E+02 -0.11355375891E+03 -0.44473669286E+03  0.47600359686E+03  0.12500000000E+03 0.  0.
         25    1    1    2    0    0 -0.16408598075E+02  0.11355375891E+03 -0.10728200692E+04  0.10861545005E+04  0.12500000000E+03 0.  0.
</event>
<event>
 4    0  0.2151074E-002  0.2420529E+03  0.7546771E-02  0.1118433E+00
         21   -1    0    0  502  501  0.00000000000E+00  0.00000000000E+00  0.14547475855E+04  0.14547475855E+04  0.00000000000E+00 0.  1.
         21   -1    0    0  501  502 -0.00000000000E+00 -0.00000000000E+00 -0.40274763941E+02  0.40274763941E+02  0.00000000000E+00 0.  1.
         25    1    1    2    0    0  0.19227220084E+03  0.48310789366E+02  0.89412015075E+03  0.92432590333E+03  0.12500000000E+03 0.  0.
         25    1    1    2    0    0 -0.19227220084E+03 -0.48310789366E+02  0.52035267079E+03  0.57069644609E+03  0.12500000000E+03 0.  0.
</event>
<event>
 4    0  0.2151074E-002  0.1950887E+03  0.7546771E-02  0.1153950E+00
         21   -1    0    0  502  501  0.00000000000E+00  0.00000000000E+00  0.28557995232E+03  0.28557995232E+03  0.00000000000E+00 0. -1.
         21   -1    0    0  501  502 -0.00000000000E+00 -0.00000000000E+00 -0.13327123584E+03  0.13327123584E+03  0.00000000000E+00 0. -1.
         25    1    1    2    0    0  0.45390206350E+02 -0.94154873109E+01 -0.76740321447E+02  0.15382782313E+03  0.12500000000E+03 0.  0.
         25    1    1    2    0    0 -0.45390206350E+02  0.94154873109E+01  0.22904903792E+03  0.26502336502E+03  0.12500000000E+03 0.  0.
</event>
<event>
 4    0  0.2151074E-002  0.2670155E+03  0.7546771E-02  0.1103000E+00
         21   -1    0    0  502  501  0.00000000000E+00  0.00000000000E+00  0.28498076967E+03  0.28498076967E+03  0.00000000000E+00 0.  1.
         21   -1    0    0  501  502 -0.00000000000E+00 -0.00000000000E+00 -0.25018285406E+03  0.25018285406E+03  0.00000000000E+00 0.  1.
         25    1    1    2    0    0  0.49230882668E+01 -0.60313081185E+02 -0.21114257132E+03  0.25272136827E+03  0.12500000000E+03 0.  0.
         25    1    1    2    0    0 -0.49230882668E+01  0.60313081185E+02  0.24594048693E+03  0.28244225546E+03  0.12500000000E+03 0.  0.
</event>
<event>
 4    0  0.2151074E-002  0.2315535E+03  0.7546771E-02  0.1125551E+00
         21   -1    0    0  502  501  0.00000000000E+00  0.00000000000E+00  0.46766166864E+03  0.46766166864E+03  0.00000000000E+00 0. -1.
         21   -1    0    0  501  502 -0.00000000000E+00 -0.00000000000E+00 -0.11464912571E+03  0.11464912571E+03  0.00000000000E+00 0. -1.
         25    1    1    2    0    0  0.16070441588E+03  0.20895563807E+02  0.31268608445E+03  0.37371128064E+03  0.12500000000E+03 0.  0.
         25    1    1    2    0    0 -0.16070441588E+03 -0.20895563807E+02  0.40326458481E+02  0.20859951372E+03  0.12500000000E+03 0.  0.
</event>
<event>
 4    0  0.2151074E-002  0.2104945E+03  0.7546771E-02  0.1141175E+00
         21   -1    0    0  502  501  0.00000000000E+00  0.00000000000E+00  0.35696277002E+03  0.35696277002E+03  0.00000000000E+00 0. -1.
         21   -1    0    0  501  502 -0.00000000000E+00 -0.00000000000E+00 -0.12412481250E+03  0.12412481250E+03  0.00000000000E+00 0. -1.
         25    1    1    2    0    0 -0.22900400836E+02 -0.18385320695E+02  0.30702462584E+03  0.33279358355E+03  0.12500000000E+03 0.  0.
         25    1    1    2    0    0  0.22900400836E+02  0.18385320695E+02 -0.74186668320E+02  0.14829399897E+03  0.12500000000E+03 0.  0.
</event>
<event>
 4    0  0.2151074E-002  0.3514670E+03  0.7546771E-02  0.1062015E+00
         21   -1    0    0  502  501  0.00000000000E+00  0.00000000000E+00  0.10520454723E+04  0.10520454723E+04  0.00000000000E+00 0.  1.
         21   -1    0    0  501  502 -0.00000000000E+00 -0.00000000000E+00 -0.11741799206E+03  0.11741799206E+03  0.00000000000E+00 0.  1.
         25    1    1    2    0    0  0.13269832357E+02  0.32279654398E+03  0.36846248833E+03  0.50573046434E+03  0.12500000000E+03 0.  0.
         25    1    1    2    0    0 -0.13269832357E+02 -0.32279654398E+03  0.56616499195E+03  0.66373300006E+03  0.12500000000E+03 0.  0.
</event>
<event>
 4    0  0.2151074E-002  0.2313958E+03  0.7546771E-02  0.1125661E+00
         21   -1    0    0  502  501  0.00000000000E+00  0.00000000000E+00  0.35521397633E+03  0.35521397633E+03  0.00000000000E+00 0.  1.
         21   -1    0    0  501  502 -0.00000000000E+00 -0.00000000000E+00 -0.15073740785E+03  0.15073740785E+03  0.00000000000E+00 0.  1.
         25    1    1    2    0    0  0.72167307903E+02  0.16116929329E+03  0.19196134110E+03  0.28923661232E+03  0.12500000000E+03 0.  0.
         25    1    1    2    0    0 -0.72167307903E+02 -0.16116929329E+03  0.12515227379E+02  0.21671477187E+03  0.12500000000E+03 0.  0.
</event>
<event>
 4    0  0.2151074E-002  0.2560357E+03  0.7546771E-02  0.1109549E+00
         21   -1    0    0  502  501  0.00000000000E+00  0.00000000000E+00  0.83627149477E+03  0.83627149477E+03  0.00000000000E+00 0.  1.
         21   -1    0    0  501  502 -0.00000000000E+00 -0.00000000000E+00 -0.78388769590E+02  0.78388769590E+02  0.00000000000E+00 0.  1.
         25    1    1    2    0    0 -0.14130024953E+03 -0.14009485687E+03  0.56054550461E+03  0.60780637721E+03  0.12500000000E+03 0.  0.
         25    1    1    2    0    0  0.14130024953E+03  0.14009485687E+03  0.19733722057E+03  0.30685388715E+03  0.12500000000E+03 0.  0.
</event>
<event>
 4    0  0.2151074E-002  0.2141836E+03  0.7546771E-02  0.1138295E+00
         21   -1    0    0  502  501  0.00000000000E+00  0.00000000000E+00  0.85468850078E+03  0.85468850078E+03  0.00000000000E+00 0. -1.
         21   -1    0    0  501  502 -0.00000000000E+00 -0.00000000000E+00 -0.53674095755E+02  0.53674095755E+02  0.00000000000E+00 0. -1.
         25    1    1    2    0    0 -0.99306749148E+02 -0.70224771284E+02  0.66413760105E+03  0.68665646582E+03  0.12500000000E+03 0.  0.
         25    1    1    2    0    0  0.99306749148E+02  0.70224771284E+02  0.13687680397E+03  0.22170613071E+03  0.12500000000E+03 0.  0.
</event>
<event>
 4    0  0.2151074E-002  0.3843745E+03  0.7546771E-02  0.1049329E+00
         21   -1    0    0  502  501  0.00000000000E+00  0.00000000000E+00  0.18692878397E+04  0.18692878397E+04  0.00000000000E+00 0. -1.
         21   -1    0    0  501  502 -0.00000000000E+00 -0.00000000000E+00 -0.79037465903E+02  0.79037465903E+02  0.00000000000E+00 0. -1.
         25    1    1    2    0    0  0.17037250145E+03  0.18691808338E+03  0.15567645411E+04  0.15821207272E+04  0.12500000000E+03 0.  0.
         25    1    1    2    0    0 -0.17037250145E+03 -0.18691808338E+03  0.23348583272E+03  0.36620457839E+03  0.12500000000E+03 0.  0.
</event>
<event>
 4    0  0.2151074E-002  0.2487350E+03  0.7546771E-02  0.1114107E+00
         21   -1    0    0  502  501  0.00000000000E+00  0.00000000000E+00  0.62386291708E+03  0.62386291708E+03  0.00000000000E+00 0.  1.
         21   -1    0    0  501  502 -0.00000000000E+00 -0.00000000000E+00 -0.99170981753E+02  0.99170981753E+02  0.00000000000E+00 0.  1.
         25    1    1    2    0    0 -0.14711800473E+03 -0.56425988416E+02  0.49646694937E+02  0.20716513655E+03  0.12500000000E+03 0.  0.
         25    1    1    2    0    0  0.14711800473E+03  0.56425988416E+02  0.47504524039E+03  0.51586876229E+03  0.12500000000E+03 0.  0.
</event>
<event>
 4    0  0.2151074E-002  0.1565656E+03  0.7546771E-02  0.1192630E+00
         21   -1    0    0  502  501  0.00000000000E+00  0.00000000000E+00  0.11432573879E+03  0.11432573879E+03  0.00000000000E+00 0.  1.
         21   -1    0    0  501  502 -0.00000000000E+00 -0.00000000000E+00 -0.21441177684E+03  0.21441177684E+03  0.00000000000E+00 0.  1.
         25    1    1    2    0    0 -0.59190241681E+02  0.62759186690E+02 -0.10127231833E+02  0.15221616553E+03  0.12500000000E+03 0.  0.
         25    1    1    2    0    0  0.59190241681E+02 -0.62759186690E+02 -0.89958806217E+02  0.17652135010E+03  0.12500000000E+03 0.  0.
</event>
