<event>
 5    0  0.5655767E-005  0.2204874E+03  0.7546771E-02  0.1133520E+00
         21   -1    0    0  502  501  0.00000000000E+00  0.00000000000E+00  0.62064581615E+02  0.62064581615E+02  0.00000000000E+00 0. -1.
         21   -1    0    0  501  502 -0.00000000000E+00 -0.00000000000E+00 -0.78329184223E+03  0.78329184223E+03  0.00000000000E+00 0. -1.
         25    1    1    2    0    0 -0.85463707812E+02  0.21094113159E+02 -0.37057612284E+03  0.40087488045E+03  0.12500000000E+03 0.  0.
         25    1    1    2    0    0  0.36004095035E+02 -0.26263105651E+02 -0.12820695442E+03  0.18452118778E+03  0.12500000000E+03 0.  0.
         25    1    1    2    0    0  0.49459612777E+02  0.51689924911E+01 -0.22244418336E+03  0.25996035561E+03  0.12500000000E+03 0.  0.
</event>
<event>
 5    0  0.5655767E-005  0.2529034E+03  0.7546771E-02  0.1111484E+00
         21   -1    0    0  502  501  0.00000000000E+00  0.00000000000E+00  0.68671883666E+02  0.68671883666E+02  0.00000000000E+00 0.  1.
         21   -1    0    0  501  502 -0.00000000000E+00 -0.00000000000E+00 -0.93138752610E+03  0.93138752610E+03  0.00000000000E+00 0.  1.
         25    1    1    2    0    0 -0.30051060702E+02 -0.85160152884E+02 -0.10980668416E+03  0.18930881061E+03  0.12500000000E+03 0.  0.
         25    1    1    2    0    0  0.19051628735E+02 -0.16512838060E+02 -0.44691338600E+03  0.46474962395E+03  0.12500000000E+03 0.  0.
         25    1    1    2    0    0  0.10999431968E+02  0.10167299094E+03 -0.30599557228E+03  0.34600097521E+03  0.12500000000E+03 0.  0.
</event>
<event>
 5    0  0.5655767E-005  0.3141828E+03  0.7546771E-02  0.1078358E+00
         21   -1    0    0  502  501  0.00000000000E+00  0.00000000000E+00  0.12834396376E+04  0.12834396376E+04  0.00000000000E+00 0. -1.
         21   -1    0    0  501  502 -0.00000000000E+00 -0.00000000000E+00 -0.76911173493E+02  0.76911173493E+02  0.00000000000E+00 0. -1.
         25    1    1    2    0    0 -0.61975999132E+02 -0.75831418714E+02  0.56966100759E+03  0.59137982050E+03  0.12500000000E+03 0.  0.
         25    1    1    2    0    0 -0.14386226053E+02  0.11437559215E+02  0.15451441077E+02  0.12728522417E+03  0.12500000000E+03 0.  0.
         25    1    1    2    0    0  0.76362225185E+02  0.64393859500E+02  0.62141601546E+03  0.64168576644E+03  0.12500000000E+03 0.  0.
</event>
<event>
 5    0  0.5655767E-005  0.3892484E+03  0.7546771E-02  0.1047567E+00
         21   -1    0    0  502  501  0.00000000000E+00  0.00000000000E+00  0.64797704534E+03  0.64797704534E+03  0.00000000000E+00 0. -1.
         21   -1    0    0  501  502 -0.00000000000E+00 -0.00000000000E+00 -0.23382666331E+03  0.23382666331E+03  0.00000000000E+00 0. -1.
         25    1    1    2    0    0 -0.52987602856E+02  0.18947334767E+03  0.27869241778E+03  0.36332120673E+03  0.12500000000E+03 0.  0.
         25    1    1    2    0    0 -0.61088232555E+02 -0.86027492156E+02  0.24294984129E+03  0.29288585992E+03  0.12500000000E+03 0.  0.
         25    1    1    2    0    0  0.11407583541E+03 -0.10344585551E+03 -0.10749187704E+03  0.22559664199E+03  0.12500000000E+03 0.  0.
</event>
<event>
 5    0  0.5655767E-005  0.2568647E+03  0.7546771E-02  0.1109042E+00
         21   -1    0    0  502  501  0.00000000000E+00  0.00000000000E+00  0.33720450312E+03  0.33720450312E+03  0.00000000000E+00 0.  1.
         21   -1    0    0  501  502 -0.00000000000E+00 -0.00000000000E+00 -0.19566608467E+03  0.19566608467E+03  0.00000000000E+00 0.  1.
         25    1    1    2    0    0 -0.54704623847E+01 -0.15974250907E+02  0.13528828659E+03  0.18496762728E+03  0.12500000000E+03 0.  0.
         25    1    1    2    0    0 -0.40378914723E+02  0.12048637140E+03 -0.44316586573E+01  0.17830328669E+03  0.12500000000E+03 0.  0.
         25    1    1    2    0    0  0.45849377107E+02 -0.10451212049E+03  0.10681790521E+02  0.16959967382E+03  0.12500000000E+03 0.  0.
</event>
<event>
 5    0  0.5655767E-005  0.3579100E+03  0.7546771E-02  0.1059414E+00
         21   -1    0    0  502  501  0.00000000000E+00  0.00000000000E+00  0.47111788662E+03  0.47111788662E+03  0.00000000000E+00 0.  1.
         21   -1    0    0  501  502 -0.00000000000E+00 -0.00000000000E+00 -0.27190559700E+03  0.27190559700E+03  0.00000000000E+00 0.  1.
         25    1    1    2    0    0  0.84442238453E+02 -0.12671371250E+03  0.98587309645E+02  0.22029823920E+03  0.12500000000E+03 0.  0.
         25    1    1    2    0    0 -0.16499206999E+03 -0.10748448627E+03  0.21423360318E+02  0.23422053350E+03  0.12500000000E+03 0.  0.
         25    1    1    2    0    0  0.80549831534E+02  0.23419819876E+03  0.79201619661E+02  0.28850471092E+03  0.12500000000E+03 0.  0.
</event>
<event>
 5    0  0.5655767E-005  0.3214791E+03  0.7546771E-02  0.1074971E+00
         21   -1    0    0  502  501  0.00000000000E+00  0.00000000000E+00  0.11070195757E+04  0.11070195757E+04  0.00000000000E+00 0. -1.
         21   -1    0    0  501  502 -0.00000000000E+00 -0.00000000000E+00 -0.93357736207E+02  0.93357736207E+02  0.00000000000E+00 0. -1.
         25    1    1    2    0    0  0.13249260420E+03 -0.51875712150E+02  0.60459736483E+03  0.63356795471E+03  0.12500000000E+03 0.  0.
         25    1    1    2    0    0 -0.36366689977E+02  0.12492762778E+03  0.32952059401E+03  0.37568373694E+03  0.12500000000E+03 0.  0.
         25    1    1    2    0    0 -0.96125914221E+02 -0.73051915631E+02  0.79543880618E+02  0.19112562022E+03  0.12500000000E+03 0.  0.
</event>
<event>
 5    0  0.5655767E-005  0.2938647E+03  0.7546771E-02  0.1088348E+00
         21   -1    0    0  502  501  0.00000000000E+00  0.00000000000E+00  0.10821701867E+03  0.10821701867E+03  0.00000000000E+00 0.  1.
         21   -1    0    0  501  502 -0.00000000000E+00 -0.00000000000E+00 -0.79799316277E+03  0.79799316277E+03  0.00000000000E+00 0.  1.
         25    1    1    2    0    0  0.16162676717E+03 -0.11897585296E+03 -0.31840085120E+03  0.39658866285E+03  0.12500000000E+03 0.  0.
         25    1    1    2    0    0 -0.35174897045E+02  0.89060581166E+02 -0.10995805603E+03  0.19205424907E+03  0.12500000000E+03 0.  0.
         25    1    1    2    0    0 -0.12645187013E+03  0.29915271790E+02 -0.26141723686E+03  0.31756726952E+03  0.12500000000E+03 0.  0.
</event>
<event>
 5    0  0.5655767E-005  0.2616351E+03  0.7546771E-02  0.1106165E+00
         21   -1    0    0  502  501  0.00000000000E+00  0.00000000000E+00  0.31741857585E+03  0.31741857585E+03  0.00000000000E+00 0.  1.
         21   -1    0    0  501  502 -0.00000000000E+00 -0.00000000000E+00 -0.21565511992E+03  0.21565511992E+03  0.00000000000E+00 0.  1.
         25    1    1    2    0    0  0.69742839414E+02  0.12803179189E+03 -0.78216298369E+01  0.19220400952E+03  0.12500000000E+03 0.  0.
         25    1    1    2    0    0 -0.10343867093E+03 -0.42911244657E+02  0.58236654156E+02  0.17764414274E+03  0.12500000000E+03 0.  0.
         25    1    1    2    0    0  0.33695831513E+02 -0.85120547231E+02  0.51348431612E+02  0.16322554350E+03  0.12500000000E+03 0.  0.
</event>
<event>
 5    0  0.5655767E-005  0.3965015E+03  0.7546771E-02  0.1044998E+00
         21   -1    0    0  502  501  0.00000000000E+00  0.00000000000E+00  0.12882311982E+04  0.12882311982E+04  0.00000000000E+00 0. -1.
         21   -1    0    0  501  502 -0.00000000000E+00 -0.00000000000E+00 -0.12203824301E+03  0.12203824301E+03  0.00000000000E+00 0. -1.
         25    1    1    2    0    0  0.25722959115E+03  0.50955850942E+02  0.21139293545E+03  0.35927083721E+03  0.12500000000E+03 0.  0.
         25    1    1    2    0    0 -0.76768189929E+02 -0.13510192562E+03  0.51578693539E+03  0.55299823509E+03  0.12500000000E+03 0.  0.
         25    1    1    2    0    0 -0.18046140122E+03  0.84146074679E+02  0.43901308434E+03  0.49800036891E+03  0.12500000000E+03 0.  0.
</event>
<event>
 5    0  0.5655767E-005  0.3829430E+03  0.7546771E-02  0.1049851E+00
         21   -1    0    0  502  501  0.00000000000E+00  0.00000000000E+00  0.17635070698E+03  0.17635070698E+03  0.00000000000E+00 0. -1.
         21   -1    0    0  501  502 -0.00000000000E+00 -0.00000000000E+00 -0.83155537609E+03  0.83155537609E+03  0.00000000000E+00 0. -1.
         25    1    1    2    0    0 -0.27332186247E+02 -0.16253695374E+01 -0.43123059125E+03  0.44981608804E+03  0.12500000000E+03 0.  0.
         25    1    1    2    0    0 -0.80660015108E+02  0.40231494386E+02  0.10601312875E+03  0.18705185015E+03  0.12500000000E+03 0.  0.
         25    1    1    2    0    0  0.10799220135E+03 -0.38606124849E+02 -0.32998720661E+03  0.37103814488E+03  0.12500000000E+03 0.  0.
</event>
<event>
 5    0  0.5655767E-005  0.2253609E+03  0.7546771E-02  0.1129948E+00
         21   -1    0    0  502  501  0.00000000000E+00  0.00000000000E+00  0.80496554775E+02  0.80496554775E+02  0.00000000000E+00 0.  1.
         21   -1    0    0  501  502 -0.00000000000E+00 -0.00000000000E+00 -0.63092783440E+03  0.63092783440E+03  0.00000000000E+00 0.  1.
         25    1    1    2    0    0 -0.58024505032E+02 -0.12937591353E+02 -0.11434588984E+03  0.17953887316E+03  0.12500000000E+03 0.  0.
         25    1    1    2    0    0 -0.29588027726E+02 -0.49186282956E+02 -0.23020144460E+03  0.26816496213E+03  0.12500000000E+03 0.  0.
         25    1    1    2    0    0  0.87612532758E+02  0.62123874309E+02 -0.20588394518E+03  0.26372055388E+03  0.12500000000E+03 0.  0.
</event>
<event>
 5    0  0.5655767E-005  0.3343852E+03  0.7546771E-02  0.1069213E+00
         21   -1    0    0  502  501  0.00000000000E+00  0.00000000000E+00  0.19308213787E+03  0.19308213787E+03  0.00000000000E+00 0.  1.
         21   -1    0    0  501  502 -0.00000000000E+00 -0.00000000000E+00 -0.57909775479E+03  0.57909775479E+03  0.00000000000E+00 0.  1.
         25    1    1    2    0    0  0.13133572430E+03  0.19740412101E+02 -0.11837053760E+03  0.21742893211E+03  0.12500000000E+03 0.  0.
         25    1    1    2    0    0  0.12407778766E+03 -0.52468630033E+02 -0.17532738892E+03  0.25399399173E+03  0.12500000000E+03 0.  0.
         25    1    1    2    0    0 -0.25541351196E+03  0.32728217932E+02 -0.92317690397E+02  0.30075696883E+03  0.12500000000E+03 0.  0.
</event>
<event>
 5    0  0.5655767E-005  0.2416629E+03  0.7546771E-02  0.1118690E+00
         21   -1    0    0  502  501  0.00000000000E+00  0.00000000000E+00  0.47551006196E+03  0.47551006196E+03  0.00000000000E+00 0.  1.
         21   -1    0    0  501  502 -0.00000000000E+00 -0.00000000000E+00 -0.12281747513E+03  0.12281747513E+03  0.00000000000E+00 0.  1.
         25    1    1    2    0    0  0.22119184207E+02 -0.30016243300E+02  0.26517444756E+02  0.13311051066E+03  0.12500000000E+03 0.  0.
         25    1    1    2    0    0  0.95170201558E+02 -0.30514758037E+00  0.16799561717E+03  0.23001084272E+03  0.12500000000E+03 0.  0.
         25    1    1    2    0    0 -0.11728938576E+03  0.30321390880E+02  0.15817952490E+03  0.23520618371E+03  0.12500000000E+03 0.  0.
</event>
<event>
 5    0  0.5655767E-005  0.3864290E+03  0.7546771E-02  0.1048583E+00
         21   -1    0    0  502  501  0.00000000000E+00  0.00000000000E+00  0.11038317238E+04  0.11038317238E+04  0.00000000000E+00 0. -1.
         21   -1    0    0  501  502 -0.00000000000E+00 -0.00000000000E+00 -0.13528093729E+03  0.13528093729E+03  0.00000000000E+00 0. -1.
         25    1    1    2    0    0  0.29970092591E+02 -0.22864390464E+03  0.11422892368E+03  0.28609349623E+03  0.12500000000E+03 0.  0.
         25    1    1    2    0    0 -0.38572845079E+02 -0.44269847167E+01  0.14193876266E+03  0.19307789857E+03  0.12500000000E+03 0.  0.
         25    1    1    2    0    0  0.86027524885E+01  0.23307088936E+03  0.71238310020E+03  0.75994126633E+03  0.12500000000E+03 0.  0.
</event>
<event>
 5    0  0.5655767E-005  0.2603197E+03  0.7546771E-02  0.1106951E+00
         21   -1    0    0  502  501  0.00000000000E+00  0.00000000000E+00  0.19070009406E+04  0.19070009406E+04  0.00000000000E+00 0.  1.
         21   -1    0    0  501  502 -0.00000000000E+00 -0.00000000000E+00 -0.35535561321E+02  0.35535561321E+02  0.00000000000E+00 0.  1.
         25    1    1    2    0    0 -0.61257977670E+02  0.90878749188E+02  0.60552839484E+03  0.62793401233E+03  0.12500000000E+03 0.  0.
         25    1    1    2    0    0 -0.50979436925E+02 -0.66005639351E+02  0.88302977423E+03  0.89572441610E+03  0.12500000000E+03 0.  0.
         25    1    1    2    0    0  0.11223741459E+03 -0.24873109836E+02  0.38290721025E+03  0.41887807354E+03  0.12500000000E+03 0.  0.
</event>
<event>
 5    0  0.5655767E-005  0.2635226E+03  0.7546771E-02  0.1105045E+00
         21   -1    0    0  502  501  0.00000000000E+00  0.00000000000E+00  0.32156886643E+03  0.32156886643E+03  0.00000000000E+00 0. -1.
         21   -1    0    0  501  502 -0.00000000000E+00 -0.00000000000E+00 -0.21595429252E+03  0.21595429252E+03  0.00000000000E+00 0. -1.
         25    1    1    2    0    0 -0.10335419455E+03 -0.11488073128E+03  0.53913359418E+02  0.20594009390E+03  0.12500000000E+03 0.  0.
         25    1    1    2    0    0  0.12162409403E+03  0.86704428806E+02  0.78611911141E+01  0.19492787525E+03  0.12500000000E+03 0.  0.
         25    1    1    2    0    0 -0.18269899482E+02  0.28176302478E+02  0.43840023377E+02  0.13665518980E+03  0.12500000000E+03 0.  0.
</event>
<event>
 5    0  0.7060659E-005  0.2895376E+03  0.7546771E-02  0.1090591E+00
         21   -1    0    0  502  501  0.00000000000E+00  0.00000000000E+00  0.46781259955E+03  0.46781259955E+03  0.00000000000E+00 0.  1.
         21   -1    0    0  501  502 -0.00000000000E+00 -0.00000000000E+00 -0.17920004511E+03  0.17920004511E+03  0.00000000000E+00 0.  1.
         25    1    1    2    0    0  0.12710009222E+03  0.61743990257E+02  0.11041421585E+03  0.21859335040E+03  0.12500000000E+03 0.  0.
         25    1    1    2    0    0 -0.14551754014E+03 -0.14881916805E+02 -0.14855779494E+02  0.19298321202E+03  0.12500000000E+03 0.  0.
         25    1    1    2    0    0  0.18417447919E+02 -0.46862073451E+02  0.19305411808E+03  0.23543608225E+03  0.12500000000E+03 0.  0.
</event>
<event>
 5    0  0.5716798E-005  0.2863848E+03  0.7546771E-02  0.1092252E+00
         21   -1    0    0  502  501  0.00000000000E+00  0.00000000000E+00  0.65107237434E+03  0.65107237434E+03  0.00000000000E+00 0.  1.
         21   -1    0    0  501  502 -0.00000000000E+00 -0.00000000000E+00 -0.12597102292E+03  0.12597102292E+03  0.00000000000E+00 0.  1.
         25    1    1    2    0    0  0.86706074151E+01  0.14071461609E+03  0.37097365515E+03  0.41607960227E+03  0.12500000000E+03 0.  0.
         25    1    1    2    0    0  0.65921984094E+02 -0.98154255023E+02  0.10489370166E+03  0.20151341001E+03  0.12500000000E+03 0.  0.
         25    1    1    2    0    0 -0.74592591509E+02 -0.42560361070E+02  0.49233994607E+02  0.15945038497E+03  0.12500000000E+03 0.  0.
</event>
<event>
 5    0  0.5655767E-005  0.1977773E+03  0.7546771E-02  0.1151628E+00
         21   -1    0    0  502  501  0.00000000000E+00  0.00000000000E+00  0.44042674225E+03  0.44042674225E+03  0.00000000000E+00 0.  1.
         21   -1    0    0  501  502 -0.00000000000E+00 -0.00000000000E+00 -0.88813568888E+02  0.88813568888E+02  0.00000000000E+00 0.  1.
         25    1    1    2    0    0  0.20871309817E+02 -0.51152747713E+02  0.12628383890E+03  0.18607746543E+03  0.12500000000E+03 0.  0.
         25    1    1    2    0    0 -0.51359262888E+01  0.26484085073E+02  0.13653287584E+03  0.18706686154E+03  0.12500000000E+03 0.  0.
         25    1    1    2    0    0 -0.15735383528E+02  0.24668662640E+02  0.88796458622E+02  0.15609598417E+03  0.12500000000E+03 0.  0.
</event>
<event>
 5    0  0.5655767E-005  0.2851445E+03  0.7546771E-02  0.1092912E+00
         21   -1    0    0  502  501  0.00000000000E+00  0.00000000000E+00  0.12134047465E+04  0.12134047465E+04  0.00000000000E+00 0.  1.
         21   -1    0    0  501  502 -0.00000000000E+00 -0.00000000000E+00 -0.67007618446E+02  0.67007618446E+02  0.00000000000E+00 0.  1.
         25    1    1    2    0    0  0.35308026293E+02 -0.11522537737E+03  0.71352461223E+03  0.73434727246E+03  0.12500000000E+03 0.  0.
         25    1    1    2    0    0  0.61499110167E+02  0.44112167242E+01  0.16789935967E+03  0.21821272731E+03  0.12500000000E+03 0.  0.
         25    1    1    2    0    0 -0.96807136460E+02  0.11081416065E+03  0.26497315619E+03  0.32785236520E+03  0.12500000000E+03 0.  0.
</event>
<event>
 5    0  0.5655767E-005  0.6646629E+03  0.7546771E-02  0.9779648E-01
         21   -1    0    0  502  501  0.00000000000E+00  0.00000000000E+00  0.30877519942E+03  0.30877519942E+03  0.00000000000E+00 0. -1.
         21   -1    0    0  501  502 -0.00000000000E+00 -0.00000000000E+00 -0.14307393471E+04  0.14307393471E+04  0.00000000000E+00 0. -1.
         25    1    1    2    0    0  0.17742739277E+03 -0.57851648908E+03 -0.74992088852E+03  0.97168315148E+03  0.12500000000E+03 0.  0.
         25    1    1    2    0    0 -0.28060954855E+02  0.30487881983E+03 -0.13738819985E+03  0.35810477437E+03  0.12500000000E+03 0.  0.
         25    1    1    2    0    0 -0.14936643791E+03  0.27363766926E+03 -0.23465505926E+03  0.40972662063E+03  0.12500000000E+03 0.  0.
</event>
<event>
 5    0  0.5655767E-005  0.2867955E+03  0.7546771E-02  0.1092034E+00
         21   -1    0    0  502  501  0.00000000000E+00  0.00000000000E+00  0.51760490298E+02  0.51760490298E+02  0.00000000000E+00 0.  1.
         21   -1    0    0  501  502 -0.00000000000E+00 -0.00000000000E+00 -0.15890819813E+04  0.15890819813E+04  0.00000000000E+00 0.  1.
         25    1    1    2    0    0 -0.23400603247E+02  0.52974572505E+01 -0.84348534216E+03  0.85303468495E+03  0.12500000000E+03 0.  0.
         25    1    1    2    0    0  0.12964317368E+03 -0.27190966045E+00 -0.51252355097E+03  0.54324287084E+03  0.12500000000E+03 0.  0.
         25    1    1    2    0    0 -0.10624257044E+03 -0.50255475901E+01 -0.18131259789E+03  0.24456491583E+03  0.12500000000E+03 0.  0.
</event>
<event>
 5    0  0.5655767E-005  0.3757123E+03  0.7546771E-02  0.1052530E+00
         21   -1    0    0  502  501  0.00000000000E+00  0.00000000000E+00  0.18548363311E+03  0.18548363311E+03  0.00000000000E+00 0. -1.
         21   -1    0    0  501  502 -0.00000000000E+00 -0.00000000000E+00 -0.76103611146E+03  0.76103611146E+03  0.00000000000E+00 0. -1.
         25    1    1    2    0    0  0.15078681770E+03 -0.15301199297E+02  0.90074961715E+02  0.21612332086E+03  0.12500000000E+03 0.  0.
         25    1    1    2    0    0 -0.10004503369E+03  0.30752528769E+02 -0.32221338770E+03  0.36111105495E+03  0.12500000000E+03 0.  0.
         25    1    1    2    0    0 -0.50741784011E+02 -0.15451329472E+02 -0.34341405236E+03  0.36928536877E+03  0.12500000000E+03 0.  0.
</event>
<event>
 5    0  0.5655767E-005  0.2888393E+03  0.7546771E-02  0.1090957E+00
         21   -1    0    0  502  501  0.00000000000E+00  0.00000000000E+00  0.55925632841E+03  0.55925632841E+03  0.00000000000E+00 0. -1.
         21   -1    0    0  501  502 -0.00000000000E+00 -0.00000000000E+00 -0.14917694155E+03  0.14917694155E+03  0.00000000000E+00 0. -1.
         25    1    1    2    0    0 -0.23935508650E+02  0.48537969726E+02  0.10399809306E+03  0.17137516284E+03  0.12500000000E+03 0.  0.
         25    1    1    2    0    0  0.49342633854E+02 -0.14298506211E+03  0.32248877272E+03  0.37749626758E+03  0.12500000000E+03 0.  0.
         25    1    1    2    0    0 -0.25407125204E+02  0.94447092385E+02 -0.16407478927E+02  0.15956183954E+03  0.12500000000E+03 0.  0.
</event>
<event>
 5    0  0.5655767E-005  0.4787134E+03  0.7546771E-02  0.1019489E+00
         21   -1    0    0  502  501  0.00000000000E+00  0.00000000000E+00  0.13079568038E+04  0.13079568038E+04  0.00000000000E+00 0. -1.
         21   -1    0    0  501  502 -0.00000000000E+00 -0.00000000000E+00 -0.17520951409E+03  0.17520951409E+03  0.00000000000E+00 0. -1.
         25    1    1    2    0    0 -0.61381296925E+02  0.20630418896E+03  0.19185379922E+02  0.24964406822E+03  0.12500000000E+03 0.  0.
         25    1    1    2    0    0  0.14704524145E+03 -0.26351051549E+03  0.48720497284E+03  0.58656097753E+03  0.12500000000E+03 0.  0.
         25    1    1    2    0    0 -0.85663944526E+02  0.57206326525E+02  0.62635693699E+03  0.64696127218E+03  0.12500000000E+03 0.  0.
</event>
<event>
 5    0  0.5655767E-005  0.2227636E+03  0.7546771E-02  0.1131839E+00
         21   -1    0    0  502  501  0.00000000000E+00  0.00000000000E+00  0.11632157947E+04  0.11632157947E+04  0.00000000000E+00 0. -1.
         21   -1    0    0  501  502 -0.00000000000E+00 -0.00000000000E+00 -0.42660729448E+02  0.42660729448E+02  0.00000000000E+00 0. -1.
         25    1    1    2    0    0  0.98277109856E+01  0.72769564104E+02  0.36718359153E+03  0.39476674537E+03  0.12500000000E+03 0.  0.
         25    1    1    2    0    0 -0.16433213190E+02 -0.13136049968E+02  0.55366239814E+03  0.56798737434E+03  0.12500000000E+03 0.  0.
         25    1    1    2    0    0  0.66055022040E+01 -0.59633514137E+02  0.19970907562E+03  0.24312240446E+03  0.12500000000E+03 0.  0.
</event>
<event>
 5    0  0.5655767E-005  0.2272987E+03  0.7546771E-02  0.1128556E+00
         21   -1    0    0  502  501  0.00000000000E+00  0.00000000000E+00  0.61918198296E+02  0.61918198296E+02  0.00000000000E+00 0.  1.
         21   -1    0    0  501  502 -0.00000000000E+00 -0.00000000000E+00 -0.83440284702E+03  0.83440284702E+03  0.00000000000E+00 0.  1.
         25    1    1    2    0    0 -0.10806489849E+03  0.38749370189E+02 -0.23113169521E+03  0.28675145423E+03  0.12500000000E+03 0.  0.
         25    1    1    2    0    0  0.27616364798E+02 -0.17285686588E+02 -0.27383764395E+03  0.30277634289E+03  0.12500000000E+03 0.  0.
         25    1    1    2    0    0  0.80448533693E+02 -0.21463683602E+02 -0.26751530956E+03  0.30679324819E+03  0.12500000000E+03 0.  0.
</event>
<event>
 5    0  0.5655767E-005  0.2724200E+03  0.7546771E-02  0.1099903E+00
         21   -1    0    0  502  501  0.00000000000E+00  0.00000000000E+00  0.50937008921E+02  0.50937008921E+02  0.00000000000E+00 0. -1.
         21   -1    0    0  501  502 -0.00000000000E+00 -0.00000000000E+00 -0.14569497417E+04  0.14569497417E+04  0.00000000000E+00 0. -1.
         25    1    1    2    0    0  0.22258751296E+02 -0.58641042878E+02 -0.40565729845E+03  0.42908864784E+03  0.12500000000E+03 0.  0.
         25    1    1    2    0    0  0.14203860193E+02  0.12079342055E+03 -0.19922975669E+03  0.26478348899E+03  0.12500000000E+03 0.  0.
         25    1    1    2    0    0 -0.36462611489E+02 -0.62152377672E+02 -0.80112567759E+03  0.81401461374E+03  0.12500000000E+03 0.  0.
</event>
<event>
 5    0  0.5655767E-005  0.3778451E+03  0.7546771E-02  0.1051733E+00
         21   -1    0    0  502  501  0.00000000000E+00  0.00000000000E+00  0.24182820052E+03  0.24182820052E+03  0.00000000000E+00 0.  1.
         21   -1    0    0  501  502 -0.00000000000E+00 -0.00000000000E+00 -0.59036516216E+03  0.59036516216E+03  0.00000000000E+00 0.  1.
         25    1    1    2    0    0  0.71281509409E+01  0.23415315703E+03 -0.12919263021E+01  0.26552811632E+03  0.12500000000E+03 0.  0.
         25    1    1    2    0    0  0.31859667683E+02 -0.17661668446E+03 -0.32711757572E+02  0.22114147223E+03  0.12500000000E+03 0.  0.
         25    1    1    2    0    0 -0.38987818624E+02 -0.57536472567E+02 -0.31453327776E+03  0.34552377414E+03  0.12500000000E+03 0.  0.
</event>
<event>
 5    0  0.5655767E-005  0.5628106E+03  0.7546771E-02  0.9985715E-01
         21   -1    0    0  502  501  0.00000000000E+00  0.00000000000E+00  0.19599176723E+04  0.19599176723E+04  0.00000000000E+00 0. -1.
         21   -1    0    0  501  502 -0.00000000000E+00 -0.00000000000E+00 -0.16161687944E+03  0.16161687944E+03  0.00000000000E+00 0. -1.
         25    1    1    2    0    0  0.24643081177E+03 -0.11698195696E+03  0.37054876000E+03  0.47680636194E+03  0.12500000000E+03 0.  0.
         25    1    1    2    0    0  0.14232804512E+03 -0.20537899642E+03  0.34891310102E+03  0.44699346378E+03  0.12500000000E+03 0.  0.
         25    1    1    2    0    0 -0.38875885689E+03  0.32236095339E+03  0.10788389318E+04  0.11977347260E+04  0.12500000000E+03 0.  0.
</event>
<event>
 5    0  0.5655767E-005  0.3598627E+03  0.7546771E-02  0.1058638E+00
         21   -1    0    0  502  501  0.00000000000E+00  0.00000000000E+00  0.27404254772E+04  0.27404254772E+04  0.00000000000E+00 0. -1.
         21   -1    0    0  501  502 -0.00000000000E+00 -0.00000000000E+00 -0.47255861300E+02  0.47255861300E+02  0.00000000000E+00 0. -1.
         25    1    1    2    0    0 -0.60519742310E+02 -0.98939469185E+01  0.27169334451E+03  0.30529134093E+03  0.12500000000E+03 0.  0.
         25    1    1    2    0    0  0.12858223477E+03 -0.20625468561E+03  0.95877114738E+03  0.99696614761E+03  0.12500000000E+03 0.  0.
         25    1    1    2    0    0 -0.68062492464E+02  0.21614863253E+03  0.14627051240E+04  0.14854238500E+04  0.12500000000E+03 0.  0.
</event>
<event>
 5    0  0.5655767E-005  0.2939124E+03  0.7546771E-02  0.1088324E+00
         21   -1    0    0  502  501  0.00000000000E+00  0.00000000000E+00  0.52721274651E+03  0.52721274651E+03  0.00000000000E+00 0.  1.
         21   -1    0    0  501  502 -0.00000000000E+00 -0.00000000000E+00 -0.16385135024E+03  0.16385135024E+03  0.00000000000E+00 0.  1.
         25    1    1    2    0    0  0.98192179392E+02  0.11634926930E+03  0.95724596327E+00  0.19698927098E+03  0.12500000000E+03 0.  0.
         25    1    1    2    0    0 -0.82339963184E+02 -0.94567205777E+02  0.10291585542E+03  0.20479135539E+03  0.12500000000E+03 0.  0.
         25    1    1    2    0    0 -0.15852216208E+02 -0.21782063525E+02  0.25948829489E+03  0.28928347038E+03  0.12500000000E+03 0.  0.
</event>
<event>
 5    0  0.5655767E-005  0.2609487E+03  0.7546771E-02  0.1106575E+00
         21   -1    0    0  502  501  0.00000000000E+00  0.00000000000E+00  0.27583874794E+03  0.27583874794E+03  0.00000000000E+00 0. -1.
         21   -1    0    0  501  502 -0.00000000000E+00 -0.00000000000E+00 -0.24686245320E+03  0.24686245320E+03  0.00000000000E+00 0. -1.
         25    1    1    2    0    0  0.44481806006E+02 -0.15453252960E+02 -0.49457583598E+02  0.14243765888E+03  0.12500000000E+03 0.  0.
         25    1    1    2    0    0 -0.15100466309E+03 -0.35097013643E+02  0.56689171138E+02  0.20705765083E+03  0.12500000000E+03 0.  0.
         25    1    1    2    0    0  0.10652285709E+03  0.50550266603E+02  0.21744707201E+02  0.17320589143E+03  0.12500000000E+03 0.  0.
</event>
<event>
 5    0  0.5655767E-005  0.3668175E+03  0.7546771E-02  0.1055917E+00
         21   -1    0    0  502  501  0.00000000000E+00  0.00000000000E+00  0.69002083189E+03  0.69002083189E+03  0.00000000000E+00 0. -1.
         21   -1    0    0  501  502 -0.00000000000E+00 -0.00000000000E+00 -0.19500145035E+03  0.19500145035E+03  0.00000000000E+00 0. -1.
         25    1    1    2    0    0  0.29312614731E+03 -0.32713017127E+02  0.30173202356E+03  0.44006851031E+03  0.12500000000E+03 0.  0.
         25    1    1    2    0    0 -0.69817604786E+02  0.19091427858E+02  0.65995282199E+02  0.15880603839E+03  0.12500000000E+03 0.  0.
         25    1    1    2    0    0 -0.22330854252E+03  0.13621589269E+02  0.12729207578E+03  0.28614773355E+03  0.12500000000E+03 0.  0.
</event>
<event>
 5    0  0.5655767E-005  0.2785674E+03  0.7546771E-02  0.1096474E+00
         21   -1    0    0  502  501  0.00000000000E+00  0.00000000000E+00  0.69799769824E+03  0.69799769824E+03  0.00000000000E+00 0. -1.
         21   -1    0    0  501  502 -0.00000000000E+00 -0.00000000000E+00 -0.11117483020E+03  0.11117483020E+03  0.00000000000E+00 0. -1.
         25    1    1    2    0    0 -0.10930618664E+03  0.56912447332E+02  0.10272725155E+03  0.20338327687E+03  0.12500000000E+03 0.  0.
         25    1    1    2    0    0  0.38120459520E+02  0.85991777633E+02  0.26120781718E+03  0.30447048955E+03  0.12500000000E+03 0.  0.
         25    1    1    2    0    0  0.71185727122E+02 -0.14290422496E+03  0.22288779932E+03  0.30131876202E+03  0.12500000000E+03 0.  0.
</event>
<event>
 5    0  0.5655767E-005  0.2479621E+03  0.7546771E-02  0.1114600E+00
         21   -1    0    0  502  501  0.00000000000E+00  0.00000000000E+00  0.40100287431E+03  0.40100287431E+03  0.00000000000E+00 0.  1.
         21   -1    0    0  501  502 -0.00000000000E+00 -0.00000000000E+00 -0.15332853147E+03  0.15332853147E+03  0.00000000000E+00 0.  1.
         25    1    1    2    0    0  0.11131792546E+02 -0.39919085724E+02  0.35261182866E+02  0.13632975181E+03  0.12500000000E+03 0.  0.
         25    1    1    2    0    0 -0.99525218496E+02  0.61571429483E+02  0.21884183210E+02  0.17262742401E+03  0.12500000000E+03 0.  0.
         25    1    1    2    0    0  0.88393425950E+02 -0.21652343759E+02  0.19052897677E+03  0.24537422996E+03  0.12500000000E+03 0.  0.
</event>
<event>
 5    0  0.5655767E-005  0.3381736E+03  0.7546771E-02  0.1067576E+00
         21   -1    0    0  502  501  0.00000000000E+00  0.00000000000E+00  0.75138704922E+03  0.75138704922E+03  0.00000000000E+00 0.  1.
         21   -1    0    0  501  502 -0.00000000000E+00 -0.00000000000E+00 -0.15220038387E+03  0.15220038387E+03  0.00000000000E+00 0.  1.
         25    1    1    2    0    0 -0.12946856061E+03  0.15191886844E+03  0.20108272034E+03  0.30967839962E+03  0.12500000000E+03 0.  0.
         25    1    1    2    0    0  0.13539765716E+03  0.47554726138E+02  0.10309288657E+03  0.21644195712E+03  0.12500000000E+03 0.  0.
         25    1    1    2    0    0 -0.59290965535E+01 -0.19947359458E+03  0.29501105844E+03  0.37746707634E+03  0.12500000000E+03 0.  0.
</event>
<event>
 5    0  0.5655767E-005  0.2835309E+03  0.7546771E-02  0.1093776E+00
         21   -1    0    0  502  501  0.00000000000E+00  0.00000000000E+00  0.51388016557E+02  0.51388016557E+02  0.00000000000E+00 0.  1.
         21   -1    0    0  501  502 -0.00000000000E+00 -0.00000000000E+00 -0.15643677839E+04  0.15643677839E+04  0.00000000000E+00 0.  1.
         25    1    1    2    0    0 -0.34356712412E+02 -0.13317300442E+03 -0.76777233064E+03  0.78994606429E+03  0.12500000000E+03 0.  0.
         25    1    1    2    0    0  0.83200923979E+02  0.10992738924E+03 -0.59321384916E+03  0.62171866265E+03  0.12500000000E+03 0.  0.
         25    1    1    2    0    0 -0.48844211568E+02  0.23245615184E+02 -0.15199358750E+03  0.20409107347E+03  0.12500000000E+03 0.  0.
</event>
<event>
 5    0  0.5655767E-005  0.2663335E+03  0.7546771E-02  0.1103397E+00
         21   -1    0    0  502  501  0.00000000000E+00  0.00000000000E+00  0.13111987132E+03  0.13111987132E+03  0.00000000000E+00 0. -1.
         21   -1    0    0  501  502 -0.00000000000E+00 -0.00000000000E+00 -0.54098239532E+03  0.54098239532E+03  0.00000000000E+00 0. -1.
         25    1    1    2    0    0 -0.55662129943E+02  0.39535911849E+02 -0.36348217435E+02  0.14699508137E+03  0.12500000000E+03 0.  0.
         25    1    1    2    0    0 -0.68520088780E+02 -0.61328676655E+02 -0.28998822769E+03  0.32889874026E+03  0.12500000000E+03 0.  0.
         25    1    1    2    0    0  0.12418221872E+03  0.21792764806E+02 -0.83526078873E+02  0.19620844502E+03  0.12500000000E+03 0.  0.
</event>
<event>
 5    0  0.5655767E-005  0.2615497E+03  0.7546771E-02  0.1106216E+00
         21   -1    0    0  502  501  0.00000000000E+00  0.00000000000E+00  0.36384560560E+03  0.36384560560E+03  0.00000000000E+00 0.  1.
         21   -1    0    0  501  502 -0.00000000000E+00 -0.00000000000E+00 -0.18801445525E+03  0.18801445525E+03  0.00000000000E+00 0.  1.
         25    1    1    2    0    0 -0.10890464422E+03  0.80738373786E+02 -0.58726458801E+01  0.18449497149E+03  0.12500000000E+03 0.  0.
         25    1    1    2    0    0  0.35394318744E+02 -0.53536419521E+01  0.15407828590E+03  0.20160986451E+03  0.12500000000E+03 0.  0.
         25    1    1    2    0    0  0.73510325476E+02 -0.75384731833E+02  0.27625510341E+02  0.16575522486E+03  0.12500000000E+03 0.  0.
</event>
<event>
 5    0  0.5783525E-005  0.3280305E+03  0.7546771E-02  0.1072012E+00
         21   -1    0    0  502  501  0.00000000000E+00  0.00000000000E+00  0.53569179955E+03  0.53569179955E+03  0.00000000000E+00 0.  1.
         21   -1    0    0  501  502 -0.00000000000E+00 -0.00000000000E+00 -0.20086919389E+03  0.20086919389E+03  0.00000000000E+00 0.  1.
         25    1    1    2    0    0  0.17917370298E+02  0.71017250322E+02 -0.27890358726E+02  0.14753763625E+03  0.12500000000E+03 0.  0.
         25    1    1    2    0    0  0.15524080966E+03 -0.12926765790E+03  0.23144724929E+03  0.33166649750E+03  0.12500000000E+03 0.  0.
         25    1    1    2    0    0 -0.17315817996E+03  0.58250407573E+02  0.13126571510E+03  0.25735685969E+03  0.12500000000E+03 0.  0.
</event>
<event>
 5    0  0.5655767E-005  0.3513325E+03  0.7546771E-02  0.1062069E+00
         21   -1    0    0  502  501  0.00000000000E+00  0.00000000000E+00  0.81697946433E+02  0.81697946433E+02  0.00000000000E+00 0. -1.
         21   -1    0    0  501  502 -0.00000000000E+00 -0.00000000000E+00 -0.15108646307E+04  0.15108646307E+04  0.00000000000E+00 0. -1.
         25    1    1    2    0    0 -0.16462425579E+03 -0.16742472285E+03 -0.62116880763E+03  0.67572766037E+03  0.12500000000E+03 0.  0.
         25    1    1    2    0    0  0.79700328038E+02 -0.36981499047E+02 -0.46803291284E+03  0.49234091955E+03  0.12500000000E+03 0.  0.
         25    1    1    2    0    0  0.84923927752E+02  0.20440622190E+03 -0.33996496377E+03  0.42449399719E+03  0.12500000000E+03 0.  0.
</event>
<event>
 5    0  0.5655767E-005  0.5856212E+03  0.7546771E-02  0.9935695E-01
         21   -1    0    0  502  501  0.00000000000E+00  0.00000000000E+00  0.92967127067E+03  0.92967127067E+03  0.00000000000E+00 0. -1.
         21   -1    0    0  501  502 -0.00000000000E+00 -0.00000000000E+00 -0.36889622224E+03  0.36889622224E+03  0.00000000000E+00 0. -1.
         25    1    1    2    0    0  0.11868234761E+03 -0.11265846192E+03  0.44150674846E+03  0.48716592410E+03  0.12500000000E+03 0.  0.
         25    1    1    2    0    0  0.10818364109E+03 -0.89678002185E+02  0.35852471575E+03  0.40485900765E+03  0.12500000000E+03 0.  0.
         25    1    1    2    0    0 -0.22686598871E+03  0.20233646410E+03 -0.23925641578E+03  0.40654256115E+03  0.12500000000E+03 0.  0.
</event>
<event>
 5    0  0.5655767E-005  0.2813326E+03  0.7546771E-02  0.1094963E+00
         21   -1    0    0  502  501  0.00000000000E+00  0.00000000000E+00  0.45771353907E+03  0.45771353907E+03  0.00000000000E+00 0. -1.
         21   -1    0    0  501  502 -0.00000000000E+00 -0.00000000000E+00 -0.17292050099E+03  0.17292050099E+03  0.00000000000E+00 0. -1.
         25    1    1    2    0    0  0.11799913294E+03 -0.29225425052E+02  0.56831292807E+02  0.18339224816E+03  0.12500000000E+03 0.  0.
         25    1    1    2    0    0 -0.19711481925E+03  0.29746366995E+02  0.12020269586E+03  0.26422109380E+03  0.12500000000E+03 0.  0.
         25    1    1    2    0    0  0.79115686305E+02 -0.52094194327E+00  0.10775904941E+03  0.18302069809E+03  0.12500000000E+03 0.  0.
</event>
<event>
 5    0  0.5655767E-005  0.2472685E+03  0.7546771E-02  0.1115043E+00
         21   -1    0    0  502  501  0.00000000000E+00  0.00000000000E+00  0.15859778950E+04  0.15859778950E+04  0.00000000000E+00 0. -1.
         21   -1    0    0  501  502 -0.00000000000E+00 -0.00000000000E+00 -0.38551416679E+02  0.38551416679E+02  0.00000000000E+00 0. -1.
         25    1    1    2    0    0  0.12349983792E+03  0.54285636844E+02  0.40782992655E+03  0.44738058666E+03  0.12500000000E+03 0.  0.
         25    1    1    2    0    0 -0.24936746003E+02 -0.37189817656E+01  0.52453024569E+03  0.53980797583E+03  0.12500000000E+03 0.  0.
         25    1    1    2    0    0 -0.98563091916E+02 -0.50566655079E+02  0.61506630608E+03  0.63734074918E+03  0.12500000000E+03 0.  0.
</event>
<event>
 5    0  0.5655767E-005  0.4930564E+03  0.7546771E-02  0.1015607E+00
         21   -1    0    0  502  501  0.00000000000E+00  0.00000000000E+00  0.64030694610E+02  0.64030694610E+02  0.00000000000E+00 0. -1.
         21   -1    0    0  501  502 -0.00000000000E+00 -0.00000000000E+00 -0.37966891977E+04  0.37966891977E+04  0.00000000000E+00 0. -1.
         25    1    1    2    0    0  0.66572706543E+02  0.10314508079E+03 -0.11892579392E+04  0.12020941223E+04  0.12500000000E+03 0.  0.
         25    1    1    2    0    0  0.75897900012E+01 -0.41291376197E+03 -0.14682405313E+04  0.15303302380E+04  0.12500000000E+03 0.  0.
         25    1    1    2    0    0 -0.74162496544E+02  0.30976868118E+03 -0.10751600326E+04  0.11282955319E+04  0.12500000000E+03 0.  0.
</event>
<event>
 5    0  0.5655767E-005  0.2264235E+03  0.7546771E-02  0.1129183E+00
         21   -1    0    0  502  501  0.00000000000E+00  0.00000000000E+00  0.26759992776E+03  0.26759992776E+03  0.00000000000E+00 0.  1.
         21   -1    0    0  501  502 -0.00000000000E+00 -0.00000000000E+00 -0.19158309296E+03  0.19158309296E+03  0.00000000000E+00 0.  1.
         25    1    1    2    0    0 -0.53417220010E+02 -0.15211416260E+02  0.54044309575E+02  0.14707336256E+03  0.12500000000E+03 0.  0.
         25    1    1    2    0    0 -0.11547176520E+02 -0.28634719153E+02 -0.61395731873E+02  0.14264543567E+03  0.12500000000E+03 0.  0.
         25    1    1    2    0    0  0.64964396530E+02  0.43846135413E+02  0.83368257100E+02  0.16946422248E+03  0.12500000000E+03 0.  0.
</event>
<event>
 5    0  0.5655767E-005  0.4806138E+03  0.7546771E-02  0.1018967E+00
         21   -1    0    0  502  501  0.00000000000E+00  0.00000000000E+00  0.39624091257E+03  0.39624091257E+03  0.00000000000E+00 0. -1.
         21   -1    0    0  501  502 -0.00000000000E+00 -0.00000000000E+00 -0.58295247769E+03  0.58295247769E+03  0.00000000000E+00 0. -1.
         25    1    1    2    0    0  0.19444670070E+03  0.82800984946E+02 -0.10005352359E+03  0.26514379137E+03  0.12500000000E+03 0.  0.
         25    1    1    2    0    0 -0.14968270618E+03  0.20399423873E+03 -0.23281586044E+03  0.36585077127E+03  0.12500000000E+03 0.  0.
         25    1    1    2    0    0 -0.44763994512E+02 -0.28679522367E+03  0.14615781892E+03  0.34819882762E+03  0.12500000000E+03 0.  0.
</event>
<event>
 5    0  0.5655767E-005  0.3297983E+03  0.7546771E-02  0.1071226E+00
         21   -1    0    0  502  501  0.00000000000E+00  0.00000000000E+00  0.12091207234E+03  0.12091207234E+03  0.00000000000E+00 0. -1.
         21   -1    0    0  501  502 -0.00000000000E+00 -0.00000000000E+00 -0.89955372520E+03  0.89955372520E+03  0.00000000000E+00 0. -1.
         25    1    1    2    0    0  0.18501895642E+03 -0.98105774349E+02 -0.20144695387E+03  0.31632678107E+03  0.12500000000E+03 0.  0.
         25    1    1    2    0    0  0.40164706001E+02  0.44216295742E+02 -0.22997607645E+03  0.26848143355E+03  0.12500000000E+03 0.  0.
         25    1    1    2    0    0 -0.22518366242E+03  0.53889478608E+02 -0.34721862253E+03  0.43565758292E+03  0.12500000000E+03 0.  0.
</event>
<event>
 5    0  0.5655767E-005  0.5866232E+03  0.7546771E-02  0.9933554E-01
         21   -1    0    0  502  501  0.00000000000E+00  0.00000000000E+00  0.24706683434E+03  0.24706683434E+03  0.00000000000E+00 0. -1.
         21   -1    0    0  501  502 -0.00000000000E+00 -0.00000000000E+00 -0.13928489076E+04  0.13928489076E+04  0.00000000000E+00 0. -1.
         25    1    1    2    0    0  0.54873855871E+02 -0.89409353166E+02 -0.12369860465E+03  0.20477186644E+03  0.12500000000E+03 0.  0.
         25    1    1    2    0    0 -0.14109690859E+03  0.34250786288E+03 -0.10672009420E+04  0.11365574444E+04  0.12500000000E+03 0.  0.
         25    1    1    2    0    0  0.86223052716E+02 -0.25309850971E+03  0.45117473416E+02  0.29858643111E+03  0.12500000000E+03 0.  0.
</event>
<event>
 5    0  0.5655767E-005  0.2529613E+03  0.7546771E-02  0.1111448E+00
         21   -1    0    0  502  501  0.00000000000E+00  0.00000000000E+00  0.55154479235E+02  0.55154479235E+02  0.00000000000E+00 0. -1.
         21   -1    0    0  501  502 -0.00000000000E+00 -0.00000000000E+00 -0.11601851780E+04  0.11601851780E+04  0.00000000000E+00 0. -1.
         25    1    1    2    0    0  0.59681976322E+02 -0.25002445207E+02 -0.16034494987E+03  0.21336017321E+03  0.12500000000E+03 0.  0.
         25    1    1    2    0    0 -0.10867787731E+03 -0.20580476213E+02 -0.31457638589E+03  0.35611478427E+03  0.12500000000E+03 0.  0.
         25    1    1    2    0    0  0.48995900985E+02  0.45582921419E+02 -0.63010936302E+03  0.64586469976E+03  0.12500000000E+03 0.  0.
</event>
<event>
 5    0  0.5655767E-005  0.3498618E+03  0.7546771E-02  0.1062672E+00
         21   -1    0    0  502  501  0.00000000000E+00  0.00000000000E+00  0.61564508230E+02  0.61564508230E+02  0.00000000000E+00 0.  1.
         21   -1    0    0  501  502 -0.00000000000E+00 -0.00000000000E+00 -0.19882115351E+04  0.19882115351E+04  0.00000000000E+00 0.  1.
         25    1    1    2    0    0 -0.20783211416E+02  0.18410050758E+03 -0.67292762113E+03  0.70907088647E+03  0.12500000000E+03 0.  0.
         25    1    1    2    0    0 -0.40483398940E+02 -0.24348256458E+03 -0.49532671642E+03  0.56735898764E+03  0.12500000000E+03 0.  0.
         25    1    1    2    0    0  0.61266610356E+02  0.59382057006E+02 -0.75839268931E+03  0.77334616921E+03  0.12500000000E+03 0.  0.
</event>
<event>
 5    0  0.5655767E-005  0.3730929E+03  0.7546771E-02  0.1053517E+00
         21   -1    0    0  502  501  0.00000000000E+00  0.00000000000E+00  0.12058056892E+03  0.12058056892E+03  0.00000000000E+00 0.  1.
         21   -1    0    0  501  502 -0.00000000000E+00 -0.00000000000E+00 -0.11544006588E+04  0.11544006588E+04  0.00000000000E+00 0.  1.
         25    1    1    2    0    0 -0.23848027055E+03 -0.14091523785E+03 -0.30036176421E+03  0.42728460433E+03  0.12500000000E+03 0.  0.
         25    1    1    2    0    0  0.13892912352E+02  0.77957202692E+01 -0.14644304551E+03  0.19319511341E+03  0.12500000000E+03 0.  0.
         25    1    1    2    0    0  0.22458735819E+03  0.13311951758E+03 -0.58701528018E+03  0.65450151000E+03  0.12500000000E+03 0.  0.
</event>
<event>
 5    0  0.5655767E-005  0.3208656E+03  0.7546771E-02  0.1075252E+00
         21   -1    0    0  502  501  0.00000000000E+00  0.00000000000E+00  0.16294506297E+04  0.16294506297E+04  0.00000000000E+00 0. -1.
         21   -1    0    0  501  502 -0.00000000000E+00 -0.00000000000E+00 -0.63183692353E+02  0.63183692353E+02  0.00000000000E+00 0. -1.
         25    1    1    2    0    0 -0.12322954678E+01 -0.19417878776E+03  0.53035083256E+03  0.57844958792E+03  0.12500000000E+03 0.  0.
         25    1    1    2    0    0 -0.12171634425E+03  0.76371266600E+02  0.60519046323E+03  0.63445089298E+03  0.12500000000E+03 0.  0.
         25    1    1    2    0    0  0.12294863972E+03  0.11780752116E+03  0.43072564154E+03  0.47973384114E+03  0.12500000000E+03 0.  0.
</event>
<event>
 5    0  0.5655767E-005  0.3738968E+03  0.7546771E-02  0.1053213E+00
         21   -1    0    0  502  501  0.00000000000E+00  0.00000000000E+00  0.23831831966E+04  0.23831831966E+04  0.00000000000E+00 0. -1.
         21   -1    0    0  501  502 -0.00000000000E+00 -0.00000000000E+00 -0.58660534202E+02  0.58660534202E+02  0.00000000000E+00 0. -1.
         25    1    1    2    0    0  0.75298237031E+02  0.10467025647E+03  0.53809816960E+03  0.56727447255E+03  0.12500000000E+03 0.  0.
         25    1    1    2    0    0 -0.15799750969E+03  0.13195488553E+03  0.46367893446E+03  0.52249254459E+03  0.12500000000E+03 0.  0.
         25    1    1    2    0    0  0.82699272657E+02 -0.23662514200E+03  0.13227455584E+04  0.13520767137E+04  0.12500000000E+03 0.  0.
</event>
<event>
 5    0  0.5655767E-005  0.2355583E+03  0.7546771E-02  0.1122788E+00
         21   -1    0    0  502  501  0.00000000000E+00  0.00000000000E+00  0.12639365545E+03  0.12639365545E+03  0.00000000000E+00 0.  1.
         21   -1    0    0  501  502 -0.00000000000E+00 -0.00000000000E+00 -0.43900693635E+03  0.43900693635E+03  0.00000000000E+00 0.  1.
         25    1    1    2    0    0 -0.24210254682E+02 -0.46175008325E+02 -0.13458761113E+03  0.19093740570E+03  0.12500000000E+03 0.  0.
         25    1    1    2    0    0  0.61602243628E+02 -0.60331391839E+02 -0.12844811736E+03  0.19889351954E+03  0.12500000000E+03 0.  0.
         25    1    1    2    0    0 -0.37391988946E+02  0.10650640016E+03 -0.49577552411E+02  0.17556966656E+03  0.12500000000E+03 0.  0.
</event>
<event>
 5    0  0.5655767E-005  0.2655211E+03  0.7546771E-02  0.1103871E+00
         21   -1    0    0  502  501  0.00000000000E+00  0.00000000000E+00  0.13419711061E+03  0.13419711061E+03  0.00000000000E+00 0. -1.
         21   -1    0    0  501  502 -0.00000000000E+00 -0.00000000000E+00 -0.52535761174E+03  0.52535761174E+03  0.00000000000E+00 0. -1.
         25    1    1    2    0    0 -0.22697250553E+02  0.90892950786E+02 -0.16494662088E+03  0.22717632233E+03  0.12500000000E+03 0.  0.
         25    1    1    2    0    0 -0.28562801200E+02  0.76871583094E+02 -0.12265622308E+03  0.19337689355E+03  0.12500000000E+03 0.  0.
         25    1    1    2    0    0  0.51260051754E+02 -0.16776453388E+03 -0.10355765717E+03  0.23900150646E+03  0.12500000000E+03 0.  0.
</event>
<event>
 5    0  0.5655767E-005  0.3177455E+03  0.7546771E-02  0.1076692E+00
         21   -1    0    0  502  501  0.00000000000E+00  0.00000000000E+00  0.64855823387E+03  0.64855823387E+03  0.00000000000E+00 0. -1.
         21   -1    0    0  501  502 -0.00000000000E+00 -0.00000000000E+00 -0.15567171510E+03  0.15567171510E+03  0.00000000000E+00 0. -1.
         25    1    1    2    0    0 -0.15333358583E+02  0.98441874386E+02  0.14621591484E+03  0.21663334985E+03  0.12500000000E+03 0.  0.
         25    1    1    2    0    0 -0.15520946794E+03 -0.94188104112E+01  0.38150599706E+02  0.20312351214E+03  0.12500000000E+03 0.  0.
         25    1    1    2    0    0  0.17054282652E+03 -0.89023063975E+02  0.30852000423E+03  0.38447308698E+03  0.12500000000E+03 0.  0.
</event>
<event>
 5    0  0.5655767E-005  0.3178931E+03  0.7546771E-02  0.1076623E+00
         21   -1    0    0  502  501  0.00000000000E+00  0.00000000000E+00  0.27789065603E+03  0.27789065603E+03  0.00000000000E+00 0. -1.
         21   -1    0    0  501  502 -0.00000000000E+00 -0.00000000000E+00 -0.36365401478E+03  0.36365401478E+03  0.00000000000E+00 0. -1.
         25    1    1    2    0    0 -0.22808300820E+02  0.17654617148E+03  0.98938034000E+02  0.23896130193E+03  0.12500000000E+03 0.  0.
         25    1    1    2    0    0 -0.58130269723E+02 -0.13038763446E+03 -0.49204949387E+02  0.19602599450E+03  0.12500000000E+03 0.  0.
         25    1    1    2    0    0  0.80938570543E+02 -0.46158537023E+02 -0.13549644336E+03  0.20655737437E+03  0.12500000000E+03 0.  0.
</event>
<event>
 5    0  0.5655767E-005  0.2675579E+03  0.7546771E-02  0.1102685E+00
         21   -1    0    0  502  501  0.00000000000E+00  0.00000000000E+00  0.56354850753E+03  0.56354850753E+03  0.00000000000E+00 0. -1.
         21   -1    0    0  501  502 -0.00000000000E+00 -0.00000000000E+00 -0.12702943464E+03  0.12702943464E+03  0.00000000000E+00 0. -1.
         25    1    1    2    0    0 -0.50764678094E+02  0.10388154862E+03  0.36272558065E+02  0.17409516695E+03  0.12500000000E+03 0.  0.
         25    1    1    2    0    0 -0.58704022113E+01  0.35109917457E+02  0.18130441595E+03  0.22307724933E+03  0.12500000000E+03 0.  0.
         25    1    1    2    0    0  0.56635080306E+02 -0.13899146608E+03  0.21894209888E+03  0.29340552589E+03  0.12500000000E+03 0.  0.
</event>
<event>
 5    0  0.5655767E-005  0.3826177E+03  0.7546771E-02  0.1049970E+00
         21   -1    0    0  502  501  0.00000000000E+00  0.00000000000E+00  0.11592772066E+03  0.11592772066E+03  0.00000000000E+00 0.  1.
         21   -1    0    0  501  502 -0.00000000000E+00 -0.00000000000E+00 -0.12628241117E+04  0.12628241117E+04  0.00000000000E+00 0.  1.
         25    1    1    2    0    0 -0.75451334002E+02 -0.78644104753E+02 -0.87122273278E+03  0.88686630849E+03  0.12500000000E+03 0.  0.
         25    1    1    2    0    0  0.14407612216E+03 -0.67651268101E+02 -0.12282329810E+03  0.23673864410E+03  0.12500000000E+03 0.  0.
         25    1    1    2    0    0 -0.68624788161E+02  0.14629537285E+03 -0.15285036019E+03  0.25514687981E+03  0.12500000000E+03 0.  0.
</event>
<event>
 5    0  0.5655767E-005  0.2986793E+03  0.7546771E-02  0.1085903E+00
         21   -1    0    0  502  501  0.00000000000E+00  0.00000000000E+00  0.19785347053E+03  0.19785347053E+03  0.00000000000E+00 0.  1.
         21   -1    0    0  501  502 -0.00000000000E+00 -0.00000000000E+00 -0.45088576357E+03  0.45088576357E+03  0.00000000000E+00 0.  1.
         25    1    1    2    0    0  0.33030166317E+02 -0.78369754040E+02  0.71299302246E+02  0.16715681481E+03  0.12500000000E+03 0.  0.
         25    1    1    2    0    0 -0.71959614030E+02  0.11045889924E+03 -0.29045993815E+03  0.34259499434E+03  0.12500000000E+03 0.  0.
         25    1    1    2    0    0  0.38929447712E+02 -0.32089145203E+02 -0.33871657128E+02  0.13898742496E+03  0.12500000000E+03 0.  0.
</event>
<event>
 5    0  0.5655767E-005  0.3111173E+03  0.7546771E-02  0.1079812E+00
         21   -1    0    0  502  501  0.00000000000E+00  0.00000000000E+00  0.31129274598E+03  0.31129274598E+03  0.00000000000E+00 0. -1.
         21   -1    0    0  501  502 -0.00000000000E+00 -0.00000000000E+00 -0.31094198550E+03  0.31094198550E+03  0.00000000000E+00 0. -1.
         25    1    1    2    0    0  0.45899619856E+02  0.45253960292E+02  0.20989491139E+02  0.14219794219E+03  0.12500000000E+03 0.  0.
         25    1    1    2    0    0 -0.40690864769E+02  0.14678783871E+03  0.10006324237E+03  0.22099789262E+03  0.12500000000E+03 0.  0.
         25    1    1    2    0    0 -0.52087550870E+01 -0.19204179900E+03 -0.12070197303E+03  0.25903889667E+03  0.12500000000E+03 0.  0.
</event>
<event>
 5    0  0.5655767E-005  0.3391041E+03  0.7546771E-02  0.1067178E+00
         21   -1    0    0  502  501  0.00000000000E+00  0.00000000000E+00  0.19380472063E+03  0.19380472063E+03  0.00000000000E+00 0.  1.
         21   -1    0    0  501  502 -0.00000000000E+00 -0.00000000000E+00 -0.59333751167E+03  0.59333751167E+03  0.00000000000E+00 0.  1.
         25    1    1    2    0    0  0.67897944073E+02  0.15478847652E+03 -0.34109075411E+03  0.40067131893E+03  0.12500000000E+03 0.  0.
         25    1    1    2    0    0 -0.15095436264E+03 -0.76539478322E+02 -0.10988534485E+02  0.21069233311E+03  0.12500000000E+03 0.  0.
         25    1    1    2    0    0  0.83056418565E+02 -0.78248998195E+02 -0.47453502442E+02  0.17577858026E+03  0.12500000000E+03 0.  0.
</event>
<event>
 5    0  0.5655767E-005  0.2974752E+03  0.7546771E-02  0.1086510E+00
         21   -1    0    0  502  501  0.00000000000E+00  0.00000000000E+00  0.65128162989E+02  0.65128162989E+02  0.00000000000E+00 0.  1.
         21   -1    0    0  501  502 -0.00000000000E+00 -0.00000000000E+00 -0.13587289959E+04  0.13587289959E+04  0.00000000000E+00 0.  1.
         25    1    1    2    0    0 -0.31639806877E+01 -0.14699461325E+03 -0.30482194920E+03  0.36077534258E+03  0.12500000000E+03 0.  0.
         25    1    1    2    0    0  0.72082301765E+01  0.14498906289E+02 -0.76114511899E+03  0.77151090013E+03  0.12500000000E+03 0.  0.
         25    1    1    2    0    0 -0.40442494887E+01  0.13249570696E+03 -0.22763376471E+03  0.29157091617E+03  0.12500000000E+03 0.  0.
</event>
<event>
 5    0  0.5655767E-005  0.3558167E+03  0.7546771E-02  0.1060253E+00
         21   -1    0    0  502  501  0.00000000000E+00  0.00000000000E+00  0.64800795320E+03  0.64800795320E+03  0.00000000000E+00 0. -1.
         21   -1    0    0  501  502 -0.00000000000E+00 -0.00000000000E+00 -0.19537653842E+03  0.19537653842E+03  0.00000000000E+00 0. -1.
         25    1    1    2    0    0  0.13414334258E+03  0.22906513135E+03  0.20736004382E+03  0.35928882327E+03  0.12500000000E+03 0.  0.
         25    1    1    2    0    0 -0.13986897799E+02 -0.44435328963E+02  0.27471343771E+01  0.13342667843E+03  0.12500000000E+03 0.  0.
         25    1    1    2    0    0 -0.12015644478E+03 -0.18462980239E+03  0.24252423659E+03  0.35066898991E+03  0.12500000000E+03 0.  0.
</event>
<event>
 5    0  0.5655767E-005  0.3042301E+03  0.7546771E-02  0.1083145E+00
         21   -1    0    0  502  501  0.00000000000E+00  0.00000000000E+00  0.18443921798E+03  0.18443921798E+03  0.00000000000E+00 0. -1.
         21   -1    0    0  501  502 -0.00000000000E+00 -0.00000000000E+00 -0.50182354051E+03  0.50182354051E+03  0.00000000000E+00 0. -1.
         25    1    1    2    0    0  0.73034909345E+02  0.92501784436E+02 -0.21235286308E+03  0.27314724338E+03  0.12500000000E+03 0.  0.
         25    1    1    2    0    0 -0.17615697545E+03 -0.16222800717E+02 -0.85802270121E+02  0.23298388103E+03  0.12500000000E+03 0.  0.
         25    1    1    2    0    0  0.10312206610E+03 -0.76278983719E+02 -0.19229189331E+02  0.18013163408E+03  0.12500000000E+03 0.  0.
</event>
<event>
 5    0  0.5655767E-005  0.3525885E+03  0.7546771E-02  0.1061558E+00
         21   -1    0    0  502  501  0.00000000000E+00  0.00000000000E+00  0.81746548533E+02  0.81746548533E+02  0.00000000000E+00 0. -1.
         21   -1    0    0  501  502 -0.00000000000E+00 -0.00000000000E+00 -0.15207815252E+04  0.15207815252E+04  0.00000000000E+00 0. -1.
         25    1    1    2    0    0 -0.14226495093E+03  0.26685858715E+02 -0.61706808574E+03  0.64602590796E+03  0.12500000000E+03 0.  0.
         25    1    1    2    0    0  0.21680854914E+03  0.97661887710E+02 -0.63240763781E+03  0.68710131106E+03  0.12500000000E+03 0.  0.
         25    1    1    2    0    0 -0.74543598207E+02 -0.12434774642E+03 -0.18955925307E+03  0.26940085468E+03  0.12500000000E+03 0.  0.
</event>
<event>
 5    0  0.5655767E-005  0.3539564E+03  0.7546771E-02  0.1061003E+00
         21   -1    0    0  502  501  0.00000000000E+00  0.00000000000E+00  0.41803557180E+03  0.41803557180E+03  0.00000000000E+00 0. -1.
         21   -1    0    0  501  502 -0.00000000000E+00 -0.00000000000E+00 -0.29969969941E+03  0.29969969941E+03  0.00000000000E+00 0. -1.
         25    1    1    2    0    0  0.22054730906E+03  0.15437195002E+03  0.13373933964E+03  0.32555034243E+03  0.12500000000E+03 0.  0.
         25    1    1    2    0    0 -0.75588547141E+02 -0.11338928593E+03  0.39058699869E+02  0.18900090121E+03  0.12500000000E+03 0.  0.
         25    1    1    2    0    0 -0.14495876192E+03 -0.40982664086E+02 -0.54462167116E+02  0.20318402757E+03  0.12500000000E+03 0.  0.
</event>
<event>
 5    0  0.5655767E-005  0.2422156E+03  0.7546771E-02  0.1118326E+00
         21   -1    0    0  502  501  0.00000000000E+00  0.00000000000E+00  0.13954505271E+03  0.13954505271E+03  0.00000000000E+00 0.  1.
         21   -1    0    0  501  502 -0.00000000000E+00 -0.00000000000E+00 -0.42042605408E+03  0.42042605408E+03  0.00000000000E+00 0.  1.
         25    1    1    2    0    0  0.20859496578E+02  0.99406028767E+02 -0.11314283410E+02  0.16146111037E+03  0.12500000000E+03 0.  0.
         25    1    1    2    0    0 -0.17819651735E+01 -0.19441242409E+02 -0.57471786592E+02  0.13895734439E+03  0.12500000000E+03 0.  0.
         25    1    1    2    0    0 -0.19077531405E+02 -0.79964786357E+02 -0.21209493137E+03  0.25955265203E+03  0.12500000000E+03 0.  0.
</event>
<event>
 5    0  0.5655767E-005  0.4697624E+03  0.7546771E-02  0.1021987E+00
         21   -1    0    0  502  501  0.00000000000E+00  0.00000000000E+00  0.46565372795E+03  0.46565372795E+03  0.00000000000E+00 0. -1.
         21   -1    0    0  501  502 -0.00000000000E+00 -0.00000000000E+00 -0.47390735431E+03  0.47390735431E+03  0.00000000000E+00 0. -1.
         25    1    1    2    0    0 -0.24551877564E+03 -0.23200186999E+03  0.27552467462E+02  0.36123188582E+03  0.12500000000E+03 0.  0.
         25    1    1    2    0    0  0.28649635445E+03  0.13908492818E+03  0.11173798957E+03  0.35990992856E+03  0.12500000000E+03 0.  0.
         25    1    1    2    0    0 -0.40977578816E+02  0.92916941808E+02 -0.14754408339E+03  0.21841926788E+03  0.12500000000E+03 0.  0.
</event>
<event>
 5    0  0.5655767E-005  0.2058485E+03  0.7546771E-02  0.1144896E+00
         21   -1    0    0  502  501  0.00000000000E+00  0.00000000000E+00  0.91304165177E+02  0.91304165177E+02  0.00000000000E+00 0.  1.
         21   -1    0    0  501  502 -0.00000000000E+00 -0.00000000000E+00 -0.46409260406E+03  0.46409260406E+03  0.00000000000E+00 0.  1.
         25    1    1    2    0    0  0.29772692291E+02 -0.16885245803E+02 -0.12613141796E+03  0.18084706060E+03  0.12500000000E+03 0.  0.
         25    1    1    2    0    0 -0.44027488976E+02  0.37275348894E+02 -0.63990834831E+02  0.15181468428E+03  0.12500000000E+03 0.  0.
         25    1    1    2    0    0  0.14254796685E+02 -0.20390103091E+02 -0.18266618609E+03  0.22273502436E+03  0.12500000000E+03 0.  0.
</event>
<event>
 5    0  0.5655767E-005  0.3207492E+03  0.7546771E-02  0.1075305E+00
         21   -1    0    0  502  501  0.00000000000E+00  0.00000000000E+00  0.44876278081E+03  0.44876278081E+03  0.00000000000E+00 0.  1.
         21   -1    0    0  501  502 -0.00000000000E+00 -0.00000000000E+00 -0.22925257284E+03  0.22925257284E+03  0.00000000000E+00 0.  1.
         25    1    1    2    0    0 -0.29907391496E+02  0.14148399179E+03  0.13914676681E+03  0.23642968239E+03  0.12500000000E+03 0.  0.
         25    1    1    2    0    0 -0.14524486273E+03 -0.89476331165E+02  0.56635966254E+02  0.21893998416E+03  0.12500000000E+03 0.  0.
         25    1    1    2    0    0  0.17515225423E+03 -0.52007660627E+02  0.23727474902E+02  0.22264568711E+03  0.12500000000E+03 0.  0.
</event>
<event>
 5    0  0.5655767E-005  0.3443937E+03  0.7546771E-02  0.1064940E+00
         21   -1    0    0  502  501  0.00000000000E+00  0.00000000000E+00  0.41406766137E+03  0.41406766137E+03  0.00000000000E+00 0. -1.
         21   -1    0    0  501  502 -0.00000000000E+00 -0.00000000000E+00 -0.28644355919E+03  0.28644355919E+03  0.00000000000E+00 0. -1.
         25    1    1    2    0    0 -0.39543468326E+02  0.30361943862E+02 -0.58803917302E+02  0.14686195631E+03  0.12500000000E+03 0.  0.
         25    1    1    2    0    0  0.22600723283E+02 -0.11481318778E+03 -0.12175996806E+03  0.21010319037E+03  0.12500000000E+03 0.  0.
         25    1    1    2    0    0  0.16942745043E+02  0.84451243920E+02  0.30818798754E+03  0.34354607387E+03  0.12500000000E+03 0.  0.
</event>
<event>
 5    0  0.5655767E-005  0.3246520E+03  0.7546771E-02  0.1073528E+00
         21   -1    0    0  502  501  0.00000000000E+00  0.00000000000E+00  0.45343851858E+03  0.45343851858E+03  0.00000000000E+00 0. -1.
         21   -1    0    0  501  502 -0.00000000000E+00 -0.00000000000E+00 -0.23244369651E+03  0.23244369651E+03  0.00000000000E+00 0. -1.
         25    1    1    2    0    0 -0.16179206946E+03  0.25246240471E+02  0.15081254015E+03  0.25531053379E+03  0.12500000000E+03 0.  0.
         25    1    1    2    0    0  0.17521823614E+03 -0.54234582643E+02  0.15978254212E+03  0.27349274395E+03  0.12500000000E+03 0.  0.
         25    1    1    2    0    0 -0.13426166678E+02  0.28988342172E+02 -0.89600260192E+02  0.15707893735E+03  0.12500000000E+03 0.  0.
</event>
<event>
 5    0  0.5655767E-005  0.2489416E+03  0.7546771E-02  0.1113976E+00
         21   -1    0    0  502  501  0.00000000000E+00  0.00000000000E+00  0.83669089988E+02  0.83669089988E+02  0.00000000000E+00 0. -1.
         21   -1    0    0  501  502 -0.00000000000E+00 -0.00000000000E+00 -0.74067867703E+03  0.74067867703E+03  0.00000000000E+00 0. -1.
         25    1    1    2    0    0  0.45798558615E+02  0.75193452514E+01 -0.14268778774E+03  0.19529171333E+03  0.12500000000E+03 0.  0.
         25    1    1    2    0    0  0.84141773199E+02 -0.50857905905E+02 -0.33625253080E+03  0.37196388140E+03  0.12500000000E+03 0.  0.
         25    1    1    2    0    0 -0.12994033181E+03  0.43338560654E+02 -0.17806926850E+03  0.25709217229E+03  0.12500000000E+03 0.  0.
</event>
<event>
 5    0  0.5655767E-005  0.2284461E+03  0.7546771E-02  0.1127738E+00
         21   -1    0    0  502  501  0.00000000000E+00  0.00000000000E+00  0.17101541890E+03  0.17101541890E+03  0.00000000000E+00 0. -1.
         21   -1    0    0  501  502 -0.00000000000E+00 -0.00000000000E+00 -0.30516311727E+03  0.30516311727E+03  0.00000000000E+00 0. -1.
         25    1    1    2    0    0 -0.91686576057E+01  0.77379308002E+02 -0.65570276733E+02  0.16123300772E+03  0.12500000000E+03 0.  0.
         25    1    1    2    0    0  0.36864073503E+02  0.14393665858E+02  0.22431392727E+02  0.13301994178E+03  0.12500000000E+03 0.  0.
         25    1    1    2    0    0 -0.27695415897E+02 -0.91772973860E+02 -0.91008814362E+02  0.18192558667E+03  0.12500000000E+03 0.  0.
</event>
<event>
 5    0  0.5655767E-005  0.4227053E+03  0.7546771E-02  0.1036189E+00
         21   -1    0    0  502  501  0.00000000000E+00  0.00000000000E+00  0.12135657430E+04  0.12135657430E+04  0.00000000000E+00 0. -1.
         21   -1    0    0  501  502 -0.00000000000E+00 -0.00000000000E+00 -0.14723536410E+03  0.14723536410E+03  0.00000000000E+00 0. -1.
         25    1    1    2    0    0  0.12563482239E+03  0.72966281469E+02  0.59570339325E+03  0.62577609379E+03  0.12500000000E+03 0.  0.
         25    1    1    2    0    0  0.52048463325E+02  0.18374300963E+03  0.18515752903E+03  0.29390278440E+03  0.12500000000E+03 0.  0.
         25    1    1    2    0    0 -0.17768328572E+03 -0.25670929110E+03  0.28546945658E+03  0.44112222886E+03  0.12500000000E+03 0.  0.
</event>
<event>
 5    0  0.5655767E-005  0.3735925E+03  0.7546771E-02  0.1053328E+00
         21   -1    0    0  502  501  0.00000000000E+00  0.00000000000E+00  0.71433005528E+03  0.71433005528E+03  0.00000000000E+00 0.  1.
         21   -1    0    0  501  502 -0.00000000000E+00 -0.00000000000E+00 -0.19538779584E+03  0.19538779584E+03  0.00000000000E+00 0.  1.
         25    1    1    2    0    0 -0.14681442220E+03 -0.10279014725E+03  0.29151778581E+03  0.36431841620E+03  0.12500000000E+03 0.  0.
         25    1    1    2    0    0  0.30511559808E+02 -0.13713054926E+03  0.28885490361E+02  0.19025013633E+03  0.12500000000E+03 0.  0.
         25    1    1    2    0    0  0.11630286239E+03  0.23992069651E+03  0.19853898327E+03  0.35514929859E+03  0.12500000000E+03 0.  0.
</event>
<event>
 5    0  0.5655767E-005  0.4308825E+03  0.7546771E-02  0.1033582E+00
         21   -1    0    0  502  501  0.00000000000E+00  0.00000000000E+00  0.40774640230E+03  0.40774640230E+03  0.00000000000E+00 0.  1.
         21   -1    0    0  501  502 -0.00000000000E+00 -0.00000000000E+00 -0.45533127721E+03  0.45533127721E+03  0.00000000000E+00 0.  1.
         25    1    1    2    0    0 -0.19579226575E+03 -0.17732738690E+03  0.22459619899E+03  0.36857572637E+03  0.12500000000E+03 0.  0.
         25    1    1    2    0    0  0.69080329808E+02  0.32799813207E+02 -0.21154358218E+03  0.25733947788E+03  0.12500000000E+03 0.  0.
         25    1    1    2    0    0  0.12671193594E+03  0.14452757369E+03 -0.60637491714E+02  0.23716247525E+03  0.12500000000E+03 0.  0.
</event>
<event>
 5    0  0.6000027E-005  0.2859274E+03  0.7546771E-02  0.1092495E+00
         21   -1    0    0  502  501  0.00000000000E+00  0.00000000000E+00  0.17090711629E+03  0.17090711629E+03  0.00000000000E+00 0.  1.
         21   -1    0    0  501  502 -0.00000000000E+00 -0.00000000000E+00 -0.47835630354E+03  0.47835630354E+03  0.00000000000E+00 0.  1.
         25    1    1    2    0    0 -0.81326916690E+02  0.10875886135E+02 -0.57699159227E+01  0.14963503670E+03  0.12500000000E+03 0.  0.
         25    1    1    2    0    0 -0.23887685354E+02 -0.25837016392E+02  0.26670764106E+02  0.13256885979E+03  0.12500000000E+03 0.  0.
         25    1    1    2    0    0  0.10521460204E+03  0.14961130257E+02 -0.32835003544E+03  0.36705952334E+03  0.12500000000E+03 0.  0.
</event>
<event>
 5    0  0.6091826E-005  0.3447069E+03  0.7546771E-02  0.1064809E+00
         21   -1    0    0  502  501  0.00000000000E+00  0.00000000000E+00  0.24398894738E+03  0.24398894738E+03  0.00000000000E+00 0. -1.
         21   -1    0    0  501  502 -0.00000000000E+00 -0.00000000000E+00 -0.48700082311E+03  0.48700082311E+03  0.00000000000E+00 0. -1.
         25    1    1    2    0    0 -0.74898508818E+02  0.13899618676E+03 -0.40481425538E+02  0.20541049722E+03  0.12500000000E+03 0.  0.
         25    1    1    2    0    0  0.91418178975E+02  0.45647252052E+02  0.67504790796E+02  0.17499386231E+03  0.12500000000E+03 0.  0.
         25    1    1    2    0    0 -0.16519670157E+02 -0.18464343881E+03 -0.27003524099E+03  0.35058541096E+03  0.12500000000E+03 0.  0.
</event>
<event>
 5    0  0.5655767E-005  0.2737624E+03  0.7546771E-02  0.1099145E+00
         21   -1    0    0  502  501  0.00000000000E+00  0.00000000000E+00  0.12223080297E+04  0.12223080297E+04  0.00000000000E+00 0.  1.
         21   -1    0    0  501  502 -0.00000000000E+00 -0.00000000000E+00 -0.61315014170E+02  0.61315014170E+02  0.00000000000E+00 0.  1.
         25    1    1    2    0    0  0.12058480507E+03 -0.50628679509E+02  0.72073002733E+03  0.74308864255E+03  0.12500000000E+03 0.  0.
         25    1    1    2    0    0 -0.88648822392E+02  0.25150619082E+02  0.34440974157E+03  0.37780184944E+03  0.12500000000E+03 0.  0.
         25    1    1    2    0    0 -0.31935982675E+02  0.25478060427E+02  0.95853246650E+02  0.16273255189E+03  0.12500000000E+03 0.  0.
</event>
<event>
 5    0  0.5655767E-005  0.2391789E+03  0.7546771E-02  0.1120341E+00
         21   -1    0    0  502  501  0.00000000000E+00  0.00000000000E+00  0.29278081739E+03  0.29278081739E+03  0.00000000000E+00 0. -1.
         21   -1    0    0  501  502 -0.00000000000E+00 -0.00000000000E+00 -0.19539038393E+03  0.19539038393E+03  0.00000000000E+00 0. -1.
         25    1    1    2    0    0  0.24241861988E+01 -0.94911603363E+01  0.41411734537E+02  0.13204503232E+03  0.12500000000E+03 0.  0.
         25    1    1    2    0    0  0.78403064367E+02 -0.79023097346E+02  0.71983102597E+02  0.18220388985E+03  0.12500000000E+03 0.  0.
         25    1    1    2    0    0 -0.80827250565E+02  0.88514257683E+02 -0.16004403669E+02  0.17392227915E+03  0.12500000000E+03 0.  0.
</event>
<event>
 5    0  0.5655767E-005  0.2975530E+03  0.7546771E-02  0.1086470E+00
         21   -1    0    0  502  501  0.00000000000E+00  0.00000000000E+00  0.12125735651E+04  0.12125735651E+04  0.00000000000E+00 0.  1.
         21   -1    0    0  501  502 -0.00000000000E+00 -0.00000000000E+00 -0.73016405233E+02  0.73016405233E+02  0.00000000000E+00 0.  1.
         25    1    1    2    0    0 -0.32333680859E+02  0.80084829546E+02  0.31357515958E+03  0.34844429619E+03  0.12500000000E+03 0.  0.
         25    1    1    2    0    0  0.79950888469E+02 -0.37898636679E+02  0.70215213279E+02  0.16847441172E+03  0.12500000000E+03 0.  0.
         25    1    1    2    0    0 -0.47617207610E+02 -0.42186192867E+02  0.75576678701E+03  0.76867126242E+03  0.12500000000E+03 0.  0.
</event>
<event>
 5    0  0.5655767E-005  0.3894439E+03  0.7546771E-02  0.1047497E+00
         21   -1    0    0  502  501  0.00000000000E+00  0.00000000000E+00  0.48777551770E+03  0.48777551770E+03  0.00000000000E+00 0.  1.
         21   -1    0    0  501  502 -0.00000000000E+00 -0.00000000000E+00 -0.31093509267E+03  0.31093509267E+03  0.00000000000E+00 0.  1.
         25    1    1    2    0    0  0.20637767292E+03 -0.32593937284E+02 -0.15330457714E+03  0.28771757332E+03  0.12500000000E+03 0.  0.
         25    1    1    2    0    0  0.19175795698E+01  0.34030559775E+02  0.19172002991E+03  0.23139430844E+03  0.12500000000E+03 0.  0.
         25    1    1    2    0    0 -0.20829525249E+03 -0.14366224911E+01  0.13842497225E+03  0.27959872860E+03  0.12500000000E+03 0.  0.
</event>
<event>
 5    0  0.5655767E-005  0.2498990E+03  0.7546771E-02  0.1113369E+00
         21   -1    0    0  502  501  0.00000000000E+00  0.00000000000E+00  0.65789526557E+03  0.65789526557E+03  0.00000000000E+00 0.  1.
         21   -1    0    0  501  502 -0.00000000000E+00 -0.00000000000E+00 -0.94923180126E+02  0.94923180126E+02  0.00000000000E+00 0.  1.
         25    1    1    2    0    0  0.67526097368E+02  0.98796025920E+02  0.29895648023E+03  0.34542785880E+03  0.12500000000E+03 0.  0.
         25    1    1    2    0    0 -0.10274984902E+03 -0.34971052533E+02  0.14267346082E+03  0.21854341082E+03  0.12500000000E+03 0.  0.
         25    1    1    2    0    0  0.35223751648E+02 -0.63824973387E+02  0.12134214439E+03  0.18884717608E+03  0.12500000000E+03 0.  0.
</event>
<event>
 5    0  0.5655767E-005  0.4036165E+03  0.7546771E-02  0.1042535E+00
         21   -1    0    0  502  501  0.00000000000E+00  0.00000000000E+00  0.62882750168E+03  0.62882750168E+03  0.00000000000E+00 0.  1.
         21   -1    0    0  501  502 -0.00000000000E+00 -0.00000000000E+00 -0.25906355225E+03  0.25906355225E+03  0.00000000000E+00 0.  1.
         25    1    1    2    0    0 -0.94234590533E+02 -0.13336021586E+03  0.84604858434E+02  0.22236925889E+03  0.12500000000E+03 0.  0.
         25    1    1    2    0    0 -0.16019079664E+03  0.21269140793E+03  0.21087623904E+03  0.36192888048E+03  0.12500000000E+03 0.  0.
         25    1    1    2    0    0  0.25442538717E+03 -0.79331192069E+02  0.74282851947E+02  0.30359291455E+03  0.12500000000E+03 0.  0.
</event>
<event>
 5    0  0.5655767E-005  0.4392192E+03  0.7546771E-02  0.1030987E+00
         21   -1    0    0  502  501  0.00000000000E+00  0.00000000000E+00  0.39977176022E+03  0.39977176022E+03  0.00000000000E+00 0.  1.
         21   -1    0    0  501  502 -0.00000000000E+00 -0.00000000000E+00 -0.48255907161E+03  0.48255907161E+03  0.00000000000E+00 0.  1.
         25    1    1    2    0    0  0.26150879154E+02  0.17409440726E+02  0.13866549259E+03  0.18931475363E+03  0.12500000000E+03 0.  0.
         25    1    1    2    0    0 -0.45117132549E+02  0.28399708636E+03 -0.31879111363E+02  0.31516849216E+03  0.12500000000E+03 0.  0.
         25    1    1    2    0    0  0.18966253394E+02 -0.30140652709E+03 -0.18957369262E+03  0.37784758604E+03  0.12500000000E+03 0.  0.
</event>
<event>
 5    0  0.5655767E-005  0.3123717E+03  0.7546771E-02  0.1079215E+00
         21   -1    0    0  502  501  0.00000000000E+00  0.00000000000E+00  0.77807970887E+03  0.77807970887E+03  0.00000000000E+00 0. -1.
         21   -1    0    0  501  502 -0.00000000000E+00 -0.00000000000E+00 -0.12540624041E+03  0.12540624041E+03  0.00000000000E+00 0. -1.
         25    1    1    2    0    0  0.12972340762E+03 -0.19355400456E+02  0.16261942973E+03  0.24346020812E+03  0.12500000000E+03 0.  0.
         25    1    1    2    0    0 -0.20672345915E+03 -0.87467568731E+02  0.32811616042E+03  0.41673778191E+03  0.12500000000E+03 0.  0.
         25    1    1    2    0    0  0.77000051524E+02  0.10682296919E+03  0.16193787832E+03  0.24328795925E+03  0.12500000000E+03 0.  0.
</event>
<event>
 5    0  0.5655767E-005  0.3043641E+03  0.7546771E-02  0.1083079E+00
         21   -1    0    0  502  501  0.00000000000E+00  0.00000000000E+00  0.16422864388E+03  0.16422864388E+03  0.00000000000E+00 0.  1.
         21   -1    0    0  501  502 -0.00000000000E+00 -0.00000000000E+00 -0.56407632694E+03  0.56407632694E+03  0.00000000000E+00 0.  1.
         25    1    1    2    0    0  0.16358617294E+03 -0.41022503102E+02 -0.67965312198E+02  0.22065258983E+03  0.12500000000E+03 0.  0.
         25    1    1    2    0    0 -0.10717826439E+03  0.12228426582E+03 -0.26421749639E+03  0.33447945740E+03  0.12500000000E+03 0.  0.
         25    1    1    2    0    0 -0.56407908550E+02 -0.81261762720E+02 -0.67664874475E+02  0.17317292359E+03  0.12500000000E+03 0.  0.
</event>
<event>
 5    0  0.5655767E-005  0.2899788E+03  0.7546771E-02  0.1090360E+00
         21   -1    0    0  502  501  0.00000000000E+00  0.00000000000E+00  0.13614755575E+04  0.13614755575E+04  0.00000000000E+00 0. -1.
         21   -1    0    0  501  502 -0.00000000000E+00 -0.00000000000E+00 -0.61762200484E+02  0.61762200484E+02  0.00000000000E+00 0. -1.
         25    1    1    2    0    0  0.19505931022E+03  0.10189096084E+01  0.35004915753E+03  0.41977206359E+03  0.12500000000E+03 0.  0.
         25    1    1    2    0    0 -0.13540332001E+03 -0.15317159253E+02  0.53887665001E+03  0.56972073718E+03  0.12500000000E+03 0.  0.
         25    1    1    2    0    0 -0.59655990215E+02  0.14298249644E+02  0.41078754946E+03  0.43374495721E+03  0.12500000000E+03 0.  0.
</event>
<event>
 5    0  0.5655767E-005  0.4159959E+03  0.7546771E-02  0.1038377E+00
         21   -1    0    0  502  501  0.00000000000E+00  0.00000000000E+00  0.11474229559E+04  0.11474229559E+04  0.00000000000E+00 0.  1.
         21   -1    0    0  501  502 -0.00000000000E+00 -0.00000000000E+00 -0.15081845518E+03  0.15081845518E+03  0.00000000000E+00 0.  1.
         25    1    1    2    0    0 -0.33157996571E+03  0.29061085742E+02  0.41583084653E+03  0.54711069565E+03  0.12500000000E+03 0.  0.
         25    1    1    2    0    0  0.43084715178E+02  0.51635760138E+02  0.25130286889E+03  0.28861856545E+03  0.12500000000E+03 0.  0.
         25    1    1    2    0    0  0.28849525054E+03 -0.80696845880E+02  0.32947078528E+03  0.46251214997E+03  0.12500000000E+03 0.  0.
</event>
<event>
 5    0  0.6534791E-005  0.3255139E+03  0.7546771E-02  0.1073139E+00
         21   -1    0    0  502  501  0.00000000000E+00  0.00000000000E+00  0.16908345657E+03  0.16908345657E+03  0.00000000000E+00 0.  1.
         21   -1    0    0  501  502 -0.00000000000E+00 -0.00000000000E+00 -0.62666861737E+03  0.62666861737E+03  0.00000000000E+00 0.  1.
         25    1    1    2    0    0 -0.12084626437E+03 -0.12700137259E+02 -0.77561124019E+02  0.19080314740E+03  0.12500000000E+03 0.  0.
         25    1    1    2    0    0  0.18537565464E+03  0.24519481718E+01 -0.40412597444E+03  0.46185814771E+03  0.12500000000E+03 0.  0.
         25    1    1    2    0    0 -0.64529390275E+02  0.10248189088E+02  0.24101937662E+02  0.14309077884E+03  0.12500000000E+03 0.  0.
</event>
<event>
 5    0  0.5655767E-005  0.3426820E+03  0.7546771E-02  0.1065659E+00
         21   -1    0    0  502  501  0.00000000000E+00  0.00000000000E+00  0.15233062832E+03  0.15233062832E+03  0.00000000000E+00 0.  1.
         21   -1    0    0  501  502 -0.00000000000E+00 -0.00000000000E+00 -0.77089514365E+03  0.77089514365E+03  0.00000000000E+00 0.  1.
         25    1    1    2    0    0  0.76203990433E+02 -0.19057405485E+03 -0.16829138529E+03  0.29338116658E+03  0.12500000000E+03 0.  0.
         25    1    1    2    0    0  0.11638873100E+02  0.18295473300E+03 -0.41839469163E+03  0.47358950124E+03  0.12500000000E+03 0.  0.
         25    1    1    2    0    0 -0.87842863533E+02  0.76193218515E+01 -0.31878438399E+02  0.15625510415E+03  0.12500000000E+03 0.  0.
</event>
<event>
 5    0  0.5655767E-005  0.3069919E+03  0.7546771E-02  0.1081797E+00
         21   -1    0    0  502  501  0.00000000000E+00  0.00000000000E+00  0.13409261858E+04  0.13409261858E+04  0.00000000000E+00 0. -1.
         21   -1    0    0  501  502 -0.00000000000E+00 -0.00000000000E+00 -0.70282764628E+02  0.70282764628E+02  0.00000000000E+00 0. -1.
         25    1    1    2    0    0 -0.95134706745E+02  0.12939486212E+03  0.26355075158E+03  0.33298294465E+03  0.12500000000E+03 0.  0.
         25    1    1    2    0    0 -0.54258711410E+02 -0.92411457096E+02  0.28232368430E+03  0.32682647978E+03  0.12500000000E+03 0.  0.
         25    1    1    2    0    0  0.14939341816E+03 -0.36983405021E+02  0.72476898534E+03  0.75139952604E+03  0.12500000000E+03 0.  0.
</event>
<event>
 5    0  0.5655767E-005  0.2529053E+03  0.7546771E-02  0.1111482E+00
         21   -1    0    0  502  501  0.00000000000E+00  0.00000000000E+00  0.10531159651E+03  0.10531159651E+03  0.00000000000E+00 0.  1.
         21   -1    0    0  501  502 -0.00000000000E+00 -0.00000000000E+00 -0.60735078846E+03  0.60735078846E+03  0.00000000000E+00 0.  1.
         25    1    1    2    0    0 -0.16713465171E+01  0.12835714690E+03 -0.10370192994E+03  0.20702038748E+03  0.12500000000E+03 0.  0.
         25    1    1    2    0    0  0.63616224511E+02 -0.74399784203E+02 -0.24057685203E+03  0.28824394814E+03  0.12500000000E+03 0.  0.
         25    1    1    2    0    0 -0.61944877993E+02 -0.53957362695E+02 -0.15776040998E+03  0.21739804934E+03  0.12500000000E+03 0.  0.
</event>
<event>
 5    0  0.5655767E-005  0.3277121E+03  0.7546771E-02  0.1072154E+00
         21   -1    0    0  502  501  0.00000000000E+00  0.00000000000E+00  0.56117331229E+03  0.56117331229E+03  0.00000000000E+00 0.  1.
         21   -1    0    0  501  502 -0.00000000000E+00 -0.00000000000E+00 -0.19137616491E+03  0.19137616491E+03  0.00000000000E+00 0.  1.
         25    1    1    2    0    0  0.15374995556E+03 -0.94891683056E+02  0.15068250706E+03  0.26640889302E+03  0.12500000000E+03 0.  0.
         25    1    1    2    0    0  0.72639058922E+02 -0.10450056690E+02  0.27644260975E+02  0.14756300936E+03  0.12500000000E+03 0.  0.
         25    1    1    2    0    0 -0.22638901448E+03  0.10534173975E+03  0.19147037934E+03  0.33857757483E+03  0.12500000000E+03 0.  0.
</event>
<event>
 5    0  0.5655767E-005  0.2876328E+03  0.7546771E-02  0.1091592E+00
         21   -1    0    0  502  501  0.00000000000E+00  0.00000000000E+00  0.26848710494E+04  0.26848710494E+04  0.00000000000E+00 0.  1.
         21   -1    0    0  501  502 -0.00000000000E+00 -0.00000000000E+00 -0.30814370151E+02  0.30814370151E+02  0.00000000000E+00 0.  1.
         25    1    1    2    0    0 -0.32378421901E+02  0.88318620584E+02  0.49237146610E+03  0.51662675268E+03  0.12500000000E+03 0.  0.
         25    1    1    2    0    0  0.39745495256E+02 -0.18971790410E+03  0.10000846494E+04  0.10263366375E+04  0.12500000000E+03 0.  0.
         25    1    1    2    0    0 -0.73670733552E+01  0.10139928352E+03  0.11616005637E+04  0.11727220294E+04  0.12500000000E+03 0.  0.
</event>
<event>
 5    0  0.5655767E-005  0.2615285E+03  0.7546771E-02  0.1106228E+00
         21   -1    0    0  502  501  0.00000000000E+00  0.00000000000E+00  0.96125535175E+03  0.96125535175E+03  0.00000000000E+00 0. -1.
         21   -1    0    0  501  502 -0.00000000000E+00 -0.00000000000E+00 -0.71153995030E+02  0.71153995030E+02  0.00000000000E+00 0. -1.
         25    1    1    2    0    0 -0.12883180631E+03  0.32166735219E+01  0.15566826753E+03  0.23762489521E+03  0.12500000000E+03 0.  0.
         25    1    1    2    0    0  0.10402626281E+03 -0.26503813570E+02  0.31064667070E+03  0.35163940267E+03  0.12500000000E+03 0.  0.
         25    1    1    2    0    0  0.24805543498E+02  0.23287140048E+02  0.42378641849E+03  0.44314504891E+03  0.12500000000E+03 0.  0.
</event>
<event>
 5    0  0.5655767E-005  0.2661773E+03  0.7546771E-02  0.1103488E+00
         21   -1    0    0  502  501  0.00000000000E+00  0.00000000000E+00  0.12014377319E+03  0.12014377319E+03  0.00000000000E+00 0.  1.
         21   -1    0    0  501  502 -0.00000000000E+00 -0.00000000000E+00 -0.58971323757E+03  0.58971323757E+03  0.00000000000E+00 0.  1.
         25    1    1    2    0    0 -0.14186447079E+02  0.40459124964E+02 -0.28927230343E+03  0.31802776861E+03  0.12500000000E+03 0.  0.
         25    1    1    2    0    0  0.55594354522E+02 -0.12993719822E+03 -0.98376746554E+02  0.21278484908E+03  0.12500000000E+03 0.  0.
         25    1    1    2    0    0 -0.41407907443E+02  0.89478073258E+02 -0.81920414401E+02  0.17904439307E+03  0.12500000000E+03 0.  0.
</event>
<event>
 5    0  0.5655767E-005  0.4566201E+03  0.7546771E-02  0.1025766E+00
         21   -1    0    0  502  501  0.00000000000E+00  0.00000000000E+00  0.10171849475E+04  0.10171849475E+04  0.00000000000E+00 0.  1.
         21   -1    0    0  501  502 -0.00000000000E+00 -0.00000000000E+00 -0.20497936539E+03  0.20497936539E+03  0.00000000000E+00 0.  1.
         25    1    1    2    0    0  0.12354101463E+02  0.27636297571E+03  0.75609921728E+03  0.81476385814E+03  0.12500000000E+03 0.  0.
         25    1    1    2    0    0  0.66205750491E+02 -0.16234036457E+03  0.11650946599E+02  0.21563473729E+03  0.12500000000E+03 0.  0.
         25    1    1    2    0    0 -0.78559851953E+02 -0.11402261114E+03  0.44455418253E+02  0.19176571748E+03  0.12500000000E+03 0.  0.
</event>
<event>
 5    0  0.5655767E-005  0.2951755E+03  0.7546771E-02  0.1087677E+00
         21   -1    0    0  502  501  0.00000000000E+00  0.00000000000E+00  0.37888086318E+03  0.37888086318E+03  0.00000000000E+00 0.  1.
         21   -1    0    0  501  502 -0.00000000000E+00 -0.00000000000E+00 -0.22996304364E+03  0.22996304364E+03  0.00000000000E+00 0.  1.
         25    1    1    2    0    0 -0.68546565069E+02  0.20344379834E+02  0.15225385653E+03  0.20956803717E+03  0.12500000000E+03 0.  0.
         25    1    1    2    0    0  0.14089517608E+03 -0.79285288829E+02  0.83481091205E+02  0.22075257701E+03  0.12500000000E+03 0.  0.
         25    1    1    2    0    0 -0.72348611008E+02  0.58940908995E+02 -0.86817128204E+02  0.17852329265E+03  0.12500000000E+03 0.  0.
</event>
<event>
 5    0  0.5655767E-005  0.5322744E+03  0.7546771E-02  0.1005682E+00
         21   -1    0    0  502  501  0.00000000000E+00  0.00000000000E+00  0.63178294127E+03  0.63178294127E+03  0.00000000000E+00 0.  1.
         21   -1    0    0  501  502 -0.00000000000E+00 -0.00000000000E+00 -0.44843880760E+03  0.44843880760E+03  0.00000000000E+00 0.  1.
         25    1    1    2    0    0 -0.32286766037E+03  0.21988496700E+03  0.27001488397E+03  0.49104578441E+03  0.12500000000E+03 0.  0.
         25    1    1    2    0    0  0.54761238629E+02 -0.24996914320E+03 -0.28702968120E+02  0.28623805859E+03  0.12500000000E+03 0.  0.
         25    1    1    2    0    0  0.26810642174E+03  0.30084176200E+02 -0.57967782181E+02  0.30293790586E+03  0.12500000000E+03 0.  0.
</event>
<event>
 5    0  0.5655767E-005  0.3870244E+03  0.7546771E-02  0.1048368E+00
         21   -1    0    0  502  501  0.00000000000E+00  0.00000000000E+00  0.18676920598E+03  0.18676920598E+03  0.00000000000E+00 0. -1.
         21   -1    0    0  501  502 -0.00000000000E+00 -0.00000000000E+00 -0.80199455381E+03  0.80199455381E+03  0.00000000000E+00 0. -1.
         25    1    1    2    0    0 -0.16640504181E+03 -0.15886006498E+03 -0.14524571704E+03  0.29941355431E+03  0.12500000000E+03 0.  0.
         25    1    1    2    0    0 -0.10583835411E+03  0.18537639194E+02 -0.21905699410E+03  0.27414661758E+03  0.12500000000E+03 0.  0.
         25    1    1    2    0    0  0.27224339592E+03  0.14032242578E+03 -0.25092263670E+03  0.41520358790E+03  0.12500000000E+03 0.  0.
</event>
<event>
 5    0  0.5655767E-005  0.3027016E+03  0.7546771E-02  0.1083898E+00
         21   -1    0    0  502  501  0.00000000000E+00  0.00000000000E+00  0.53749115509E+03  0.53749115509E+03  0.00000000000E+00 0. -1.
         21   -1    0    0  501  502 -0.00000000000E+00 -0.00000000000E+00 -0.17047402486E+03  0.17047402486E+03  0.00000000000E+00 0. -1.
         25    1    1    2    0    0 -0.57114480611E+02 -0.50966975158E+02  0.92435208195E+02  0.17328867293E+03  0.12500000000E+03 0.  0.
         25    1    1    2    0    0  0.55272349676E+02  0.19554226424E+03  0.24375584455E+03  0.34107729548E+03  0.12500000000E+03 0.  0.
         25    1    1    2    0    0  0.18421309350E+01 -0.14457528908E+03  0.30826077489E+02  0.19359921155E+03  0.12500000000E+03 0.  0.
</event>
<event>
 5    0  0.5655767E-005  0.3408435E+03  0.7546771E-02  0.1066437E+00
         21   -1    0    0  502  501  0.00000000000E+00  0.00000000000E+00  0.24525055708E+03  0.24525055708E+03  0.00000000000E+00 0. -1.
         21   -1    0    0  501  502 -0.00000000000E+00 -0.00000000000E+00 -0.47369628295E+03  0.47369628295E+03  0.00000000000E+00 0. -1.
         25    1    1    2    0    0  0.14337508748E+03  0.12130628384E+03 -0.24499351991E+03  0.33304422380E+03  0.12500000000E+03 0.  0.
         25    1    1    2    0    0 -0.52181816700E+02 -0.21952547799E+01  0.10513452602E+03  0.17148186406E+03  0.12500000000E+03 0.  0.
         25    1    1    2    0    0 -0.91193270780E+02 -0.11911102906E+03 -0.88586731982E+02  0.21442075218E+03  0.12500000000E+03 0.  0.
</event>
<event>
 5    0  0.5655767E-005  0.2914633E+03  0.7546771E-02  0.1089588E+00
         21   -1    0    0  502  501  0.00000000000E+00  0.00000000000E+00  0.25998676600E+03  0.25998676600E+03  0.00000000000E+00 0.  1.
         21   -1    0    0  501  502 -0.00000000000E+00 -0.00000000000E+00 -0.32675071633E+03  0.32675071633E+03  0.00000000000E+00 0.  1.
         25    1    1    2    0    0 -0.84173254516E+02 -0.68294752760E+02  0.15179632524E+03  0.22453604251E+03  0.12500000000E+03 0.  0.
         25    1    1    2    0    0  0.37563320707E+02  0.81327156444E+02 -0.10170826365E+03  0.18437646361E+03  0.12500000000E+03 0.  0.
         25    1    1    2    0    0  0.46609933809E+02 -0.13032403685E+02 -0.11685201192E+03  0.17782497621E+03  0.12500000000E+03 0.  0.
</event>
<event>
 5    0  0.5655767E-005  0.2441338E+03  0.7546771E-02  0.1117069E+00
         21   -1    0    0  502  501  0.00000000000E+00  0.00000000000E+00  0.14794707805E+03  0.14794707805E+03  0.00000000000E+00 0.  1.
         21   -1    0    0  501  502 -0.00000000000E+00 -0.00000000000E+00 -0.40285563060E+03  0.40285563060E+03  0.00000000000E+00 0.  1.
         25    1    1    2    0    0  0.58218727346E+02 -0.89172218679E+02 -0.41397614189E+02  0.16935131313E+03  0.12500000000E+03 0.  0.
         25    1    1    2    0    0 -0.11646904137E+02 -0.29772709171E+02 -0.47402075850E+02  0.13745552511E+03  0.12500000000E+03 0.  0.
         25    1    1    2    0    0 -0.46571823210E+02  0.11894492785E+03 -0.16610886251E+03  0.24399587042E+03  0.12500000000E+03 0.  0.
</event>
<event>
 5    0  0.5655767E-005  0.2980675E+03  0.7546771E-02  0.1086211E+00
         21   -1    0    0  502  501  0.00000000000E+00  0.00000000000E+00  0.11634323583E+03  0.11634323583E+03  0.00000000000E+00 0.  1.
         21   -1    0    0  501  502 -0.00000000000E+00 -0.00000000000E+00 -0.76363889083E+03  0.76363889083E+03  0.00000000000E+00 0.  1.
         25    1    1    2    0    0 -0.33048231310E+02 -0.13269225513E+03 -0.60604501516E+02  0.19492902752E+03  0.12500000000E+03 0.  0.
         25    1    1    2    0    0  0.11242805964E+03  0.23662712130E+02 -0.28513905811E+03  0.33185731121E+03  0.12500000000E+03 0.  0.
         25    1    1    2    0    0 -0.79379828335E+02  0.10902954300E+03 -0.30155209537E+03  0.35319578793E+03  0.12500000000E+03 0.  0.
</event>
<event>
 5    0  0.5655767E-005  0.4716944E+03  0.7546771E-02  0.1021443E+00
         21   -1    0    0  502  501  0.00000000000E+00  0.00000000000E+00  0.79670948808E+03  0.79670948808E+03  0.00000000000E+00 0.  1.
         21   -1    0    0  501  502 -0.00000000000E+00 -0.00000000000E+00 -0.27926811886E+03  0.27926811886E+03  0.00000000000E+00 0.  1.
         25    1    1    2    0    0  0.13690132590E+03  0.21555724439E+02 -0.75796157161E+02  0.20143654020E+03  0.12500000000E+03 0.  0.
         25    1    1    2    0    0  0.76077680350E+02 -0.12299487282E+03  0.57613624839E+03  0.60702020468E+03  0.12500000000E+03 0.  0.
         25    1    1    2    0    0 -0.21297900625E+03  0.10143914838E+03  0.17101278002E+02  0.26752086206E+03  0.12500000000E+03 0.  0.
</event>
<event>
 5    0  0.5655767E-005  0.2911529E+03  0.7546771E-02  0.1089749E+00
         21   -1    0    0  502  501  0.00000000000E+00  0.00000000000E+00  0.16582762045E+03  0.16582762045E+03  0.00000000000E+00 0. -1.
         21   -1    0    0  501  502 -0.00000000000E+00 -0.00000000000E+00 -0.51119354399E+03  0.51119354399E+03  0.00000000000E+00 0. -1.
         25    1    1    2    0    0 -0.23603660467E+02  0.16366086326E+03 -0.14728543274E+03  0.25428332554E+03  0.12500000000E+03 0.  0.
         25    1    1    2    0    0  0.90886464811E+02 -0.16034628673E+03 -0.75504380469E+02  0.23515355116E+03  0.12500000000E+03 0.  0.
         25    1    1    2    0    0 -0.67282804344E+02 -0.33145765281E+01 -0.12257611033E+03  0.18758428773E+03  0.12500000000E+03 0.  0.
</event>
<event>
 5    0  0.5655767E-005  0.2450861E+03  0.7546771E-02  0.1116450E+00
         21   -1    0    0  502  501  0.00000000000E+00  0.00000000000E+00  0.23072359607E+04  0.23072359607E+04  0.00000000000E+00 0. -1.
         21   -1    0    0  501  502 -0.00000000000E+00 -0.00000000000E+00 -0.26034275548E+02  0.26034275548E+02  0.00000000000E+00 0. -1.
         25    1    1    2    0    0 -0.94757735841E+02 -0.79664517914E+02  0.73525819146E+03  0.75601261366E+03  0.12500000000E+03 0.  0.
         25    1    1    2    0    0  0.17461221495E+02  0.35738249669E+02  0.10492398293E+04  0.10574078381E+04  0.12500000000E+03 0.  0.
         25    1    1    2    0    0  0.77296514346E+02  0.43926268245E+02  0.49670366436E+03  0.51984978442E+03  0.12500000000E+03 0.  0.
</event>
<event>
 5    0  0.5655767E-005  0.3493838E+03  0.7546771E-02  0.1062868E+00
         21   -1    0    0  502  501  0.00000000000E+00  0.00000000000E+00  0.89567939770E+03  0.89567939770E+03  0.00000000000E+00 0. -1.
         21   -1    0    0  501  502 -0.00000000000E+00 -0.00000000000E+00 -0.13628651233E+03  0.13628651233E+03  0.00000000000E+00 0. -1.
         25    1    1    2    0    0  0.58898418139E+01 -0.15967723461E+02 -0.39401050240E+02  0.13216316124E+03  0.12500000000E+03 0.  0.
         25    1    1    2    0    0  0.14673163376E+03 -0.30803753494E+02  0.26759133406E+03  0.33122373954E+03  0.12500000000E+03 0.  0.
         25    1    1    2    0    0 -0.15262147557E+03  0.46771476955E+02  0.53120260156E+03  0.56857900925E+03  0.12500000000E+03 0.  0.
</event>
<event>
 5    0  0.5655767E-005  0.3236101E+03  0.7546771E-02  0.1074000E+00
         21   -1    0    0  502  501  0.00000000000E+00  0.00000000000E+00  0.80999633703E+03  0.80999633703E+03  0.00000000000E+00 0.  1.
         21   -1    0    0  501  502 -0.00000000000E+00 -0.00000000000E+00 -0.12928886292E+03  0.12928886292E+03  0.00000000000E+00 0.  1.
         25    1    1    2    0    0  0.70532635312E+02 -0.19636684944E+03  0.29590776069E+03  0.38304202777E+03  0.12500000000E+03 0.  0.
         25    1    1    2    0    0 -0.53292543594E+02 -0.27178346144E+02  0.18394193543E+03  0.23030065851E+03  0.12500000000E+03 0.  0.
         25    1    1    2    0    0 -0.17240091718E+02  0.22354519559E+03  0.20085777800E+03  0.32594251366E+03  0.12500000000E+03 0.  0.
</event>
<event>
 5    0  0.5655767E-005  0.2197673E+03  0.7546771E-02  0.1134057E+00
         21   -1    0    0  502  501  0.00000000000E+00  0.00000000000E+00  0.55870275351E+02  0.55870275351E+02  0.00000000000E+00 0.  1.
         21   -1    0    0  501  502 -0.00000000000E+00 -0.00000000000E+00 -0.86446066856E+03  0.86446066856E+03  0.00000000000E+00 0.  1.
         25    1    1    2    0    0  0.26953100938E+02 -0.79854576967E+02 -0.35172033882E+03  0.38266881222E+03  0.12500000000E+03 0.  0.
         25    1    1    2    0    0 -0.55327589062E+01  0.86493993102E+02 -0.29513352943E+03  0.33202503288E+03  0.12500000000E+03 0.  0.
         25    1    1    2    0    0 -0.21420342032E+02 -0.66394161347E+01 -0.16173652496E+03  0.20563709881E+03  0.12500000000E+03 0.  0.
</event>
<event>
 5    0  0.5655767E-005  0.2871166E+03  0.7546771E-02  0.1091864E+00
         21   -1    0    0  502  501  0.00000000000E+00  0.00000000000E+00  0.14277498309E+03  0.14277498309E+03  0.00000000000E+00 0. -1.
         21   -1    0    0  501  502 -0.00000000000E+00 -0.00000000000E+00 -0.57738373208E+03  0.57738373208E+03  0.00000000000E+00 0. -1.
         25    1    1    2    0    0 -0.15647765992E+03 -0.30339973166E+02 -0.20082177022E+03  0.28523701622E+03  0.12500000000E+03 0.  0.
         25    1    1    2    0    0  0.16321846135E+03 -0.57772822146E+02 -0.13086051309E+03  0.25045446490E+03  0.12500000000E+03 0.  0.
         25    1    1    2    0    0 -0.67408014249E+01  0.88112795312E+02 -0.10292646568E+03  0.18446723405E+03  0.12500000000E+03 0.  0.
</event>
<event>
 5    0  0.5655767E-005  0.7631316E+03  0.7546771E-02  0.9614971E-01
         21   -1    0    0  502  501  0.00000000000E+00  0.00000000000E+00  0.57980882105E+03  0.57980882105E+03  0.00000000000E+00 0. -1.
         21   -1    0    0  501  502 -0.00000000000E+00 -0.00000000000E+00 -0.10044169487E+04  0.10044169487E+04  0.00000000000E+00 0. -1.
         25    1    1    2    0    0  0.19924847712E+03 -0.61799858349E+03 -0.95860894945E+02  0.66815904993E+03  0.12500000000E+03 0.  0.
         25    1    1    2    0    0 -0.23397723359E+03  0.41787227092E+03  0.17914755519E+02  0.49528630014E+03  0.12500000000E+03 0.  0.
         25    1    1    2    0    0  0.34728756466E+02  0.20012631256E+03 -0.34666198819E+03  0.42078041965E+03  0.12500000000E+03 0.  0.
</event>
<event>
 5    0  0.5655767E-005  0.2847944E+03  0.7546771E-02  0.1093099E+00
         21   -1    0    0  502  501  0.00000000000E+00  0.00000000000E+00  0.17856370232E+03  0.17856370232E+03  0.00000000000E+00 0. -1.
         21   -1    0    0  501  502 -0.00000000000E+00 -0.00000000000E+00 -0.45422364588E+03  0.45422364588E+03  0.00000000000E+00 0. -1.
         25    1    1    2    0    0 -0.91693100346E+02 -0.10089421756E+03 -0.16958740507E+03  0.25094253475E+03  0.12500000000E+03 0.  0.
         25    1    1    2    0    0  0.10739229692E+03  0.78219202810E+02  0.40896392976E+02  0.18694615290E+03  0.12500000000E+03 0.  0.
         25    1    1    2    0    0 -0.15699196579E+02  0.22675014749E+02 -0.14696893146E+03  0.19489866054E+03  0.12500000000E+03 0.  0.
</event>
<event>
 5    0  0.5655767E-005  0.5206798E+03  0.7546771E-02  0.1008518E+00
         21   -1    0    0  502  501  0.00000000000E+00  0.00000000000E+00  0.11283349743E+04  0.11283349743E+04  0.00000000000E+00 0.  1.
         21   -1    0    0  501  502 -0.00000000000E+00 -0.00000000000E+00 -0.24027211700E+03  0.24027211700E+03  0.00000000000E+00 0.  1.
         25    1    1    2    0    0  0.18645242487E+03 -0.10382671458E+03  0.48935488892E+03  0.54830438691E+03  0.12500000000E+03 0.  0.
         25    1    1    2    0    0 -0.43419171245E+02  0.30619432319E+03 -0.11372014426E+01  0.33356630707E+03  0.12500000000E+03 0.  0.
         25    1    1    2    0    0 -0.14303325362E+03 -0.20236760861E+03  0.39984516985E+03  0.48673639735E+03  0.12500000000E+03 0.  0.
</event>
<event>
 5    0  0.5655767E-005  0.2905360E+03  0.7546771E-02  0.1090070E+00
         21   -1    0    0  502  501  0.00000000000E+00  0.00000000000E+00  0.27904409316E+03  0.27904409316E+03  0.00000000000E+00 0.  1.
         21   -1    0    0  501  502 -0.00000000000E+00 -0.00000000000E+00 -0.30250118738E+03  0.30250118738E+03  0.00000000000E+00 0.  1.
         25    1    1    2    0    0 -0.47279865257E+02 -0.47901597546E+02 -0.82812229912E+02  0.16435575478E+03  0.12500000000E+03 0.  0.
         25    1    1    2    0    0 -0.78027416539E+02  0.13522878035E+03 -0.26896717113E+02  0.20180072883E+03  0.12500000000E+03 0.  0.
         25    1    1    2    0    0  0.12530728180E+03 -0.87327182802E+02  0.86251852815E+02  0.21538879693E+03  0.12500000000E+03 0.  0.
</event>
<event>
 5    0  0.5695939E-005  0.2881953E+03  0.7546771E-02  0.1091295E+00
         21   -1    0    0  502  501  0.00000000000E+00  0.00000000000E+00  0.14026787430E+03  0.14026787430E+03  0.00000000000E+00 0.  1.
         21   -1    0    0  501  502 -0.00000000000E+00 -0.00000000000E+00 -0.59212809495E+03  0.59212809495E+03  0.00000000000E+00 0.  1.
         25    1    1    2    0    0  0.11414991634E+03  0.17254675603E+02 -0.14639904297E+03  0.22446738519E+03  0.12500000000E+03 0.  0.
         25    1    1    2    0    0 -0.48169250138E+00  0.98168582248E+02 -0.25208596171E+02  0.16092785927E+03  0.12500000000E+03 0.  0.
         25    1    1    2    0    0 -0.11366822384E+03 -0.11542325785E+03 -0.28025258150E+03  0.34700072479E+03  0.12500000000E+03 0.  0.
</event>
<event>
 5    0  0.5655767E-005  0.3000923E+03  0.7546771E-02  0.1085194E+00
         21   -1    0    0  502  501  0.00000000000E+00  0.00000000000E+00  0.11192328939E+04  0.11192328939E+04  0.00000000000E+00 0. -1.
         21   -1    0    0  501  502 -0.00000000000E+00 -0.00000000000E+00 -0.80461702133E+02  0.80461702133E+02  0.00000000000E+00 0. -1.
         25    1    1    2    0    0  0.11206497444E+03  0.12498785652E+03  0.69555100355E+03  0.72635853497E+03  0.12500000000E+03 0.  0.
         25    1    1    2    0    0 -0.42101421601E+02 -0.27112499384E+02  0.22888325633E+03  0.26555632614E+03  0.12500000000E+03 0.  0.
         25    1    1    2    0    0 -0.69963552843E+02 -0.97875357134E+02  0.11433693192E+03  0.20777973496E+03  0.12500000000E+03 0.  0.
</event>
<event>
 5    0  0.5655767E-005  0.2818433E+03  0.7546771E-02  0.1094686E+00
         21   -1    0    0  502  501  0.00000000000E+00  0.00000000000E+00  0.80285006264E+03  0.80285006264E+03  0.00000000000E+00 0.  1.
         21   -1    0    0  501  502 -0.00000000000E+00 -0.00000000000E+00 -0.98942069900E+02  0.98942069900E+02  0.00000000000E+00 0.  1.
         25    1    1    2    0    0 -0.86381052588E+02 -0.76883754382E+01  0.13532964477E+03  0.20361706735E+03  0.12500000000E+03 0.  0.
         25    1    1    2    0    0 -0.10341694342E+03 -0.11813899003E+02  0.33108116352E+03  0.36888259546E+03  0.12500000000E+03 0.  0.
         25    1    1    2    0    0  0.18979799601E+03  0.19502274441E+02  0.23749718444E+03  0.32929246972E+03  0.12500000000E+03 0.  0.
</event>
<event>
 5    0  0.5655767E-005  0.3153382E+03  0.7546771E-02  0.1077815E+00
         21   -1    0    0  502  501  0.00000000000E+00  0.00000000000E+00  0.55633305809E+03  0.55633305809E+03  0.00000000000E+00 0. -1.
         21   -1    0    0  501  502 -0.00000000000E+00 -0.00000000000E+00 -0.17873853697E+03  0.17873853697E+03  0.00000000000E+00 0. -1.
         25    1    1    2    0    0 -0.68416661801E+02 -0.10091791846E+02  0.15067545173E+03  0.20763134549E+03  0.12500000000E+03 0.  0.
         25    1    1    2    0    0 -0.57935992018E+01 -0.13803867053E+02  0.32629293723E+03  0.34973732060E+03  0.12500000000E+03 0.  0.
         25    1    1    2    0    0  0.74210261003E+02  0.23895658900E+02 -0.99373867848E+02  0.17770292897E+03  0.12500000000E+03 0.  0.
</event>
<event>
 5    0  0.5655767E-005  0.3493559E+03  0.7546771E-02  0.1062880E+00
         21   -1    0    0  502  501  0.00000000000E+00  0.00000000000E+00  0.80989122320E+02  0.80989122320E+02  0.00000000000E+00 0.  1.
         21   -1    0    0  501  502 -0.00000000000E+00 -0.00000000000E+00 -0.15069864666E+04  0.15069864666E+04  0.00000000000E+00 0.  1.
         25    1    1    2    0    0  0.47610672469E+02 -0.45608559577E+02 -0.54838867466E+03  0.56630562008E+03  0.12500000000E+03 0.  0.
         25    1    1    2    0    0 -0.10400900985E+03 -0.13403668281E+03 -0.14709203723E+03  0.25699177785E+03  0.12500000000E+03 0.  0.
         25    1    1    2    0    0  0.56398337377E+02  0.17964524238E+03 -0.73051663234E+03  0.76467819094E+03  0.12500000000E+03 0.  0.
</event>
<event>
 5    0  0.5655767E-005  0.3088998E+03  0.7546771E-02  0.1080874E+00
         21   -1    0    0  502  501  0.00000000000E+00  0.00000000000E+00  0.69916694658E+02  0.69916694658E+02  0.00000000000E+00 0. -1.
         21   -1    0    0  501  502 -0.00000000000E+00 -0.00000000000E+00 -0.13647538658E+04  0.13647538658E+04  0.00000000000E+00 0. -1.
         25    1    1    2    0    0  0.50130412338E+02  0.46149187359E+02 -0.13014759214E+03  0.19288909113E+03  0.12500000000E+03 0.  0.
         25    1    1    2    0    0 -0.15155486736E+03 -0.13606482914E+03 -0.54147681949E+03  0.59186540834E+03  0.12500000000E+03 0.  0.
         25    1    1    2    0    0  0.10142445502E+03  0.89915641783E+02 -0.62321275954E+03  0.64991606101E+03  0.12500000000E+03 0.  0.
</event>
<event>
 5    0  0.5655767E-005  0.4537325E+03  0.7546771E-02  0.1026615E+00
         21   -1    0    0  502  501  0.00000000000E+00  0.00000000000E+00  0.15531990642E+03  0.15531990642E+03  0.00000000000E+00 0.  1.
         21   -1    0    0  501  502 -0.00000000000E+00 -0.00000000000E+00 -0.13254782300E+04  0.13254782300E+04  0.00000000000E+00 0.  1.
         25    1    1    2    0    0  0.16218388066E+03 -0.15136791325E+02 -0.31448592074E+03  0.37557839121E+03  0.12500000000E+03 0.  0.
         25    1    1    2    0    0  0.18838893721E+03  0.31649463521E+01 -0.71540088535E+02  0.23715689494E+03  0.12500000000E+03 0.  0.
         25    1    1    2    0    0 -0.35057281788E+03  0.11971844973E+02 -0.78413231433E+03  0.86806285031E+03  0.12500000000E+03 0.  0.
</event>
<event>
 5    0  0.5655767E-005  0.2907367E+03  0.7546771E-02  0.1089965E+00
         21   -1    0    0  502  501  0.00000000000E+00  0.00000000000E+00  0.16530881888E+03  0.16530881888E+03  0.00000000000E+00 0. -1.
         21   -1    0    0  501  502 -0.00000000000E+00 -0.00000000000E+00 -0.51133268022E+03  0.51133268022E+03  0.00000000000E+00 0. -1.
         25    1    1    2    0    0  0.60896410744E+02 -0.59594396598E+01 -0.25104288238E+03  0.28703905058E+03  0.12500000000E+03 0.  0.
         25    1    1    2    0    0 -0.85776979158E+02  0.31639238705E+02 -0.17753834877E+03  0.23559201358E+03  0.12500000000E+03 0.  0.
         25    1    1    2    0    0  0.24880568413E+02 -0.25679799045E+02  0.82557369805E+02  0.15401043495E+03  0.12500000000E+03 0.  0.
</event>
<event>
 5    0  0.5678797E-005  0.3235324E+03  0.7546771E-02  0.1074035E+00
         21   -1    0    0  502  501  0.00000000000E+00  0.00000000000E+00  0.17402638194E+03  0.17402638194E+03  0.00000000000E+00 0.  1.
         21   -1    0    0  501  502 -0.00000000000E+00 -0.00000000000E+00 -0.60147899278E+03  0.60147899278E+03  0.00000000000E+00 0.  1.
         25    1    1    2    0    0 -0.73679048941E+02  0.37931824783E+02  0.27032037223E+02  0.15239145849E+03  0.12500000000E+03 0.  0.
         25    1    1    2    0    0 -0.56266874914E+02  0.11874918240E+03 -0.24882653523E+03  0.30790741168E+03  0.12500000000E+03 0.  0.
         25    1    1    2    0    0  0.12994592386E+03 -0.15668100718E+03 -0.20565811284E+03  0.31520650455E+03  0.12500000000E+03 0.  0.
</event>
<event>
 5    0  0.5655767E-005  0.2096381E+03  0.7546771E-02  0.1141853E+00
         21   -1    0    0  502  501  0.00000000000E+00  0.00000000000E+00  0.52504250714E+03  0.52504250714E+03  0.00000000000E+00 0. -1.
         21   -1    0    0  501  502 -0.00000000000E+00 -0.00000000000E+00 -0.83703920743E+02  0.83703920743E+02  0.00000000000E+00 0. -1.
         25    1    1    2    0    0  0.72833750081E+02 -0.47084809257E+02  0.14162855801E+03  0.20785904565E+03  0.12500000000E+03 0.  0.
         25    1    1    2    0    0 -0.36995584473E+02  0.16177010752E+02  0.12937613338E+03  0.18437340599E+03  0.12500000000E+03 0.  0.
         25    1    1    2    0    0 -0.35838165607E+02  0.30907798505E+02  0.17033389501E+03  0.21651397625E+03  0.12500000000E+03 0.  0.
</event>
<event>
 5    0  0.5655767E-005  0.2725297E+03  0.7546771E-02  0.1099840E+00
         21   -1    0    0  502  501  0.00000000000E+00  0.00000000000E+00  0.99163456078E+02  0.99163456078E+02  0.00000000000E+00 0. -1.
         21   -1    0    0  501  502 -0.00000000000E+00 -0.00000000000E+00 -0.74898978182E+03  0.74898978182E+03  0.00000000000E+00 0. -1.
         25    1    1    2    0    0 -0.21124496682E+02 -0.60028722715E+02 -0.14404855671E+03  0.20105889336E+03  0.12500000000E+03 0.  0.
         25    1    1    2    0    0  0.12495805878E+03  0.22114661949E+01 -0.93006998249E+02  0.19973659845E+03  0.12500000000E+03 0.  0.
         25    1    1    2    0    0 -0.10383356209E+03  0.57817256520E+02 -0.41277077078E+03  0.44735774609E+03  0.12500000000E+03 0.  0.
</event>
<event>
 5    0  0.5655767E-005  0.4920187E+03  0.7546771E-02  0.1015883E+00
         21   -1    0    0  502  501  0.00000000000E+00  0.00000000000E+00  0.13771824673E+03  0.13771824673E+03  0.00000000000E+00 0. -1.
         21   -1    0    0  501  502 -0.00000000000E+00 -0.00000000000E+00 -0.17578094382E+04  0.17578094382E+04  0.00000000000E+00 0. -1.
         25    1    1    2    0    0 -0.20467726607E+02 -0.96363658952E+02 -0.92841818243E+03  0.94196082937E+03  0.12500000000E+03 0.  0.
         25    1    1    2    0    0 -0.21283365493E+03  0.24922236774E+03 -0.36832919964E+03  0.50862692866E+03  0.12500000000E+03 0.  0.
         25    1    1    2    0    0  0.23330138154E+03 -0.15285870879E+03 -0.32334380945E+03  0.44493992694E+03  0.12500000000E+03 0.  0.
</event>
<event>
 5    0  0.5655767E-005  0.3368869E+03  0.7546771E-02  0.1068130E+00
         21   -1    0    0  502  501  0.00000000000E+00  0.00000000000E+00  0.10757085420E+04  0.10757085420E+04  0.00000000000E+00 0. -1.
         21   -1    0    0  501  502 -0.00000000000E+00 -0.00000000000E+00 -0.10550511639E+03  0.10550511639E+03  0.00000000000E+00 0. -1.
         25    1    1    2    0    0 -0.12949516517E+03  0.22916470836E+02  0.11669934193E+03  0.21572644447E+03  0.12500000000E+03 0.  0.
         25    1    1    2    0    0  0.15165067116E+03  0.13473754093E+03  0.56372027217E+03  0.61201117331E+03  0.12500000000E+03 0.  0.
         25    1    1    2    0    0 -0.22155505991E+02 -0.15765401177E+03  0.28978381150E+03  0.35347604061E+03  0.12500000000E+03 0.  0.
</event>
<event>
 5    0  0.5655767E-005  0.4131955E+03  0.7546771E-02  0.1039304E+00
         21   -1    0    0  502  501  0.00000000000E+00  0.00000000000E+00  0.19613191715E+04  0.19613191715E+04  0.00000000000E+00 0. -1.
         21   -1    0    0  501  502 -0.00000000000E+00 -0.00000000000E+00 -0.87048801421E+02  0.87048801421E+02  0.00000000000E+00 0. -1.
         25    1    1    2    0    0 -0.17657271877E+03 -0.17714438023E+03  0.38438386449E+03  0.47532516422E+03  0.12500000000E+03 0.  0.
         25    1    1    2    0    0  0.13091938594E+03  0.68650722210E+02  0.13105276526E+04  0.13247492349E+04  0.12500000000E+03 0.  0.
         25    1    1    2    0    0  0.45653332824E+02  0.10849365802E+03  0.17935885305E+03  0.24829357381E+03  0.12500000000E+03 0.  0.
</event>
<event>
 5    0  0.5655767E-005  0.2820129E+03  0.7546771E-02  0.1094595E+00
         21   -1    0    0  502  501  0.00000000000E+00  0.00000000000E+00  0.26825768119E+03  0.26825768119E+03  0.00000000000E+00 0. -1.
         21   -1    0    0  501  502 -0.00000000000E+00 -0.00000000000E+00 -0.29647340275E+03  0.29647340275E+03  0.00000000000E+00 0. -1.
         25    1    1    2    0    0 -0.98442343667E+02  0.69646210636E+02  0.78081435281E+01  0.17386045205E+03  0.12500000000E+03 0.  0.
         25    1    1    2    0    0 -0.72940889920E+02 -0.96288129481E+02 -0.33698647233E+02  0.17706602194E+03  0.12500000000E+03 0.  0.
         25    1    1    2    0    0  0.17138323359E+03  0.26641918846E+02 -0.23252178594E+01  0.21380460994E+03  0.12500000000E+03 0.  0.
</event>
<event>
 5    0  0.5655767E-005  0.3459441E+03  0.7546771E-02  0.1064292E+00
         21   -1    0    0  502  501  0.00000000000E+00  0.00000000000E+00  0.36994284277E+03  0.36994284277E+03  0.00000000000E+00 0.  1.
         21   -1    0    0  501  502 -0.00000000000E+00 -0.00000000000E+00 -0.32350217290E+03  0.32350217290E+03  0.00000000000E+00 0.  1.
         25    1    1    2    0    0  0.34500082375E+02  0.18080956719E+03  0.14108858480E+03  0.26346412285E+03  0.12500000000E+03 0.  0.
         25    1    1    2    0    0  0.37132088164E+02 -0.40978420351E+02 -0.16768665508E+03  0.21633732271E+03  0.12500000000E+03 0.  0.
         25    1    1    2    0    0 -0.71632170538E+02 -0.13983114684E+03  0.73038740151E+02  0.21364357010E+03  0.12500000000E+03 0.  0.
</event>
<event>
 5    0  0.5655767E-005  0.3363087E+03  0.7546771E-02  0.1068379E+00
         21   -1    0    0  502  501  0.00000000000E+00  0.00000000000E+00  0.23551218918E+03  0.23551218918E+03  0.00000000000E+00 0. -1.
         21   -1    0    0  501  502 -0.00000000000E+00 -0.00000000000E+00 -0.48024497215E+03  0.48024497215E+03  0.00000000000E+00 0. -1.
         25    1    1    2    0    0 -0.79356038334E+02  0.20804324257E+03 -0.12290311201E+03  0.28338939031E+03  0.12500000000E+03 0.  0.
         25    1    1    2    0    0  0.72666038270E+01  0.21756308581E+02 -0.97020868165E+02  0.15988805257E+03  0.12500000000E+03 0.  0.
         25    1    1    2    0    0  0.72089434507E+02 -0.22979955115E+03 -0.24808802792E+02  0.27247971846E+03  0.12500000000E+03 0.  0.
</event>
<event>
 5    0  0.5655767E-005  0.2981477E+03  0.7546771E-02  0.1086170E+00
         21   -1    0    0  502  501  0.00000000000E+00  0.00000000000E+00  0.27951485566E+02  0.27951485566E+02  0.00000000000E+00 0.  1.
         21   -1    0    0  501  502 -0.00000000000E+00 -0.00000000000E+00 -0.31802264068E+04  0.31802264068E+04  0.00000000000E+00 0.  1.
         25    1    1    2    0    0  0.13065621275E+03 -0.11926207675E+01 -0.66148237921E+03  0.68575243804E+03  0.12500000000E+03 0.  0.
         25    1    1    2    0    0 -0.70293124969E+02  0.37563093595E+02 -0.21146559366E+04  0.21198459472E+04  0.12500000000E+03 0.  0.
         25    1    1    2    0    0 -0.60363087784E+02 -0.36370472827E+02 -0.37613660539E+03  0.40257950715E+03  0.12500000000E+03 0.  0.
</event>
<event>
 5    0  0.5655767E-005  0.2860809E+03  0.7546771E-02  0.1092413E+00
         21   -1    0    0  502  501  0.00000000000E+00  0.00000000000E+00  0.25770041437E+03  0.25770041437E+03  0.00000000000E+00 0.  1.
         21   -1    0    0  501  502 -0.00000000000E+00 -0.00000000000E+00 -0.31758695660E+03  0.31758695660E+03  0.00000000000E+00 0.  1.
         25    1    1    2    0    0  0.10169805235E+03 -0.10300326816E+03  0.26147593753E+02  0.19303073269E+03  0.12500000000E+03 0.  0.
         25    1    1    2    0    0 -0.20433480445E+02  0.12170046687E+03  0.46712337892E+02  0.18175690708E+03  0.12500000000E+03 0.  0.
         25    1    1    2    0    0 -0.81264571905E+02 -0.18697198708E+02 -0.13274647388E+03  0.20049973120E+03  0.12500000000E+03 0.  0.
</event>
<event>
 5    0  0.5655767E-005  0.3111342E+03  0.7546771E-02  0.1079804E+00
         21   -1    0    0  502  501  0.00000000000E+00  0.00000000000E+00  0.49205018516E+03  0.49205018516E+03  0.00000000000E+00 0. -1.
         21   -1    0    0  501  502 -0.00000000000E+00 -0.00000000000E+00 -0.19673701443E+03  0.19673701443E+03  0.00000000000E+00 0. -1.
         25    1    1    2    0    0  0.92750604165E+02 -0.17714120583E+03  0.15850249436E+03  0.28412976277E+03  0.12500000000E+03 0.  0.
         25    1    1    2    0    0 -0.14106675796E+03  0.10696327242E+03  0.28450288653E+02  0.21857582385E+03  0.12500000000E+03 0.  0.
         25    1    1    2    0    0  0.48316153793E+02  0.70177933403E+02  0.10836038771E+03  0.18608161295E+03  0.12500000000E+03 0.  0.
</event>
<event>
 5    0  0.5655767E-005  0.3294353E+03  0.7546771E-02  0.1071387E+00
         21   -1    0    0  502  501  0.00000000000E+00  0.00000000000E+00  0.72389404442E+03  0.72389404442E+03  0.00000000000E+00 0. -1.
         21   -1    0    0  501  502 -0.00000000000E+00 -0.00000000000E+00 -0.14992195251E+03  0.14992195251E+03  0.00000000000E+00 0. -1.
         25    1    1    2    0    0 -0.43457632686E+02  0.79379987562E+02  0.34155249595E+03  0.37479708611E+03  0.12500000000E+03 0.  0.
         25    1    1    2    0    0 -0.11281579336E+03  0.23670442316E+02  0.21378167593E+03  0.27315800928E+03  0.12500000000E+03 0.  0.
         25    1    1    2    0    0  0.15627342604E+03 -0.10305042988E+03  0.18637920026E+02  0.22586090155E+03  0.12500000000E+03 0.  0.
</event>
<event>
 5    0  0.5655767E-005  0.2717201E+03  0.7546771E-02  0.1100299E+00
         21   -1    0    0  502  501  0.00000000000E+00  0.00000000000E+00  0.25067588181E+03  0.25067588181E+03  0.00000000000E+00 0.  1.
         21   -1    0    0  501  502 -0.00000000000E+00 -0.00000000000E+00 -0.29453089934E+03  0.29453089934E+03  0.00000000000E+00 0.  1.
         25    1    1    2    0    0 -0.38826759640E+02 -0.17694874181E+03 -0.67667283340E+01  0.22020255018E+03  0.12500000000E+03 0.  0.
         25    1    1    2    0    0 -0.27792856016E+02  0.88003744367E+02 -0.11494186650E+02  0.15580185556E+03  0.12500000000E+03 0.  0.
         25    1    1    2    0    0  0.66619615656E+02  0.88944997446E+02 -0.25594102551E+02  0.16920237542E+03  0.12500000000E+03 0.  0.
</event>
<event>
 5    0  0.5959221E-005  0.3501312E+03  0.7546771E-02  0.1062561E+00
         21   -1    0    0  502  501  0.00000000000E+00  0.00000000000E+00  0.48238459834E+03  0.48238459834E+03  0.00000000000E+00 0. -1.
         21   -1    0    0  501  502 -0.00000000000E+00 -0.00000000000E+00 -0.25413720101E+03  0.25413720101E+03  0.00000000000E+00 0. -1.
         25    1    1    2    0    0 -0.65269506253E+02  0.12314831088E+03  0.88992010165E+02  0.20729252951E+03  0.12500000000E+03 0.  0.
         25    1    1    2    0    0 -0.57619694046E+02 -0.16721463694E+03 -0.92349455119E+02  0.23544465551E+03  0.12500000000E+03 0.  0.
         25    1    1    2    0    0  0.12288920030E+03  0.44066326059E+02  0.23160484228E+03  0.29378461432E+03  0.12500000000E+03 0.  0.
</event>
<event>
 5    0  0.5655767E-005  0.2377748E+03  0.7546771E-02  0.1121284E+00
         21   -1    0    0  502  501  0.00000000000E+00  0.00000000000E+00  0.36034222242E+03  0.36034222242E+03  0.00000000000E+00 0.  1.
         21   -1    0    0  501  502 -0.00000000000E+00 -0.00000000000E+00 -0.15689770902E+03  0.15689770902E+03  0.00000000000E+00 0.  1.
         25    1    1    2    0    0 -0.46644474194E+02  0.98725921200E+02  0.74363800198E+02  0.18187217838E+03  0.12500000000E+03 0.  0.
         25    1    1    2    0    0  0.94630714854E+02 -0.38680995125E+02  0.52215120614E+02  0.16971331827E+03  0.12500000000E+03 0.  0.
         25    1    1    2    0    0 -0.47986240660E+02 -0.60044926074E+02  0.76865592596E+02  0.16565443479E+03  0.12500000000E+03 0.  0.
</event>
<event>
 5    0  0.5655767E-005  0.3867777E+03  0.7546771E-02  0.1048457E+00
         21   -1    0    0  502  501  0.00000000000E+00  0.00000000000E+00  0.22150392745E+03  0.22150392745E+03  0.00000000000E+00 0.  1.
         21   -1    0    0  501  502 -0.00000000000E+00 -0.00000000000E+00 -0.67536950764E+03  0.67536950764E+03  0.00000000000E+00 0.  1.
         25    1    1    2    0    0 -0.11615413642E+03  0.57309272342E+02 -0.85177574531E+02  0.19913903511E+03  0.12500000000E+03 0.  0.
         25    1    1    2    0    0  0.18313233311E+03 -0.12346793200E+03 -0.45354507846E+03  0.51972100194E+03  0.12500000000E+03 0.  0.
         25    1    1    2    0    0 -0.66978196692E+02  0.66158659660E+02  0.84857072799E+02  0.17801339805E+03  0.12500000000E+03 0.  0.
</event>
<event>
 5    0  0.5655767E-005  0.5066609E+03  0.7546771E-02  0.1012055E+00
         21   -1    0    0  502  501  0.00000000000E+00  0.00000000000E+00  0.39015725842E+03  0.39015725842E+03  0.00000000000E+00 0. -1.
         21   -1    0    0  501  502 -0.00000000000E+00 -0.00000000000E+00 -0.65795342656E+03  0.65795342656E+03  0.00000000000E+00 0.  1.
         25    1    1    2    0    0  0.33075279300E+03 -0.13071346509E+03  0.39318424089E+02  0.37901762295E+03  0.12500000000E+03 0.  0.
         25    1    1    2    0    0 -0.34994734944E+03  0.15332285191E+03 -0.35066328777E+03  0.53344239210E+03  0.12500000000E+03 0.  0.
         25    1    1    2    0    0  0.19194556436E+02 -0.22609386817E+02  0.43548695536E+02  0.13565066993E+03  0.12500000000E+03 0.  0.
</event>
<event>
 5    0  0.5655767E-005  0.3034273E+03  0.7546771E-02  0.1083540E+00
         21   -1    0    0  502  501  0.00000000000E+00  0.00000000000E+00  0.49615984188E+02  0.49615984188E+02  0.00000000000E+00 0.  1.
         21   -1    0    0  501  502 -0.00000000000E+00 -0.00000000000E+00 -0.18556142026E+04  0.18556142026E+04  0.00000000000E+00 0.  1.
         25    1    1    2    0    0 -0.15383937789E+03  0.78092357569E+02 -0.45923233950E+03  0.50624530827E+03  0.12500000000E+03 0.  0.
         25    1    1    2    0    0  0.42345048413E+02 -0.10329713871E+03 -0.35153160320E+03  0.38943917373E+03  0.12500000000E+03 0.  0.
         25    1    1    2    0    0  0.11149432948E+03  0.25204781139E+02 -0.99523427574E+03  0.10095457048E+04  0.12500000000E+03 0.  0.
</event>
<event>
 5    0  0.5655767E-005  0.3345498E+03  0.7546771E-02  0.1069141E+00
         21   -1    0    0  502  501  0.00000000000E+00  0.00000000000E+00  0.97720366495E+02  0.97720366495E+02  0.00000000000E+00 0. -1.
         21   -1    0    0  501  502 -0.00000000000E+00 -0.00000000000E+00 -0.11453455651E+04  0.11453455651E+04  0.00000000000E+00 0. -1.
         25    1    1    2    0    0  0.16707959125E+03 -0.37320001741E+02 -0.31210786906E+03  0.37728595822E+03  0.12500000000E+03 0.  0.
         25    1    1    2    0    0  0.75226939709E+02 -0.57483754608E+02 -0.35561466115E+03  0.38865185156E+03  0.12500000000E+03 0.  0.
         25    1    1    2    0    0 -0.24230653095E+03  0.94803756348E+02 -0.37990266837E+03  0.47712812178E+03  0.12500000000E+03 0.  0.
</event>
<event>
 5    0  0.5655767E-005  0.3204466E+03  0.7546771E-02  0.1075444E+00
         21   -1    0    0  502  501  0.00000000000E+00  0.00000000000E+00  0.10995350832E+04  0.10995350832E+04  0.00000000000E+00 0. -1.
         21   -1    0    0  501  502 -0.00000000000E+00 -0.00000000000E+00 -0.93390405489E+02  0.93390405489E+02  0.00000000000E+00 0. -1.
         25    1    1    2    0    0 -0.88747417972E+02  0.32188270456E+02  0.46441016732E+02  0.16338285402E+03  0.12500000000E+03 0.  0.
         25    1    1    2    0    0  0.12231576351E+03  0.83528996034E+02  0.41909994362E+03  0.46174452019E+03  0.12500000000E+03 0.  0.
         25    1    1    2    0    0 -0.33568345541E+02 -0.11571726649E+03  0.54060371733E+03  0.56779811445E+03  0.12500000000E+03 0.  0.
</event>
<event>
 5    0  0.5655767E-005  0.2934608E+03  0.7546771E-02  0.1088556E+00
         21   -1    0    0  502  501  0.00000000000E+00  0.00000000000E+00  0.11867809866E+03  0.11867809866E+03  0.00000000000E+00 0. -1.
         21   -1    0    0  501  502 -0.00000000000E+00 -0.00000000000E+00 -0.72565379233E+03  0.72565379233E+03  0.00000000000E+00 0. -1.
         25    1    1    2    0    0  0.66982578374E+02 -0.93997744613E+02 -0.25126777768E+03  0.30345137650E+03  0.12500000000E+03 0.  0.
         25    1    1    2    0    0 -0.13501049800E+03 -0.61975732291E+02 -0.19832577751E+03  0.27753727675E+03  0.12500000000E+03 0.  0.
         25    1    1    2    0    0  0.68027919631E+02  0.15597347690E+03 -0.15738213849E+03  0.26334323774E+03  0.12500000000E+03 0.  0.
</event>
<event>
 5    0  0.5655767E-005  0.4493872E+03  0.7546771E-02  0.1027905E+00
         21   -1    0    0  502  501  0.00000000000E+00  0.00000000000E+00  0.24185913967E+04  0.24185913967E+04  0.00000000000E+00 0.  1.
         21   -1    0    0  501  502 -0.00000000000E+00 -0.00000000000E+00 -0.83498541694E+02  0.83498541694E+02  0.00000000000E+00 0.  1.
         25    1    1    2    0    0 -0.10375689414E+03 -0.25958730665E+02  0.11429680190E+03  0.20032001324E+03  0.12500000000E+03 0.  0.
         25    1    1    2    0    0  0.30486890096E+03 -0.27484148851E+02  0.89917440481E+03  0.95803968367E+03  0.12500000000E+03 0.  0.
         25    1    1    2    0    0 -0.20111200682E+03  0.53442879517E+02  0.13216216483E+04  0.13437302415E+04  0.12500000000E+03 0.  0.
</event>
<event>
 5    0  0.5655767E-005  0.3789405E+03  0.7546771E-02  0.1051326E+00
         21   -1    0    0  502  501  0.00000000000E+00  0.00000000000E+00  0.42208854582E+03  0.42208854582E+03  0.00000000000E+00 0.  1.
         21   -1    0    0  501  502 -0.00000000000E+00 -0.00000000000E+00 -0.34020324876E+03  0.34020324876E+03  0.00000000000E+00 0.  1.
         25    1    1    2    0    0 -0.21472651292E+03  0.13396564684E+03  0.69672340657E+02  0.29074646161E+03  0.12500000000E+03 0.  0.
         25    1    1    2    0    0  0.26325994598E+03 -0.84774968472E+02 -0.63215676163E+02  0.31002228331E+03  0.12500000000E+03 0.  0.
         25    1    1    2    0    0 -0.48533433056E+02 -0.49190678365E+02  0.75428632559E+02  0.16152304966E+03  0.12500000000E+03 0.  0.
</event>
<event>
 5    0  0.5655767E-005  0.3427791E+03  0.7546771E-02  0.1065618E+00
         21   -1    0    0  502  501  0.00000000000E+00  0.00000000000E+00  0.57048967698E+03  0.57048967698E+03  0.00000000000E+00 0. -1.
         21   -1    0    0  501  502 -0.00000000000E+00 -0.00000000000E+00 -0.20595903636E+03  0.20595903636E+03  0.00000000000E+00 0. -1.
         25    1    1    2    0    0  0.17240027123E+03  0.91653220584E+02  0.22388629103E+03  0.32229216198E+03  0.12500000000E+03 0.  0.
         25    1    1    2    0    0 -0.22429070127E+03 -0.12248178249E+03  0.51289697106E+02  0.28907393301E+03  0.12500000000E+03 0.  0.
         25    1    1    2    0    0  0.51890430042E+02  0.30828561906E+02  0.89354652490E+02  0.16508261835E+03  0.12500000000E+03 0.  0.
</event>
<event>
 5    0  0.5655767E-005  0.2217747E+03  0.7546771E-02  0.1132567E+00
         21   -1    0    0  502  501  0.00000000000E+00  0.00000000000E+00  0.11021192623E+03  0.11021192623E+03  0.00000000000E+00 0.  1.
         21   -1    0    0  501  502 -0.00000000000E+00 -0.00000000000E+00 -0.44626753637E+03  0.44626753637E+03  0.00000000000E+00 0.  1.
         25    1    1    2    0    0 -0.30525281471E+02 -0.54241102761E+02 -0.77712381877E+02  0.15980645899E+03  0.12500000000E+03 0.  0.
         25    1    1    2    0    0 -0.60880956232E+02  0.39130241526E+02 -0.10840292157E+03  0.18059307860E+03  0.12500000000E+03 0.  0.
         25    1    1    2    0    0  0.91406237703E+02  0.15110861236E+02 -0.14994030670E+03  0.21607992501E+03  0.12500000000E+03 0.  0.
</event>
<event>
 5    0  0.5655767E-005  0.3477655E+03  0.7546771E-02  0.1063536E+00
         21   -1    0    0  502  501  0.00000000000E+00  0.00000000000E+00  0.34835409871E+03  0.34835409871E+03  0.00000000000E+00 0.  1.
         21   -1    0    0  501  502 -0.00000000000E+00 -0.00000000000E+00 -0.34717796340E+03  0.34717796340E+03  0.00000000000E+00 0.  1.
         25    1    1    2    0    0  0.72108457977E+02 -0.28632606632E+02 -0.10993984336E+03  0.18366062461E+03  0.12500000000E+03 0.  0.
         25    1    1    2    0    0  0.12485009860E+03  0.12904368136E+03  0.13451847448E+03  0.25682686541E+03  0.12500000000E+03 0.  0.
         25    1    1    2    0    0 -0.19695855658E+03 -0.10041107473E+03 -0.23402495810E+02  0.25504457208E+03  0.12500000000E+03 0.  0.
</event>
<event>
 5    0  0.5655767E-005  0.2156408E+03  0.7546771E-02  0.1137175E+00
         21   -1    0    0  502  501  0.00000000000E+00  0.00000000000E+00  0.16534805984E+04  0.16534805984E+04  0.00000000000E+00 0.  1.
         21   -1    0    0  501  502 -0.00000000000E+00 -0.00000000000E+00 -0.28123067390E+02  0.28123067390E+02  0.00000000000E+00 0.  1.
         25    1    1    2    0    0 -0.12452025324E+02  0.34083116155E+02  0.47225531968E+03  0.48986406146E+03  0.12500000000E+03 0.  0.
         25    1    1    2    0    0  0.70860640410E+02 -0.15547782590E+02  0.78497686719E+03  0.79817081250E+03  0.12500000000E+03 0.  0.
         25    1    1    2    0    0 -0.58408615086E+02 -0.18535333565E+02  0.36812534413E+03  0.39356879182E+03  0.12500000000E+03 0.  0.
</event>
<event>
 5    0  0.5655767E-005  0.2769769E+03  0.7546771E-02  0.1097352E+00
         21   -1    0    0  502  501  0.00000000000E+00  0.00000000000E+00  0.37996779909E+02  0.37996779909E+02  0.00000000000E+00 0. -1.
         21   -1    0    0  501  502 -0.00000000000E+00 -0.00000000000E+00 -0.20190179417E+04  0.20190179417E+04  0.00000000000E+00 0. -1.
         25    1    1    2    0    0  0.11257597050E+03  0.45181683023E+02 -0.29967738815E+03  0.34662122062E+03  0.12500000000E+03 0.  0.
         25    1    1    2    0    0 -0.11332120814E+03 -0.73122320813E+02 -0.10821804548E+04  0.10976921730E+04  0.12500000000E+03 0.  0.
         25    1    1    2    0    0  0.74523763729E+00  0.27940637790E+02 -0.59916331886E+03  0.61270132796E+03  0.12500000000E+03 0.  0.
</event>
<event>
 5    0  0.5655767E-005  0.2800781E+03  0.7546771E-02  0.1095646E+00
         21   -1    0    0  502  501  0.00000000000E+00  0.00000000000E+00  0.25288238736E+03  0.25288238736E+03  0.00000000000E+00 0.  1.
         21   -1    0    0  501  502 -0.00000000000E+00 -0.00000000000E+00 -0.31019846797E+03  0.31019846797E+03  0.00000000000E+00 0.  1.
         25    1    1    2    0    0 -0.58297152858E+02  0.76831095862E+02 -0.92111611823E+02  0.18278710117E+03  0.12500000000E+03 0.  0.
         25    1    1    2    0    0 -0.10219473744E+03 -0.60642516513E+00  0.14926655444E+02  0.16214788668E+03  0.12500000000E+03 0.  0.
         25    1    1    2    0    0  0.16049189029E+03 -0.76224670697E+02  0.19868875769E+02  0.21814586748E+03  0.12500000000E+03 0.  0.
</event>
<event>
 5    0  0.5655767E-005  0.4798403E+03  0.7546771E-02  0.1019179E+00
         21   -1    0    0  502  501  0.00000000000E+00  0.00000000000E+00  0.85003108160E+02  0.85003108160E+02  0.00000000000E+00 0.  1.
         21   -1    0    0  501  502 -0.00000000000E+00 -0.00000000000E+00 -0.27086861741E+04  0.27086861741E+04  0.00000000000E+00 0.  1.
         25    1    1    2    0    0 -0.10362510921E+03  0.18051744682E+03 -0.52008599103E+03  0.57396789974E+03  0.12500000000E+03 0.  0.
         25    1    1    2    0    0 -0.19262757552E+03 -0.28832751265E+03 -0.11487043850E+04  0.12063933445E+04  0.12500000000E+03 0.  0.
         25    1    1    2    0    0  0.29625268473E+03  0.10781006584E+03 -0.95489268989E+03  0.10133280381E+04  0.12500000000E+03 0.  0.
</event>
<event>
 5    0  0.5655767E-005  0.3579916E+03  0.7546771E-02  0.1059382E+00
         21   -1    0    0  502  501  0.00000000000E+00  0.00000000000E+00  0.15030049196E+04  0.15030049196E+04  0.00000000000E+00 0.  1.
         21   -1    0    0  501  502 -0.00000000000E+00 -0.00000000000E+00 -0.85267832127E+02  0.85267832127E+02  0.00000000000E+00 0.  1.
         25    1    1    2    0    0  0.74233300268E+00 -0.23451524653E+03  0.91226516508E+03  0.95018455225E+03  0.12500000000E+03 0.  0.
         25    1    1    2    0    0  0.31170268279E+02  0.71533735822E+02  0.87742883564E+02  0.17150065481E+03  0.12500000000E+03 0.  0.
         25    1    1    2    0    0 -0.31912601281E+02  0.16298151071E+03  0.41772903880E+03  0.46658754463E+03  0.12500000000E+03 0.  0.
</event>
<event>
 5    0  0.5655767E-005  0.8079629E+03  0.7546771E-02  0.9548562E-01
         21   -1    0    0  502  501  0.00000000000E+00  0.00000000000E+00  0.12327043184E+04  0.12327043184E+04  0.00000000000E+00 0. -1.
         21   -1    0    0  501  502 -0.00000000000E+00 -0.00000000000E+00 -0.52957068938E+03  0.52957068938E+03  0.00000000000E+00 0. -1.
         25    1    1    2    0    0  0.21518894811E+03  0.59237627421E+03  0.83135446793E+03  0.10507098481E+04  0.12500000000E+03 0.  0.
         25    1    1    2    0    0 -0.11059027219E+03 -0.22747724733E+03 -0.13294669991E+03  0.31189089659E+03  0.12500000000E+03 0.  0.
         25    1    1    2    0    0 -0.10459867592E+03 -0.36489902688E+03  0.47258610500E+01  0.39967426310E+03  0.12500000000E+03 0.  0.
</event>
<event>
 5    0  0.5655767E-005  0.6547273E+03  0.7546771E-02  0.9797949E-01
         21   -1    0    0  502  501  0.00000000000E+00  0.00000000000E+00  0.12637108913E+03  0.12637108913E+03  0.00000000000E+00 0.  1.
         21   -1    0    0  501  502 -0.00000000000E+00 -0.00000000000E+00 -0.33921356767E+04  0.33921356767E+04  0.00000000000E+00 0.  1.
         25    1    1    2    0    0  0.29969588103E+03  0.36544088985E+03 -0.13873089653E+04  0.14709234617E+04  0.12500000000E+03 0.  0.
         25    1    1    2    0    0  0.14593541735E+03 -0.28706302113E+03 -0.79277949642E+03  0.86476971159E+03  0.12500000000E+03 0.  0.
         25    1    1    2    0    0 -0.44563129838E+03 -0.78377868715E+02 -0.10856761259E+04  0.11828135925E+04  0.12500000000E+03 0.  0.
</event>
<event>
 5    0  0.5655767E-005  0.2237242E+03  0.7546771E-02  0.1131137E+00
         21   -1    0    0  502  501  0.00000000000E+00  0.00000000000E+00  0.72324856099E+03  0.72324856099E+03  0.00000000000E+00 0.  1.
         21   -1    0    0  501  502 -0.00000000000E+00 -0.00000000000E+00 -0.69205140733E+02  0.69205140733E+02  0.00000000000E+00 0.  1.
         25    1    1    2    0    0 -0.22681901543E+02 -0.57574882780E+02  0.23302480078E+03  0.27157852191E+03  0.12500000000E+03 0.  0.
         25    1    1    2    0    0 -0.43261013095E+02  0.52675438951E+01  0.98882449035E+02  0.16523317161E+03  0.12500000000E+03 0.  0.
         25    1    1    2    0    0  0.65942914638E+02  0.52307338885E+02  0.32213617044E+03  0.35564200820E+03  0.12500000000E+03 0.  0.
</event>
<event>
 5    0  0.5655767E-005  0.4053364E+03  0.7546771E-02  0.1041947E+00
         21   -1    0    0  502  501  0.00000000000E+00  0.00000000000E+00  0.90854218879E+02  0.90854218879E+02  0.00000000000E+00 0. -1.
         21   -1    0    0  501  502 -0.00000000000E+00 -0.00000000000E+00 -0.18083654884E+04  0.18083654884E+04  0.00000000000E+00 0. -1.
         25    1    1    2    0    0 -0.22454027558E+03 -0.11551754617E+03 -0.45308983392E+03  0.53355228088E+03  0.12500000000E+03 0.  0.
         25    1    1    2    0    0 -0.88153083390E+02  0.91639080061E+00 -0.49294598943E+03  0.51613230318E+03  0.12500000000E+03 0.  0.
         25    1    1    2    0    0  0.31269335897E+03  0.11460115537E+03 -0.77147544620E+03  0.84953512326E+03  0.12500000000E+03 0.  0.
</event>
<event>
 5    0  0.5655767E-005  0.4434876E+03  0.7546771E-02  0.1029682E+00
         21   -1    0    0  502  501  0.00000000000E+00  0.00000000000E+00  0.17841588053E+03  0.17841588053E+03  0.00000000000E+00 0. -1.
         21   -1    0    0  501  502 -0.00000000000E+00 -0.00000000000E+00 -0.11023750348E+04  0.11023750348E+04  0.00000000000E+00 0. -1.
         25    1    1    2    0    0 -0.94545947241E+02  0.11205897543E+03 -0.41487718907E+02  0.19708470497E+03  0.12500000000E+03 0.  0.
         25    1    1    2    0    0  0.32693646914E+03 -0.35061690377E+02 -0.44834386038E+03  0.56987191028E+03  0.12500000000E+03 0.  0.
         25    1    1    2    0    0 -0.23239052190E+03 -0.76997285054E+02 -0.43412757494E+03  0.51383430004E+03  0.12500000000E+03 0.  0.
</event>
<event>
 5    0  0.5655767E-005  0.2372109E+03  0.7546771E-02  0.1121665E+00
         21   -1    0    0  502  501  0.00000000000E+00  0.00000000000E+00  0.15755175683E+03  0.15755175683E+03  0.00000000000E+00 0. -1.
         21   -1    0    0  501  502 -0.00000000000E+00 -0.00000000000E+00 -0.35714613791E+03  0.35714613791E+03  0.00000000000E+00 0. -1.
         25    1    1    2    0    0 -0.61064296400E+02 -0.97165177388E+02 -0.63220349609E+02  0.18108487677E+03  0.12500000000E+03 0.  0.
         25    1    1    2    0    0 -0.19336718738E+02  0.42979305609E+01 -0.79068493161E+02  0.14922870873E+03  0.12500000000E+03 0.  0.
         25    1    1    2    0    0  0.80401015138E+02  0.92867246827E+02 -0.57305538308E+02  0.18438430923E+03  0.12500000000E+03 0.  0.
</event>
<event>
 5    0  0.5655767E-005  0.2723585E+03  0.7546771E-02  0.1099937E+00
         21   -1    0    0  502  501  0.00000000000E+00  0.00000000000E+00  0.83429452753E+02  0.83429452753E+02  0.00000000000E+00 0.  1.
         21   -1    0    0  501  502 -0.00000000000E+00 -0.00000000000E+00 -0.88912430829E+03  0.88912430829E+03  0.00000000000E+00 0.  1.
         25    1    1    2    0    0 -0.24586197973E+02 -0.17033299432E+03 -0.32943690241E+03  0.39213707139E+03  0.12500000000E+03 0.  0.
         25    1    1    2    0    0 -0.37345327957E+02  0.10557622792E+03 -0.17678764221E+03  0.24376194096E+03  0.12500000000E+03 0.  0.
         25    1    1    2    0    0  0.61931525931E+02  0.64756766398E+02 -0.29947031091E+03  0.33665474869E+03  0.12500000000E+03 0.  0.
</event>
<event>
 5    0  0.5655767E-005  0.2390009E+03  0.7546771E-02  0.1120460E+00
         21   -1    0    0  502  501  0.00000000000E+00  0.00000000000E+00  0.21347877288E+03  0.21347877288E+03  0.00000000000E+00 0.  1.
         21   -1    0    0  501  502 -0.00000000000E+00 -0.00000000000E+00 -0.26757422047E+03  0.26757422047E+03  0.00000000000E+00 0.  1.
         25    1    1    2    0    0 -0.25256296174E+02  0.11285323122E+03 -0.71182554963E+02  0.18456892594E+03  0.12500000000E+03 0.  0.
         25    1    1    2    0    0 -0.81256093210E+01 -0.74054706638E+02  0.55996061028E+02  0.15591883771E+03  0.12500000000E+03 0.  0.
         25    1    1    2    0    0  0.33381905495E+02 -0.38798524582E+02 -0.38908953664E+02  0.14056522970E+03  0.12500000000E+03 0.  0.
</event>
<event>
 5    0  0.5655767E-005  0.2437493E+03  0.7546771E-02  0.1117320E+00
         21   -1    0    0  502  501  0.00000000000E+00  0.00000000000E+00  0.17741875154E+04  0.17741875154E+04  0.00000000000E+00 0.  1.
         21   -1    0    0  501  502 -0.00000000000E+00 -0.00000000000E+00 -0.33487858642E+02  0.33487858642E+02  0.00000000000E+00 0.  1.
         25    1    1    2    0    0  0.61420527624E+02 -0.97823169536E+02  0.38084426008E+03  0.41714410477E+03  0.12500000000E+03 0.  0.
         25    1    1    2    0    0  0.81525532086E+01  0.34001703189E+02  0.50317157321E+03  0.51964335080E+03  0.12500000000E+03 0.  0.
         25    1    1    2    0    0 -0.69573080833E+02  0.63821466347E+02  0.85668382349E+03  0.87088791849E+03  0.12500000000E+03 0.  0.
</event>
<event>
 5    0  0.5655767E-005  0.4118362E+03  0.7546771E-02  0.1039757E+00
         21   -1    0    0  502  501  0.00000000000E+00  0.00000000000E+00  0.31817694064E+03  0.31817694064E+03  0.00000000000E+00 0.  1.
         21   -1    0    0  501  502 -0.00000000000E+00 -0.00000000000E+00 -0.53306514443E+03  0.53306514443E+03  0.00000000000E+00 0.  1.
         25    1    1    2    0    0  0.13425702962E+02  0.66934040016E+02  0.25818084962E+03  0.29486058794E+03  0.12500000000E+03 0.  0.
         25    1    1    2    0    0 -0.33034490452E+02 -0.92970880431E+02 -0.30840569838E+03  0.34709355649E+03  0.12500000000E+03 0.  0.
         25    1    1    2    0    0  0.19608787489E+02  0.26036840415E+02 -0.16466335503E+03  0.20928794064E+03  0.12500000000E+03 0.  0.
</event>
<event>
 5    0  0.5655767E-005  0.2803941E+03  0.7546771E-02  0.1095474E+00
         21   -1    0    0  502  501  0.00000000000E+00  0.00000000000E+00  0.52991651243E+02  0.52991651243E+02  0.00000000000E+00 0. -1.
         21   -1    0    0  501  502 -0.00000000000E+00 -0.00000000000E+00 -0.14836461853E+04  0.14836461853E+04  0.00000000000E+00 0. -1.
         25    1    1    2    0    0  0.28919605251E+02  0.84828816904E+02 -0.79013507787E+03  0.80496628068E+03  0.12500000000E+03 0.  0.
         25    1    1    2    0    0 -0.66328915527E+02 -0.14024340256E+03 -0.46621437201E+03  0.50699958349E+03  0.12500000000E+03 0.  0.
         25    1    1    2    0    0  0.37409310276E+02  0.55414585656E+02 -0.17430508418E+03  0.22467197237E+03  0.12500000000E+03 0.  0.
</event>
<event>
 5    0  0.5655767E-005  0.3136348E+03  0.7546771E-02  0.1078617E+00
         21   -1    0    0  502  501  0.00000000000E+00  0.00000000000E+00  0.14620721316E+04  0.14620721316E+04  0.00000000000E+00 0.  1.
         21   -1    0    0  501  502 -0.00000000000E+00 -0.00000000000E+00 -0.67279045826E+02  0.67279045826E+02  0.00000000000E+00 0.  1.
         25    1    1    2    0    0  0.16175858073E+03  0.11330991099E+03  0.48491764633E+03  0.53830762403E+03  0.12500000000E+03 0.  0.
         25    1    1    2    0    0  0.46203050623E+02 -0.45055166074E+02  0.33505361269E+03  0.36338769002E+03  0.12500000000E+03 0.  0.
         25    1    1    2    0    0 -0.20796163136E+03 -0.68254744919E+02  0.57482182673E+03  0.62765586336E+03  0.12500000000E+03 0.  0.
</event>
<event>
 5    0  0.5655767E-005  0.2993563E+03  0.7546771E-02  0.1085563E+00
         21   -1    0    0  502  501  0.00000000000E+00  0.00000000000E+00  0.10296777323E+03  0.10296777323E+03  0.00000000000E+00 0. -1.
         21   -1    0    0  501  502 -0.00000000000E+00 -0.00000000000E+00 -0.87031298119E+03  0.87031298119E+03  0.00000000000E+00 0. -1.
         25    1    1    2    0    0 -0.58877863847E+02 -0.70393719896E+02 -0.22900494604E+03  0.27656851586E+03  0.12500000000E+03 0.  0.
         25    1    1    2    0    0  0.14829465937E+03 -0.95435599878E+02 -0.26082386133E+03  0.33875263300E+03  0.12500000000E+03 0.  0.
         25    1    1    2    0    0 -0.89416795521E+02  0.16582931977E+03 -0.27751640059E+03  0.35795960556E+03  0.12500000000E+03 0.  0.
</event>
<event>
 5    0  0.5655767E-005  0.2892057E+03  0.7546771E-02  0.1090765E+00
         21   -1    0    0  502  501  0.00000000000E+00  0.00000000000E+00  0.13059865347E+04  0.13059865347E+04  0.00000000000E+00 0.  1.
         21   -1    0    0  501  502 -0.00000000000E+00 -0.00000000000E+00 -0.64043510736E+02  0.64043510736E+02  0.00000000000E+00 0.  1.
         25    1    1    2    0    0 -0.94489351472E+02  0.92899258869E+02  0.64036286266E+03  0.66576880801E+03  0.12500000000E+03 0.  0.
         25    1    1    2    0    0  0.21060275219E+02 -0.85684546679E+02  0.10166818305E+03  0.18370301080E+03  0.12500000000E+03 0.  0.
         25    1    1    2    0    0  0.73429076253E+02 -0.72147121894E+01  0.49991197828E+03  0.52055822666E+03  0.12500000000E+03 0.  0.
</event>
<event>
 5    0  0.5655767E-005  0.4584808E+03  0.7546771E-02  0.1025223E+00
         21   -1    0    0  502  501  0.00000000000E+00  0.00000000000E+00  0.39885364266E+03  0.39885364266E+03  0.00000000000E+00 0.  1.
         21   -1    0    0  501  502 -0.00000000000E+00 -0.00000000000E+00 -0.52702188654E+03  0.52702188654E+03  0.00000000000E+00 0.  1.
         25    1    1    2    0    0 -0.18148963657E+03  0.22815979617E+03 -0.13550097193E+03  0.34493607258E+03  0.12500000000E+03 0.  0.
         25    1    1    2    0    0  0.63089334218E+02 -0.34432979203E+03 -0.15204422916E+02  0.37202075782E+03  0.12500000000E+03 0.  0.
         25    1    1    2    0    0  0.11840030235E+03  0.11616999586E+03  0.22537150955E+02  0.20891869880E+03  0.12500000000E+03 0.  0.
</event>
<event>
 5    0  0.5655767E-005  0.2611778E+03  0.7546771E-02  0.1106438E+00
         21   -1    0    0  502  501  0.00000000000E+00  0.00000000000E+00  0.77020413682E+03  0.77020413682E+03  0.00000000000E+00 0.  1.
         21   -1    0    0  501  502 -0.00000000000E+00 -0.00000000000E+00 -0.88565903377E+02  0.88565903377E+02  0.00000000000E+00 0.  1.
         25    1    1    2    0    0 -0.59192013474E+02 -0.17937682927E+01  0.25340482112E+03  0.28869692660E+03  0.12500000000E+03 0.  0.
         25    1    1    2    0    0  0.10874077507E+03  0.67169678564E+02  0.89753805915E+02  0.20004266434E+03  0.12500000000E+03 0.  0.
         25    1    1    2    0    0 -0.49548761592E+02 -0.65375910271E+02  0.33847960641E+03  0.37003044925E+03  0.12500000000E+03 0.  0.
</event>
<event>
 5    0  0.5655767E-005  0.3736067E+03  0.7546771E-02  0.1053322E+00
         21   -1    0    0  502  501  0.00000000000E+00  0.00000000000E+00  0.18179910027E+03  0.18179910027E+03  0.00000000000E+00 0.  1.
         21   -1    0    0  501  502 -0.00000000000E+00 -0.00000000000E+00 -0.76778151895E+03  0.76778151895E+03  0.00000000000E+00 0.  1.
         25    1    1    2    0    0  0.21892481112E+03  0.42918621629E+01 -0.51996678807E+03  0.57787278332E+03  0.12500000000E+03 0.  0.
         25    1    1    2    0    0 -0.65743274068E+02  0.25354984037E+02 -0.91478435851E+02  0.17017155322E+03  0.12500000000E+03 0.  0.
         25    1    1    2    0    0 -0.15318153705E+03 -0.29646846200E+02  0.25462805242E+02  0.20153628267E+03  0.12500000000E+03 0.  0.
</event>
<event>
 5    0  0.5867779E-005  0.4760549E+03  0.7546771E-02  0.1020225E+00
         21   -1    0    0  502  501  0.00000000000E+00  0.00000000000E+00  0.39766993537E+03  0.39766993537E+03  0.00000000000E+00 0. -1.
         21   -1    0    0  501  502 -0.00000000000E+00 -0.00000000000E+00 -0.56989043555E+03  0.56989043555E+03  0.00000000000E+00 0. -1.
         25    1    1    2    0    0  0.89563085569E+02 -0.32009653019E+03 -0.16556110113E+03  0.39181476892E+03  0.12500000000E+03 0.  0.
         25    1    1    2    0    0 -0.14871578514E+03  0.10704645708E+03 -0.16498657090E+03  0.27644329853E+03  0.12500000000E+03 0.  0.
         25    1    1    2    0    0  0.59152699575E+02  0.21305007311E+03  0.15832717185E+03  0.29930230347E+03  0.12500000000E+03 0.  0.
</event>
<event>
 5    0  0.5876013E-005  0.5067282E+03  0.7546771E-02  0.1012038E+00
         21   -1    0    0  502  501  0.00000000000E+00  0.00000000000E+00  0.55099622242E+03  0.55099622242E+03  0.00000000000E+00 0.  1.
         21   -1    0    0  501  502 -0.00000000000E+00 -0.00000000000E+00 -0.46601668223E+03  0.46601668223E+03  0.00000000000E+00 0.  1.
         25    1    1    2    0    0 -0.24741448539E+02 -0.24189693503E+03  0.32293121291E+03  0.42312626333E+03  0.12500000000E+03 0.  0.
         25    1    1    2    0    0 -0.24821469887E+01 -0.85377221118E+01 -0.28260689213E+03  0.30914512649E+03  0.12500000000E+03 0.  0.
         25    1    1    2    0    0  0.27223595528E+02  0.25043465714E+03  0.44655219399E+02  0.28474151483E+03  0.12500000000E+03 0.  0.
</event>
<event>
 5    0  0.5655767E-005  0.4208901E+03  0.7546771E-02  0.1036777E+00
         21   -1    0    0  502  501  0.00000000000E+00  0.00000000000E+00  0.13631629030E+04  0.13631629030E+04  0.00000000000E+00 0.  1.
         21   -1    0    0  501  502 -0.00000000000E+00 -0.00000000000E+00 -0.12995399362E+03  0.12995399362E+03  0.00000000000E+00 0.  1.
         25    1    1    2    0    0  0.26779397130E+03 -0.14310311370E+03  0.29172593551E+03  0.43922788353E+03  0.12500000000E+03 0.  0.
         25    1    1    2    0    0 -0.40680630205E+02  0.16211521966E+03  0.34485589304E+03  0.40309657042E+03  0.12500000000E+03 0.  0.
         25    1    1    2    0    0 -0.22711334110E+03 -0.19012105962E+02  0.59662708087E+03  0.65079244272E+03  0.12500000000E+03 0.  0.
</event>
<event>
 5    0  0.5655767E-005  0.3341811E+03  0.7546771E-02  0.1069302E+00
         21   -1    0    0  502  501  0.00000000000E+00  0.00000000000E+00  0.16540767087E+03  0.16540767087E+03  0.00000000000E+00 0.  1.
         21   -1    0    0  501  502 -0.00000000000E+00 -0.00000000000E+00 -0.67516216570E+03  0.67516216570E+03  0.00000000000E+00 0.  1.
         25    1    1    2    0    0 -0.12079651024E+03 -0.10493000706E+02 -0.18646702360E+03  0.25514084510E+03  0.12500000000E+03 0.  0.
         25    1    1    2    0    0  0.69647052456E+02  0.14638298913E+02 -0.40344415605E+03  0.42831901518E+03  0.12500000000E+03 0.  0.
         25    1    1    2    0    0  0.51149457784E+02 -0.41452982062E+01  0.80156684815E+02  0.15710997629E+03  0.12500000000E+03 0.  0.
</event>
<event>
 5    0  0.6193036E-005  0.4540071E+03  0.7546771E-02  0.1026534E+00
         21   -1    0    0  502  501  0.00000000000E+00  0.00000000000E+00  0.35214564085E+03  0.35214564085E+03  0.00000000000E+00 0. -1.
         21   -1    0    0  501  502 -0.00000000000E+00 -0.00000000000E+00 -0.58533289703E+03  0.58533289703E+03  0.00000000000E+00 0. -1.
         25    1    1    2    0    0  0.10706550208E+03 -0.83660376927E+02 -0.33860740968E+03  0.38567091968E+03  0.12500000000E+03 0.  0.
         25    1    1    2    0    0  0.50383788584E+02 -0.15604348621E+03  0.12010265045E+03  0.23861630788E+03  0.12500000000E+03 0.  0.
         25    1    1    2    0    0 -0.15744929066E+03  0.23970386314E+03 -0.14682496957E+02  0.31319131031E+03  0.12500000000E+03 0.  0.
</event>
<event>
 5    0  0.5655767E-005  0.2406598E+03  0.7546771E-02  0.1119354E+00
         21   -1    0    0  502  501  0.00000000000E+00  0.00000000000E+00  0.11404748692E+03  0.11404748692E+03  0.00000000000E+00 0. -1.
         21   -1    0    0  501  502 -0.00000000000E+00 -0.00000000000E+00 -0.50783373581E+03  0.50783373581E+03  0.00000000000E+00 0. -1.
         25    1    1    2    0    0 -0.32175158635E+02  0.13034509127E+02 -0.15668663126E+03  0.20342281012E+03  0.12500000000E+03 0.  0.
         25    1    1    2    0    0 -0.39888387594E+02  0.90552242121E+02 -0.68345640802E+02  0.17345581176E+03  0.12500000000E+03 0.  0.
         25    1    1    2    0    0  0.72063546229E+02 -0.10358675125E+03 -0.16875397682E+03  0.24500260085E+03  0.12500000000E+03 0.  0.
</event>
<event>
 5    0  0.5655767E-005  0.2961906E+03  0.7546771E-02  0.1087161E+00
         21   -1    0    0  502  501  0.00000000000E+00  0.00000000000E+00  0.13908588450E+03  0.13908588450E+03  0.00000000000E+00 0.  1.
         21   -1    0    0  501  502 -0.00000000000E+00 -0.00000000000E+00 -0.63075305513E+03  0.63075305513E+03  0.00000000000E+00 0.  1.
         25    1    1    2    0    0 -0.10594133543E+03  0.55096541580E+02 -0.74942099686E+02  0.18841580017E+03  0.12500000000E+03 0.  0.
         25    1    1    2    0    0  0.17494974630E+03 -0.86693737955E+02 -0.14673069922E+03  0.27436857696E+03  0.12500000000E+03 0.  0.
         25    1    1    2    0    0 -0.69008410869E+02  0.31597196375E+02 -0.26999437173E+03  0.30705456250E+03  0.12500000000E+03 0.  0.
</event>
<event>
 5    0  0.5655767E-005  0.3382806E+03  0.7546771E-02  0.1067531E+00
         21   -1    0    0  502  501  0.00000000000E+00  0.00000000000E+00  0.43057397134E+02  0.43057397134E+02  0.00000000000E+00 0.  1.
         21   -1    0    0  501  502 -0.00000000000E+00 -0.00000000000E+00 -0.26577030041E+04  0.26577030041E+04  0.00000000000E+00 0.  1.
         25    1    1    2    0    0  0.93011758339E+02  0.53405125740E+02 -0.67430256666E+03  0.69412696681E+03  0.12500000000E+03 0.  0.
         25    1    1    2    0    0 -0.13827872043E+03 -0.22561235725E+03 -0.10413825690E+04  0.10817229753E+04  0.12500000000E+03 0.  0.
         25    1    1    2    0    0  0.45266962090E+02  0.17220723151E+03 -0.89896047134E+03  0.92491045917E+03  0.12500000000E+03 0.  0.
</event>
<event>
 5    0  0.5655767E-005  0.3256626E+03  0.7546771E-02  0.1073072E+00
         21   -1    0    0  502  501  0.00000000000E+00  0.00000000000E+00  0.31774322492E+03  0.31774322492E+03  0.00000000000E+00 0.  1.
         21   -1    0    0  501  502 -0.00000000000E+00 -0.00000000000E+00 -0.33377937522E+03  0.33377937522E+03  0.00000000000E+00 0.  1.
         25    1    1    2    0    0  0.20933944727E+03  0.64063324943E+02  0.12620992996E+03  0.28192385533E+03  0.12500000000E+03 0.  0.
         25    1    1    2    0    0 -0.13269964550E+03 -0.10464164391E+02 -0.98482022710E+02  0.20746663213E+03  0.12500000000E+03 0.  0.
         25    1    1    2    0    0 -0.76639801772E+02 -0.53599160552E+02 -0.43764057545E+02  0.16213211267E+03  0.12500000000E+03 0.  0.
</event>
<event>
 5    0  0.5655767E-005  0.6351270E+03  0.7546771E-02  0.9835095E-01
         21   -1    0    0  502  501  0.00000000000E+00  0.00000000000E+00  0.48659054565E+03  0.48659054565E+03  0.00000000000E+00 0. -1.
         21   -1    0    0  501  502 -0.00000000000E+00 -0.00000000000E+00 -0.82900563873E+03  0.82900563873E+03  0.00000000000E+00 0. -1.
         25    1    1    2    0    0  0.11954794962E+03  0.12902804801E+03 -0.21579790538E+03  0.30517812077E+03  0.12500000000E+03 0.  0.
         25    1    1    2    0    0 -0.45645397672E+03  0.21340720802E+02 -0.32378817028E+03  0.57382004012E+03  0.12500000000E+03 0.  0.
         25    1    1    2    0    0  0.33690602711E+03 -0.15036876881E+03  0.19717098259E+03  0.43659802348E+03  0.12500000000E+03 0.  0.
</event>
<event>
 5    0  0.5655767E-005  0.3945142E+03  0.7546771E-02  0.1045696E+00
         21   -1    0    0  502  501  0.00000000000E+00  0.00000000000E+00  0.57767392849E+03  0.57767392849E+03  0.00000000000E+00 0. -1.
         21   -1    0    0  501  502 -0.00000000000E+00 -0.00000000000E+00 -0.26942788101E+03  0.26942788101E+03  0.00000000000E+00 0. -1.
         25    1    1    2    0    0  0.44009693201E+02 -0.17082383121E+03  0.37493479161E+03  0.43280334145E+03  0.12500000000E+03 0.  0.
         25    1    1    2    0    0  0.86147394714E+02  0.37858234111E+02 -0.10286087133E+03  0.18724309963E+03  0.12500000000E+03 0.  0.
         25    1    1    2    0    0 -0.13015708791E+03  0.13296559710E+03  0.36172127207E+02  0.22705536843E+03  0.12500000000E+03 0.  0.
</event>
<event>
 5    0  0.5655767E-005  0.2581244E+03  0.7546771E-02  0.1108275E+00
         21   -1    0    0  502  501  0.00000000000E+00  0.00000000000E+00  0.10930029296E+04  0.10930029296E+04  0.00000000000E+00 0. -1.
         21   -1    0    0  501  502 -0.00000000000E+00 -0.00000000000E+00 -0.60958858591E+02  0.60958858591E+02  0.00000000000E+00 0. -1.
         25    1    1    2    0    0 -0.31100992989E+02  0.76829004722E+02  0.13747641027E+03  0.20345695149E+03  0.12500000000E+03 0.  0.
         25    1    1    2    0    0 -0.26486876635E+02 -0.61286639913E+02  0.21875767226E+03  0.26064828033E+03  0.12500000000E+03 0.  0.
         25    1    1    2    0    0  0.57587869624E+02 -0.15542364809E+02  0.67580998851E+03  0.68985655640E+03  0.12500000000E+03 0.  0.
</event>
<event>
 5    0  0.5655767E-005  0.4315050E+03  0.7546771E-02  0.1033386E+00
         21   -1    0    0  502  501  0.00000000000E+00  0.00000000000E+00  0.25706877183E+03  0.25706877183E+03  0.00000000000E+00 0.  1.
         21   -1    0    0  501  502 -0.00000000000E+00 -0.00000000000E+00 -0.72430641058E+03  0.72430641058E+03  0.00000000000E+00 0.  1.
         25    1    1    2    0    0 -0.10503622351E+03 -0.33761970539E+03 -0.25797202332E+03  0.45518593842E+03  0.12500000000E+03 0.  0.
         25    1    1    2    0    0  0.12117823726E+03  0.30243376941E+03 -0.12563316133E+03  0.37088952707E+03  0.12500000000E+03 0.  0.
         25    1    1    2    0    0 -0.16142013753E+02  0.35185935983E+02 -0.83632454097E+02  0.15529971693E+03  0.12500000000E+03 0.  0.
</event>
<event>
 5    0  0.5655767E-005  0.2597767E+03  0.7546771E-02  0.1107277E+00
         21   -1    0    0  502  501  0.00000000000E+00  0.00000000000E+00  0.13980219835E+04  0.13980219835E+04  0.00000000000E+00 0. -1.
         21   -1    0    0  501  502 -0.00000000000E+00 -0.00000000000E+00 -0.48271025524E+02  0.48271025524E+02  0.00000000000E+00 0. -1.
         25    1    1    2    0    0  0.57072780612E+02  0.22479355459E+02  0.32978580945E+03  0.35797528382E+03  0.12500000000E+03 0.  0.
         25    1    1    2    0    0 -0.16876849686E+03 -0.27215992923E+02  0.55455783631E+03  0.59361848827E+03  0.12500000000E+03 0.  0.
         25    1    1    2    0    0  0.11169571625E+03  0.47366374638E+01  0.46540731222E+03  0.49469923694E+03  0.12500000000E+03 0.  0.
</event>
<event>
 5    0  0.5655767E-005  0.3390382E+03  0.7546771E-02  0.1067206E+00
         21   -1    0    0  502  501  0.00000000000E+00  0.00000000000E+00  0.42419222484E+03  0.42419222484E+03  0.00000000000E+00 0.  1.
         21   -1    0    0  501  502 -0.00000000000E+00 -0.00000000000E+00 -0.27097826004E+03  0.27097826004E+03  0.00000000000E+00 0.  1.
         25    1    1    2    0    0 -0.56632885389E+02  0.13817933198E+03  0.98280005552E+02  0.21813933847E+03  0.12500000000E+03 0.  0.
         25    1    1    2    0    0  0.18853479526E+01 -0.26123030074E+03  0.44329885071E+02  0.29297604556E+03  0.12500000000E+03 0.  0.
         25    1    1    2    0    0  0.54747537437E+02  0.12305096875E+03  0.10604074177E+02  0.18405510087E+03  0.12500000000E+03 0.  0.
</event>
<event>
 5    0  0.5655767E-005  0.2748336E+03  0.7546771E-02  0.1098545E+00
         21   -1    0    0  502  501  0.00000000000E+00  0.00000000000E+00  0.74827873727E+02  0.74827873727E+02  0.00000000000E+00 0. -1.
         21   -1    0    0  501  502 -0.00000000000E+00 -0.00000000000E+00 -0.10094299456E+04  0.10094299456E+04  0.00000000000E+00 0. -1.
         25    1    1    2    0    0 -0.68011299904E+02  0.49342740522E+02 -0.47691876552E+03  0.50013673316E+03  0.12500000000E+03 0.  0.
         25    1    1    2    0    0 -0.61833598029E+02  0.50662455873E+02 -0.13145087525E+03  0.19822817884E+03  0.12500000000E+03 0.  0.
         25    1    1    2    0    0  0.12984489793E+03 -0.10000519640E+03 -0.32623243113E+03  0.38589290736E+03  0.12500000000E+03 0.  0.
</event>
<event>
 5    0  0.5655767E-005  0.3536122E+03  0.7546771E-02  0.1061142E+00
         21   -1    0    0  502  501  0.00000000000E+00  0.00000000000E+00  0.10418138452E+04  0.10418138452E+04  0.00000000000E+00 0.  1.
         21   -1    0    0  501  502 -0.00000000000E+00 -0.00000000000E+00 -0.12002295341E+03  0.12002295341E+03  0.00000000000E+00 0.  1.
         25    1    1    2    0    0 -0.14555395771E+02 -0.44808769995E+02  0.70190184623E+03  0.71450044588E+03  0.12500000000E+03 0.  0.
         25    1    1    2    0    0 -0.11966149320E+03  0.87632809766E+02  0.68551348655E+02  0.20572474257E+03  0.12500000000E+03 0.  0.
         25    1    1    2    0    0  0.13421688897E+03 -0.42824039771E+02  0.15133769696E+03  0.24161161021E+03  0.12500000000E+03 0.  0.
</event>
<event>
 5    0  0.5655767E-005  0.7998734E+03  0.7546771E-02  0.9560200E-01
         21   -1    0    0  502  501  0.00000000000E+00  0.00000000000E+00  0.14929215638E+04  0.14929215638E+04  0.00000000000E+00 0.  1.
         21   -1    0    0  501  502 -0.00000000000E+00 -0.00000000000E+00 -0.42855400191E+03  0.42855400191E+03  0.00000000000E+00 0.  1.
         25    1    1    2    0    0  0.25389284951E+03  0.21879187871E+03  0.60393581006E+03  0.70192230902E+03  0.12500000000E+03 0.  0.
         25    1    1    2    0    0  0.27498059645E+03  0.14007368624E+02  0.54407477631E+03  0.62245714473E+03  0.12500000000E+03 0.  0.
         25    1    1    2    0    0 -0.52887344596E+03 -0.23279924734E+03 -0.83643024470E+02  0.59709611198E+03  0.12500000000E+03 0.  0.
</event>
<event>
 5    0  0.5655767E-005  0.3409603E+03  0.7546771E-02  0.1066388E+00
         21   -1    0    0  502  501  0.00000000000E+00  0.00000000000E+00  0.75095747574E+03  0.75095747574E+03  0.00000000000E+00 0. -1.
         21   -1    0    0  501  502 -0.00000000000E+00 -0.00000000000E+00 -0.15480763508E+03  0.15480763508E+03  0.00000000000E+00 0. -1.
         25    1    1    2    0    0 -0.12655245539E+02  0.10070473015E+02  0.18567436254E+03  0.22441376645E+03  0.12500000000E+03 0.  0.
         25    1    1    2    0    0 -0.23474958446E+03  0.64577936460E+01  0.19391353674E+03  0.32920590856E+03  0.12500000000E+03 0.  0.
         25    1    1    2    0    0  0.24740482999E+03 -0.16528266661E+02  0.21656194138E+03  0.35214543580E+03  0.12500000000E+03 0.  0.
</event>
<event>
 5    0  0.5655767E-005  0.4420209E+03  0.7546771E-02  0.1030129E+00
         21   -1    0    0  502  501  0.00000000000E+00  0.00000000000E+00  0.30919287976E+03  0.30919287976E+03  0.00000000000E+00 0. -1.
         21   -1    0    0  501  502 -0.00000000000E+00 -0.00000000000E+00 -0.63191132119E+03  0.63191132119E+03  0.00000000000E+00 0. -1.
         25    1    1    2    0    0  0.17505577051E+02  0.59164134527E+02  0.13584455018E+03  0.19464218930E+03  0.12500000000E+03 0.  0.
         25    1    1    2    0    0 -0.15331236795E+03  0.11912878279E+03 -0.43022339475E+03  0.48827606786E+03  0.12500000000E+03 0.  0.
         25    1    1    2    0    0  0.13580679090E+03 -0.17829291732E+03 -0.28339596860E+02  0.25818594379E+03  0.12500000000E+03 0.  0.
</event>
<event>
 5    0  0.5655767E-005  0.4762045E+03  0.7546771E-02  0.1020184E+00
         21   -1    0    0  502  501  0.00000000000E+00  0.00000000000E+00  0.53646307594E+03  0.53646307594E+03  0.00000000000E+00 0. -1.
         21   -1    0    0  501  502 -0.00000000000E+00 -0.00000000000E+00 -0.42271451242E+03  0.42271451242E+03  0.00000000000E+00 0. -1.
         25    1    1    2    0    0  0.10265517537E+03 -0.14675241611E+03 -0.15037399167E+03  0.26516352320E+03  0.12500000000E+03 0.  0.
         25    1    1    2    0    0 -0.92182598425E+01 -0.20213042142E+03  0.16075008455E+02  0.23838013650E+03  0.12500000000E+03 0.  0.
         25    1    1    2    0    0 -0.93436915532E+02  0.34888283753E+03  0.24804754673E+03  0.45563392866E+03  0.12500000000E+03 0.  0.
</event>
<event>
 5    0  0.5655767E-005  0.2830334E+03  0.7546771E-02  0.1094044E+00
         21   -1    0    0  502  501  0.00000000000E+00  0.00000000000E+00  0.17216687985E+04  0.17216687985E+04  0.00000000000E+00 0. -1.
         21   -1    0    0  501  502 -0.00000000000E+00 -0.00000000000E+00 -0.46529232676E+02  0.46529232676E+02  0.00000000000E+00 0. -1.
         25    1    1    2    0    0 -0.13172237421E+03  0.20721814648E+02  0.31850544499E+03  0.36722050046E+03  0.12500000000E+03 0.  0.
         25    1    1    2    0    0  0.14499291390E+02 -0.44255167008E+02  0.27551445054E+03  0.30610776160E+03  0.12500000000E+03 0.  0.
         25    1    1    2    0    0  0.11722308282E+03  0.23533352360E+02  0.10811196703E+04  0.10948697691E+04  0.12500000000E+03 0.  0.
</event>
<event>
 5    0  0.5655767E-005  0.3846497E+03  0.7546771E-02  0.1049228E+00
         21   -1    0    0  502  501  0.00000000000E+00  0.00000000000E+00  0.96959006861E+02  0.96959006861E+02  0.00000000000E+00 0.  1.
         21   -1    0    0  501  502 -0.00000000000E+00 -0.00000000000E+00 -0.15259583241E+04  0.15259583241E+04  0.00000000000E+00 0.  1.
         25    1    1    2    0    0  0.12538209060E+02  0.57157763582E+02 -0.29155915060E+03  0.32257705269E+03  0.12500000000E+03 0.  0.
         25    1    1    2    0    0  0.53293498598E+02  0.24275002778E+02 -0.11286274741E+04  0.11370375755E+04  0.12500000000E+03 0.  0.
         25    1    1    2    0    0 -0.65831707658E+02 -0.81432766360E+02 -0.88126924751E+01  0.16330270273E+03  0.12500000000E+03 0.  0.
</event>
<event>
 5    0  0.5655767E-005  0.4028616E+03  0.7546771E-02  0.1042793E+00
         21   -1    0    0  502  501  0.00000000000E+00  0.00000000000E+00  0.48955679952E+03  0.48955679952E+03  0.00000000000E+00 0.  1.
         21   -1    0    0  501  502 -0.00000000000E+00 -0.00000000000E+00 -0.33151925634E+03  0.33151925634E+03  0.00000000000E+00 0.  1.
         25    1    1    2    0    0  0.13429095139E+03  0.12365589343E+03 -0.67317007763E+02  0.23126050060E+03  0.12500000000E+03 0.  0.
         25    1    1    2    0    0  0.49494819885E+02 -0.24666913574E+03  0.61686108582E+02  0.28762054119E+03  0.12500000000E+03 0.  0.
         25    1    1    2    0    0 -0.18378577128E+03  0.12301324231E+03  0.16366844236E+03  0.30219501407E+03  0.12500000000E+03 0.  0.
</event>
<event>
 5    0  0.5655767E-005  0.4806443E+03  0.7546771E-02  0.1018958E+00
         21   -1    0    0  502  501  0.00000000000E+00  0.00000000000E+00  0.15701032137E+03  0.15701032137E+03  0.00000000000E+00 0. -1.
         21   -1    0    0  501  502 -0.00000000000E+00 -0.00000000000E+00 -0.14713617175E+04  0.14713617175E+04  0.00000000000E+00 0. -1.
         25    1    1    2    0    0 -0.20547377376E+02  0.27369447773E+03 -0.14144819522E+03  0.33311177371E+03  0.12500000000E+03 0.  0.
         25    1    1    2    0    0 -0.61185288438E+01  0.79828814477E+02 -0.17840412921E+03  0.23208427205E+03  0.12500000000E+03 0.  0.
         25    1    1    2    0    0  0.26665906220E+02 -0.35352329221E+03 -0.99449907173E+03  0.10631759931E+04  0.12500000000E+03 0.  0.
</event>
<event>
 5    0  0.5655767E-005  0.2601952E+03  0.7546771E-02  0.1107026E+00
         21   -1    0    0  502  501  0.00000000000E+00  0.00000000000E+00  0.18818113671E+04  0.18818113671E+04  0.00000000000E+00 0.  1.
         21   -1    0    0  501  502 -0.00000000000E+00 -0.00000000000E+00 -0.35976799286E+02  0.35976799286E+02  0.00000000000E+00 0. -1.
         25    1    1    2    0    0 -0.51817432744E+02  0.13275926667E+03  0.62819874833E+03  0.65617736674E+03  0.12500000000E+03 0.  0.
         25    1    1    2    0    0  0.99134475471E+02 -0.55145151989E+02  0.50700359108E+03  0.53436529957E+03  0.12500000000E+03 0.  0.
         25    1    1    2    0    0 -0.47317042726E+02 -0.77614114684E+02  0.71063222839E+03  0.72724550006E+03  0.12500000000E+03 0.  0.
</event>
<event>
 5    0  0.6339339E-005  0.3663563E+03  0.7546771E-02  0.1056095E+00
         21   -1    0    0  502  501  0.00000000000E+00  0.00000000000E+00  0.54334611990E+03  0.54334611990E+03  0.00000000000E+00 0. -1.
         21   -1    0    0  501  502 -0.00000000000E+00 -0.00000000000E+00 -0.24701918140E+03  0.24701918140E+03  0.00000000000E+00 0. -1.
         25    1    1    2    0    0  0.19953184114E+03  0.42458396912E+02  0.10838480203E+03  0.26265554707E+03  0.12500000000E+03 0.  0.
         25    1    1    2    0    0 -0.22400495137E+02 -0.10127101679E+03  0.24683801487E+03  0.29548537461E+03  0.12500000000E+03 0.  0.
         25    1    1    2    0    0 -0.17713134600E+03  0.58812619876E+02 -0.58895878402E+02  0.23222437961E+03  0.12500000000E+03 0.  0.
</event>
<event>
 5    0  0.5655767E-005  0.4418437E+03  0.7546771E-02  0.1030183E+00
         21   -1    0    0  502  501  0.00000000000E+00  0.00000000000E+00  0.54999338406E+03  0.54999338406E+03  0.00000000000E+00 0. -1.
         21   -1    0    0  501  502 -0.00000000000E+00 -0.00000000000E+00 -0.35496029701E+03  0.35496029701E+03  0.00000000000E+00 0. -1.
         25    1    1    2    0    0 -0.16947545070E+03 -0.27899288188E+03  0.64603561553E+02  0.35546810926E+03  0.12500000000E+03 0.  0.
         25    1    1    2    0    0  0.11320484007E+03  0.33403492399E+03  0.14444348227E+03  0.40110296163E+03  0.12500000000E+03 0.  0.
         25    1    1    2    0    0  0.56270610637E+02 -0.55042042105E+02 -0.14013956767E+02  0.14838261018E+03  0.12500000000E+03 0.  0.
</event>
<event>
 5    0  0.5655767E-005  0.3806972E+03  0.7546771E-02  0.1050676E+00
         21   -1    0    0  502  501  0.00000000000E+00  0.00000000000E+00  0.31576965645E+03  0.31576965645E+03  0.00000000000E+00 0. -1.
         21   -1    0    0  501  502 -0.00000000000E+00 -0.00000000000E+00 -0.45897484228E+03  0.45897484228E+03  0.00000000000E+00 0. -1.
         25    1    1    2    0    0  0.11459439316E+03  0.29208196561E+02 -0.74294831202E+02  0.18742922833E+03  0.12500000000E+03 0.  0.
         25    1    1    2    0    0  0.17742304692E+03 -0.39641757545E+02  0.82151524160E+02  0.23542361700E+03  0.12500000000E+03 0.  0.
         25    1    1    2    0    0 -0.29201744008E+03  0.10433560984E+02 -0.15106187879E+03  0.35189165339E+03  0.12500000000E+03 0.  0.
</event>
<event>
 5    0  0.5655767E-005  0.6327877E+03  0.7546771E-02  0.9839624E-01
         21   -1    0    0  502  501  0.00000000000E+00  0.00000000000E+00  0.99012791796E+03  0.99012791796E+03  0.00000000000E+00 0. -1.
         21   -1    0    0  501  502 -0.00000000000E+00 -0.00000000000E+00 -0.40441271819E+03  0.40441271819E+03  0.00000000000E+00 0. -1.
         25    1    1    2    0    0 -0.75024680857E+02 -0.40425241649E+03  0.52538749158E+03  0.67875307387E+03  0.12500000000E+03 0.  0.
         25    1    1    2    0    0  0.83060156199E+01 -0.10379084228E+03  0.92916406173E+02  0.18734990625E+03  0.12500000000E+03 0.  0.
         25    1    1    2    0    0  0.66718665237E+02  0.50804325877E+03 -0.32588697994E+02  0.52843765603E+03  0.12500000000E+03 0.  0.
</event>
<event>
 5    0  0.5655767E-005  0.2812321E+03  0.7546771E-02  0.1095018E+00
         21   -1    0    0  502  501  0.00000000000E+00  0.00000000000E+00  0.11346468024E+03  0.11346468024E+03  0.00000000000E+00 0.  1.
         21   -1    0    0  501  502 -0.00000000000E+00 -0.00000000000E+00 -0.69705807815E+03  0.69705807815E+03  0.00000000000E+00 0.  1.
         25    1    1    2    0    0  0.10894610282E+03 -0.48858720624E+02 -0.23362388679E+03  0.29062269075E+03  0.12500000000E+03 0.  0.
         25    1    1    2    0    0 -0.16257165625E+03  0.11119605666E+03 -0.19000138225E+03  0.30086480633E+03  0.12500000000E+03 0.  0.
         25    1    1    2    0    0  0.53625553424E+02 -0.62337336036E+02 -0.15996812887E+03  0.21903526131E+03  0.12500000000E+03 0.  0.
</event>
<event>
 5    0  0.5655767E-005  0.5574675E+03  0.7546771E-02  0.9997801E-01
         21   -1    0    0  502  501  0.00000000000E+00  0.00000000000E+00  0.10393079928E+04  0.10393079928E+04  0.00000000000E+00 0. -1.
         21   -1    0    0  501  502 -0.00000000000E+00 -0.00000000000E+00 -0.29901632984E+03  0.29901632984E+03  0.00000000000E+00 0. -1.
         25    1    1    2    0    0  0.41751342453E+03  0.22690911280E+03  0.15261423098E+03  0.51451074686E+03  0.12500000000E+03 0.  0.
         25    1    1    2    0    0 -0.12604453477E+03  0.47280361933E+01  0.12625033684E+03  0.21788466358E+03  0.12500000000E+03 0.  0.
         25    1    1    2    0    0 -0.29146888976E+03 -0.23163714900E+03  0.46142709510E+03  0.60592891215E+03  0.12500000000E+03 0.  0.
</event>
<event>
 5    0  0.5655767E-005  0.3031321E+03  0.7546771E-02  0.1083685E+00
         21   -1    0    0  502  501  0.00000000000E+00  0.00000000000E+00  0.12957798279E+03  0.12957798279E+03  0.00000000000E+00 0. -1.
         21   -1    0    0  501  502 -0.00000000000E+00 -0.00000000000E+00 -0.70914095629E+03  0.70914095629E+03  0.00000000000E+00 0. -1.
         25    1    1    2    0    0  0.16672283396E+03  0.32233881748E+02 -0.15524667342E+03  0.26184357182E+03  0.12500000000E+03 0.  0.
         25    1    1    2    0    0  0.17062212358E+02  0.70762109260E+02 -0.13601996855E+03  0.19855686098E+03  0.12500000000E+03 0.  0.
         25    1    1    2    0    0 -0.18378504632E+03 -0.10299599101E+03 -0.28829633153E+03  0.37831850627E+03  0.12500000000E+03 0.  0.
</event>
<event>
 5    0  0.5655767E-005  0.2253901E+03  0.7546771E-02  0.1129927E+00
         21   -1    0    0  502  501  0.00000000000E+00  0.00000000000E+00  0.40564579513E+03  0.40564579513E+03  0.00000000000E+00 0.  1.
         21   -1    0    0  501  502 -0.00000000000E+00 -0.00000000000E+00 -0.12523418047E+03  0.12523418047E+03  0.00000000000E+00 0.  1.
         25    1    1    2    0    0  0.29147534583E+02 -0.51836601389E+02  0.11189234186E+03  0.17799300037E+03  0.12500000000E+03 0.  0.
         25    1    1    2    0    0 -0.46281264539E+02  0.10302631899E+03  0.60207548770E+02  0.17890312122E+03  0.12500000000E+03 0.  0.
         25    1    1    2    0    0  0.17133729956E+02 -0.51189717603E+02  0.10831172403E+03  0.17398385400E+03  0.12500000000E+03 0.  0.
</event>
<event>
 5    0  0.5655767E-005  0.3274531E+03  0.7546771E-02  0.1072269E+00
         21   -1    0    0  502  501  0.00000000000E+00  0.00000000000E+00  0.23033920060E+03  0.23033920060E+03  0.00000000000E+00 0. -1.
         21   -1    0    0  501  502 -0.00000000000E+00 -0.00000000000E+00 -0.46551132504E+03  0.46551132504E+03  0.00000000000E+00 0. -1.
         25    1    1    2    0    0 -0.15129143883E+03  0.43345223298E+02 -0.28632008370E+02  0.20300911248E+03  0.12500000000E+03 0.  0.
         25    1    1    2    0    0  0.97910347228E+02  0.13313283984E+03 -0.31601330939E+02  0.20960542277E+03  0.12500000000E+03 0.  0.
         25    1    1    2    0    0  0.53381091606E+02 -0.17647806313E+03 -0.17493878513E+03  0.28323599039E+03  0.12500000000E+03 0.  0.
</event>
<event>
 5    0  0.5655767E-005  0.3070398E+03  0.7546771E-02  0.1081774E+00
         21   -1    0    0  502  501  0.00000000000E+00  0.00000000000E+00  0.26021499392E+03  0.26021499392E+03  0.00000000000E+00 0. -1.
         21   -1    0    0  501  502 -0.00000000000E+00 -0.00000000000E+00 -0.36229046307E+03  0.36229046307E+03  0.00000000000E+00 0. -1.
         25    1    1    2    0    0 -0.43755972951E+00  0.99756001476E+02 -0.26644417868E+02  0.16213073827E+03  0.12500000000E+03 0.  0.
         25    1    1    2    0    0 -0.32300984562E+01 -0.69422370004E+02 -0.22278595202E+03  0.26474228867E+03  0.12500000000E+03 0.  0.
         25    1    1    2    0    0  0.36676581857E+01 -0.30333631472E+02  0.14735490074E+03  0.19563243005E+03  0.12500000000E+03 0.  0.
</event>
<event>
 5    0  0.5655767E-005  0.3104950E+03  0.7546771E-02  0.1080109E+00
         21   -1    0    0  502  501  0.00000000000E+00  0.00000000000E+00  0.68700574017E+03  0.68700574017E+03  0.00000000000E+00 0.  1.
         21   -1    0    0  501  502 -0.00000000000E+00 -0.00000000000E+00 -0.14032945939E+03  0.14032945939E+03  0.00000000000E+00 0.  1.
         25    1    1    2    0    0  0.11525979626E+03 -0.63266836327E+02  0.67891674311E+02  0.19370542753E+03  0.12500000000E+03 0.  0.
         25    1    1    2    0    0  0.77535502316E+02 -0.10017573119E+02  0.80405172304E+02  0.16793480171E+03  0.12500000000E+03 0.  0.
         25    1    1    2    0    0 -0.19279529857E+03  0.73284409445E+02  0.39837943417E+03  0.46569497033E+03  0.12500000000E+03 0.  0.
</event>
<event>
 5    0  0.5655767E-005  0.3720747E+03  0.7546771E-02  0.1053902E+00
         21   -1    0    0  502  501  0.00000000000E+00  0.00000000000E+00  0.23255270715E+03  0.23255270715E+03  0.00000000000E+00 0. -1.
         21   -1    0    0  501  502 -0.00000000000E+00 -0.00000000000E+00 -0.59530415272E+03  0.59530415272E+03  0.00000000000E+00 0. -1.
         25    1    1    2    0    0  0.13030176616E+02  0.17200527042E+03 -0.12258342290E+03  0.24577895379E+03  0.12500000000E+03 0.  0.
         25    1    1    2    0    0  0.45091364014E+02  0.10898148885E+03 -0.20441925889E+03  0.26706259458E+03  0.12500000000E+03 0.  0.
         25    1    1    2    0    0 -0.58121540630E+02 -0.28098675927E+03 -0.35748763789E+02  0.31501531151E+03  0.12500000000E+03 0.  0.
</event>
<event>
 5    0  0.5655767E-005  0.5308312E+03  0.7546771E-02  0.1006031E+00
         21   -1    0    0  502  501  0.00000000000E+00  0.00000000000E+00  0.14802004669E+04  0.14802004669E+04  0.00000000000E+00 0.  1.
         21   -1    0    0  501  502 -0.00000000000E+00 -0.00000000000E+00 -0.19036727642E+03  0.19036727642E+03  0.00000000000E+00 0.  1.
         25    1    1    2    0    0 -0.15681716535E+03  0.11371989092E+03  0.11831736910E+03  0.25912899640E+03  0.12500000000E+03 0.  0.
         25    1    1    2    0    0  0.17583918437E+03 -0.29342010153E+03  0.11307629633E+04  0.11879666047E+04  0.12500000000E+03 0.  0.
         25    1    1    2    0    0 -0.19022019021E+02  0.17970021060E+03  0.40752858056E+02  0.22347214220E+03  0.12500000000E+03 0.  0.
</event>
<event>
 5    0  0.5655767E-005  0.2693574E+03  0.7546771E-02  0.1101648E+00
         21   -1    0    0  502  501  0.00000000000E+00  0.00000000000E+00  0.53367367120E+03  0.53367367120E+03  0.00000000000E+00 0.  1.
         21   -1    0    0  501  502 -0.00000000000E+00 -0.00000000000E+00 -0.13595089958E+03  0.13595089958E+03  0.00000000000E+00 0.  1.
         25    1    1    2    0    0  0.26886597722E+02  0.51941196833E+02  0.15722718933E+03  0.20920364751E+03  0.12500000000E+03 0.  0.
         25    1    1    2    0    0 -0.31798194215E+02  0.47302591506E+02 -0.35200729131E+02  0.14181943326E+03  0.12500000000E+03 0.  0.
         25    1    1    2    0    0  0.49115964928E+01 -0.99243788339E+02  0.27569631142E+03  0.31860149001E+03  0.12500000000E+03 0.  0.
</event>
<event>
 5    0  0.5655767E-005  0.2696888E+03  0.7546771E-02  0.1101458E+00
         21   -1    0    0  502  501  0.00000000000E+00  0.00000000000E+00  0.94871666994E+02  0.94871666994E+02  0.00000000000E+00 0. -1.
         21   -1    0    0  501  502 -0.00000000000E+00 -0.00000000000E+00 -0.76663615496E+03  0.76663615496E+03  0.00000000000E+00 0. -1.
         25    1    1    2    0    0 -0.70309304135E+02  0.31282622106E+02 -0.34743718113E+03  0.37717316385E+03  0.12500000000E+03 0.  0.
         25    1    1    2    0    0  0.14767592355E+03 -0.59691348710E+02 -0.23414252400E+03  0.30954637303E+03  0.12500000000E+03 0.  0.
         25    1    1    2    0    0 -0.77366619417E+02  0.28408726604E+02 -0.90184782833E+02  0.17478828508E+03  0.12500000000E+03 0.  0.
</event>
<event>
 5    0  0.6252591E-005  0.2828439E+03  0.7546771E-02  0.1094146E+00
         21   -1    0    0  502  501  0.00000000000E+00  0.00000000000E+00  0.38695803356E+03  0.38695803356E+03  0.00000000000E+00 0.  1.
         21   -1    0    0  501  502 -0.00000000000E+00 -0.00000000000E+00 -0.20674249606E+03  0.20674249606E+03  0.00000000000E+00 0.  1.
         25    1    1    2    0    0  0.15117019823E+03  0.11231711712E+03  0.55172444923E+02  0.23267265054E+03  0.12500000000E+03 0.  0.
         25    1    1    2    0    0 -0.10897154138E+03 -0.18886869395E+02  0.10724396332E+03  0.19838794906E+03  0.12500000000E+03 0.  0.
         25    1    1    2    0    0 -0.42198656856E+02 -0.93430247729E+02  0.17799129263E+02  0.16263993001E+03  0.12500000000E+03 0.  0.
</event>
<event>
 5    0  0.5655767E-005  0.3004258E+03  0.7546771E-02  0.1085028E+00
         21   -1    0    0  502  501  0.00000000000E+00  0.00000000000E+00  0.78558498190E+02  0.78558498190E+02  0.00000000000E+00 0.  1.
         21   -1    0    0  501  502 -0.00000000000E+00 -0.00000000000E+00 -0.11488972539E+04  0.11488972539E+04  0.00000000000E+00 0.  1.
         25    1    1    2    0    0 -0.14069923896E+03 -0.36763604149E+02 -0.47467846900E+03  0.51194969222E+03  0.12500000000E+03 0.  0.
         25    1    1    2    0    0  0.45948219449E+02  0.58314266901E+02 -0.60594097057E+02  0.15750694332E+03  0.12500000000E+03 0.  0.
         25    1    1    2    0    0  0.94751019508E+02 -0.21550662752E+02 -0.53506618963E+03  0.55799911653E+03  0.12500000000E+03 0.  0.
</event>
<event>
 5    0  0.5655767E-005  0.3219514E+03  0.7546771E-02  0.1074755E+00
         21   -1    0    0  502  501  0.00000000000E+00  0.00000000000E+00  0.86921649841E+02  0.86921649841E+02  0.00000000000E+00 0.  1.
         21   -1    0    0  501  502 -0.00000000000E+00 -0.00000000000E+00 -0.11924839498E+04  0.11924839498E+04  0.00000000000E+00 0.  1.
         25    1    1    2    0    0  0.12917771379E+03  0.17111726594E+03 -0.50113042278E+03  0.55921793702E+03  0.12500000000E+03 0.  0.
         25    1    1    2    0    0 -0.69517213471E+02 -0.11213691796E+03 -0.51255223689E+03  0.54382177860E+03  0.12500000000E+03 0.  0.
         25    1    1    2    0    0 -0.59660500315E+02 -0.58980347981E+02 -0.91879640264E+02  0.17636588400E+03  0.12500000000E+03 0.  0.
</event>
<event>
 5    0  0.5655767E-005  0.2487399E+03  0.7546771E-02  0.1114104E+00
         21   -1    0    0  502  501  0.00000000000E+00  0.00000000000E+00  0.16898563110E+03  0.16898563110E+03  0.00000000000E+00 0.  1.
         21   -1    0    0  501  502 -0.00000000000E+00 -0.00000000000E+00 -0.36613504678E+03  0.36613504678E+03  0.00000000000E+00 0.  1.
         25    1    1    2    0    0 -0.90371231348E+01 -0.94080296935E+02  0.79813288037E+01  0.15691231142E+03  0.12500000000E+03 0.  0.
         25    1    1    2    0    0  0.13217752121E+02  0.59565256183E+02 -0.20587678026E+03  0.24846121904E+03  0.12500000000E+03 0.  0.
         25    1    1    2    0    0 -0.41806289865E+01  0.34515040752E+02  0.74603577073E+00  0.12974714743E+03  0.12500000000E+03 0.  0.
</event>
<event>
 5    0  0.5655767E-005  0.3065683E+03  0.7546771E-02  0.1082003E+00
         21   -1    0    0  502  501  0.00000000000E+00  0.00000000000E+00  0.52051404329E+03  0.52051404329E+03  0.00000000000E+00 0.  1.
         21   -1    0    0  501  502 -0.00000000000E+00 -0.00000000000E+00 -0.18056023356E+03  0.18056023356E+03  0.00000000000E+00 0.  1.
         25    1    1    2    0    0  0.18254080900E+02 -0.12476378084E+03 -0.52855183381E+01  0.17762924642E+03  0.12500000000E+03 0.  0.
         25    1    1    2    0    0  0.11847284882E+02  0.18494604640E+03  0.30064646597E+03  0.37464475939E+03  0.12500000000E+03 0.  0.
         25    1    1    2    0    0 -0.30101365782E+02 -0.60182265556E+02  0.44592862097E+02  0.14880027103E+03  0.12500000000E+03 0.  0.
</event>
<event>
 5    0  0.5655767E-005  0.2410370E+03  0.7546771E-02  0.1119104E+00
         21   -1    0    0  502  501  0.00000000000E+00  0.00000000000E+00  0.28077394989E+03  0.28077394989E+03  0.00000000000E+00 0. -1.
         21   -1    0    0  501  502 -0.00000000000E+00 -0.00000000000E+00 -0.20692391218E+03  0.20692391218E+03  0.00000000000E+00 0. -1.
         25    1    1    2    0    0  0.58782373658E+02 -0.69709706676E+02  0.11582197785E+03  0.19327322942E+03  0.12500000000E+03 0.  0.
         25    1    1    2    0    0 -0.19833622239E+02  0.81958213120E+02  0.14159533765E+02  0.15144640526E+03  0.12500000000E+03 0.  0.
         25    1    1    2    0    0 -0.38948751419E+02 -0.12248506443E+02 -0.56131473900E+02  0.14297822740E+03  0.12500000000E+03 0.  0.
</event>
<event>
 5    0  0.5655767E-005  0.3434491E+03  0.7546771E-02  0.1065336E+00
         21   -1    0    0  502  501  0.00000000000E+00  0.00000000000E+00  0.49588258589E+03  0.49588258589E+03  0.00000000000E+00 0.  1.
         21   -1    0    0  501  502 -0.00000000000E+00 -0.00000000000E+00 -0.23787344339E+03  0.23787344339E+03  0.00000000000E+00 0.  1.
         25    1    1    2    0    0  0.64370818852E+02  0.25415543249E+02 -0.12872963448E+03  0.19231711040E+03  0.12500000000E+03 0.  0.
         25    1    1    2    0    0 -0.10759905098E+03 -0.35693638934E+02  0.44694022274E+02  0.17456846009E+03  0.12500000000E+03 0.  0.
         25    1    1    2    0    0  0.43228232124E+02  0.10278095684E+02  0.34204475472E+03  0.36687045879E+03  0.12500000000E+03 0.  0.
</event>
<event>
 5    0  0.5655767E-005  0.4320939E+03  0.7546771E-02  0.1033201E+00
         21   -1    0    0  502  501  0.00000000000E+00  0.00000000000E+00  0.12291476165E+04  0.12291476165E+04  0.00000000000E+00 0. -1.
         21   -1    0    0  501  502 -0.00000000000E+00 -0.00000000000E+00 -0.15189802786E+03  0.15189802786E+03  0.00000000000E+00 0. -1.
         25    1    1    2    0    0  0.21086193678E+03  0.25669540572E+03  0.56136014274E+03  0.66415773545E+03  0.12500000000E+03 0.  0.
         25    1    1    2    0    0  0.13524848963E+02 -0.38760394458E+02  0.47355490912E+02  0.13983144224E+03  0.12500000000E+03 0.  0.
         25    1    1    2    0    0 -0.22438678574E+03 -0.21793501126E+03  0.46853395500E+03  0.57705646668E+03  0.12500000000E+03 0.  0.
</event>
<event>
 5    0  0.5655767E-005  0.4939891E+03  0.7546771E-02  0.1015360E+00
         21   -1    0    0  502  501  0.00000000000E+00  0.00000000000E+00  0.36146731299E+03  0.36146731299E+03  0.00000000000E+00 0.  1.
         21   -1    0    0  501  502 -0.00000000000E+00 -0.00000000000E+00 -0.67509638961E+03  0.67509638961E+03  0.00000000000E+00 0.  1.
         25    1    1    2    0    0 -0.12074238694E+03  0.33219378228E+02 -0.11010405157E+03  0.20839902415E+03  0.12500000000E+03 0.  0.
         25    1    1    2    0    0  0.28775712159E+03  0.28037033601E+03 -0.59575889928E+02  0.42495408340E+03  0.12500000000E+03 0.  0.
         25    1    1    2    0    0 -0.16701473464E+03 -0.31358971423E+03 -0.14394913512E+03  0.40321059505E+03  0.12500000000E+03 0.  0.
</event>
<event>
 5    0  0.5655767E-005  0.3066587E+03  0.7546771E-02  0.1081959E+00
         21   -1    0    0  502  501  0.00000000000E+00  0.00000000000E+00  0.84479557559E+03  0.84479557559E+03  0.00000000000E+00 0. -1.
         21   -1    0    0  501  502 -0.00000000000E+00 -0.00000000000E+00 -0.11131632536E+03  0.11131632536E+03  0.00000000000E+00 0. -1.
         25    1    1    2    0    0 -0.35504422478E+02  0.11635818335E+03  0.11743225250E+03  0.21027392795E+03  0.12500000000E+03 0.  0.
         25    1    1    2    0    0 -0.70936891038E+02 -0.92123879554E+02  0.53416030274E+03  0.56077721130E+03  0.12500000000E+03 0.  0.
         25    1    1    2    0    0  0.10644131352E+03 -0.24234303798E+02  0.81886694996E+02  0.18506076170E+03  0.12500000000E+03 0.  0.
</event>
<event>
 5    0  0.5655767E-005  0.5846913E+03  0.7546771E-02  0.9937686E-01
         21   -1    0    0  502  501  0.00000000000E+00  0.00000000000E+00  0.18439180186E+04  0.18439180186E+04  0.00000000000E+00 0.  1.
         21   -1    0    0  501  502 -0.00000000000E+00 -0.00000000000E+00 -0.18540079598E+03  0.18540079598E+03  0.00000000000E+00 0.  1.
         25    1    1    2    0    0 -0.26162766965E+03  0.14125701239E+03  0.82898563200E+03  0.88951939784E+03  0.12500000000E+03 0.  0.
         25    1    1    2    0    0 -0.16277634542E+03 -0.25257500723E+03  0.34216367359E+03  0.47221949603E+03  0.12500000000E+03 0.  0.
         25    1    1    2    0    0  0.42440401507E+03  0.11131799484E+03  0.48736791701E+03  0.66757992069E+03  0.12500000000E+03 0.  0.
</event>
<event>
 5    0  0.5655767E-005  0.4129129E+03  0.7546771E-02  0.1039398E+00
         21   -1    0    0  502  501  0.00000000000E+00  0.00000000000E+00  0.12811978703E+03  0.12811978703E+03  0.00000000000E+00 0.  1.
         21   -1    0    0  501  502 -0.00000000000E+00 -0.00000000000E+00 -0.13307627969E+04  0.13307627969E+04  0.00000000000E+00 0.  1.
         25    1    1    2    0    0  0.22479007844E+03 -0.17481858641E+03 -0.52351054473E+03  0.60891740652E+03  0.12500000000E+03 0.  0.
         25    1    1    2    0    0 -0.26888532585E+03  0.22187037375E+03 -0.49983178898E+03  0.62207925418E+03  0.12500000000E+03 0.  0.
         25    1    1    2    0    0  0.44095247418E+02 -0.47051787343E+02 -0.17930067620E+03  0.22788592327E+03  0.12500000000E+03 0.  0.
</event>
<event>
 5    0  0.5655767E-005  0.2602135E+03  0.7546771E-02  0.1107015E+00
         21   -1    0    0  502  501  0.00000000000E+00  0.00000000000E+00  0.84000822467E+02  0.84000822467E+02  0.00000000000E+00 0.  1.
         21   -1    0    0  501  502 -0.00000000000E+00 -0.00000000000E+00 -0.80607598954E+03  0.80607598954E+03  0.00000000000E+00 0.  1.
         25    1    1    2    0    0  0.10323846761E+03 -0.18704071335E+02 -0.33002379373E+03  0.36816942827E+03  0.12500000000E+03 0.  0.
         25    1    1    2    0    0 -0.12683410789E+03 -0.49600549149E+01 -0.33720971764E+03  0.38137499491E+03  0.12500000000E+03 0.  0.
         25    1    1    2    0    0  0.23595640277E+02  0.23664126250E+02 -0.54841655694E+02  0.14053238883E+03  0.12500000000E+03 0.  0.
</event>
<event>
 5    0  0.5655767E-005  0.4185450E+03  0.7546771E-02  0.1037541E+00
         21   -1    0    0  502  501  0.00000000000E+00  0.00000000000E+00  0.25260284280E+03  0.25260284280E+03  0.00000000000E+00 0.  1.
         21   -1    0    0  501  502 -0.00000000000E+00 -0.00000000000E+00 -0.69349954358E+03  0.69349954358E+03  0.00000000000E+00 0.  1.
         25    1    1    2    0    0  0.13619847868E+03 -0.14418659370E+03 -0.32529889992E+03  0.40097901901E+03  0.12500000000E+03 0.  0.
         25    1    1    2    0    0 -0.33504196455E+02  0.28538922205E+03 -0.10366204296E+03  0.33006114342E+03  0.12500000000E+03 0.  0.
         25    1    1    2    0    0 -0.10269428223E+03 -0.14120262836E+03 -0.11935757904E+02  0.21506222396E+03  0.12500000000E+03 0.  0.
</event>
<event>
 5    0  0.5655767E-005  0.4341685E+03  0.7546771E-02  0.1032551E+00
         21   -1    0    0  502  501  0.00000000000E+00  0.00000000000E+00  0.73126292900E+03  0.73126292900E+03  0.00000000000E+00 0.  1.
         21   -1    0    0  501  502 -0.00000000000E+00 -0.00000000000E+00 -0.25777637042E+03  0.25777637042E+03  0.00000000000E+00 0.  1.
         25    1    1    2    0    0 -0.26905206945E+03  0.21815443707E+03  0.17057535920E+03  0.40583411347E+03  0.12500000000E+03 0.  0.
         25    1    1    2    0    0  0.14770467293E+02 -0.95186460111E+02  0.20596496313E+03  0.25947099054E+03  0.12500000000E+03 0.  0.
         25    1    1    2    0    0  0.25428160216E+03 -0.12296797696E+03  0.96946236258E+02  0.32373419541E+03  0.12500000000E+03 0.  0.
</event>
<event>
 5    0  0.5655767E-005  0.2465254E+03  0.7546771E-02  0.1115521E+00
         21   -1    0    0  502  501  0.00000000000E+00  0.00000000000E+00  0.85096816498E+02  0.85096816498E+02  0.00000000000E+00 0.  1.
         21   -1    0    0  501  502 -0.00000000000E+00 -0.00000000000E+00 -0.71418397743E+03  0.71418397743E+03  0.00000000000E+00 0.  1.
         25    1    1    2    0    0  0.14140477984E+03  0.38779017022E+02 -0.24905459233E+03  0.31488460407E+03  0.12500000000E+03 0.  0.
         25    1    1    2    0    0 -0.10904394827E+03 -0.53262499058E+01 -0.19082757636E+03  0.25290139480E+03  0.12500000000E+03 0.  0.
         25    1    1    2    0    0 -0.32360831567E+02 -0.33452767116E+02 -0.18920499224E+03  0.23149479505E+03  0.12500000000E+03 0.  0.
</event>
<event>
 5    0  0.5850048E-005  0.3470769E+03  0.7546771E-02  0.1063821E+00
         21   -1    0    0  502  501  0.00000000000E+00  0.00000000000E+00  0.48131403485E+03  0.48131403485E+03  0.00000000000E+00 0.  1.
         21   -1    0    0  501  502 -0.00000000000E+00 -0.00000000000E+00 -0.25027807434E+03  0.25027807434E+03  0.00000000000E+00 0.  1.
         25    1    1    2    0    0  0.17201169809E+03  0.11877332991E+03  0.11673698214E+03  0.27008822851E+03  0.12500000000E+03 0.  0.
         25    1    1    2    0    0 -0.58861758393E+02 -0.69447059796E+01 -0.97002715003E+02  0.16895994277E+03  0.12500000000E+03 0.  0.
         25    1    1    2    0    0 -0.11314993970E+03 -0.11182862393E+03  0.21130169338E+03  0.29254393791E+03  0.12500000000E+03 0.  0.
</event>
<event>
 5    0  0.5655767E-005  0.3986931E+03  0.7546771E-02  0.1044233E+00
         21   -1    0    0  502  501  0.00000000000E+00  0.00000000000E+00  0.36685060995E+03  0.36685060995E+03  0.00000000000E+00 0.  1.
         21   -1    0    0  501  502 -0.00000000000E+00 -0.00000000000E+00 -0.43329943075E+03  0.43329943075E+03  0.00000000000E+00 0.  1.
         25    1    1    2    0    0  0.50497042658E+02  0.20156084829E+03  0.68480757013E+02  0.25197488161E+03  0.12500000000E+03 0.  0.
         25    1    1    2    0    0  0.14481982975E+02 -0.31302442649E+03 -0.14726140397E+03  0.36810995709E+03  0.12500000000E+03 0.  0.
         25    1    1    2    0    0 -0.64979025634E+02  0.11146357819E+03  0.12331826157E+02  0.18006520200E+03  0.12500000000E+03 0.  0.
</event>
<event>
 5    0  0.5655767E-005  0.3254467E+03  0.7546771E-02  0.1073170E+00
         21   -1    0    0  502  501  0.00000000000E+00  0.00000000000E+00  0.52845373108E+03  0.52845373108E+03  0.00000000000E+00 0. -1.
         21   -1    0    0  501  502 -0.00000000000E+00 -0.00000000000E+00 -0.20042541928E+03  0.20042541928E+03  0.00000000000E+00 0. -1.
         25    1    1    2    0    0  0.24051756555E+02 -0.15223148537E+03 -0.17805348673E+02  0.19923589680E+03  0.12500000000E+03 0.  0.
         25    1    1    2    0    0 -0.10010980639E+03 -0.26609148391E+02  0.92869424366E+02  0.18702874136E+03  0.12500000000E+03 0.  0.
         25    1    1    2    0    0  0.76058049832E+02  0.17884063376E+03  0.25296423611E+03  0.34261451221E+03  0.12500000000E+03 0.  0.
</event>
<event>
 5    0  0.5655767E-005  0.2548227E+03  0.7546771E-02  0.1110294E+00
         21   -1    0    0  502  501  0.00000000000E+00  0.00000000000E+00  0.31089250937E+03  0.31089250937E+03  0.00000000000E+00 0.  1.
         21   -1    0    0  501  502 -0.00000000000E+00 -0.00000000000E+00 -0.20886514874E+03  0.20886514874E+03  0.00000000000E+00 0.  1.
         25    1    1    2    0    0  0.42054982268E+02  0.82588519856E+01 -0.77450963735E+02  0.15316814928E+03  0.12500000000E+03 0.  0.
         25    1    1    2    0    0  0.66848206070E+02  0.39359086258E+02  0.85686492728E+02  0.17024980282E+03  0.12500000000E+03 0.  0.
         25    1    1    2    0    0 -0.10890318834E+03 -0.47617938244E+02  0.93791831639E+02  0.19633970601E+03  0.12500000000E+03 0.  0.
</event>
<event>
 5    0  0.5655767E-005  0.3996178E+03  0.7546771E-02  0.1043912E+00
         21   -1    0    0  502  501  0.00000000000E+00  0.00000000000E+00  0.11513145498E+04  0.11513145498E+04  0.00000000000E+00 0. -1.
         21   -1    0    0  501  502 -0.00000000000E+00 -0.00000000000E+00 -0.13870612843E+03  0.13870612843E+03  0.00000000000E+00 0. -1.
         25    1    1    2    0    0 -0.11622866442E+03 -0.89689081406E+02  0.50897821805E+03  0.54427663941E+03  0.12500000000E+03 0.  0.
         25    1    1    2    0    0  0.17399964981E+01 -0.18698572532E+03  0.18924277213E+03  0.29394645068E+03  0.12500000000E+03 0.  0.
         25    1    1    2    0    0  0.11448866792E+03  0.27667480673E+03  0.31438743117E+03  0.45179758813E+03  0.12500000000E+03 0.  0.
</event>
<event>
 5    0  0.6020795E-005  0.3589982E+03  0.7546771E-02  0.1058981E+00
         21   -1    0    0  502  501  0.00000000000E+00  0.00000000000E+00  0.97629705420E+03  0.97629705420E+03  0.00000000000E+00 0.  1.
         21   -1    0    0  501  502 -0.00000000000E+00 -0.00000000000E+00 -0.13200866910E+03  0.13200866910E+03  0.00000000000E+00 0.  1.
         25    1    1    2    0    0  0.12433960846E+03 -0.27132113068E+02  0.59567114407E+02  0.18806842082E+03  0.12500000000E+03 0.  0.
         25    1    1    2    0    0  0.45647807363E+02  0.21919278518E+02  0.66302457698E+03  0.67660236976E+03  0.12500000000E+03 0.  0.
         25    1    1    2    0    0 -0.16998741582E+03  0.52128345497E+01  0.12169669371E+03  0.24363493272E+03  0.12500000000E+03 0.  0.
</event>
<event>
 5    0  0.5655767E-005  0.3408919E+03  0.7546771E-02  0.1066417E+00
         21   -1    0    0  502  501  0.00000000000E+00  0.00000000000E+00  0.94336024028E+03  0.94336024028E+03  0.00000000000E+00 0. -1.
         21   -1    0    0  501  502 -0.00000000000E+00 -0.00000000000E+00 -0.12318442850E+03  0.12318442850E+03  0.00000000000E+00 0. -1.
         25    1    1    2    0    0 -0.11816680917E+03  0.88957442952E+02  0.18984132243E+03  0.27118545158E+03  0.12500000000E+03 0.  0.
         25    1    1    2    0    0  0.18754810327E+03  0.50557117320E+02  0.15072771139E+03  0.27581543853E+03  0.12500000000E+03 0.  0.
         25    1    1    2    0    0 -0.69381294098E+02 -0.13951456027E+03  0.47960677795E+03  0.51954377867E+03  0.12500000000E+03 0.  0.
</event>
<event>
 5    0  0.5655767E-005  0.2146092E+03  0.7546771E-02  0.1137967E+00
         21   -1    0    0  502  501  0.00000000000E+00  0.00000000000E+00  0.38581792008E+03  0.38581792008E+03  0.00000000000E+00 0.  1.
         21   -1    0    0  501  502 -0.00000000000E+00 -0.00000000000E+00 -0.11937525230E+03  0.11937525230E+03  0.00000000000E+00 0.  1.
         25    1    1    2    0    0 -0.56956486953E+02  0.62844955313E+02  0.42445135778E+02  0.15690799650E+03  0.12500000000E+03 0.  0.
         25    1    1    2    0    0  0.46960323764E+02 -0.36837669809E+02  0.12142723830E+03  0.18420602630E+03  0.12500000000E+03 0.  0.
         25    1    1    2    0    0  0.99961631883E+01 -0.26007285504E+02  0.10257029371E+03  0.16407914959E+03  0.12500000000E+03 0.  0.
</event>
<event>
 5    0  0.5655767E-005  0.2007848E+03  0.7546771E-02  0.1149079E+00
         21   -1    0    0  502  501  0.00000000000E+00  0.00000000000E+00  0.12916402653E+03  0.12916402653E+03  0.00000000000E+00 0. -1.
         21   -1    0    0  501  502 -0.00000000000E+00 -0.00000000000E+00 -0.31211890538E+03  0.31211890538E+03  0.00000000000E+00 0. -1.
         25    1    1    2    0    0 -0.42957216976E+02  0.30552219278E+01 -0.17869437604E+02  0.13341279426E+03  0.12500000000E+03 0.  0.
         25    1    1    2    0    0  0.20798473474E+02  0.23439124227E+02 -0.66819556893E+02  0.14516136616E+03  0.12500000000E+03 0.  0.
         25    1    1    2    0    0  0.22158743502E+02 -0.26494346155E+02 -0.98265884355E+02  0.16270877149E+03  0.12500000000E+03 0.  0.
</event>
<event>
 5    0  0.5655767E-005  0.2543187E+03  0.7546771E-02  0.1110606E+00
         21   -1    0    0  502  501  0.00000000000E+00  0.00000000000E+00  0.18380615006E+03  0.18380615006E+03  0.00000000000E+00 0.  1.
         21   -1    0    0  501  502 -0.00000000000E+00 -0.00000000000E+00 -0.35188163551E+03  0.35188163551E+03  0.00000000000E+00 0.  1.
         25    1    1    2    0    0 -0.10910563996E+03 -0.55221444739E+02 -0.99992090867E+01  0.17515259865E+03  0.12500000000E+03 0.  0.
         25    1    1    2    0    0  0.89397023920E+02  0.24073524620E+02 -0.16908201758E+03  0.22975006234E+03  0.12500000000E+03 0.  0.
         25    1    1    2    0    0  0.19708616041E+02  0.31147920119E+02  0.11005741219E+02  0.13078512459E+03  0.12500000000E+03 0.  0.
</event>
<event>
 5    0  0.5655767E-005  0.2652907E+03  0.7546771E-02  0.1104005E+00
         21   -1    0    0  502  501  0.00000000000E+00  0.00000000000E+00  0.53378916720E+03  0.53378916720E+03  0.00000000000E+00 0. -1.
         21   -1    0    0  501  502 -0.00000000000E+00 -0.00000000000E+00 -0.13184826277E+03  0.13184826277E+03  0.00000000000E+00 0. -1.
         25    1    1    2    0    0 -0.11955963570E+03 -0.28821835009E+02  0.14256858345E+03  0.22600001250E+03  0.12500000000E+03 0.  0.
         25    1    1    2    0    0 -0.53235003888E+02  0.16250661757E+02  0.13606476080E+03  0.19296805118E+03  0.12500000000E+03 0.  0.
         25    1    1    2    0    0  0.17279463959E+03  0.12571173252E+02  0.12330756018E+03  0.24666936629E+03  0.12500000000E+03 0.  0.
</event>
<event>
 5    0  0.5655767E-005  0.2653323E+03  0.7546771E-02  0.1103981E+00
         21   -1    0    0  502  501  0.00000000000E+00  0.00000000000E+00  0.12318891789E+03  0.12318891789E+03  0.00000000000E+00 0.  1.
         21   -1    0    0  501  502 -0.00000000000E+00 -0.00000000000E+00 -0.57148979277E+03  0.57148979277E+03  0.00000000000E+00 0.  1.
         25    1    1    2    0    0  0.60675012168E+02 -0.17526663108E+01 -0.34897412631E+03  0.37562277590E+03  0.12500000000E+03 0.  0.
         25    1    1    2    0    0  0.26138210654E+01 -0.72385662325E+02 -0.41344725946E+02  0.15026943313E+03  0.12500000000E+03 0.  0.
         25    1    1    2    0    0 -0.63288833233E+02  0.74138328636E+02 -0.57982022632E+02  0.16878650163E+03  0.12500000000E+03 0.  0.
</event>
<event>
 5    0  0.7289548E-005  0.3936017E+03  0.7546771E-02  0.1046018E+00
         21   -1    0    0  502  501  0.00000000000E+00  0.00000000000E+00  0.66981723361E+03  0.66981723361E+03  0.00000000000E+00 0. -1.
         21   -1    0    0  501  502 -0.00000000000E+00 -0.00000000000E+00 -0.23129039272E+03  0.23129039272E+03  0.00000000000E+00 0. -1.
         25    1    1    2    0    0 -0.20296046338E+03 -0.13589270607E+03  0.17746005578E+03  0.32676726986E+03  0.12500000000E+03 0.  0.
         25    1    1    2    0    0  0.91624542478E+02 -0.11263935394E+03  0.18241324808E+03  0.26454162984E+03  0.12500000000E+03 0.  0.
         25    1    1    2    0    0  0.11133592090E+03  0.24853206001E+03  0.78653537029E+02  0.30979872663E+03  0.12500000000E+03 0.  0.
</event>
<event>
 5    0  0.5655767E-005  0.3815796E+03  0.7546771E-02  0.1050351E+00
         21   -1    0    0  502  501  0.00000000000E+00  0.00000000000E+00  0.36282516987E+03  0.36282516987E+03  0.00000000000E+00 0.  1.
         21   -1    0    0  501  502 -0.00000000000E+00 -0.00000000000E+00 -0.40130341445E+03  0.40130341445E+03  0.00000000000E+00 0.  1.
         25    1    1    2    0    0 -0.42532472320E+02 -0.33404582053E+02 -0.19940310511E+03  0.24147769179E+03  0.12500000000E+03 0.  0.
         25    1    1    2    0    0 -0.13033000089E+03  0.11331697564E+03  0.19906354394E+03  0.29168123119E+03  0.12500000000E+03 0.  0.
         25    1    1    2    0    0  0.17286247321E+03 -0.79912393588E+02 -0.38138683410E+02  0.23096966135E+03  0.12500000000E+03 0.  0.
</event>
<event>
 5    0  0.5655767E-005  0.3016405E+03  0.7546771E-02  0.1084423E+00
         21   -1    0    0  502  501  0.00000000000E+00  0.00000000000E+00  0.25422438945E+04  0.25422438945E+04  0.00000000000E+00 0.  1.
         21   -1    0    0  501  502 -0.00000000000E+00 -0.00000000000E+00 -0.35790021618E+02  0.35790021618E+02  0.00000000000E+00 0.  1.
         25    1    1    2    0    0 -0.99164078301E+02 -0.11409323842E+02  0.80757982973E+03  0.82327022810E+03  0.12500000000E+03 0.  0.
         25    1    1    2    0    0  0.68111347501E+02 -0.14734126477E+03  0.11691000281E+04  0.11869155318E+04  0.12500000000E+03 0.  0.
         25    1    1    2    0    0  0.31052730799E+02  0.15875058861E+03  0.52977401505E+03  0.56784815620E+03  0.12500000000E+03 0.  0.
</event>
<event>
 5    0  0.5655767E-005  0.2946036E+03  0.7546771E-02  0.1087970E+00
         21   -1    0    0  502  501  0.00000000000E+00  0.00000000000E+00  0.52814843143E+03  0.52814843143E+03  0.00000000000E+00 0.  1.
         21   -1    0    0  501  502 -0.00000000000E+00 -0.00000000000E+00 -0.16433119153E+03  0.16433119153E+03  0.00000000000E+00 0.  1.
         25    1    1    2    0    0 -0.66878955184E+02 -0.79299108540E+01 -0.55498904058E+02  0.15244935711E+03  0.12500000000E+03 0.  0.
         25    1    1    2    0    0 -0.63570738164E+02 -0.40296822978E+02  0.12931906123E+03  0.19497049082E+03  0.12500000000E+03 0.  0.
         25    1    1    2    0    0  0.13044969335E+03  0.48226733832E+02  0.28999708273E+03  0.34505977503E+03  0.12500000000E+03 0.  0.
</event>
<event>
 5    0  0.5655767E-005  0.3180637E+03  0.7546771E-02  0.1076544E+00
         21   -1    0    0  502  501  0.00000000000E+00  0.00000000000E+00  0.22670209923E+03  0.22670209923E+03  0.00000000000E+00 0.  1.
         21   -1    0    0  501  502 -0.00000000000E+00 -0.00000000000E+00 -0.44624426917E+03  0.44624426917E+03  0.00000000000E+00 0.  1.
         25    1    1    2    0    0 -0.30784008385E+02  0.48713814975E+02 -0.15917766592E+03  0.21043578657E+03  0.12500000000E+03 0.  0.
         25    1    1    2    0    0  0.63204747612E+02  0.83389361302E+02  0.12147285446E+03  0.20329604047E+03  0.12500000000E+03 0.  0.
         25    1    1    2    0    0 -0.32420739227E+02 -0.13210317628E+03 -0.18183735847E+03  0.25921454136E+03  0.12500000000E+03 0.  0.
</event>
<event>
 5    0  0.5655767E-005  0.2279553E+03  0.7546771E-02  0.1128087E+00
         21   -1    0    0  502  501  0.00000000000E+00  0.00000000000E+00  0.66834205092E+03  0.66834205092E+03  0.00000000000E+00 0. -1.
         21   -1    0    0  501  502 -0.00000000000E+00 -0.00000000000E+00 -0.77750022581E+02  0.77750022581E+02  0.00000000000E+00 0. -1.
         25    1    1    2    0    0  0.64654202969E+02 -0.31300531006E+02  0.10717672693E+03  0.17964336892E+03  0.12500000000E+03 0.  0.
         25    1    1    2    0    0 -0.57807953322E+02  0.78183663949E+02  0.30319443222E+03  0.34206184895E+03  0.12500000000E+03 0.  0.
         25    1    1    2    0    0 -0.68462496464E+01 -0.46883132943E+02  0.18022086920E+03  0.22438685564E+03  0.12500000000E+03 0.  0.
</event>
<event>
 5    0  0.5655767E-005  0.2749264E+03  0.7546771E-02  0.1098493E+00
         21   -1    0    0  502  501  0.00000000000E+00  0.00000000000E+00  0.10197468638E+04  0.10197468638E+04  0.00000000000E+00 0.  1.
         21   -1    0    0  501  502 -0.00000000000E+00 -0.00000000000E+00 -0.74120856525E+02  0.74120856525E+02  0.00000000000E+00 0.  1.
         25    1    1    2    0    0  0.13246885703E+03  0.12966141879E+02  0.26484571082E+03  0.32168986533E+03  0.12500000000E+03 0.  0.
         25    1    1    2    0    0 -0.16285225278E+03 -0.14364845921E+01  0.55558600944E+03  0.59230375113E+03  0.12500000000E+03 0.  0.
         25    1    1    2    0    0  0.30383395752E+02 -0.11529657287E+02  0.12519428699E+03  0.17987410383E+03  0.12500000000E+03 0.  0.
</event>
<event>
 5    0  0.5655767E-005  0.3058898E+03  0.7546771E-02  0.1082333E+00
         21   -1    0    0  502  501  0.00000000000E+00  0.00000000000E+00  0.28136904953E+03  0.28136904953E+03  0.00000000000E+00 0.  1.
         21   -1    0    0  501  502 -0.00000000000E+00 -0.00000000000E+00 -0.33254745171E+03  0.33254745171E+03  0.00000000000E+00 0.  1.
         25    1    1    2    0    0 -0.13135744369E+03 -0.44396374063E+02  0.11389522415E+03  0.21868456308E+03  0.12500000000E+03 0.  0.
         25    1    1    2    0    0  0.82685975831E+02 -0.26644449055E+02  0.22561911130E+02  0.15388611730E+03  0.12500000000E+03 0.  0.
         25    1    1    2    0    0  0.48671467861E+02  0.71040823118E+02 -0.18763553745E+03  0.24134582086E+03  0.12500000000E+03 0.  0.
</event>
<event>
 5    0  0.5655767E-005  0.2262595E+03  0.7546771E-02  0.1129301E+00
         21   -1    0    0  502  501  0.00000000000E+00  0.00000000000E+00  0.17730807094E+03  0.17730807094E+03  0.00000000000E+00 0. -1.
         21   -1    0    0  501  502 -0.00000000000E+00 -0.00000000000E+00 -0.28872541697E+03  0.28872541697E+03  0.00000000000E+00 0. -1.
         25    1    1    2    0    0 -0.31914311536E+02 -0.37278473580E+02 -0.25773061472E+02  0.13673865061E+03  0.12500000000E+03 0.  0.
         25    1    1    2    0    0 -0.79504846359E+02  0.21797742519E+02 -0.37088505853E+02  0.15426185348E+03  0.12500000000E+03 0.  0.
         25    1    1    2    0    0  0.11141915790E+03  0.15480731062E+02 -0.48555778702E+02  0.17503298382E+03  0.12500000000E+03 0.  0.
</event>
<event>
 5    0  0.5655767E-005  0.2701949E+03  0.7546771E-02  0.1101168E+00
         21   -1    0    0  502  501  0.00000000000E+00  0.00000000000E+00  0.73854220092E+02  0.73854220092E+02  0.00000000000E+00 0.  1.
         21   -1    0    0  501  502 -0.00000000000E+00 -0.00000000000E+00 -0.98850506800E+03  0.98850506800E+03  0.00000000000E+00 0.  1.
         25    1    1    2    0    0 -0.11710537312E+02 -0.15628757817E+03 -0.25993491545E+03  0.32825920253E+03  0.12500000000E+03 0.  0.
         25    1    1    2    0    0 -0.58369129706E+01  0.15693881905E+03 -0.33727882753E+03  0.39248677682E+03  0.12500000000E+03 0.  0.
         25    1    1    2    0    0  0.17547450283E+02 -0.65124088513E+00 -0.31743710492E+03  0.34161330873E+03  0.12500000000E+03 0.  0.
</event>
<event>
 5    0  0.5655767E-005  0.3043754E+03  0.7546771E-02  0.1083074E+00
         21   -1    0    0  502  501  0.00000000000E+00  0.00000000000E+00  0.46125785007E+02  0.46125785007E+02  0.00000000000E+00 0. -1.
         21   -1    0    0  501  502 -0.00000000000E+00 -0.00000000000E+00 -0.20085167175E+04  0.20085167175E+04  0.00000000000E+00 0. -1.
         25    1    1    2    0    0 -0.51884938045E+02  0.74006112434E+02 -0.20403351540E+03  0.25578042708E+03  0.12500000000E+03 0.  0.
         25    1    1    2    0    0 -0.48344669420E+02  0.80470689527E+02 -0.67244928438E+03  0.69038089414E+03  0.12500000000E+03 0.  0.
         25    1    1    2    0    0  0.10022960746E+03 -0.15447680196E+03 -0.10859081327E+04  0.11084811812E+04  0.12500000000E+03 0.  0.
</event>
<event>
 5    0  0.5655767E-005  0.4110226E+03  0.7546771E-02  0.1040028E+00
         21   -1    0    0  502  501  0.00000000000E+00  0.00000000000E+00  0.54372845231E+03  0.54372845231E+03  0.00000000000E+00 0.  1.
         21   -1    0    0  501  502 -0.00000000000E+00 -0.00000000000E+00 -0.31070583121E+03  0.31070583121E+03  0.00000000000E+00 0.  1.
         25    1    1    2    0    0 -0.76771410790E+02 -0.28912654116E+03 -0.13970541027E+02  0.32451222216E+03  0.12500000000E+03 0.  0.
         25    1    1    2    0    0  0.91211277343E+01  0.35958305201E+02 -0.24216240172E+02  0.13261832819E+03  0.12500000000E+03 0.  0.
         25    1    1    2    0    0  0.67650283056E+02  0.25316823596E+03  0.27120940230E+03  0.39730373317E+03  0.12500000000E+03 0.  0.
</event>
<event>
 5    0  0.5655767E-005  0.2911620E+03  0.7546771E-02  0.1089744E+00
         21   -1    0    0  502  501  0.00000000000E+00  0.00000000000E+00  0.66155555760E+02  0.66155555760E+02  0.00000000000E+00 0. -1.
         21   -1    0    0  501  502 -0.00000000000E+00 -0.00000000000E+00 -0.12814542961E+04  0.12814542961E+04  0.00000000000E+00 0. -1.
         25    1    1    2    0    0  0.54683847931E+02 -0.30772436198E+02 -0.10898156891E+03  0.17731116269E+03  0.12500000000E+03 0.  0.
         25    1    1    2    0    0  0.11145076088E+03 -0.32221737177E+01 -0.41276340413E+03  0.44545514061E+03  0.12500000000E+03 0.  0.
         25    1    1    2    0    0 -0.16613460881E+03  0.33994609916E+02 -0.69355376729E+03  0.72484354855E+03  0.12500000000E+03 0.  0.
</event>
<event>
 5    0  0.5655767E-005  0.4078604E+03  0.7546771E-02  0.1041091E+00
         21   -1    0    0  502  501  0.00000000000E+00  0.00000000000E+00  0.25151874439E+04  0.25151874439E+04  0.00000000000E+00 0. -1.
         21   -1    0    0  501  502 -0.00000000000E+00 -0.00000000000E+00 -0.66138244188E+02  0.66138244188E+02  0.00000000000E+00 0. -1.
         25    1    1    2    0    0  0.24769066396E+03  0.13473338294E+03  0.81886339808E+03  0.87502343638E+03  0.12500000000E+03 0.  0.
         25    1    1    2    0    0 -0.96795246173E+02 -0.15053304142E+02  0.18865277589E+03  0.24659844180E+03  0.12500000000E+03 0.  0.
         25    1    1    2    0    0 -0.15089541779E+03 -0.11968007880E+03  0.14415330258E+04  0.14597038100E+04  0.12500000000E+03 0.  0.
</event>
<event>
 5    0  0.5655767E-005  0.3136184E+03  0.7546771E-02  0.1078624E+00
         21   -1    0    0  502  501  0.00000000000E+00  0.00000000000E+00  0.72344024556E+03  0.72344024556E+03  0.00000000000E+00 0.  1.
         21   -1    0    0  501  502 -0.00000000000E+00 -0.00000000000E+00 -0.13595667682E+03  0.13595667682E+03  0.00000000000E+00 0.  1.
         25    1    1    2    0    0  0.69661543283E+02  0.19516984436E+03  0.18949494367E+03  0.30737165197E+03  0.12500000000E+03 0.  0.
         25    1    1    2    0    0 -0.88099767917E+01 -0.18978091115E+03  0.31984088772E+03  0.39245076555E+03  0.12500000000E+03 0.  0.
         25    1    1    2    0    0 -0.60851566491E+02 -0.53889332157E+01  0.78147737357E+02  0.15957450485E+03  0.12500000000E+03 0.  0.
</event>
<event>
 5    0  0.5655767E-005  0.4619399E+03  0.7546771E-02  0.1024220E+00
         21   -1    0    0  502  501  0.00000000000E+00  0.00000000000E+00  0.31577759427E+03  0.31577759427E+03  0.00000000000E+00 0.  1.
         21   -1    0    0  501  502 -0.00000000000E+00 -0.00000000000E+00 -0.67575572097E+03  0.67575572097E+03  0.00000000000E+00 0.  1.
         25    1    1    2    0    0  0.18341964045E+03 -0.32115019357E+03 -0.19610936821E+03  0.43687995563E+03  0.12500000000E+03 0.  0.
         25    1    1    2    0    0 -0.42707854202E+02  0.31300916636E+03 -0.83601022387E+02  0.34987544924E+03  0.12500000000E+03 0.  0.
         25    1    1    2    0    0 -0.14071178625E+03  0.81410272136E+01 -0.80267736110E+02  0.20477791037E+03  0.12500000000E+03 0.  0.
</event>
<event>
 5    0  0.5655767E-005  0.3157446E+03  0.7546771E-02  0.1077625E+00
         21   -1    0    0  502  501  0.00000000000E+00  0.00000000000E+00  0.21522910724E+03  0.21522910724E+03  0.00000000000E+00 0.  1.
         21   -1    0    0  501  502 -0.00000000000E+00 -0.00000000000E+00 -0.46320243194E+03  0.46320243194E+03  0.00000000000E+00 0.  1.
         25    1    1    2    0    0 -0.10507667039E+03 -0.30454814277E+02 -0.21968514070E+03  0.27541816102E+03  0.12500000000E+03 0.  0.
         25    1    1    2    0    0 -0.45612446624E+02  0.89105577183E+02  0.71728005039E+02  0.17547138194E+03  0.12500000000E+03 0.  0.
         25    1    1    2    0    0  0.15068911701E+03 -0.58650762906E+02 -0.10001618904E+03  0.22754199622E+03  0.12500000000E+03 0.  0.
</event>
<event>
 5    0  0.5655767E-005  0.3506854E+03  0.7546771E-02  0.1062334E+00
         21   -1    0    0  502  501  0.00000000000E+00  0.00000000000E+00  0.30937674133E+03  0.30937674133E+03  0.00000000000E+00 0. -1.
         21   -1    0    0  501  502 -0.00000000000E+00 -0.00000000000E+00 -0.39750962650E+03  0.39750962650E+03  0.00000000000E+00 0. -1.
         25    1    1    2    0    0  0.13977575293E+03  0.18484727108E+03 -0.65457824646E+02  0.27132176754E+03  0.12500000000E+03 0.  0.
         25    1    1    2    0    0 -0.15936720523E+03 -0.21936838499E+03 -0.46786689829E+02  0.30221579836E+03  0.12500000000E+03 0.  0.
         25    1    1    2    0    0  0.19591452296E+02  0.34521113907E+02  0.24111629305E+02  0.13334880193E+03  0.12500000000E+03 0.  0.
</event>
<event>
 5    0  0.5655767E-005  0.2381397E+03  0.7546771E-02  0.1121038E+00
         21   -1    0    0  502  501  0.00000000000E+00  0.00000000000E+00  0.80454652026E+02  0.80454652026E+02  0.00000000000E+00 0.  1.
         21   -1    0    0  501  502 -0.00000000000E+00 -0.00000000000E+00 -0.70487555267E+03  0.70487555267E+03  0.00000000000E+00 0.  1.
         25    1    1    2    0    0  0.48068992012E+02 -0.31631648624E+02 -0.29379808590E+03  0.32442796498E+03  0.12500000000E+03 0.  0.
         25    1    1    2    0    0 -0.86399075092E+02 -0.18001564013E+02 -0.77045856644E+02  0.17131818499E+03  0.12500000000E+03 0.  0.
         25    1    1    2    0    0  0.38330083080E+02  0.49633212637E+02 -0.25357695810E+03  0.28958405472E+03  0.12500000000E+03 0.  0.
</event>
<event>
 5    0  0.5655767E-005  0.2658192E+03  0.7546771E-02  0.1103696E+00
         21   -1    0    0  502  501  0.00000000000E+00  0.00000000000E+00  0.10261116185E+04  0.10261116185E+04  0.00000000000E+00 0.  1.
         21   -1    0    0  501  502 -0.00000000000E+00 -0.00000000000E+00 -0.68861778602E+02  0.68861778602E+02  0.00000000000E+00 0.  1.
         25    1    1    2    0    0  0.76510720938E+02  0.86231424985E+02  0.24380991704E+03  0.29725077750E+03  0.12500000000E+03 0.  0.
         25    1    1    2    0    0  0.67833219063E+02 -0.85214131189E+02  0.32046342852E+03  0.36081103473E+03  0.12500000000E+03 0.  0.
         25    1    1    2    0    0 -0.14434394000E+03 -0.10172937965E+01  0.39297649434E+03  0.43691158489E+03  0.12500000000E+03 0.  0.
</event>
<event>
 5    0  0.5655767E-005  0.3160759E+03  0.7546771E-02  0.1077470E+00
         21   -1    0    0  502  501  0.00000000000E+00  0.00000000000E+00  0.10002901335E+04  0.10002901335E+04  0.00000000000E+00 0.  1.
         21   -1    0    0  501  502 -0.00000000000E+00 -0.00000000000E+00 -0.99874991590E+02  0.99874991590E+02  0.00000000000E+00 0.  1.
         25    1    1    2    0    0 -0.40720140877E+02 -0.11179110915E+03  0.26492627109E+03  0.31617449466E+03  0.12500000000E+03 0.  0.
         25    1    1    2    0    0  0.26302040521E+02  0.23875590375E+03  0.30201149139E+03  0.40562559072E+03  0.12500000000E+03 0.  0.
         25    1    1    2    0    0  0.14418100356E+02 -0.12696479460E+03  0.33347737943E+03  0.37836503971E+03  0.12500000000E+03 0.  0.
</event>
<event>
 5    0  0.5655767E-005  0.3212296E+03  0.7546771E-02  0.1075085E+00
         21   -1    0    0  502  501  0.00000000000E+00  0.00000000000E+00  0.45430116046E+03  0.45430116046E+03  0.00000000000E+00 0. -1.
         21   -1    0    0  501  502 -0.00000000000E+00 -0.00000000000E+00 -0.22713665419E+03  0.22713665419E+03  0.00000000000E+00 0. -1.
         25    1    1    2    0    0  0.43601170563E+02  0.13206302874E+03  0.30864078884E+03  0.36086817838E+03  0.12500000000E+03 0.  0.
         25    1    1    2    0    0  0.22544406779E+02 -0.18874317774E+02 -0.24937498169E+02  0.13081043140E+03  0.12500000000E+03 0.  0.
         25    1    1    2    0    0 -0.66145577343E+02 -0.11318871097E+03 -0.56538784402E+02  0.18975920487E+03  0.12500000000E+03 0.  0.
</event>
<event>
 5    0  0.5655767E-005  0.2912915E+03  0.7546771E-02  0.1089677E+00
         21   -1    0    0  502  501  0.00000000000E+00  0.00000000000E+00  0.71738316056E+03  0.71738316056E+03  0.00000000000E+00 0.  1.
         21   -1    0    0  501  502 -0.00000000000E+00 -0.00000000000E+00 -0.11827811535E+03  0.11827811535E+03  0.00000000000E+00 0.  1.
         25    1    1    2    0    0  0.66972306425E+02 -0.17745973003E+03  0.22359394532E+03  0.31874205558E+03  0.12500000000E+03 0.  0.
         25    1    1    2    0    0 -0.91030131578E+01  0.72169452376E+02  0.28897477913E+03  0.32314504124E+03  0.12500000000E+03 0.  0.
         25    1    1    2    0    0 -0.57869293268E+02  0.10529027766E+03  0.86536320753E+02  0.19377417909E+03  0.12500000000E+03 0.  0.
</event>
<event>
 5    0  0.5655767E-005  0.2860323E+03  0.7546771E-02  0.1092439E+00
         21   -1    0    0  502  501  0.00000000000E+00  0.00000000000E+00  0.64261098329E+03  0.64261098329E+03  0.00000000000E+00 0.  1.
         21   -1    0    0  501  502 -0.00000000000E+00 -0.00000000000E+00 -0.12731574718E+03  0.12731574718E+03  0.00000000000E+00 0.  1.
         25    1    1    2    0    0  0.10797021509E+03  0.15711641786E+03  0.32125868663E+03  0.39392293643E+03  0.12500000000E+03 0.  0.
         25    1    1    2    0    0 -0.33748235359E+02 -0.45649859051E+02  0.64782650189E+02  0.15180462703E+03  0.12500000000E+03 0.  0.
         25    1    1    2    0    0 -0.74221979730E+02 -0.11146655881E+03  0.12925389929E+03  0.22419916701E+03  0.12500000000E+03 0.  0.
</event>
<event>
 5    0  0.5655767E-005  0.4128330E+03  0.7546771E-02  0.1039424E+00
         21   -1    0    0  502  501  0.00000000000E+00  0.00000000000E+00  0.86918803601E+03  0.86918803601E+03  0.00000000000E+00 0. -1.
         21   -1    0    0  501  502 -0.00000000000E+00 -0.00000000000E+00 -0.19608077405E+03  0.19608077405E+03  0.00000000000E+00 0. -1.
         25    1    1    2    0    0 -0.23655092852E+03  0.50885681361E+01  0.56064051823E+03  0.62122864228E+03  0.12500000000E+03 0.  0.
         25    1    1    2    0    0  0.22594506319E+03  0.52521964440E+02  0.14700909860E+03  0.30173896567E+03  0.12500000000E+03 0.  0.
         25    1    1    2    0    0  0.10605865330E+02 -0.57610532576E+02 -0.34542354876E+02  0.14230120212E+03  0.12500000000E+03 0.  0.
</event>
<event>
 5    0  0.5655767E-005  0.3900047E+03  0.7546771E-02  0.1047297E+00
         21   -1    0    0  502  501  0.00000000000E+00  0.00000000000E+00  0.76818406660E+03  0.76818406660E+03  0.00000000000E+00 0.  1.
         21   -1    0    0  501  502 -0.00000000000E+00 -0.00000000000E+00 -0.19800418002E+03  0.19800418002E+03  0.00000000000E+00 0.  1.
         25    1    1    2    0    0 -0.28244012044E+03  0.71030982248E+02  0.27642302134E+03  0.42053835592E+03  0.12500000000E+03 0.  0.
         25    1    1    2    0    0 -0.18544427887E+01  0.36054100461E+02  0.65809848954E+02  0.14580560119E+03  0.12500000000E+03 0.  0.
         25    1    1    2    0    0  0.28429456323E+03 -0.10708508271E+03  0.22794701629E+03  0.39984428951E+03  0.12500000000E+03 0.  0.
</event>
<event>
 5    0  0.5655767E-005  0.3173087E+03  0.7546771E-02  0.1076895E+00
         21   -1    0    0  502  501  0.00000000000E+00  0.00000000000E+00  0.28011550501E+03  0.28011550501E+03  0.00000000000E+00 0.  1.
         21   -1    0    0  501  502 -0.00000000000E+00 -0.00000000000E+00 -0.35944044012E+03  0.35944044012E+03  0.00000000000E+00 0.  1.
         25    1    1    2    0    0  0.94481770771E+02 -0.11949040295E+03  0.72493086026E+02  0.20996430393E+03  0.12500000000E+03 0.  0.
         25    1    1    2    0    0 -0.59322507180E+02  0.32039370156E+02  0.69805079577E+02  0.15825116187E+03  0.12500000000E+03 0.  0.
         25    1    1    2    0    0 -0.35159263592E+02  0.87451032790E+02 -0.22162310071E+03  0.27134047932E+03  0.12500000000E+03 0.  0.
</event>
<event>
 5    0  0.5655767E-005  0.2955824E+03  0.7546771E-02  0.1087470E+00
         21   -1    0    0  502  501  0.00000000000E+00  0.00000000000E+00  0.30754723673E+03  0.30754723673E+03  0.00000000000E+00 0.  1.
         21   -1    0    0  501  502 -0.00000000000E+00 -0.00000000000E+00 -0.28408297450E+03  0.28408297450E+03  0.00000000000E+00 0.  1.
         25    1    1    2    0    0  0.89913426771E+02  0.44203625349E+02  0.12079261163E+03  0.20063459281E+03  0.12500000000E+03 0.  0.
         25    1    1    2    0    0  0.11018155418E+02  0.59020280469E+02  0.52492526514E+02  0.14827426815E+03  0.12500000000E+03 0.  0.
         25    1    1    2    0    0 -0.10093158219E+03 -0.10322390582E+03 -0.14982087591E+03  0.24272135027E+03  0.12500000000E+03 0.  0.
</event>
<event>
 5    0  0.5655767E-005  0.2399765E+03  0.7546771E-02  0.1119808E+00
         21   -1    0    0  502  501  0.00000000000E+00  0.00000000000E+00  0.38906896054E+02  0.38906896054E+02  0.00000000000E+00 0.  1.
         21   -1    0    0  501  502 -0.00000000000E+00 -0.00000000000E+00 -0.14801679407E+04  0.14801679407E+04  0.00000000000E+00 0.  1.
         25    1    1    2    0    0 -0.42991907644E+02 -0.63360780901E+02 -0.76980260389E+03  0.78363508194E+03  0.12500000000E+03 0.  0.
         25    1    1    2    0    0 -0.51538193982E+01 -0.18866107887E+02 -0.18426221989E+03  0.22351746590E+03  0.12500000000E+03 0.  0.
         25    1    1    2    0    0  0.48145727042E+02  0.82226888788E+02 -0.48719622083E+03  0.51192228889E+03  0.12500000000E+03 0.  0.
</event>
<event>
 5    0  0.5655767E-005  0.2314641E+03  0.7546771E-02  0.1125614E+00
         21   -1    0    0  502  501  0.00000000000E+00  0.00000000000E+00  0.34273748847E+03  0.34273748847E+03  0.00000000000E+00 0.  1.
         21   -1    0    0  501  502 -0.00000000000E+00 -0.00000000000E+00 -0.15631675774E+03  0.15631675774E+03  0.00000000000E+00 0.  1.
         25    1    1    2    0    0  0.26051944241E+02 -0.62044891474E+02  0.10406916310E+03  0.17602176873E+03  0.12500000000E+03 0.  0.
         25    1    1    2    0    0  0.29600283044E+02  0.17448490001E+02  0.11741934573E+03  0.17490834546E+03  0.12500000000E+03 0.  0.
         25    1    1    2    0    0 -0.55652227285E+02  0.44596401474E+02 -0.35067778099E+02  0.14812413202E+03  0.12500000000E+03 0.  0.
</event>
<event>
 5    0  0.5655767E-005  0.2893578E+03  0.7546771E-02  0.1090685E+00
         21   -1    0    0  502  501  0.00000000000E+00  0.00000000000E+00  0.16690281491E+03  0.16690281491E+03  0.00000000000E+00 0.  1.
         21   -1    0    0  501  502 -0.00000000000E+00 -0.00000000000E+00 -0.50165669193E+03  0.50165669193E+03  0.00000000000E+00 0.  1.
         25    1    1    2    0    0 -0.15046825990E+02 -0.15115481806E+03 -0.88037750621E+02  0.21552222978E+03  0.12500000000E+03 0.  0.
         25    1    1    2    0    0  0.11426827379E+03  0.33266026230E+02 -0.16395790478E+03  0.23805684496E+03  0.12500000000E+03 0.  0.
         25    1    1    2    0    0 -0.99221447797E+02  0.11788879182E+03 -0.82758221615E+02  0.21498043210E+03  0.12500000000E+03 0.  0.
</event>
<event>
 5    0  0.5655767E-005  0.5617342E+03  0.7546771E-02  0.9988138E-01
         21   -1    0    0  502  501  0.00000000000E+00  0.00000000000E+00  0.75816017705E+03  0.75816017705E+03  0.00000000000E+00 0. -1.
         21   -1    0    0  501  502 -0.00000000000E+00 -0.00000000000E+00 -0.41619869501E+03  0.41619869501E+03  0.00000000000E+00 0. -1.
         25    1    1    2    0    0 -0.17711284769E+03  0.44547182963E+02  0.71735218050E+00  0.22131183186E+03  0.12500000000E+03 0.  0.
         25    1    1    2    0    0  0.41539044860E+03  0.25496858103E+02  0.47562087798E+03  0.64423562004E+03  0.12500000000E+03 0.  0.
         25    1    1    2    0    0 -0.23827760091E+03 -0.70044041066E+02 -0.13437674812E+03  0.30881142015E+03  0.12500000000E+03 0.  0.
</event>
<event>
 5    0  0.5655767E-005  0.2530824E+03  0.7546771E-02  0.1111372E+00
         21   -1    0    0  502  501  0.00000000000E+00  0.00000000000E+00  0.40130602556E+03  0.40130602556E+03  0.00000000000E+00 0. -1.
         21   -1    0    0  501  502 -0.00000000000E+00 -0.00000000000E+00 -0.15960564410E+03  0.15960564410E+03  0.00000000000E+00 0. -1.
         25    1    1    2    0    0  0.46736273504E+02  0.91966553787E+02  0.17488459327E+03  0.23843604434E+03  0.12500000000E+03 0.  0.
         25    1    1    2    0    0 -0.88971659986E+01 -0.12872020070E+03  0.43082099383E+02  0.18474067478E+03  0.12500000000E+03 0.  0.
         25    1    1    2    0    0 -0.37839107505E+02  0.36753646910E+02  0.23733688806E+02  0.13773495055E+03  0.12500000000E+03 0.  0.
</event>
<event>
 5    0  0.5655767E-005  0.2712375E+03  0.7546771E-02  0.1100573E+00
         21   -1    0    0  502  501  0.00000000000E+00  0.00000000000E+00  0.62722386039E+03  0.62722386039E+03  0.00000000000E+00 0.  1.
         21   -1    0    0  501  502 -0.00000000000E+00 -0.00000000000E+00 -0.11729426057E+03  0.11729426057E+03  0.00000000000E+00 0.  1.
         25    1    1    2    0    0 -0.10931337497E+03 -0.44130517805E+02  0.13816364032E+03  0.22047926899E+03  0.12500000000E+03 0.  0.
         25    1    1    2    0    0  0.59022091263E+02  0.10386098716E+03  0.66860501198E+02  0.18538079332E+03  0.12500000000E+03 0.  0.
         25    1    1    2    0    0  0.50291283705E+02 -0.59730469351E+02  0.30490545830E+03  0.33865805865E+03  0.12500000000E+03 0.  0.
</event>
<event>
 5    0  0.5655767E-005  0.2973503E+03  0.7546771E-02  0.1086573E+00
         21   -1    0    0  502  501  0.00000000000E+00  0.00000000000E+00  0.58301404895E+03  0.58301404895E+03  0.00000000000E+00 0. -1.
         21   -1    0    0  501  502 -0.00000000000E+00 -0.00000000000E+00 -0.15165540164E+03  0.15165540164E+03  0.00000000000E+00 0. -1.
         25    1    1    2    0    0  0.95055086172E+02  0.38078728881E+02  0.13756923569E+03  0.21221628968E+03  0.12500000000E+03 0.  0.
         25    1    1    2    0    0 -0.17653539190E+03  0.78871218858E+02  0.98954800473E+02  0.25060420247E+03  0.12500000000E+03 0.  0.
         25    1    1    2    0    0  0.81480305729E+02 -0.11694994774E+03  0.19483461116E+03  0.27184895844E+03  0.12500000000E+03 0.  0.
</event>
<event>
 5    0  0.5655767E-005  0.2168015E+03  0.7546771E-02  0.1136290E+00
         21   -1    0    0  502  501  0.00000000000E+00  0.00000000000E+00  0.25318374626E+03  0.25318374626E+03  0.00000000000E+00 0. -1.
         21   -1    0    0  501  502 -0.00000000000E+00 -0.00000000000E+00 -0.18564726258E+03  0.18564726258E+03  0.00000000000E+00 0. -1.
         25    1    1    2    0    0  0.60201377404E+02 -0.16382945723E+02  0.88462941177E+01  0.13998522662E+03  0.12500000000E+03 0.  0.
         25    1    1    2    0    0  0.21760390240E+02  0.28987793176E+02 -0.16255085823E+02  0.13116033910E+03  0.12500000000E+03 0.  0.
         25    1    1    2    0    0 -0.81961767644E+02 -0.12604847453E+02  0.74945275388E+02  0.16768544313E+03  0.12500000000E+03 0.  0.
</event>
<event>
 5    0  0.5655767E-005  0.7433946E+03  0.7546771E-02  0.9645770E-01
         21   -1    0    0  502  501  0.00000000000E+00  0.00000000000E+00  0.75522872961E+03  0.75522872961E+03  0.00000000000E+00 0. -1.
         21   -1    0    0  501  502 -0.00000000000E+00 -0.00000000000E+00 -0.73174597622E+03  0.73174597622E+03  0.00000000000E+00 0. -1.
         25    1    1    2    0    0  0.27484001405E+03 -0.51703646803E+03  0.20555715261E+03  0.63304224629E+03  0.12500000000E+03 0.  0.
         25    1    1    2    0    0  0.22612633962E+02 -0.47398057405E+02 -0.15115273392E+03  0.20305185552E+03  0.12500000000E+03 0.  0.
         25    1    1    2    0    0 -0.29745264801E+03  0.56443452543E+03 -0.30921665300E+02  0.65088060402E+03  0.12500000000E+03 0.  0.
</event>
<event>
 5    0  0.6150058E-005  0.3360079E+03  0.7546771E-02  0.1068509E+00
         21   -1    0    0  502  501  0.00000000000E+00  0.00000000000E+00  0.70628740527E+03  0.70628740527E+03  0.00000000000E+00 0. -1.
         21   -1    0    0  501  502 -0.00000000000E+00 -0.00000000000E+00 -0.15985183910E+03  0.15985183910E+03  0.00000000000E+00 0. -1.
         25    1    1    2    0    0  0.10202745512E+03 -0.74546522392E+02  0.48942605753E+02  0.18435608007E+03  0.12500000000E+03 0.  0.
         25    1    1    2    0    0 -0.17832892376E+02 -0.14959761324E+03  0.19656692925E+03  0.27741848463E+03  0.12500000000E+03 0.  0.
         25    1    1    2    0    0 -0.84194562748E+02  0.22414413563E+03  0.30092603117E+03  0.40436467968E+03  0.12500000000E+03 0.  0.
</event>
<event>
 5    0  0.5655767E-005  0.2149620E+03  0.7546771E-02  0.1137696E+00
         21   -1    0    0  502  501  0.00000000000E+00  0.00000000000E+00  0.39857685950E+03  0.39857685950E+03  0.00000000000E+00 0.  1.
         21   -1    0    0  501  502 -0.00000000000E+00 -0.00000000000E+00 -0.11593415719E+03  0.11593415719E+03  0.00000000000E+00 0.  1.
         25    1    1    2    0    0  0.33909820187E+02  0.23892999034E+02  0.16077463980E+03  0.20783223069E+03  0.12500000000E+03 0.  0.
         25    1    1    2    0    0 -0.49504848980E+01 -0.44839239622E+02  0.68061875435E+01  0.13306535574E+03  0.12500000000E+03 0.  0.
         25    1    1    2    0    0 -0.28959335289E+02  0.20946240588E+02  0.11506187496E+03  0.17361343026E+03  0.12500000000E+03 0.  0.
</event>
<event>
 5    0  0.5655767E-005  0.3025858E+03  0.7546771E-02  0.1083955E+00
         21   -1    0    0  502  501  0.00000000000E+00  0.00000000000E+00  0.60044798434E+03  0.60044798434E+03  0.00000000000E+00 0. -1.
         21   -1    0    0  501  502 -0.00000000000E+00 -0.00000000000E+00 -0.15248307122E+03  0.15248307122E+03  0.00000000000E+00 0. -1.
         25    1    1    2    0    0 -0.62623798647E+02  0.49536056979E+02  0.20270360627E+03  0.25117586089E+03  0.12500000000E+03 0.  0.
         25    1    1    2    0    0  0.19612305635E+03 -0.56569588031E+02  0.20317569596E+03  0.31395817389E+03  0.12500000000E+03 0.  0.
         25    1    1    2    0    0 -0.13349925770E+03  0.70335310524E+01  0.42085610883E+02  0.18779702077E+03  0.12500000000E+03 0.  0.
</event>
<event>
 5    0  0.5655767E-005  0.2481420E+03  0.7546771E-02  0.1114485E+00
         21   -1    0    0  502  501  0.00000000000E+00  0.00000000000E+00  0.10239246191E+03  0.10239246191E+03  0.00000000000E+00 0. -1.
         21   -1    0    0  501  502 -0.00000000000E+00 -0.00000000000E+00 -0.60135743028E+03  0.60135743028E+03  0.00000000000E+00 0. -1.
         25    1    1    2    0    0  0.10514075146E+03 -0.20003255554E+02 -0.22741644553E+03  0.28070972115E+03  0.12500000000E+03 0.  0.
         25    1    1    2    0    0 -0.48601883591E+01  0.15835635283E+02 -0.24365774082E+02  0.12842538582E+03  0.12500000000E+03 0.  0.
         25    1    1    2    0    0 -0.10028056310E+03  0.41676202705E+01 -0.24718274875E+03  0.29461478523E+03  0.12500000000E+03 0.  0.
</event>
<event>
 5    0  0.5655767E-005  0.4255407E+03  0.7546771E-02  0.1035278E+00
         21   -1    0    0  502  501  0.00000000000E+00  0.00000000000E+00  0.20523123538E+03  0.20523123538E+03  0.00000000000E+00 0. -1.
         21   -1    0    0  501  502 -0.00000000000E+00 -0.00000000000E+00 -0.88234552762E+03  0.88234552762E+03  0.00000000000E+00 0. -1.
         25    1    1    2    0    0 -0.19488163981E+03  0.76053131456E+02 -0.74588536225E+02  0.25485561025E+03  0.12500000000E+03 0.  0.
         25    1    1    2    0    0 -0.80661019888E+02 -0.93976695335E+02 -0.21346844394E+02  0.17725266475E+03  0.12500000000E+03 0.  0.
         25    1    1    2    0    0  0.27554265970E+03  0.17923563879E+02 -0.58117891162E+03  0.65546848800E+03  0.12500000000E+03 0.  0.
</event>
<event>
 5    0  0.5655767E-005  0.2395953E+03  0.7546771E-02  0.1120063E+00
         21   -1    0    0  502  501  0.00000000000E+00  0.00000000000E+00  0.17658852226E+03  0.17658852226E+03  0.00000000000E+00 0. -1.
         21   -1    0    0  501  502 -0.00000000000E+00 -0.00000000000E+00 -0.32508285822E+03  0.32508285822E+03  0.00000000000E+00 0. -1.
         25    1    1    2    0    0  0.22985571230E+02  0.72400341062E+02 -0.36949441916E+02  0.15086552664E+03  0.12500000000E+03 0.  0.
         25    1    1    2    0    0 -0.35114207870E+02 -0.13440383905E+03 -0.31574187899E+02  0.18952395334E+03  0.12500000000E+03 0.  0.
         25    1    1    2    0    0  0.12128636640E+02  0.62003497992E+02 -0.79970706141E+02  0.16128190051E+03  0.12500000000E+03 0.  0.
</event>
<event>
 5    0  0.5655767E-005  0.2138418E+03  0.7546771E-02  0.1138559E+00
         21   -1    0    0  502  501  0.00000000000E+00  0.00000000000E+00  0.15985560247E+03  0.15985560247E+03  0.00000000000E+00 0.  1.
         21   -1    0    0  501  502 -0.00000000000E+00 -0.00000000000E+00 -0.28606017475E+03  0.28606017475E+03  0.00000000000E+00 0.  1.
         25    1    1    2    0    0  0.80252482681E+02 -0.43949069342E+02 -0.51646581241E+02  0.16329222586E+03  0.12500000000E+03 0.  0.
         25    1    1    2    0    0 -0.32366014810E+02  0.44924738395E+02 -0.20431207370E+02  0.13823250439E+03  0.12500000000E+03 0.  0.
         25    1    1    2    0    0 -0.47886467871E+02 -0.97566905282E+00 -0.54126783671E+02  0.14439104697E+03  0.12500000000E+03 0.  0.
</event>
<event>
 5    0  0.5655767E-005  0.5059265E+03  0.7546771E-02  0.1012243E+00
         21   -1    0    0  502  501  0.00000000000E+00  0.00000000000E+00  0.79930034927E+03  0.79930034927E+03  0.00000000000E+00 0.  1.
         21   -1    0    0  501  502 -0.00000000000E+00 -0.00000000000E+00 -0.32023208355E+03  0.32023208355E+03  0.00000000000E+00 0.  1.
         25    1    1    2    0    0  0.22534067284E+03 -0.27080864501E+03  0.55512071032E+03  0.66925312407E+03  0.12500000000E+03 0.  0.
         25    1    1    2    0    0 -0.17311423978E+03  0.14287271159E+03 -0.55228573011E+02  0.26278574354E+03  0.12500000000E+03 0.  0.
         25    1    1    2    0    0 -0.52226433066E+02  0.12793593342E+03 -0.20823871588E+02  0.18749356522E+03  0.12500000000E+03 0.  0.
</event>
<event>
 5    0  0.5655767E-005  0.3249706E+03  0.7546771E-02  0.1073384E+00
         21   -1    0    0  502  501  0.00000000000E+00  0.00000000000E+00  0.12573528753E+03  0.12573528753E+03  0.00000000000E+00 0.  1.
         21   -1    0    0  501  502 -0.00000000000E+00 -0.00000000000E+00 -0.83990647412E+03  0.83990647412E+03  0.00000000000E+00 0.  1.
         25    1    1    2    0    0 -0.32112204431E+02 -0.19638046984E+02 -0.31723286039E+03  0.34304305018E+03  0.12500000000E+03 0.  0.
         25    1    1    2    0    0  0.21489156176E+02 -0.18423268681E+03 -0.27335970984E+03  0.35320531945E+03  0.12500000000E+03 0.  0.
         25    1    1    2    0    0  0.10623048255E+02  0.20387073379E+03 -0.12357861635E+03  0.26939339203E+03  0.12500000000E+03 0.  0.
</event>
<event>
 5    0  0.5655767E-005  0.2469973E+03  0.7546771E-02  0.1115217E+00
         21   -1    0    0  502  501  0.00000000000E+00  0.00000000000E+00  0.22674217707E+03  0.22674217707E+03  0.00000000000E+00 0.  1.
         21   -1    0    0  501  502 -0.00000000000E+00 -0.00000000000E+00 -0.26906173243E+03  0.26906173243E+03  0.00000000000E+00 0.  1.
         25    1    1    2    0    0  0.55387339039E+01 -0.69442284187E+01 -0.70221644778E+02  0.14364880534E+03  0.12500000000E+03 0.  0.
         25    1    1    2    0    0 -0.17604326687E+02  0.46572939628E+02 -0.10072342325E+03  0.16807486134E+03  0.12500000000E+03 0.  0.
         25    1    1    2    0    0  0.12065592783E+02 -0.39628711209E+02  0.12862551267E+03  0.18408024281E+03  0.12500000000E+03 0.  0.
</event>
<event>
 5    0  0.5655767E-005  0.2289863E+03  0.7546771E-02  0.1127355E+00
         21   -1    0    0  502  501  0.00000000000E+00  0.00000000000E+00  0.72877453385E+02  0.72877453385E+02  0.00000000000E+00 0.  1.
         21   -1    0    0  501  502 -0.00000000000E+00 -0.00000000000E+00 -0.71949193153E+03  0.71949193153E+03  0.00000000000E+00 0.  1.
         25    1    1    2    0    0 -0.53312369801E+02  0.41435230061E+02 -0.21240683083E+03  0.25554011202E+03  0.12500000000E+03 0.  0.
         25    1    1    2    0    0 -0.20505680807E+02  0.96771521637E+01 -0.32261039882E+03  0.34672265523E+03  0.12500000000E+03 0.  0.
         25    1    1    2    0    0  0.73818050608E+02 -0.51112382225E+02 -0.11159724849E+03  0.19010661767E+03  0.12500000000E+03 0.  0.
</event>
<event>
 5    0  0.5655767E-005  0.3301183E+03  0.7546771E-02  0.1071085E+00
         21   -1    0    0  502  501  0.00000000000E+00  0.00000000000E+00  0.13575000717E+04  0.13575000717E+04  0.00000000000E+00 0. -1.
         21   -1    0    0  501  502 -0.00000000000E+00 -0.00000000000E+00 -0.80278539278E+02  0.80278539278E+02  0.00000000000E+00 0. -1.
         25    1    1    2    0    0 -0.52581750120E+02 -0.18504291949E+03  0.71775266335E+03  0.75352478940E+03  0.12500000000E+03 0.  0.
         25    1    1    2    0    0  0.12040360277E+02  0.36179382829E+02  0.42449426643E+03  0.44415571622E+03  0.12500000000E+03 0.  0.
         25    1    1    2    0    0  0.40541389843E+02  0.14886353666E+03  0.13497460264E+03  0.24009810535E+03  0.12500000000E+03 0.  0.
</event>
<event>
 5    0  0.5655767E-005  0.3002349E+03  0.7546771E-02  0.1085123E+00
         21   -1    0    0  502  501  0.00000000000E+00  0.00000000000E+00  0.60312385467E+02  0.60312385467E+02  0.00000000000E+00 0.  1.
         21   -1    0    0  501  502 -0.00000000000E+00 -0.00000000000E+00 -0.14945685206E+04  0.14945685206E+04  0.00000000000E+00 0.  1.
         25    1    1    2    0    0  0.61893811240E+02  0.84793261166E+02 -0.12922553092E+03  0.20819456969E+03  0.12500000000E+03 0.  0.
         25    1    1    2    0    0 -0.11782481871E+03 -0.76390046402E+02 -0.88744285282E+03  0.90713722452E+03  0.12500000000E+03 0.  0.
         25    1    1    2    0    0  0.55931007475E+02 -0.84032147645E+01 -0.41758775142E+03  0.43954911188E+03  0.12500000000E+03 0.  0.
</event>
<event>
 5    0  0.5655767E-005  0.5958048E+03  0.7546771E-02  0.9914148E-01
         21   -1    0    0  502  501  0.00000000000E+00  0.00000000000E+00  0.48267211553E+03  0.48267211553E+03  0.00000000000E+00 0.  1.
         21   -1    0    0  501  502 -0.00000000000E+00 -0.00000000000E+00 -0.73545455240E+03  0.73545455240E+03  0.00000000000E+00 0.  1.
         25    1    1    2    0    0 -0.43297452723E+02  0.35695029066E+03  0.25942616067E+03  0.46066811509E+03  0.12500000000E+03 0.  0.
         25    1    1    2    0    0 -0.81643182449E+02 -0.18407224104E+03 -0.63855815482E+02  0.24546031111E+03  0.12500000000E+03 0.  0.
         25    1    1    2    0    0  0.12494063517E+03 -0.17287804962E+03 -0.44835278206E+03  0.51199824174E+03  0.12500000000E+03 0.  0.
</event>
<event>
 5    0  0.5655767E-005  0.4303230E+03  0.7546771E-02  0.1033758E+00
         21   -1    0    0  502  501  0.00000000000E+00  0.00000000000E+00  0.95194701319E+03  0.95194701319E+03  0.00000000000E+00 0. -1.
         21   -1    0    0  501  502 -0.00000000000E+00 -0.00000000000E+00 -0.19452542826E+03  0.19452542826E+03  0.00000000000E+00 0. -1.
         25    1    1    2    0    0 -0.96088330065E+02 -0.12602919981E+03  0.67226123751E+03  0.70190918062E+03  0.12500000000E+03 0.  0.
         25    1    1    2    0    0  0.13066459185E+03  0.10510200630E+03 -0.88251131748E+02  0.22700865523E+03  0.12500000000E+03 0.  0.
         25    1    1    2    0    0 -0.34576261790E+02  0.20927193509E+02  0.17341147917E+03  0.21755460559E+03  0.12500000000E+03 0.  0.
</event>
<event>
 5    0  0.5655767E-005  0.3155153E+03  0.7546771E-02  0.1077732E+00
         21   -1    0    0  502  501  0.00000000000E+00  0.00000000000E+00  0.70050959280E+02  0.70050959280E+02  0.00000000000E+00 0. -1.
         21   -1    0    0  501  502 -0.00000000000E+00 -0.00000000000E+00 -0.14211069666E+04  0.14211069666E+04  0.00000000000E+00 0. -1.
         25    1    1    2    0    0  0.45611523501E+02  0.14533489630E+03 -0.30325775259E+03  0.36165302109E+03  0.12500000000E+03 0.  0.
         25    1    1    2    0    0  0.61102077524E+02 -0.16651362967E+03 -0.34604795978E+03  0.40845372224E+03  0.12500000000E+03 0.  0.
         25    1    1    2    0    0 -0.10671360102E+03  0.21178733369E+02 -0.70175029498E+03  0.72105118258E+03  0.12500000000E+03 0.  0.
</event>
<event>
 5    0  0.5655767E-005  0.2481389E+03  0.7546771E-02  0.1114487E+00
         21   -1    0    0  502  501  0.00000000000E+00  0.00000000000E+00  0.15096583897E+04  0.15096583897E+04  0.00000000000E+00 0.  1.
         21   -1    0    0  501  502 -0.00000000000E+00 -0.00000000000E+00 -0.40785992022E+02  0.40785992022E+02  0.00000000000E+00 0.  1.
         25    1    1    2    0    0  0.56625060083E+01 -0.54091536371E+02  0.16609176065E+03  0.21487073145E+03  0.12500000000E+03 0.  0.
         25    1    1    2    0    0  0.52388568674E+02 -0.21020637189E+02  0.59861890598E+03  0.61413029880E+03  0.12500000000E+03 0.  0.
         25    1    1    2    0    0 -0.58051074682E+02  0.75112173559E+02  0.70416173105E+03  0.72144335146E+03  0.12500000000E+03 0.  0.
</event>
<event>
 5    0  0.5655767E-005  0.3166205E+03  0.7546771E-02  0.1077215E+00
         21   -1    0    0  502  501  0.00000000000E+00  0.00000000000E+00  0.11060525222E+04  0.11060525222E+04  0.00000000000E+00 0.  1.
         21   -1    0    0  501  502 -0.00000000000E+00 -0.00000000000E+00 -0.90636325680E+02  0.90636325680E+02  0.00000000000E+00 0.  1.
         25    1    1    2    0    0 -0.16354959671E+03  0.42621612434E+02  0.28463708534E+03  0.35384790911E+03  0.12500000000E+03 0.  0.
         25    1    1    2    0    0  0.10667382773E+03 -0.65182196049E+02  0.66649015403E+03  0.68953763467E+03  0.12500000000E+03 0.  0.
         25    1    1    2    0    0  0.56875768979E+02  0.22560583615E+02  0.64288957106E+02  0.15330330406E+03  0.12500000000E+03 0.  0.
</event>
<event>
 5    0  0.5655767E-005  0.2575782E+03  0.7546771E-02  0.1108607E+00
         21   -1    0    0  502  501  0.00000000000E+00  0.00000000000E+00  0.54982901772E+02  0.54982901772E+02  0.00000000000E+00 0.  1.
         21   -1    0    0  501  502 -0.00000000000E+00 -0.00000000000E+00 -0.12066752537E+04  0.12066752537E+04  0.00000000000E+00 0.  1.
         25    1    1    2    0    0  0.49892150424E+02 -0.12664564694E+03 -0.50484645468E+03  0.53760886281E+03  0.12500000000E+03 0.  0.
         25    1    1    2    0    0  0.52379299424E+02  0.56135380835E+02 -0.25053834951E+03  0.29032608660E+03  0.12500000000E+03 0.  0.
         25    1    1    2    0    0 -0.10227144985E+03  0.70510266105E+02 -0.39630754774E+03  0.43372320607E+03  0.12500000000E+03 0.  0.
</event>
<event>
 5    0  0.5655767E-005  0.2129150E+03  0.7546771E-02  0.1139278E+00
         21   -1    0    0  502  501  0.00000000000E+00  0.00000000000E+00  0.80252139857E+03  0.80252139857E+03  0.00000000000E+00 0. -1.
         21   -1    0    0  501  502 -0.00000000000E+00 -0.00000000000E+00 -0.56487959232E+02  0.56487959232E+02  0.00000000000E+00 0. -1.
         25    1    1    2    0    0  0.25796899419E+02  0.79336008544E+02  0.22145609319E+03  0.26763311357E+03  0.12500000000E+03 0.  0.
         25    1    1    2    0    0 -0.21849144690E+02 -0.43383848155E+02  0.19155298324E+03  0.23383132551E+03  0.12500000000E+03 0.  0.
         25    1    1    2    0    0 -0.39477547290E+01 -0.35952160389E+02  0.33302436291E+03  0.35754491871E+03  0.12500000000E+03 0.  0.
</event>
<event>
 5    0  0.5655767E-005  0.3889776E+03  0.7546771E-02  0.1047665E+00
         21   -1    0    0  502  501  0.00000000000E+00  0.00000000000E+00  0.41569496389E+03  0.41569496389E+03  0.00000000000E+00 0.  1.
         21   -1    0    0  501  502 -0.00000000000E+00 -0.00000000000E+00 -0.36397736330E+03  0.36397736330E+03  0.00000000000E+00 0. -1.
         25    1    1    2    0    0  0.79582508118E+02  0.63069667938E+02  0.15942213262E+03  0.22660885901E+03  0.12500000000E+03 0.  0.
         25    1    1    2    0    0  0.17437145771E+03 -0.12937644661E+02 -0.15056990982E+03  0.26242920123E+03  0.12500000000E+03 0.  0.
         25    1    1    2    0    0 -0.25395396583E+03 -0.50132023277E+02  0.42865377797E+02  0.29063426696E+03  0.12500000000E+03 0.  0.
</event>
<event>
 5    0  0.5655767E-005  0.3331314E+03  0.7546771E-02  0.1069760E+00
         21   -1    0    0  502  501  0.00000000000E+00  0.00000000000E+00  0.64428167235E+03  0.64428167235E+03  0.00000000000E+00 0. -1.
         21   -1    0    0  501  502 -0.00000000000E+00 -0.00000000000E+00 -0.17224846468E+03  0.17224846468E+03  0.00000000000E+00 0. -1.
         25    1    1    2    0    0  0.15775221329E+03 -0.98605704688E+02  0.26908214733E+03  0.35019858339E+03  0.12500000000E+03 0.  0.
         25    1    1    2    0    0  0.30949372780E+02  0.28004913401E+02 -0.28674426252E+02  0.13486794123E+03  0.12500000000E+03 0.  0.
         25    1    1    2    0    0 -0.18870158607E+03  0.70600791287E+02  0.23162548659E+03  0.33146361241E+03  0.12500000000E+03 0.  0.
</event>
<event>
 5    0  0.5655767E-005  0.2469172E+03  0.7546771E-02  0.1115269E+00
         21   -1    0    0  502  501  0.00000000000E+00  0.00000000000E+00  0.42671173329E+02  0.42671173329E+02  0.00000000000E+00 0.  1.
         21   -1    0    0  501  502 -0.00000000000E+00 -0.00000000000E+00 -0.14287889613E+04  0.14287889613E+04  0.00000000000E+00 0.  1.
         25    1    1    2    0    0 -0.66289785770E+02 -0.48209587118E+02 -0.30347680596E+03  0.33829228744E+03  0.12500000000E+03 0.  0.
         25    1    1    2    0    0 -0.11483464921E+02  0.10049042843E+03 -0.72953309690E+03  0.74704332917E+03  0.12500000000E+03 0.  0.
         25    1    1    2    0    0  0.77773250691E+02 -0.52280841315E+02 -0.35310788512E+03  0.38612451803E+03  0.12500000000E+03 0.  0.
</event>
<event>
 5    0  0.5655767E-005  0.3596107E+03  0.7546771E-02  0.1058738E+00
         21   -1    0    0  502  501  0.00000000000E+00  0.00000000000E+00  0.58865065578E+02  0.58865065578E+02  0.00000000000E+00 0. -1.
         21   -1    0    0  501  502 -0.00000000000E+00 -0.00000000000E+00 -0.21968861085E+04  0.21968861085E+04  0.00000000000E+00 0. -1.
         25    1    1    2    0    0 -0.26909146651E+03  0.40914380965E+02 -0.89305814431E+03  0.94194588647E+03  0.12500000000E+03 0.  0.
         25    1    1    2    0    0  0.11946607872E+03  0.81216208017E+01 -0.88255296738E+03  0.89936802529E+03  0.12500000000E+03 0.  0.
         25    1    1    2    0    0  0.14962538779E+03 -0.49036001767E+02 -0.36240993124E+03  0.41443726233E+03  0.12500000000E+03 0.  0.
</event>
<event>
 5    0  0.5655767E-005  0.2772641E+03  0.7546771E-02  0.1097193E+00
         21   -1    0    0  502  501  0.00000000000E+00  0.00000000000E+00  0.31365950775E+03  0.31365950775E+03  0.00000000000E+00 0.  1.
         21   -1    0    0  501  502 -0.00000000000E+00 -0.00000000000E+00 -0.24509188700E+03  0.24509188700E+03  0.00000000000E+00 0.  1.
         25    1    1    2    0    0 -0.18477159835E+02  0.38866059921E+02 -0.43471299651E+01  0.13227196826E+03  0.12500000000E+03 0.  0.
         25    1    1    2    0    0 -0.78957242249E+02 -0.13980711793E+03 -0.39833925944E+02  0.20734516629E+03  0.12500000000E+03 0.  0.
         25    1    1    2    0    0  0.97434402084E+02  0.10094105801E+03  0.11274867666E+03  0.21913426019E+03  0.12500000000E+03 0.  0.
</event>
<event>
 5    0  0.5655767E-005  0.4616837E+03  0.7546771E-02  0.1024294E+00
         21   -1    0    0  502  501  0.00000000000E+00  0.00000000000E+00  0.31397603521E+04  0.31397603521E+04  0.00000000000E+00 0. -1.
         21   -1    0    0  501  502 -0.00000000000E+00 -0.00000000000E+00 -0.67887925278E+02  0.67887925278E+02  0.00000000000E+00 0. -1.
         25    1    1    2    0    0  0.75199987190E+02 -0.22019666245E+03  0.72665300194E+03  0.77316957613E+03  0.12500000000E+03 0.  0.
         25    1    1    2    0    0 -0.25920121412E+03 -0.49168674375E+02  0.84111112212E+03  0.89033462681E+03  0.12500000000E+03 0.  0.
         25    1    1    2    0    0  0.18400122693E+03  0.26936533682E+03  0.15041083028E+04  0.15441440745E+04  0.12500000000E+03 0.  0.
</event>
<event>
 5    0  0.5655767E-005  0.4063995E+03  0.7546771E-02  0.1041586E+00
         21   -1    0    0  502  501  0.00000000000E+00  0.00000000000E+00  0.21377069439E+03  0.21377069439E+03  0.00000000000E+00 0. -1.
         21   -1    0    0  501  502 -0.00000000000E+00 -0.00000000000E+00 -0.77260629144E+03  0.77260629144E+03  0.00000000000E+00 0. -1.
         25    1    1    2    0    0 -0.83903851904E+02  0.74171282940E+02 -0.46854091879E+01  0.16789338473E+03  0.12500000000E+03 0.  0.
         25    1    1    2    0    0 -0.20694353242E+03  0.52619251141E+02 -0.32140560613E+03  0.40561185246E+03  0.12500000000E+03 0.  0.
         25    1    1    2    0    0  0.29084738433E+03 -0.12679053408E+03 -0.23274458174E+03  0.41287174865E+03  0.12500000000E+03 0.  0.
</event>
<event>
 5    0  0.5655767E-005  0.2755207E+03  0.7546771E-02  0.1098161E+00
         21   -1    0    0  502  501  0.00000000000E+00  0.00000000000E+00  0.91471052475E+03  0.91471052475E+03  0.00000000000E+00 0.  1.
         21   -1    0    0  501  502 -0.00000000000E+00 -0.00000000000E+00 -0.82989805800E+02  0.82989805800E+02  0.00000000000E+00 0.  1.
         25    1    1    2    0    0 -0.11490730652E+03  0.99955699100E+02  0.30142370712E+03  0.36010565406E+03  0.12500000000E+03 0.  0.
         25    1    1    2    0    0 -0.30276249770E+02 -0.88900540894E+01  0.12206248813E+03  0.17753854615E+03  0.12500000000E+03 0.  0.
         25    1    1    2    0    0  0.14518355629E+03 -0.91065645010E+02  0.40823452370E+03  0.46005613033E+03  0.12500000000E+03 0.  0.
</event>
<event>
 5    0  0.5655767E-005  0.3297523E+03  0.7546771E-02  0.1071247E+00
         21   -1    0    0  502  501  0.00000000000E+00  0.00000000000E+00  0.36545080757E+03  0.36545080757E+03  0.00000000000E+00 0.  1.
         21   -1    0    0  501  502 -0.00000000000E+00 -0.00000000000E+00 -0.29754095617E+03  0.29754095617E+03  0.00000000000E+00 0.  1.
         25    1    1    2    0    0  0.78929073330E+02 -0.33556260318E+01 -0.27772873681E+02  0.15045727419E+03  0.12500000000E+03 0.  0.
         25    1    1    2    0    0  0.31734831397E+01  0.29364418789E+02 -0.16607407238E+03  0.20994746391E+03  0.12500000000E+03 0.  0.
         25    1    1    2    0    0 -0.82102556470E+02 -0.26008792757E+02  0.26175679745E+03  0.30258702565E+03  0.12500000000E+03 0.  0.
</event>
<event>
 5    0  0.5655767E-005  0.3245148E+03  0.7546771E-02  0.1073590E+00
         21   -1    0    0  502  501  0.00000000000E+00  0.00000000000E+00  0.40690391036E+03  0.40690391036E+03  0.00000000000E+00 0. -1.
         21   -1    0    0  501  502 -0.00000000000E+00 -0.00000000000E+00 -0.25880760941E+03  0.25880760941E+03  0.00000000000E+00 0. -1.
         25    1    1    2    0    0  0.10159840624E+03 -0.97428565657E+02 -0.42295672177E+02  0.19294684616E+03  0.12500000000E+03 0.  0.
         25    1    1    2    0    0 -0.15556090964E+03  0.11201135240E+03 -0.11138098295E+02  0.22911743039E+03  0.12500000000E+03 0.  0.
         25    1    1    2    0    0  0.53962503402E+02 -0.14582786743E+02  0.20153007142E+03  0.24364724322E+03  0.12500000000E+03 0.  0.
</event>
<event>
 5    0  0.5655767E-005  0.2439045E+03  0.7546771E-02  0.1117219E+00
         21   -1    0    0  502  501  0.00000000000E+00  0.00000000000E+00  0.49143873234E+03  0.49143873234E+03  0.00000000000E+00 0. -1.
         21   -1    0    0  501  502 -0.00000000000E+00 -0.00000000000E+00 -0.12105155055E+03  0.12105155055E+03  0.00000000000E+00 0. -1.
         25    1    1    2    0    0 -0.91758343963E+01  0.86348997039E+02  0.16067537273E+02  0.15304741416E+03  0.12500000000E+03 0.  0.
         25    1    1    2    0    0  0.23515158675E+02 -0.89350423192E+02  0.13179264736E+03  0.20379097799E+03  0.12500000000E+03 0.  0.
         25    1    1    2    0    0 -0.14339324279E+02  0.30014261529E+01  0.22252699715E+03  0.25565189075E+03  0.12500000000E+03 0.  0.
</event>
<event>
 5    0  0.5655767E-005  0.2760400E+03  0.7546771E-02  0.1097872E+00
         21   -1    0    0  502  501  0.00000000000E+00  0.00000000000E+00  0.11007939012E+04  0.11007939012E+04  0.00000000000E+00 0. -1.
         21   -1    0    0  501  502 -0.00000000000E+00 -0.00000000000E+00 -0.69221000922E+02  0.69221000922E+02  0.00000000000E+00 0. -1.
         25    1    1    2    0    0  0.73185929921E+02 -0.12339325787E+03  0.21165686753E+03  0.28461501365E+03  0.12500000000E+03 0.  0.
         25    1    1    2    0    0 -0.88312149776E+01  0.11959575571E+03  0.29625899032E+03  0.34318438847E+03  0.12500000000E+03 0.  0.
         25    1    1    2    0    0 -0.64354714943E+02  0.37975021598E+01  0.52365704245E+03  0.54221550002E+03  0.12500000000E+03 0.  0.
</event>
<event>
 5    0  0.5655767E-005  0.4609594E+03  0.7546771E-02  0.1024503E+00
         21   -1    0    0  502  501  0.00000000000E+00  0.00000000000E+00  0.32016416234E+03  0.32016416234E+03  0.00000000000E+00 0. -1.
         21   -1    0    0  501  502 -0.00000000000E+00 -0.00000000000E+00 -0.66367057651E+03  0.66367057651E+03  0.00000000000E+00 0. -1.
         25    1    1    2    0    0  0.95604233855E+02  0.73388994338E+02  0.92873311278E+02  0.19691766292E+03  0.12500000000E+03 0.  0.
         25    1    1    2    0    0 -0.18036399368E+03 -0.20408588081E+02  0.89011615259E+02  0.23768834287E+03  0.12500000000E+03 0.  0.
         25    1    1    2    0    0  0.84759759825E+02 -0.52980406257E+02 -0.52539134071E+03  0.54922873306E+03  0.12500000000E+03 0.  0.
</event>
<event>
 5    0  0.5655767E-005  0.3322400E+03  0.7546771E-02  0.1070150E+00
         21   -1    0    0  502  501  0.00000000000E+00  0.00000000000E+00  0.98791904569E+02  0.98791904569E+02  0.00000000000E+00 0.  1.
         21   -1    0    0  501  502 -0.00000000000E+00 -0.00000000000E+00 -0.11173329539E+04  0.11173329539E+04  0.00000000000E+00 0.  1.
         25    1    1    2    0    0 -0.39066549825E+02  0.16987349617E+02 -0.64914720093E+03  0.66244384957E+03  0.12500000000E+03 0.  0.
         25    1    1    2    0    0 -0.79315842989E+02  0.84614453046E+02 -0.51440578859E+02  0.17810598465E+03  0.12500000000E+03 0.  0.
         25    1    1    2    0    0  0.11838239281E+03 -0.10160180266E+03 -0.31795326958E+03  0.37557502429E+03  0.12500000000E+03 0.  0.
</event>
<event>
 5    0  0.5655767E-005  0.2609728E+03  0.7546771E-02  0.1106560E+00
         21   -1    0    0  502  501  0.00000000000E+00  0.00000000000E+00  0.12327519833E+04  0.12327519833E+04  0.00000000000E+00 0. -1.
         21   -1    0    0  501  502 -0.00000000000E+00 -0.00000000000E+00 -0.55247754069E+02  0.55247754069E+02  0.00000000000E+00 0. -1.
         25    1    1    2    0    0  0.91461852085E+02  0.88104178296E+02  0.50458215930E+03  0.53512220297E+03  0.12500000000E+03 0.  0.
         25    1    1    2    0    0 -0.14039524045E+03 -0.73429014642E+02  0.42810938263E+03  0.47329196827E+03  0.12500000000E+03 0.  0.
         25    1    1    2    0    0  0.48933388364E+02 -0.14675163654E+02  0.24481268726E+03  0.27958556609E+03  0.12500000000E+03 0.  0.
</event>
<event>
 5    0  0.7409490E-005  0.2969565E+03  0.7546771E-02  0.1086772E+00
         21   -1    0    0  502  501  0.00000000000E+00  0.00000000000E+00  0.15864829566E+03  0.15864829566E+03  0.00000000000E+00 0.  1.
         21   -1    0    0  501  502 -0.00000000000E+00 -0.00000000000E+00 -0.55584068485E+03  0.55584068485E+03  0.00000000000E+00 0.  1.
         25    1    1    2    0    0  0.94874647560E+02 -0.16856508277E+03 -0.24783365236E+03  0.33832219129E+03  0.12500000000E+03 0.  0.
         25    1    1    2    0    0 -0.66346623202E+02  0.37002985729E+02 -0.11957350199E+02  0.14676196233E+03  0.12500000000E+03 0.  0.
         25    1    1    2    0    0 -0.28528024357E+02  0.13156209704E+03 -0.13740138663E+03  0.22940482689E+03  0.12500000000E+03 0.  0.
</event>
<event>
 5    0  0.5655767E-005  0.3383889E+03  0.7546771E-02  0.1067484E+00
         21   -1    0    0  502  501  0.00000000000E+00  0.00000000000E+00  0.11747531531E+04  0.11747531531E+04  0.00000000000E+00 0. -1.
         21   -1    0    0  501  502 -0.00000000000E+00 -0.00000000000E+00 -0.97473296186E+02  0.97473296186E+02  0.00000000000E+00 0. -1.
         25    1    1    2    0    0  0.36255260050E+00 -0.12580888142E+03  0.30421639305E+03  0.35213721742E+03  0.12500000000E+03 0.  0.
         25    1    1    2    0    0  0.10569449661E+03  0.24546284815E+03  0.48551920140E+03  0.56813487075E+03  0.12500000000E+03 0.  0.
         25    1    1    2    0    0 -0.10605704921E+03 -0.11965396673E+03  0.28754426251E+03  0.35195436117E+03  0.12500000000E+03 0.  0.
</event>
<event>
 5    0  0.5655767E-005  0.4153230E+03  0.7546771E-02  0.1038599E+00
         21   -1    0    0  502  501  0.00000000000E+00  0.00000000000E+00  0.10920508035E+03  0.10920508035E+03  0.00000000000E+00 0.  1.
         21   -1    0    0  501  502 -0.00000000000E+00 -0.00000000000E+00 -0.15795342633E+04  0.15795342633E+04  0.00000000000E+00 0.  1.
         25    1    1    2    0    0 -0.24512294368E+02 -0.75028107752E+02  0.25073687906E+02  0.14994585474E+03  0.12500000000E+03 0.  0.
         25    1    1    2    0    0 -0.61781478968E+02  0.13895619124E+03 -0.75142551388E+03  0.77678251599E+03  0.12500000000E+03 0.  0.
         25    1    1    2    0    0  0.86293773336E+02 -0.63928083492E+02 -0.74397735694E+03  0.76201097290E+03  0.12500000000E+03 0.  0.
</event>
<event>
 5    0  0.5655767E-005  0.2625537E+03  0.7546771E-02  0.1105619E+00
         21   -1    0    0  502  501  0.00000000000E+00  0.00000000000E+00  0.73851750532E+02  0.73851750532E+02  0.00000000000E+00 0.  1.
         21   -1    0    0  501  502 -0.00000000000E+00 -0.00000000000E+00 -0.93341677823E+03  0.93341677823E+03  0.00000000000E+00 0.  1.
         25    1    1    2    0    0  0.11994938727E+03  0.26106341518E+02 -0.40101266571E+03  0.43761347629E+03  0.12500000000E+03 0.  0.
         25    1    1    2    0    0  0.13487463840E+02  0.60330580819E+01 -0.83138885942E+02  0.15084887744E+03  0.12500000000E+03 0.  0.
         25    1    1    2    0    0 -0.13343685111E+03 -0.32139399600E+02 -0.37541347605E+03  0.41880617503E+03  0.12500000000E+03 0.  0.
</event>
<event>
 5    0  0.5655767E-005  0.2166176E+03  0.7546771E-02  0.1136430E+00
         21   -1    0    0  502  501  0.00000000000E+00  0.00000000000E+00  0.71822650456E+02  0.71822650456E+02  0.00000000000E+00 0.  1.
         21   -1    0    0  501  502 -0.00000000000E+00 -0.00000000000E+00 -0.65332002205E+03  0.65332002205E+03  0.00000000000E+00 0.  1.
         25    1    1    2    0    0 -0.38323113351E+02  0.41141546302E+02 -0.24865071667E+03  0.28392510764E+03  0.12500000000E+03 0.  0.
         25    1    1    2    0    0  0.70756323997E+02 -0.38884809937E+02 -0.11542244899E+03  0.18832373074E+03  0.12500000000E+03 0.  0.
         25    1    1    2    0    0 -0.32433210646E+02 -0.22567363650E+01 -0.21742420593E+03  0.25289383412E+03  0.12500000000E+03 0.  0.
</event>
<event>
 5    0  0.5655767E-005  0.2362396E+03  0.7546771E-02  0.1122324E+00
         21   -1    0    0  502  501  0.00000000000E+00  0.00000000000E+00  0.28443547544E+02  0.28443547544E+02  0.00000000000E+00 0. -1.
         21   -1    0    0  501  502 -0.00000000000E+00 -0.00000000000E+00 -0.19621019687E+04  0.19621019687E+04  0.00000000000E+00 0. -1.
         25    1    1    2    0    0 -0.53453951507E+02  0.51184807467E+01 -0.27645164719E+03  0.30811367547E+03  0.12500000000E+03 0.  0.
         25    1    1    2    0    0  0.56760000379E+02  0.53802474758E+02 -0.70596164162E+03  0.72119570393E+03  0.12500000000E+03 0.  0.
         25    1    1    2    0    0 -0.33060488711E+01 -0.58920955504E+02 -0.95124513236E+03  0.96123613685E+03  0.12500000000E+03 0.  0.
</event>
<event>
 5    0  0.5655767E-005  0.2403906E+03  0.7546771E-02  0.1119533E+00
         21   -1    0    0  502  501  0.00000000000E+00  0.00000000000E+00  0.12249117578E+03  0.12249117578E+03  0.00000000000E+00 0.  1.
         21   -1    0    0  501  502 -0.00000000000E+00 -0.00000000000E+00 -0.47176977220E+03  0.47176977220E+03  0.00000000000E+00 0.  1.
         25    1    1    2    0    0 -0.20352093491E+02  0.15155642300E+02 -0.51724468971E+02  0.13763837362E+03  0.12500000000E+03 0.  0.
         25    1    1    2    0    0  0.10755821004E+03  0.55782886264E+02 -0.11602749168E+03  0.20920773831E+03  0.12500000000E+03 0.  0.
         25    1    1    2    0    0 -0.87206116545E+02 -0.70938528564E+02 -0.18152663577E+03  0.24741483604E+03  0.12500000000E+03 0.  0.
</event>
<event>
 5    0  0.5655767E-005  0.3136670E+03  0.7546771E-02  0.1078601E+00
         21   -1    0    0  502  501  0.00000000000E+00  0.00000000000E+00  0.21300038784E+03  0.21300038784E+03  0.00000000000E+00 0.  1.
         21   -1    0    0  501  502 -0.00000000000E+00 -0.00000000000E+00 -0.46190995183E+03  0.46190995183E+03  0.00000000000E+00 0.  1.
         25    1    1    2    0    0 -0.15709387650E+03  0.97593293546E+01 -0.22198865733E+03  0.29946234242E+03  0.12500000000E+03 0.  0.
         25    1    1    2    0    0  0.14503506629E+02  0.36847948376E+02  0.79222095989E+02  0.15319681295E+03  0.12500000000E+03 0.  0.
         25    1    1    2    0    0  0.14259036987E+03 -0.46607277730E+02 -0.10614300265E+03  0.22225118431E+03  0.12500000000E+03 0.  0.
</event>
<event>
 5    0  0.5655767E-005  0.3074909E+03  0.7546771E-02  0.1081555E+00
         21   -1    0    0  502  501  0.00000000000E+00  0.00000000000E+00  0.85142854944E+02  0.85142854944E+02  0.00000000000E+00 0.  1.
         21   -1    0    0  501  502 -0.00000000000E+00 -0.00000000000E+00 -0.11104943865E+04  0.11104943865E+04  0.00000000000E+00 0.  1.
         25    1    1    2    0    0  0.91485690409E+02 -0.80608311720E+02 -0.26317874791E+03  0.31584075864E+03  0.12500000000E+03 0.  0.
         25    1    1    2    0    0  0.97291408463E+02 -0.39259606407E+01 -0.49401270840E+03  0.51880110581E+03  0.12500000000E+03 0.  0.
         25    1    1    2    0    0 -0.18877709887E+03  0.84534272360E+02 -0.26816007529E+03  0.36099537704E+03  0.12500000000E+03 0.  0.
</event>
<event>
 5    0  0.5655767E-005  0.2531213E+03  0.7546771E-02  0.1111348E+00
         21   -1    0    0  502  501  0.00000000000E+00  0.00000000000E+00  0.21125596623E+04  0.21125596623E+04  0.00000000000E+00 0.  1.
         21   -1    0    0  501  502 -0.00000000000E+00 -0.00000000000E+00 -0.30328317154E+02  0.30328317154E+02  0.00000000000E+00 0.  1.
         25    1    1    2    0    0  0.50363259431E+02 -0.63424127128E+02  0.89228542147E+03  0.90463105804E+03  0.12500000000E+03 0.  0.
         25    1    1    2    0    0 -0.61838623941E+02  0.75386777344E+02  0.98464098912E+03  0.99732144220E+03  0.12500000000E+03 0.  0.
         25    1    1    2    0    0  0.11475364510E+02 -0.11962650216E+02  0.20530493453E+03  0.24093547919E+03  0.12500000000E+03 0.  0.
</event>
<event>
 5    0  0.5655767E-005  0.1942895E+03  0.7546771E-02  0.1154648E+00
         21   -1    0    0  502  501  0.00000000000E+00  0.00000000000E+00  0.28822933464E+02  0.28822933464E+02  0.00000000000E+00 0.  1.
         21   -1    0    0  501  502 -0.00000000000E+00 -0.00000000000E+00 -0.13096661341E+04  0.13096661341E+04  0.00000000000E+00 0.  1.
         25    1    1    2    0    0  0.94429436758E+01  0.10848419992E+02 -0.34708676512E+03  0.36918976140E+03  0.12500000000E+03 0.  0.
         25    1    1    2    0    0 -0.23780064550E+02  0.23994973354E+02 -0.47318133202E+03  0.49057805004E+03  0.12500000000E+03 0.  0.
         25    1    1    2    0    0  0.14337120874E+02 -0.34843393346E+02 -0.46057510346E+03  0.47872125608E+03  0.12500000000E+03 0.  0.
</event>
<event>
 5    0  0.5655767E-005  0.3124001E+03  0.7546771E-02  0.1079201E+00
         21   -1    0    0  502  501  0.00000000000E+00  0.00000000000E+00  0.31640909236E+03  0.31640909236E+03  0.00000000000E+00 0.  1.
         21   -1    0    0  501  502 -0.00000000000E+00 -0.00000000000E+00 -0.30844191069E+03  0.30844191069E+03  0.00000000000E+00 0.  1.
         25    1    1    2    0    0  0.80356644359E+02 -0.82040196365E+02 -0.13947927132E+03  0.21969809111E+03  0.12500000000E+03 0.  0.
         25    1    1    2    0    0 -0.49625808561E+02 -0.51011813746E+02 -0.31969752276E+02  0.14734989338E+03  0.12500000000E+03 0.  0.
         25    1    1    2    0    0 -0.30730835798E+02  0.13305201011E+03  0.17941620527E+03  0.25780301856E+03  0.12500000000E+03 0.  0.
</event>
<event>
 5    0  0.5655767E-005  0.3004851E+03  0.7546771E-02  0.1084998E+00
         21   -1    0    0  502  501  0.00000000000E+00  0.00000000000E+00  0.36415421909E+03  0.36415421909E+03  0.00000000000E+00 0. -1.
         21   -1    0    0  501  502 -0.00000000000E+00 -0.00000000000E+00 -0.24794801095E+03  0.24794801095E+03  0.00000000000E+00 0. -1.
         25    1    1    2    0    0 -0.10750808586E+03  0.40111954467E+02  0.58579892190E+02  0.17950922312E+03  0.12500000000E+03 0.  0.
         25    1    1    2    0    0  0.21651010109E+03 -0.70780555166E+02  0.27786376390E+02  0.26131129631E+03  0.12500000000E+03 0.  0.
         25    1    1    2    0    0 -0.10900201523E+03  0.30668600700E+02  0.29839939558E+02  0.17128171060E+03  0.12500000000E+03 0.  0.
</event>
<event>
 5    0  0.5655767E-005  0.2202079E+03  0.7546771E-02  0.1133728E+00
         21   -1    0    0  502  501  0.00000000000E+00  0.00000000000E+00  0.91667178948E+03  0.91667178948E+03  0.00000000000E+00 0. -1.
         21   -1    0    0  501  502 -0.00000000000E+00 -0.00000000000E+00 -0.52899552167E+02  0.52899552167E+02  0.00000000000E+00 0. -1.
         25    1    1    2    0    0 -0.49536663743E+01 -0.18603386557E+02  0.31088765968E+03  0.33562890481E+03  0.12500000000E+03 0.  0.
         25    1    1    2    0    0 -0.81622471337E+02 -0.17130158346E+02  0.32001929058E+03  0.35354351429E+03  0.12500000000E+03 0.  0.
         25    1    1    2    0    0  0.86576137711E+02  0.35733544903E+02  0.23286528706E+03  0.28039892255E+03  0.12500000000E+03 0.  0.
</event>
<event>
 5    0  0.5655767E-005  0.2971815E+03  0.7546771E-02  0.1086658E+00
         21   -1    0    0  502  501  0.00000000000E+00  0.00000000000E+00  0.31364378321E+03  0.31364378321E+03  0.00000000000E+00 0. -1.
         21   -1    0    0  501  502 -0.00000000000E+00 -0.00000000000E+00 -0.28158325217E+03  0.28158325217E+03  0.00000000000E+00 0. -1.
         25    1    1    2    0    0 -0.28915243062E+02  0.86141816830E+02 -0.67191212011E+02  0.16851161046E+03  0.12500000000E+03 0.  0.
         25    1    1    2    0    0  0.14863104773E+03 -0.12959123578E+03  0.30409316109E+02  0.23544596672E+03  0.12500000000E+03 0.  0.
         25    1    1    2    0    0 -0.11971580467E+03  0.43449418946E+02  0.68842426948E+02  0.19126945820E+03  0.12500000000E+03 0.  0.
</event>
<event>
 5    0  0.5655767E-005  0.5702946E+03  0.7546771E-02  0.9969027E-01
         21   -1    0    0  502  501  0.00000000000E+00  0.00000000000E+00  0.69321373693E+03  0.69321373693E+03  0.00000000000E+00 0. -1.
         21   -1    0    0  501  502 -0.00000000000E+00 -0.00000000000E+00 -0.46917113946E+03  0.46917113946E+03  0.00000000000E+00 0. -1.
         25    1    1    2    0    0  0.70884368468E+02 -0.26845781976E+03 -0.26414656826E+03  0.40310371396E+03  0.12500000000E+03 0.  0.
         25    1    1    2    0    0 -0.11443324516E+03  0.85868031009E+02 -0.31677335293E+02  0.19260513991E+03  0.12500000000E+03 0.  0.
         25    1    1    2    0    0  0.43548876692E+02  0.18258978875E+03  0.51986650102E+03  0.56667602252E+03  0.12500000000E+03 0.  0.
</event>
<event>
 5    0  0.5655767E-005  0.2885448E+03  0.7546771E-02  0.1091111E+00
         21   -1    0    0  502  501  0.00000000000E+00  0.00000000000E+00  0.74679075901E+03  0.74679075901E+03  0.00000000000E+00 0.  1.
         21   -1    0    0  501  502 -0.00000000000E+00 -0.00000000000E+00 -0.11148782709E+03  0.11148782709E+03  0.00000000000E+00 0.  1.
         25    1    1    2    0    0 -0.11792571316E+03 -0.92898088891E+01  0.24018950500E+03  0.29548057920E+03  0.12500000000E+03 0.  0.
         25    1    1    2    0    0  0.17877761651E+03  0.73585278715E+02  0.15342435309E+03  0.27665910708E+03  0.12500000000E+03 0.  0.
         25    1    1    2    0    0 -0.60851903346E+02 -0.64295469825E+02  0.24168907383E+03  0.28613889982E+03  0.12500000000E+03 0.  0.
</event>
<event>
 5    0  0.5655767E-005  0.2358197E+03  0.7546771E-02  0.1122609E+00
         21   -1    0    0  502  501  0.00000000000E+00  0.00000000000E+00  0.20675709974E+04  0.20675709974E+04  0.00000000000E+00 0. -1.
         21   -1    0    0  501  502 -0.00000000000E+00 -0.00000000000E+00 -0.26896737841E+02  0.26896737841E+02  0.00000000000E+00 0. -1.
         25    1    1    2    0    0  0.21846367710E+02 -0.35380244616E+02  0.49831851890E+03  0.51543706868E+03  0.12500000000E+03 0.  0.
         25    1    1    2    0    0 -0.97967166361E+02  0.29635703992E+02  0.11288358984E+04  0.11403382508E+04  0.12500000000E+03 0.  0.
         25    1    1    2    0    0  0.76120798651E+02  0.57445406237E+01  0.41351984222E+03  0.43869241576E+03  0.12500000000E+03 0.  0.
</event>
<event>
 5    0  0.5655767E-005  0.3608157E+03  0.7546771E-02  0.1058261E+00
         21   -1    0    0  502  501  0.00000000000E+00  0.00000000000E+00  0.24783490635E+03  0.24783490635E+03  0.00000000000E+00 0.  1.
         21   -1    0    0  501  502 -0.00000000000E+00 -0.00000000000E+00 -0.52530119894E+03  0.52530119894E+03  0.00000000000E+00 0.  1.
         25    1    1    2    0    0  0.86869940582E+02  0.82502387861E+02 -0.27850925313E+02  0.17536734194E+03  0.12500000000E+03 0.  0.
         25    1    1    2    0    0 -0.14068108236E+03 -0.21928719611E+03 -0.28007824068E+03  0.40242621959E+03  0.12500000000E+03 0.  0.
         25    1    1    2    0    0  0.53811141778E+02  0.13678480825E+03  0.30462873394E+02  0.19534254376E+03  0.12500000000E+03 0.  0.
</event>
<event>
 5    0  0.5655767E-005  0.5272888E+03  0.7546771E-02  0.1006892E+00
         21   -1    0    0  502  501  0.00000000000E+00  0.00000000000E+00  0.31625011833E+04  0.31625011833E+04  0.00000000000E+00 0.  1.
         21   -1    0    0  501  502 -0.00000000000E+00 -0.00000000000E+00 -0.87915695405E+02  0.87915695405E+02  0.00000000000E+00 0.  1.
         25    1    1    2    0    0 -0.26107292048E+03 -0.35100992948E+03  0.13785500608E+04  0.14516860234E+04  0.12500000000E+03 0.  0.
         25    1    1    2    0    0  0.20993503313E+03  0.47781987060E+02  0.51637931080E+03  0.57326122234E+03  0.12500000000E+03 0.  0.
         25    1    1    2    0    0  0.51137887349E+02  0.30322794242E+03  0.11796561162E+04  0.12254696329E+04  0.12500000000E+03 0.  0.
</event>
<event>
 5    0  0.5655767E-005  0.2863224E+03  0.7546771E-02  0.1092285E+00
         21   -1    0    0  502  501  0.00000000000E+00  0.00000000000E+00  0.83795507796E+03  0.83795507796E+03  0.00000000000E+00 0.  1.
         21   -1    0    0  501  502 -0.00000000000E+00 -0.00000000000E+00 -0.97834017288E+02  0.97834017288E+02  0.00000000000E+00 0.  1.
         25    1    1    2    0    0  0.13073192500E+03  0.13620325957E+02  0.28866286552E+03  0.34092169105E+03  0.12500000000E+03 0.  0.
         25    1    1    2    0    0 -0.46104136637E+02 -0.13660656456E+03  0.25239472173E+03  0.31640960866E+03  0.12500000000E+03 0.  0.
         25    1    1    2    0    0 -0.84627788362E+02  0.12298623860E+03  0.19906347342E+03  0.27845779554E+03  0.12500000000E+03 0.  0.
</event>
<event>
 5    0  0.5655767E-005  0.4421378E+03  0.7546771E-02  0.1030093E+00
         21   -1    0    0  502  501  0.00000000000E+00  0.00000000000E+00  0.10366487584E+04  0.10366487584E+04  0.00000000000E+00 0.  1.
         21   -1    0    0  501  502 -0.00000000000E+00 -0.00000000000E+00 -0.18857478993E+03  0.18857478993E+03  0.00000000000E+00 0.  1.
         25    1    1    2    0    0  0.19495246104E+03  0.32297063543E+03  0.43884672649E+03  0.59205400325E+03  0.12500000000E+03 0.  0.
         25    1    1    2    0    0 -0.23659297123E+02 -0.11639505615E+03  0.78983999341E+02  0.18966033742E+03  0.12500000000E+03 0.  0.
         25    1    1    2    0    0 -0.17129316392E+03 -0.20657557928E+03  0.33024324262E+03  0.44350920763E+03  0.12500000000E+03 0.  0.
</event>
<event>
 5    0  0.5655767E-005  0.3278631E+03  0.7546771E-02  0.1072086E+00
         21   -1    0    0  502  501  0.00000000000E+00  0.00000000000E+00  0.11942405398E+03  0.11942405398E+03  0.00000000000E+00 0. -1.
         21   -1    0    0  501  502 -0.00000000000E+00 -0.00000000000E+00 -0.90010494565E+03  0.90010494565E+03  0.00000000000E+00 0. -1.
         25    1    1    2    0    0 -0.35115457541E+02 -0.11852648913E+03 -0.27149675678E+03  0.32344568775E+03  0.12500000000E+03 0.  0.
         25    1    1    2    0    0 -0.77478308697E+02  0.78764119717E+02 -0.92264406566E+01  0.16708321903E+03  0.12500000000E+03 0.  0.
         25    1    1    2    0    0  0.11259376624E+03  0.39762369413E+02 -0.49995769424E+03  0.52900009286E+03  0.12500000000E+03 0.  0.
</event>
<event>
 5    0  0.5655767E-005  0.7017682E+03  0.7546771E-02  0.9714213E-01
         21   -1    0    0  502  501  0.00000000000E+00  0.00000000000E+00  0.10245392750E+04  0.10245392750E+04  0.00000000000E+00 0.  1.
         21   -1    0    0  501  502 -0.00000000000E+00 -0.00000000000E+00 -0.48068300724E+03  0.48068300724E+03  0.00000000000E+00 0.  1.
         25    1    1    2    0    0 -0.36209397984E+03  0.41285930636E+03  0.11726565600E+03  0.57527479622E+03  0.12500000000E+03 0.  0.
         25    1    1    2    0    0  0.29002896416E+03  0.66864312947E+02  0.13175313389E+03  0.34867108382E+03  0.12500000000E+03 0.  0.
         25    1    1    2    0    0  0.72065015675E+02 -0.47972361931E+03  0.29483747787E+03  0.58127640221E+03  0.12500000000E+03 0.  0.
</event>
<event>
 5    0  0.5655767E-005  0.2092314E+03  0.7546771E-02  0.1142176E+00
         21   -1    0    0  502  501  0.00000000000E+00  0.00000000000E+00  0.40959620697E+02  0.40959620697E+02  0.00000000000E+00 0.  1.
         21   -1    0    0  501  502 -0.00000000000E+00 -0.00000000000E+00 -0.10688036539E+04  0.10688036539E+04  0.00000000000E+00 0.  1.
         25    1    1    2    0    0  0.60877519220E+02 -0.17746097742E+02 -0.35116294157E+03  0.37810237749E+03  0.12500000000E+03 0.  0.
         25    1    1    2    0    0 -0.33040441358E+02 -0.42133608504E+02 -0.36134043493E+03  0.38608136662E+03  0.12500000000E+03 0.  0.
         25    1    1    2    0    0 -0.27837077862E+02  0.59879706246E+02 -0.31534065666E+03  0.34557953045E+03  0.12500000000E+03 0.  0.
</event>
<event>
 5    0  0.5655767E-005  0.2455176E+03  0.7546771E-02  0.1116171E+00
         21   -1    0    0  502  501  0.00000000000E+00  0.00000000000E+00  0.32587324279E+03  0.32587324279E+03  0.00000000000E+00 0. -1.
         21   -1    0    0  501  502 -0.00000000000E+00 -0.00000000000E+00 -0.18497654088E+03  0.18497654088E+03  0.00000000000E+00 0. -1.
         25    1    1    2    0    0  0.68092984503E+00 -0.34329010151E+02  0.10505413081E+02  0.13005502031E+03  0.12500000000E+03 0.  0.
         25    1    1    2    0    0  0.10079701415E+03  0.12503300384E+02 -0.16310666764E+02  0.16188702367E+03  0.12500000000E+03 0.  0.
         25    1    1    2    0    0 -0.10147794400E+03  0.21825709767E+02  0.14670195559E+03  0.21890773969E+03  0.12500000000E+03 0.  0.
</event>
<event>
 5    0  0.5655767E-005  0.4045676E+03  0.7546771E-02  0.1042209E+00
         21   -1    0    0  502  501  0.00000000000E+00  0.00000000000E+00  0.21409432205E+03  0.21409432205E+03  0.00000000000E+00 0.  1.
         21   -1    0    0  501  502 -0.00000000000E+00 -0.00000000000E+00 -0.76449936552E+03  0.76449936552E+03  0.00000000000E+00 0.  1.
         25    1    1    2    0    0 -0.11042497872E+03  0.16763637871E+03 -0.49926936148E+03  0.55244051870E+03  0.12500000000E+03 0.  0.
         25    1    1    2    0    0  0.30728481347E+02 -0.10227731489E+03  0.10987204648E+03  0.19774163776E+03  0.12500000000E+03 0.  0.
         25    1    1    2    0    0  0.79696497371E+02 -0.65359063822E+02 -0.16100772847E+03  0.22841153111E+03  0.12500000000E+03 0.  0.
</event>
<event>
 5    0  0.5655767E-005  0.3337312E+03  0.7546771E-02  0.1069498E+00
         21   -1    0    0  502  501  0.00000000000E+00  0.00000000000E+00  0.26885762529E+03  0.26885762529E+03  0.00000000000E+00 0. -1.
         21   -1    0    0  501  502 -0.00000000000E+00 -0.00000000000E+00 -0.41425841011E+03  0.41425841011E+03  0.00000000000E+00 0. -1.
         25    1    1    2    0    0  0.19560958849E+02  0.10721720685E+03  0.65389824956E+02  0.17826662549E+03  0.12500000000E+03 0.  0.
         25    1    1    2    0    0 -0.16341055597E+03 -0.58421620036E+02  0.35734548713E+01  0.21390153125E+03  0.12500000000E+03 0.  0.
         25    1    1    2    0    0  0.14384959712E+03 -0.48795586814E+02 -0.21436406465E+03  0.29094787866E+03  0.12500000000E+03 0.  0.
</event>
<event>
 5    0  0.5655767E-005  0.3360673E+03  0.7546771E-02  0.1068483E+00
         21   -1    0    0  502  501  0.00000000000E+00  0.00000000000E+00  0.26495807730E+03  0.26495807730E+03  0.00000000000E+00 0. -1.
         21   -1    0    0  501  502 -0.00000000000E+00 -0.00000000000E+00 -0.42626083530E+03  0.42626083530E+03  0.00000000000E+00 0. -1.
         25    1    1    2    0    0  0.44320179385E+02 -0.61617283493E+01 -0.22910589353E+03  0.26479568661E+03  0.12500000000E+03 0.  0.
         25    1    1    2    0    0  0.88211845482E+02 -0.67490115097E+02 -0.75244506243E+02  0.18336570301E+03  0.12500000000E+03 0.  0.
         25    1    1    2    0    0 -0.13253202487E+03  0.73651843446E+02  0.14304764178E+03  0.24305752298E+03  0.12500000000E+03 0.  0.
</event>
<event>
 5    0  0.5655767E-005  0.4288593E+03  0.7546771E-02  0.1034221E+00
         21   -1    0    0  502  501  0.00000000000E+00  0.00000000000E+00  0.22928425571E+04  0.22928425571E+04  0.00000000000E+00 0. -1.
         21   -1    0    0  501  502 -0.00000000000E+00 -0.00000000000E+00 -0.80214968048E+02  0.80214968048E+02  0.00000000000E+00 0. -1.
         25    1    1    2    0    0  0.20077251526E+03 -0.18133036367E+03  0.11964766935E+04  0.12330335688E+04  0.12500000000E+03 0.  0.
         25    1    1    2    0    0 -0.20064826123E+03 -0.45568018676E+02  0.63560773186E+03  0.67967518555E+03  0.12500000000E+03 0.  0.
         25    1    1    2    0    0 -0.12425403451E+00  0.22689838234E+03  0.38054316370E+03  0.46034877081E+03  0.12500000000E+03 0.  0.
</event>
<event>
 5    0  0.5655767E-005  0.2973625E+03  0.7546771E-02  0.1086567E+00
         21   -1    0    0  502  501  0.00000000000E+00  0.00000000000E+00  0.53252464481E+03  0.53252464481E+03  0.00000000000E+00 0.  1.
         21   -1    0    0  501  502 -0.00000000000E+00 -0.00000000000E+00 -0.16604761904E+03  0.16604761904E+03  0.00000000000E+00 0.  1.
         25    1    1    2    0    0  0.14782731218E+03 -0.19696909611E+02  0.18124990608E+03  0.26592745426E+03  0.12500000000E+03 0.  0.
         25    1    1    2    0    0  0.64847604406E+02 -0.12071707857E+02  0.81545787347E+02  0.16317369078E+03  0.12500000000E+03 0.  0.
         25    1    1    2    0    0 -0.21267491658E+03  0.31768617468E+02  0.10368133235E+03  0.26947111882E+03  0.12500000000E+03 0.  0.
</event>
<event>
 5    0  0.5655767E-005  0.2921405E+03  0.7546771E-02  0.1089237E+00
         21   -1    0    0  502  501  0.00000000000E+00  0.00000000000E+00  0.22319577434E+03  0.22319577434E+03  0.00000000000E+00 0. -1.
         21   -1    0    0  501  502 -0.00000000000E+00 -0.00000000000E+00 -0.38238199152E+03  0.38238199152E+03  0.00000000000E+00 0. -1.
         25    1    1    2    0    0  0.14936329103E+03 -0.12282624298E+03 -0.88660176896E+02  0.24674137399E+03  0.12500000000E+03 0.  0.
         25    1    1    2    0    0 -0.14781053946E+03  0.72371878696E+02 -0.84569421375E+02  0.22329942103E+03  0.12500000000E+03 0.  0.
         25    1    1    2    0    0 -0.15527515629E+01  0.50454364284E+02  0.14043381090E+02  0.13553697084E+03  0.12500000000E+03 0.  0.
</event>
<event>
 5    0  0.5655767E-005  0.3334495E+03  0.7546771E-02  0.1069621E+00
         21   -1    0    0  502  501  0.00000000000E+00  0.00000000000E+00  0.10713759162E+04  0.10713759162E+04  0.00000000000E+00 0.  1.
         21   -1    0    0  501  502 -0.00000000000E+00 -0.00000000000E+00 -0.10378107586E+03  0.10378107586E+03  0.00000000000E+00 0.  1.
         25    1    1    2    0    0 -0.11949011224E+03 -0.14943729580E+03  0.27898384291E+03  0.36064716400E+03  0.12500000000E+03 0.  0.
         25    1    1    2    0    0  0.41155080981E+02  0.84111284881E+01  0.55530329767E+03  0.57074621346E+03  0.12500000000E+03 0.  0.
         25    1    1    2    0    0  0.78335031261E+02  0.14102616731E+03  0.13330769978E+03  0.24376361461E+03  0.12500000000E+03 0.  0.
</event>
<event>
 5    0  0.5655767E-005  0.2716343E+03  0.7546771E-02  0.1100348E+00
         21   -1    0    0  502  501  0.00000000000E+00  0.00000000000E+00  0.46946041389E+03  0.46946041389E+03  0.00000000000E+00 0.  1.
         21   -1    0    0  501  502 -0.00000000000E+00 -0.00000000000E+00 -0.15717021174E+03  0.15717021174E+03  0.00000000000E+00 0.  1.
         25    1    1    2    0    0 -0.96822287608E+02 -0.10226928843E+03  0.62150631421E+02  0.19829589940E+03  0.12500000000E+03 0.  0.
         25    1    1    2    0    0  0.12595136771E+03  0.73634374041E+02  0.22248032491E+03  0.29395282451E+03  0.12500000000E+03 0.  0.
         25    1    1    2    0    0 -0.29129080101E+02  0.28634914391E+02  0.27659245817E+02  0.13438190172E+03  0.12500000000E+03 0.  0.
</event>
<event>
 5    0  0.5655767E-005  0.4098062E+03  0.7546771E-02  0.1040436E+00
         21   -1    0    0  502  501  0.00000000000E+00  0.00000000000E+00  0.18557793084E+03  0.18557793084E+03  0.00000000000E+00 0. -1.
         21   -1    0    0  501  502 -0.00000000000E+00 -0.00000000000E+00 -0.90496270852E+03  0.90496270852E+03  0.00000000000E+00 0. -1.
         25    1    1    2    0    0  0.83504365579E+02 -0.36553756207E+02  0.28049611939E+02  0.15722893148E+03  0.12500000000E+03 0.  0.
         25    1    1    2    0    0  0.16007118514E+03 -0.96602519199E+02 -0.47166642618E+03  0.52254095401E+03  0.12500000000E+03 0.  0.
         25    1    1    2    0    0 -0.24357555072E+03  0.13315627541E+03 -0.27576796343E+03  0.41077075388E+03  0.12500000000E+03 0.  0.
</event>
<event>
 5    0  0.5655767E-005  0.2100542E+03  0.7546771E-02  0.1141523E+00
         21   -1    0    0  502  501  0.00000000000E+00  0.00000000000E+00  0.14315534572E+03  0.14315534572E+03  0.00000000000E+00 0.  1.
         21   -1    0    0  501  502 -0.00000000000E+00 -0.00000000000E+00 -0.30821606009E+03  0.30821606009E+03  0.00000000000E+00 0.  1.
         25    1    1    2    0    0  0.24792794709E+02  0.62551924820E+02 -0.18207859196E+02  0.14312215798E+03  0.12500000000E+03 0.  0.
         25    1    1    2    0    0 -0.27633897081E+02 -0.28662799255E+02 -0.31792041716E+02  0.13498489636E+03  0.12500000000E+03 0.  0.
         25    1    1    2    0    0  0.28411023714E+01 -0.33889125565E+02 -0.11506081346E+03  0.17326435146E+03  0.12500000000E+03 0.  0.
</event>
<event>
 5    0  0.5655767E-005  0.3255137E+03  0.7546771E-02  0.1073139E+00
         21   -1    0    0  502  501  0.00000000000E+00  0.00000000000E+00  0.71134896815E+03  0.71134896815E+03  0.00000000000E+00 0. -1.
         21   -1    0    0  501  502 -0.00000000000E+00 -0.00000000000E+00 -0.14895528380E+03  0.14895528380E+03  0.00000000000E+00 0. -1.
         25    1    1    2    0    0  0.16595440983E+03 -0.10802722334E+03  0.38675867223E+02  0.23734272651E+03  0.12500000000E+03 0.  0.
         25    1    1    2    0    0 -0.14371194596E+03  0.70652715797E+02  0.34830973466E+03  0.40322400837E+03  0.12500000000E+03 0.  0.
         25    1    1    2    0    0 -0.22242463862E+02  0.37374507543E+02  0.17540808246E+03  0.21973751706E+03  0.12500000000E+03 0.  0.
</event>
<event>
 5    0  0.5655767E-005  0.4216617E+03  0.7546771E-02  0.1036527E+00
         21   -1    0    0  502  501  0.00000000000E+00  0.00000000000E+00  0.38600777601E+03  0.38600777601E+03  0.00000000000E+00 0.  1.
         21   -1    0    0  501  502 -0.00000000000E+00 -0.00000000000E+00 -0.46060885955E+03  0.46060885955E+03  0.00000000000E+00 0.  1.
         25    1    1    2    0    0 -0.16101728232E+03  0.13439645904E+03  0.97634604154E+01  0.24435486197E+03  0.12500000000E+03 0.  0.
         25    1    1    2    0    0  0.10552338465E+03  0.14874185044E+03  0.94571326747E+02  0.24047465277E+03  0.12500000000E+03 0.  0.
         25    1    1    2    0    0  0.55493897666E+02 -0.28313830948E+03 -0.17893587070E+03  0.36178712083E+03  0.12500000000E+03 0.  0.
</event>
<event>
 5    0  0.5655767E-005  0.2329763E+03  0.7546771E-02  0.1124562E+00
         21   -1    0    0  502  501  0.00000000000E+00  0.00000000000E+00  0.31012597861E+03  0.31012597861E+03  0.00000000000E+00 0. -1.
         21   -1    0    0  501  502 -0.00000000000E+00 -0.00000000000E+00 -0.17501900709E+03  0.17501900709E+03  0.00000000000E+00 0. -1.
         25    1    1    2    0    0  0.25955189232E+01  0.10121890884E+03  0.12954427955E+03  0.20653988619E+03  0.12500000000E+03 0.  0.
         25    1    1    2    0    0 -0.28772578906E+02 -0.51732879403E+02  0.24100896936E+02  0.14039232650E+03  0.12500000000E+03 0.  0.
         25    1    1    2    0    0  0.26177059983E+02 -0.49486029434E+02 -0.18538204965E+02  0.13821277301E+03  0.12500000000E+03 0.  0.
</event>
<event>
 5    0  0.5655767E-005  0.4079318E+03  0.7546771E-02  0.1041067E+00
         21   -1    0    0  502  501  0.00000000000E+00  0.00000000000E+00  0.10615463970E+03  0.10615463970E+03  0.00000000000E+00 0.  1.
         21   -1    0    0  501  502 -0.00000000000E+00 -0.00000000000E+00 -0.15676029563E+04  0.15676029563E+04  0.00000000000E+00 0.  1.
         25    1    1    2    0    0  0.24512176411E+03 -0.10664098552E+03 -0.71627415188E+03  0.77468099221E+03  0.12500000000E+03 0.  0.
         25    1    1    2    0    0  0.67766089807E+02  0.52258245819E+02 -0.15120092297E+03  0.21403244215E+03  0.12500000000E+03 0.  0.
         25    1    1    2    0    0 -0.31288785392E+03  0.54382739697E+02 -0.59397324177E+03  0.68504416167E+03  0.12500000000E+03 0.  0.
</event>
<event>
 5    0  0.5655767E-005  0.4994242E+03  0.7546771E-02  0.1013929E+00
         21   -1    0    0  502  501  0.00000000000E+00  0.00000000000E+00  0.13711852937E+04  0.13711852937E+04  0.00000000000E+00 0.  1.
         21   -1    0    0  501  502 -0.00000000000E+00 -0.00000000000E+00 -0.18190429638E+03  0.18190429638E+03  0.00000000000E+00 0.  1.
         25    1    1    2    0    0  0.23422325107E+03  0.12810577769E+02  0.10104070977E+04  0.10447833006E+04  0.12500000000E+03 0.  0.
         25    1    1    2    0    0  0.63299960785E+02  0.31416773635E+02  0.17079184552E+02  0.14460496964E+03  0.12500000000E+03 0.  0.
         25    1    1    2    0    0 -0.29752321186E+03 -0.44227351404E+02  0.16179471511E+03  0.36370131983E+03  0.12500000000E+03 0.  0.
</event>
<event>
 5    0  0.5655767E-005  0.2288366E+03  0.7546771E-02  0.1127461E+00
         21   -1    0    0  502  501  0.00000000000E+00  0.00000000000E+00  0.99095867026E+02  0.99095867026E+02  0.00000000000E+00 0. -1.
         21   -1    0    0  501  502 -0.00000000000E+00 -0.00000000000E+00 -0.52843986591E+03  0.52843986591E+03  0.00000000000E+00 0. -1.
         25    1    1    2    0    0  0.53035457315E+02  0.65281035181E+02 -0.17531149441E+03  0.23115685878E+03  0.12500000000E+03 0.  0.
         25    1    1    2    0    0 -0.77657253238E+02 -0.85386971426E+02 -0.17991677232E+03  0.24762194740E+03  0.12500000000E+03 0.  0.
         25    1    1    2    0    0  0.24621795923E+02  0.20105936245E+02 -0.74115732146E+02  0.14875692676E+03  0.12500000000E+03 0.  0.
</event>
<event>
 5    0  0.5655767E-005  0.3250540E+03  0.7546771E-02  0.1073347E+00
         21   -1    0    0  502  501  0.00000000000E+00  0.00000000000E+00  0.25818185434E+03  0.25818185434E+03  0.00000000000E+00 0.  1.
         21   -1    0    0  501  502 -0.00000000000E+00 -0.00000000000E+00 -0.40924690978E+03  0.40924690978E+03  0.00000000000E+00 0.  1.
         25    1    1    2    0    0 -0.29092597709E+01  0.19494596906E+03 -0.85725310331E+02  0.24695388937E+03  0.12500000000E+03 0.  0.
         25    1    1    2    0    0 -0.18673408163E+02 -0.24674150391E+03 -0.29126309162E+02  0.27875330995E+03  0.12500000000E+03 0.  0.
         25    1    1    2    0    0  0.21582667934E+02  0.51795534851E+02 -0.36213435940E+02  0.14172156480E+03  0.12500000000E+03 0.  0.
</event>
<event>
 5    0  0.5655767E-005  0.2643277E+03  0.7546771E-02  0.1104571E+00
         21   -1    0    0  502  501  0.00000000000E+00  0.00000000000E+00  0.26249541638E+03  0.26249541638E+03  0.00000000000E+00 0. -1.
         21   -1    0    0  501  502 -0.00000000000E+00 -0.00000000000E+00 -0.26617269511E+03  0.26617269511E+03  0.00000000000E+00 0. -1.
         25    1    1    2    0    0  0.44925427893E+02  0.16219418100E+03  0.18925037083E+02  0.21049561385E+03  0.12500000000E+03 0.  0.
         25    1    1    2    0    0 -0.50673885153E+02 -0.47193842948E+02 -0.37006122617E+02  0.14761285364E+03  0.12500000000E+03 0.  0.
         25    1    1    2    0    0  0.57484572597E+01 -0.11500033805E+03  0.14403806802E+02  0.17055964400E+03  0.12500000000E+03 0.  0.
</event>
<event>
 5    0  0.5655767E-005  0.3484894E+03  0.7546771E-02  0.1063237E+00
         21   -1    0    0  502  501  0.00000000000E+00  0.00000000000E+00  0.14033747361E+04  0.14033747361E+04  0.00000000000E+00 0.  1.
         21   -1    0    0  501  502 -0.00000000000E+00 -0.00000000000E+00 -0.86537749318E+02  0.86537749318E+02  0.00000000000E+00 0.  1.
         25    1    1    2    0    0  0.81710970320E+02 -0.23571470268E+03  0.70799367336E+03  0.76099812434E+03  0.12500000000E+03 0.  0.
         25    1    1    2    0    0 -0.85433205129E+02  0.23724189037E+02  0.20451172817E+03  0.25556157114E+03  0.12500000000E+03 0.  0.
         25    1    1    2    0    0  0.37222348085E+01  0.21199051365E+03  0.40433158522E+03  0.47335278991E+03  0.12500000000E+03 0.  0.
</event>
<event>
 5    0  0.5655767E-005  0.2379525E+03  0.7546771E-02  0.1121164E+00
         21   -1    0    0  502  501  0.00000000000E+00  0.00000000000E+00  0.39571220421E+03  0.39571220421E+03  0.00000000000E+00 0.  1.
         21   -1    0    0  501  502 -0.00000000000E+00 -0.00000000000E+00 -0.14308734742E+03  0.14308734742E+03  0.00000000000E+00 0.  1.
         25    1    1    2    0    0 -0.80868408282E+02  0.67600609667E+02  0.19686637814E+03  0.25591192377E+03  0.12500000000E+03 0.  0.
         25    1    1    2    0    0  0.22161286056E+02 -0.23788644312E+02  0.48025441284E+02  0.13779864008E+03  0.12500000000E+03 0.  0.
         25    1    1    2    0    0  0.58707122225E+02 -0.43811965355E+02  0.77330373760E+01  0.14508898778E+03  0.12500000000E+03 0.  0.
</event>
<event>
 5    0  0.5655767E-005  0.2585849E+03  0.7546771E-02  0.1107996E+00
         21   -1    0    0  502  501  0.00000000000E+00  0.00000000000E+00  0.14794429957E+03  0.14794429957E+03  0.00000000000E+00 0.  1.
         21   -1    0    0  501  502 -0.00000000000E+00 -0.00000000000E+00 -0.45196839054E+03  0.45196839054E+03  0.00000000000E+00 0.  1.
         25    1    1    2    0    0  0.17157885766E+02 -0.52967051679E+02 -0.17602358871E+03  0.22295561305E+03  0.12500000000E+03 0.  0.
         25    1    1    2    0    0  0.85065218537E+02  0.82235231785E+01 -0.14358249681E+03  0.20867355158E+03  0.12500000000E+03 0.  0.
         25    1    1    2    0    0 -0.10222310430E+03  0.44743528501E+02  0.15581994547E+02  0.16828352549E+03  0.12500000000E+03 0.  0.
</event>
<event>
 5    0  0.6109133E-005  0.2874500E+03  0.7546771E-02  0.1091688E+00
         21   -1    0    0  502  501  0.00000000000E+00  0.00000000000E+00  0.63932371518E+03  0.63932371518E+03  0.00000000000E+00 0.  1.
         21   -1    0    0  501  502 -0.00000000000E+00 -0.00000000000E+00 -0.12924203972E+03  0.12924203972E+03  0.00000000000E+00 0.  1.
         25    1    1    2    0    0  0.67095159652E+02 -0.27269630424E+02  0.16549574059E+03  0.21967984283E+03  0.12500000000E+03 0.  0.
         25    1    1    2    0    0  0.12481664490E+03  0.60070387402E+02  0.21124160952E+03  0.28184333215E+03  0.12500000000E+03 0.  0.
         25    1    1    2    0    0 -0.19191180455E+03 -0.32800756978E+02  0.13334432535E+03  0.26704257991E+03  0.12500000000E+03 0.  0.
</event>
<event>
 5    0  0.6228617E-005  0.3349689E+03  0.7546771E-02  0.1068959E+00
         21   -1    0    0  502  501  0.00000000000E+00  0.00000000000E+00  0.60275572424E+03  0.60275572424E+03  0.00000000000E+00 0. -1.
         21   -1    0    0  501  502 -0.00000000000E+00 -0.00000000000E+00 -0.18615194227E+03  0.18615194227E+03  0.00000000000E+00 0. -1.
         25    1    1    2    0    0  0.47062202653E+02  0.34757003673E+02 -0.10425637051E+03  0.17296615569E+03  0.12500000000E+03 0.  0.
         25    1    1    2    0    0  0.76471377173E+02 -0.23202429129E+02  0.28810598598E+03  0.32406215978E+03  0.12500000000E+03 0.  0.
         25    1    1    2    0    0 -0.12353357983E+03 -0.11554574544E+02  0.23275416650E+03  0.29187935104E+03  0.12500000000E+03 0.  0.
</event>
<event>
 5    0  0.5655767E-005  0.5152889E+03  0.7546771E-02  0.1009864E+00
         21   -1    0    0  502  501  0.00000000000E+00  0.00000000000E+00  0.15576248313E+03  0.15576248313E+03  0.00000000000E+00 0.  1.
         21   -1    0    0  501  502 -0.00000000000E+00 -0.00000000000E+00 -0.17046638351E+04  0.17046638351E+04  0.00000000000E+00 0.  1.
         25    1    1    2    0    0  0.10005291651E+01 -0.27861948060E+03 -0.20984926939E+03  0.37052871939E+03  0.12500000000E+03 0.  0.
         25    1    1    2    0    0 -0.51115036468E+02  0.73847615709E+02 -0.11965170337E+04  0.12063764873E+04  0.12500000000E+03 0.  0.
         25    1    1    2    0    0  0.50114507303E+02  0.20477186489E+03 -0.14253504887E+03  0.28352111147E+03  0.12500000000E+03 0.  0.
</event>
<event>
 5    0  0.5655767E-005  0.9015142E+03  0.7546771E-02  0.9423691E-01
         21   -1    0    0  502  501  0.00000000000E+00  0.00000000000E+00  0.11578047664E+04  0.11578047664E+04  0.00000000000E+00 0. -1.
         21   -1    0    0  501  502 -0.00000000000E+00 -0.00000000000E+00 -0.70195580684E+03  0.70195580684E+03  0.00000000000E+00 0. -1.
         25    1    1    2    0    0 -0.71420947419E+03 -0.27596645121E+02  0.30565059991E+03  0.78733984852E+03  0.12500000000E+03 0.  0.
         25    1    1    2    0    0  0.72295700908E+03 -0.22932041106E+03  0.53042636002E+02  0.77051489872E+03  0.12500000000E+03 0.  0.
         25    1    1    2    0    0 -0.87475348906E+01  0.25691705618E+03  0.97155723617E+02  0.30190582597E+03  0.12500000000E+03 0.  0.
</event>
<event>
 5    0  0.8064546E-005  0.2928089E+03  0.7546771E-02  0.1088892E+00
         21   -1    0    0  502  501  0.00000000000E+00  0.00000000000E+00  0.27053370632E+03  0.27053370632E+03  0.00000000000E+00 0. -1.
         21   -1    0    0  501  502 -0.00000000000E+00 -0.00000000000E+00 -0.31691823764E+03  0.31691823764E+03  0.00000000000E+00 0. -1.
         25    1    1    2    0    0  0.24164012236E+02 -0.73616245958E+02  0.12070034212E+03  0.19025462871E+03  0.12500000000E+03 0.  0.
         25    1    1    2    0    0  0.23130283501E+02 -0.84933174608E+02 -0.75463231438E+02  0.17049443822E+03  0.12500000000E+03 0.  0.
         25    1    1    2    0    0 -0.47294295737E+02  0.15854942057E+03 -0.91621642001E+02  0.22670287703E+03  0.12500000000E+03 0.  0.
</event>
<event>
 5    0  0.5655767E-005  0.2666864E+03  0.7546771E-02  0.1103191E+00
         21   -1    0    0  502  501  0.00000000000E+00  0.00000000000E+00  0.10896795052E+03  0.10896795052E+03  0.00000000000E+00 0. -1.
         21   -1    0    0  501  502 -0.00000000000E+00 -0.00000000000E+00 -0.65268408544E+03  0.65268408544E+03  0.00000000000E+00 0. -1.
         25    1    1    2    0    0 -0.17002965150E+03  0.18961921857E+01 -0.26893672979E+03  0.34185617233E+03  0.12500000000E+03 0.  0.
         25    1    1    2    0    0  0.12889019022E+03  0.29369537172E+02 -0.16453708293E+03  0.24530124849E+03  0.12500000000E+03 0.  0.
         25    1    1    2    0    0  0.41139461278E+02 -0.31265729357E+02 -0.11024232220E+03  0.17449461513E+03  0.12500000000E+03 0.  0.
</event>
<event>
 5    0  0.5655767E-005  0.3023433E+03  0.7546771E-02  0.1084075E+00
         21   -1    0    0  502  501  0.00000000000E+00  0.00000000000E+00  0.72168705370E+03  0.72168705370E+03  0.00000000000E+00 0. -1.
         21   -1    0    0  501  502 -0.00000000000E+00 -0.00000000000E+00 -0.12666357960E+03  0.12666357960E+03  0.00000000000E+00 0.  1.
         25    1    1    2    0    0 -0.12968138568E+03  0.13540477038E+03  0.22686224238E+03  0.31975489152E+03  0.12500000000E+03 0.  0.
         25    1    1    2    0    0 -0.51652264803E+01  0.53271166590E+01  0.22169005692E+03  0.25461056355E+03  0.12500000000E+03 0.  0.
         25    1    1    2    0    0  0.13484661216E+03 -0.14073188704E+03  0.14647117480E+03  0.27398517822E+03  0.12500000000E+03 0.  0.
</event>
<event>
 5    0  0.5655767E-005  0.2938474E+03  0.7546771E-02  0.1088357E+00
         21   -1    0    0  502  501  0.00000000000E+00  0.00000000000E+00  0.16170488331E+03  0.16170488331E+03  0.00000000000E+00 0. -1.
         21   -1    0    0  501  502 -0.00000000000E+00 -0.00000000000E+00 -0.53397472915E+03  0.53397472915E+03  0.00000000000E+00 0. -1.
         25    1    1    2    0    0 -0.79494778818E+02 -0.14658108175E+03 -0.13968413739E+03  0.25088262519E+03  0.12500000000E+03 0.  0.
         25    1    1    2    0    0  0.64998611309E+02  0.82743409423E+02  0.10498602800E+02  0.16372694322E+03  0.12500000000E+03 0.  0.
         25    1    1    2    0    0  0.14496167509E+02  0.63837672325E+02 -0.24308431125E+03  0.28107004404E+03  0.12500000000E+03 0.  0.
</event>
<event>
 5    0  0.5655767E-005  0.2734298E+03  0.7546771E-02  0.1099333E+00
         21   -1    0    0  502  501  0.00000000000E+00  0.00000000000E+00  0.27510746992E+03  0.27510746992E+03  0.00000000000E+00 0. -1.
         21   -1    0    0  501  502 -0.00000000000E+00 -0.00000000000E+00 -0.27176237402E+03  0.27176237402E+03  0.00000000000E+00 0. -1.
         25    1    1    2    0    0 -0.16785857083E+03  0.75202438316E+02 -0.44537738540E+02  0.22680501909E+03  0.12500000000E+03 0.  0.
         25    1    1    2    0    0  0.92583235667E+02 -0.25115195257E+02  0.51438973842E+02  0.16575100781E+03  0.12500000000E+03 0.  0.
         25    1    1    2    0    0  0.75275335161E+02 -0.50087243059E+02 -0.35561394013E+01  0.15431381704E+03  0.12500000000E+03 0.  0.
</event>
<event>
 5    0  0.5655767E-005  0.3034691E+03  0.7546771E-02  0.1083519E+00
         21   -1    0    0  502  501  0.00000000000E+00  0.00000000000E+00  0.29265834247E+04  0.29265834247E+04  0.00000000000E+00 0. -1.
         21   -1    0    0  501  502 -0.00000000000E+00 -0.00000000000E+00 -0.31467915032E+02  0.31467915032E+02  0.00000000000E+00 0. -1.
         25    1    1    2    0    0  0.99033795459E+01 -0.70636877584E+02  0.64089244007E+03  0.65685292505E+03  0.12500000000E+03 0.  0.
         25    1    1    2    0    0 -0.10071941221E+02 -0.14654191960E+03  0.66737864473E+03  0.69469074677E+03  0.12500000000E+03 0.  0.
         25    1    1    2    0    0  0.16856167518E+00  0.21717879718E+03  0.15868444249E+04  0.16065076680E+04  0.12500000000E+03 0.  0.
</event>
<event>
 5    0  0.5655767E-005  0.2919057E+03  0.7546771E-02  0.1089358E+00
         21   -1    0    0  502  501  0.00000000000E+00  0.00000000000E+00  0.61154134548E+03  0.61154134548E+03  0.00000000000E+00 0. -1.
         21   -1    0    0  501  502 -0.00000000000E+00 -0.00000000000E+00 -0.13933469031E+03  0.13933469031E+03  0.00000000000E+00 0. -1.
         25    1    1    2    0    0 -0.14041480255E+02 -0.50889622897E+02  0.46809819179E+03  0.48736827353E+03  0.12500000000E+03 0.  0.
         25    1    1    2    0    0  0.32274953485E+02  0.57050283383E+01 -0.14178579405E+01  0.12923323989E+03  0.12500000000E+03 0.  0.
         25    1    1    2    0    0 -0.18233473231E+02  0.45184594558E+02  0.55263213134E+01  0.13427452237E+03  0.12500000000E+03 0.  0.
</event>
<event>
 5    0  0.5755444E-005  0.2623683E+03  0.7546771E-02  0.1105729E+00
         21   -1    0    0  502  501  0.00000000000E+00  0.00000000000E+00  0.20013052852E+03  0.20013052852E+03  0.00000000000E+00 0.  1.
         21   -1    0    0  501  502 -0.00000000000E+00 -0.00000000000E+00 -0.34396126095E+03  0.34396126095E+03  0.00000000000E+00 0.  1.
         25    1    1    2    0    0  0.68371512564E+02 -0.24104656421E+02 -0.10868617438E+02  0.14490971340E+03  0.12500000000E+03 0.  0.
         25    1    1    2    0    0 -0.12737000493E+03 -0.77874041843E+02 -0.25024847751E+02  0.19631283084E+03  0.12500000000E+03 0.  0.
         25    1    1    2    0    0  0.58998492363E+02  0.10197869826E+03 -0.10793726724E+03  0.20286924523E+03  0.12500000000E+03 0.  0.
</event>
<event>
 5    0  0.5655767E-005  0.3548873E+03  0.7546771E-02  0.1060627E+00
         21   -1    0    0  502  501  0.00000000000E+00  0.00000000000E+00  0.44826351860E+03  0.44826351860E+03  0.00000000000E+00 0.  1.
         21   -1    0    0  501  502 -0.00000000000E+00 -0.00000000000E+00 -0.28096202815E+03  0.28096202815E+03  0.00000000000E+00 0.  1.
         25    1    1    2    0    0  0.25729568250E+03  0.25409436298E+01  0.35965288349E+02  0.28831584520E+03  0.12500000000E+03 0.  0.
         25    1    1    2    0    0 -0.44075686835E+02 -0.56485546557E+02 -0.21009927261E+02  0.14560116821E+03  0.12500000000E+03 0.  0.
         25    1    1    2    0    0 -0.21321999567E+03  0.53944602927E+02  0.15234612936E+03  0.29530853335E+03  0.12500000000E+03 0.  0.
</event>
<event>
 5    0  0.5655767E-005  0.2492685E+03  0.7546771E-02  0.1113768E+00
         21   -1    0    0  502  501  0.00000000000E+00  0.00000000000E+00  0.40616067696E+03  0.40616067696E+03  0.00000000000E+00 0. -1.
         21   -1    0    0  501  502 -0.00000000000E+00 -0.00000000000E+00 -0.15298079177E+03  0.15298079177E+03  0.00000000000E+00 0. -1.
         25    1    1    2    0    0 -0.30899975889E+02 -0.70835672069E+02 -0.17898944915E+02  0.14804686142E+03  0.12500000000E+03 0.  0.
         25    1    1    2    0    0 -0.26896001389E+02 -0.11603512504E+01  0.42597393538E+02  0.13477492067E+03  0.12500000000E+03 0.  0.
         25    1    1    2    0    0  0.57795977278E+02  0.71996023320E+02  0.22848143657E+03  0.27631968664E+03  0.12500000000E+03 0.  0.
</event>
<event>
 5    0  0.5655767E-005  0.2403112E+03  0.7546771E-02  0.1119586E+00
         21   -1    0    0  502  501  0.00000000000E+00  0.00000000000E+00  0.10045492616E+03  0.10045492616E+03  0.00000000000E+00 0. -1.
         21   -1    0    0  501  502 -0.00000000000E+00 -0.00000000000E+00 -0.57487941083E+03  0.57487941083E+03  0.00000000000E+00 0. -1.
         25    1    1    2    0    0  0.95362123564E+02 -0.56140097560E+02 -0.22257569339E+03  0.27822757673E+03  0.12500000000E+03 0.  0.
         25    1    1    2    0    0 -0.41538333296E+02 -0.25753738523E+02 -0.17532231457E+03  0.22079764982E+03  0.12500000000E+03 0.  0.
         25    1    1    2    0    0 -0.53823790268E+02  0.81893836083E+02 -0.76526476708E+02  0.17630911044E+03  0.12500000000E+03 0.  0.
</event>
<event>
 5    0  0.5655767E-005  0.2853657E+03  0.7546771E-02  0.1092794E+00
         21   -1    0    0  502  501  0.00000000000E+00  0.00000000000E+00  0.11471194976E+04  0.11471194976E+04  0.00000000000E+00 0.  1.
         21   -1    0    0  501  502 -0.00000000000E+00 -0.00000000000E+00 -0.70989613049E+02  0.70989613049E+02  0.00000000000E+00 0.  1.
         25    1    1    2    0    0  0.13616275107E+03 -0.88895212618E+02  0.48612286635E+03  0.52762021834E+03  0.12500000000E+03 0.  0.
         25    1    1    2    0    0  0.34376011645E+02  0.32567718898E+02  0.28834648327E+03  0.31782237320E+03  0.12500000000E+03 0.  0.
         25    1    1    2    0    0 -0.17053876272E+03  0.56327493720E+02  0.30166053494E+03  0.37266651913E+03  0.12500000000E+03 0.  0.
</event>
<event>
 5    0  0.5655767E-005  0.4318892E+03  0.7546771E-02  0.1033265E+00
         21   -1    0    0  502  501  0.00000000000E+00  0.00000000000E+00  0.10332964759E+04  0.10332964759E+04  0.00000000000E+00 0. -1.
         21   -1    0    0  501  502 -0.00000000000E+00 -0.00000000000E+00 -0.18051768435E+03  0.18051768435E+03  0.00000000000E+00 0. -1.
         25    1    1    2    0    0  0.14369656161E+03 -0.26179412045E+03  0.11605324247E+03  0.34391600487E+03  0.12500000000E+03 0.  0.
         25    1    1    2    0    0  0.26553254157E+02  0.71278099561E+01  0.25753557410E+03  0.28758555754E+03  0.12500000000E+03 0.  0.
         25    1    1    2    0    0 -0.17024981576E+03  0.25466631049E+03  0.47918997495E+03  0.58231259780E+03  0.12500000000E+03 0.  0.
</event>
<event>
 5    0  0.5655767E-005  0.3646282E+03  0.7546771E-02  0.1056766E+00
         21   -1    0    0  502  501  0.00000000000E+00  0.00000000000E+00  0.70744762722E+03  0.70744762722E+03  0.00000000000E+00 0. -1.
         21   -1    0    0  501  502 -0.00000000000E+00 -0.00000000000E+00 -0.18793432129E+03  0.18793432129E+03  0.00000000000E+00 0. -1.
         25    1    1    2    0    0  0.37133302785E+02  0.15213215275E+03  0.23347391072E+03  0.30766563192E+03  0.12500000000E+03 0.  0.
         25    1    1    2    0    0  0.13864267637E+03 -0.11523836904E+03 -0.99724069888E+01  0.21960446788E+03  0.12500000000E+03 0.  0.
         25    1    1    2    0    0 -0.17577597916E+03 -0.36893783708E+02  0.29601180220E+03  0.36811184871E+03  0.12500000000E+03 0.  0.
</event>
<event>
 5    0  0.5655767E-005  0.3457955E+03  0.7546771E-02  0.1064354E+00
         21   -1    0    0  502  501  0.00000000000E+00  0.00000000000E+00  0.91724622905E+03  0.91724622905E+03  0.00000000000E+00 0. -1.
         21   -1    0    0  501  502 -0.00000000000E+00 -0.00000000000E+00 -0.13036253233E+03  0.13036253233E+03  0.00000000000E+00 0. -1.
         25    1    1    2    0    0 -0.47995343970E+02 -0.33617695057E+02  0.41680481171E+03  0.43907283396E+03  0.12500000000E+03 0.  0.
         25    1    1    2    0    0 -0.60707389766E+02 -0.88760994240E+02  0.36724112914E+03  0.40256049011E+03  0.12500000000E+03 0.  0.
         25    1    1    2    0    0  0.10870273374E+03  0.12237868930E+03  0.28377558740E+01  0.20597543731E+03  0.12500000000E+03 0.  0.
</event>
<event>
 5    0  0.5655767E-005  0.2608443E+03  0.7546771E-02  0.1106637E+00
         21   -1    0    0  502  501  0.00000000000E+00  0.00000000000E+00  0.32615062434E+02  0.32615062434E+02  0.00000000000E+00 0.  1.
         21   -1    0    0  501  502 -0.00000000000E+00 -0.00000000000E+00 -0.20861455249E+04  0.20861455249E+04  0.00000000000E+00 0.  1.
         25    1    1    2    0    0 -0.98728330707E+02  0.57201900374E+02 -0.56462087782E+03  0.58944132563E+03  0.12500000000E+03 0.  0.
         25    1    1    2    0    0  0.72424588794E+02 -0.12942290115E+03 -0.10091273377E+04  0.10275984586E+04  0.12500000000E+03 0.  0.
         25    1    1    2    0    0  0.26303741913E+02  0.72221000771E+02 -0.47978224692E+03  0.50172080309E+03  0.12500000000E+03 0.  0.
</event>
<event>
 5    0  0.5655767E-005  0.3147079E+03  0.7546771E-02  0.1078111E+00
         21   -1    0    0  502  501  0.00000000000E+00  0.00000000000E+00  0.13836833697E+04  0.13836833697E+04  0.00000000000E+00 0.  1.
         21   -1    0    0  501  502 -0.00000000000E+00 -0.00000000000E+00 -0.71577850243E+02  0.71577850243E+02  0.00000000000E+00 0.  1.
         25    1    1    2    0    0  0.19341339680E+03 -0.32482196004E+02  0.89970379234E+03  0.92927700341E+03  0.12500000000E+03 0.  0.
         25    1    1    2    0    0 -0.12858730670E+03  0.44398295490E+02  0.22048055035E+03  0.28765009503E+03  0.12500000000E+03 0.  0.
         25    1    1    2    0    0 -0.64826090102E+02 -0.11916099487E+02  0.19192117679E+03  0.23833412153E+03  0.12500000000E+03 0.  0.
</event>
<event>
 5    0  0.5655767E-005  0.3072724E+03  0.7546771E-02  0.1081661E+00
         21   -1    0    0  502  501  0.00000000000E+00  0.00000000000E+00  0.18710641081E+03  0.18710641081E+03  0.00000000000E+00 0. -1.
         21   -1    0    0  501  502 -0.00000000000E+00 -0.00000000000E+00 -0.50461286792E+03  0.50461286792E+03  0.00000000000E+00 0. -1.
         25    1    1    2    0    0  0.44745143125E+02  0.26372290034E+02  0.10767735194E+03  0.17296542324E+03  0.12500000000E+03 0.  0.
         25    1    1    2    0    0 -0.15132469193E+02 -0.87990207533E+02 -0.24290818538E+03  0.28740329638E+03  0.12500000000E+03 0.  0.
         25    1    1    2    0    0 -0.29612673932E+02  0.61617917498E+02 -0.18227562368E+03  0.23135055911E+03  0.12500000000E+03 0.  0.
</event>
<event>
 5    0  0.5655767E-005  0.3560259E+03  0.7546771E-02  0.1060169E+00
         21   -1    0    0  502  501  0.00000000000E+00  0.00000000000E+00  0.54497405982E+03  0.54497405982E+03  0.00000000000E+00 0.  1.
         21   -1    0    0  501  502 -0.00000000000E+00 -0.00000000000E+00 -0.23258800174E+03  0.23258800174E+03  0.00000000000E+00 0.  1.
         25    1    1    2    0    0 -0.95713971816E+02  0.10766790756E+03  0.11684528477E+03  0.22367691721E+03  0.12500000000E+03 0.  0.
         25    1    1    2    0    0 -0.15521646347E+03 -0.12845837413E+03  0.88274015885E+02  0.25300396498E+03  0.12500000000E+03 0.  0.
         25    1    1    2    0    0  0.25093043528E+03  0.20790466574E+02  0.10726675743E+03  0.30088117937E+03  0.12500000000E+03 0.  0.
</event>
<event>
 5    0  0.5655767E-005  0.2611407E+03  0.7546771E-02  0.1106460E+00
         21   -1    0    0  502  501  0.00000000000E+00  0.00000000000E+00  0.34738144873E+02  0.34738144873E+02  0.00000000000E+00 0. -1.
         21   -1    0    0  501  502 -0.00000000000E+00 -0.00000000000E+00 -0.19630998419E+04  0.19630998419E+04  0.00000000000E+00 0. -1.
         25    1    1    2    0    0 -0.15079689915E+03  0.42792810951E+02 -0.55845808289E+03  0.59335601439E+03  0.12500000000E+03 0.  0.
         25    1    1    2    0    0  0.66944748178E+02  0.22921137110E+02 -0.56311379355E+03  0.58114466557E+03  0.12500000000E+03 0.  0.
         25    1    1    2    0    0  0.83852150976E+02 -0.65713948061E+02 -0.80678982058E+03  0.82333730681E+03  0.12500000000E+03 0.  0.
</event>
<event>
 5    0  0.5655767E-005  0.3250448E+03  0.7546771E-02  0.1073351E+00
         21   -1    0    0  502  501  0.00000000000E+00  0.00000000000E+00  0.14089902869E+03  0.14089902869E+03  0.00000000000E+00 0. -1.
         21   -1    0    0  501  502 -0.00000000000E+00 -0.00000000000E+00 -0.74985716641E+03  0.74985716641E+03  0.00000000000E+00 0. -1.
         25    1    1    2    0    0 -0.10298221714E+03  0.13796617673E+03 -0.25819181214E+03  0.33455644490E+03  0.12500000000E+03 0.  0.
         25    1    1    2    0    0 -0.30094997578E+02 -0.49550851041E+02  0.14328182081E+02  0.13853264063E+03  0.12500000000E+03 0.  0.
         25    1    1    2    0    0  0.13307721472E+03 -0.88415325684E+02 -0.36509450767E+03  0.41766710958E+03  0.12500000000E+03 0.  0.
</event>
<event>
 5    0  0.5655767E-005  0.3028172E+03  0.7546771E-02  0.1083841E+00
         21   -1    0    0  502  501  0.00000000000E+00  0.00000000000E+00  0.97470942490E+02  0.97470942490E+02  0.00000000000E+00 0.  1.
         21   -1    0    0  501  502 -0.00000000000E+00 -0.00000000000E+00 -0.94077542941E+03  0.94077542941E+03  0.00000000000E+00 0.  1.
         25    1    1    2    0    0  0.12870778549E+03 -0.97235002018E+02 -0.14819347646E+03  0.25220358072E+03  0.12500000000E+03 0.  0.
         25    1    1    2    0    0  0.12258253744E+02  0.77127652230E+02 -0.15605092448E+03  0.21465281399E+03  0.12500000000E+03 0.  0.
         25    1    1    2    0    0 -0.14096603924E+03  0.20107349788E+02 -0.53906008598E+03  0.57138997718E+03  0.12500000000E+03 0.  0.
</event>
<event>
 5    0  0.5655767E-005  0.3614290E+03  0.7546771E-02  0.1058019E+00
         21   -1    0    0  502  501  0.00000000000E+00  0.00000000000E+00  0.19762753417E+03  0.19762753417E+03  0.00000000000E+00 0. -1.
         21   -1    0    0  501  502 -0.00000000000E+00 -0.00000000000E+00 -0.66099564839E+03  0.66099564839E+03  0.00000000000E+00 0. -1.
         25    1    1    2    0    0 -0.17499592435E+03 -0.14408046041E+03 -0.14880186367E+03  0.29857954927E+03  0.12500000000E+03 0.  0.
         25    1    1    2    0    0  0.17417936993E+02  0.20971787261E+03 -0.21679092526E+03  0.32696831023E+03  0.12500000000E+03 0.  0.
         25    1    1    2    0    0  0.15757798735E+03 -0.65637412203E+02 -0.97775325287E+02  0.23307532305E+03  0.12500000000E+03 0.  0.
</event>
<event>
 5    0  0.6490931E-005  0.2836927E+03  0.7546771E-02  0.1093689E+00
         21   -1    0    0  502  501  0.00000000000E+00  0.00000000000E+00  0.55348003096E+03  0.55348003096E+03  0.00000000000E+00 0.  1.
         21   -1    0    0  501  502 -0.00000000000E+00 -0.00000000000E+00 -0.14541005486E+03  0.14541005486E+03  0.00000000000E+00 0.  1.
         25    1    1    2    0    0 -0.11973859107E+03 -0.86005234207E+02  0.65568983107E+02  0.20410419410E+03  0.12500000000E+03 0.  0.
         25    1    1    2    0    0  0.13169241111E+03  0.55790872975E+02  0.87903202733E+02  0.20930237864E+03  0.12500000000E+03 0.  0.
         25    1    1    2    0    0 -0.11953820041E+02  0.30214361232E+02  0.25459779026E+03  0.28548351308E+03  0.12500000000E+03 0.  0.
</event>
<event>
 5    0  0.5655767E-005  0.2919706E+03  0.7546771E-02  0.1089325E+00
         21   -1    0    0  502  501  0.00000000000E+00  0.00000000000E+00  0.41380057506E+02  0.41380057506E+02  0.00000000000E+00 0.  1.
         21   -1    0    0  501  502 -0.00000000000E+00 -0.00000000000E+00 -0.20600946976E+04  0.20600946976E+04  0.00000000000E+00 0.  1.
         25    1    1    2    0    0  0.14632782637E+03  0.38190751585E+02 -0.35799023887E+03  0.40823078939E+03  0.12500000000E+03 0.  0.
         25    1    1    2    0    0 -0.11518485482E+03 -0.57294199268E+01 -0.12513156786E+04  0.12628207729E+04  0.12500000000E+03 0.  0.
         25    1    1    2    0    0 -0.31142971550E+02 -0.32461331658E+02 -0.40940872262E+03  0.43042319279E+03  0.12500000000E+03 0.  0.
</event>
<event>
 5    0  0.5655767E-005  0.1965414E+03  0.7546771E-02  0.1152690E+00
         21   -1    0    0  502  501  0.00000000000E+00  0.00000000000E+00  0.61121194305E+02  0.61121194305E+02  0.00000000000E+00 0.  1.
         21   -1    0    0  501  502 -0.00000000000E+00 -0.00000000000E+00 -0.63199903550E+03  0.63199903550E+03  0.00000000000E+00 0.  1.
         25    1    1    2    0    0  0.21480050297E+02 -0.29663034327E+02 -0.16686339127E+03  0.21168296935E+03  0.12500000000E+03 0.  0.
         25    1    1    2    0    0 -0.30089056086E+02  0.43594253329E+02 -0.20921693994E+03  0.24940436679E+03  0.12500000000E+03 0.  0.
         25    1    1    2    0    0  0.86090057891E+01 -0.13931219002E+02 -0.19479750999E+03  0.23203289366E+03  0.12500000000E+03 0.  0.
</event>
<event>
 5    0  0.5655767E-005  0.5310778E+03  0.7546771E-02  0.1005971E+00
         21   -1    0    0  502  501  0.00000000000E+00  0.00000000000E+00  0.16607555461E+03  0.16607555461E+03  0.00000000000E+00 0.  1.
         21   -1    0    0  501  502 -0.00000000000E+00 -0.00000000000E+00 -0.16982850730E+04  0.16982850730E+04  0.00000000000E+00 0.  1.
         25    1    1    2    0    0  0.44837688101E+02  0.23077053655E+03 -0.15220251877E+03  0.30668561351E+03  0.12500000000E+03 0.  0.
         25    1    1    2    0    0 -0.18463204675E+03 -0.31782683523E+03 -0.40515753724E+03  0.56114215655E+03  0.12500000000E+03 0.  0.
         25    1    1    2    0    0  0.13979435865E+03  0.87056298676E+02 -0.97484946238E+03  0.99653285754E+03  0.12500000000E+03 0.  0.
</event>
<event>
 5    0  0.5655767E-005  0.2467929E+03  0.7546771E-02  0.1115349E+00
         21   -1    0    0  502  501  0.00000000000E+00  0.00000000000E+00  0.41480228759E+03  0.41480228759E+03  0.00000000000E+00 0. -1.
         21   -1    0    0  501  502 -0.00000000000E+00 -0.00000000000E+00 -0.14683315271E+03  0.14683315271E+03  0.00000000000E+00 0. -1.
         25    1    1    2    0    0 -0.30020539334E+02  0.42994560888E+02  0.50586413079E+02  0.14468500349E+03  0.12500000000E+03 0.  0.
         25    1    1    2    0    0  0.50264195648E+02 -0.14053606633E+03  0.10176098083E+03  0.21967515226E+03  0.12500000000E+03 0.  0.
         25    1    1    2    0    0 -0.20243656314E+02  0.97541505440E+02  0.11562174098E+03  0.19727528454E+03  0.12500000000E+03 0.  0.
</event>
<event>
 5    0  0.5655767E-005  0.4331129E+03  0.7546771E-02  0.1032881E+00
         21   -1    0    0  502  501  0.00000000000E+00  0.00000000000E+00  0.46099903647E+03  0.46099903647E+03  0.00000000000E+00 0. -1.
         21   -1    0    0  501  502 -0.00000000000E+00 -0.00000000000E+00 -0.40691366159E+03  0.40691366159E+03  0.00000000000E+00 0. -1.
         25    1    1    2    0    0  0.50993403075E+02  0.76358742772E+02 -0.18171645311E+03  0.23890762668E+03  0.12500000000E+03 0.  0.
         25    1    1    2    0    0 -0.25672725449E+03 -0.86363120922E+02  0.24773724861E+03  0.38777082949E+03  0.12500000000E+03 0.  0.
         25    1    1    2    0    0  0.20573385141E+03  0.10004378149E+02 -0.11935420623E+02  0.24123424190E+03  0.12500000000E+03 0.  0.
</event>
<event>
 5    0  0.5655767E-005  0.4095572E+03  0.7546771E-02  0.1040520E+00
         21   -1    0    0  502  501  0.00000000000E+00  0.00000000000E+00  0.19996310286E+04  0.19996310286E+04  0.00000000000E+00 0.  1.
         21   -1    0    0  501  502 -0.00000000000E+00 -0.00000000000E+00 -0.83884039174E+02  0.83884039174E+02  0.00000000000E+00 0.  1.
         25    1    1    2    0    0 -0.20832076049E+03 -0.14389039893E+03  0.44309589797E+03  0.52541503686E+03  0.12500000000E+03 0.  0.
         25    1    1    2    0    0  0.68776958269E+02  0.25377563237E+03  0.80663811217E+03  0.85756771486E+03  0.12500000000E+03 0.  0.
         25    1    1    2    0    0  0.13954380222E+03 -0.10988523344E+03  0.66601297932E+03  0.70053231609E+03  0.12500000000E+03 0.  0.
</event>
<event>
 5    0  0.5655767E-005  0.3832949E+03  0.7546771E-02  0.1049723E+00
         21   -1    0    0  502  501  0.00000000000E+00  0.00000000000E+00  0.95491252795E+03  0.95491252795E+03  0.00000000000E+00 0. -1.
         21   -1    0    0  501  502 -0.00000000000E+00 -0.00000000000E+00 -0.15385173152E+03  0.15385173152E+03  0.00000000000E+00 0. -1.
         25    1    1    2    0    0  0.18666426657E+03 -0.53211138815E+02  0.39025591404E+03  0.45343097838E+03  0.12500000000E+03 0.  0.
         25    1    1    2    0    0 -0.26524775566E+03  0.82597091681E+02  0.11913654069E+03  0.32710421393E+03  0.12500000000E+03 0.  0.
         25    1    1    2    0    0  0.78583489097E+02 -0.29385952865E+02  0.29166834170E+03  0.32822906717E+03  0.12500000000E+03 0.  0.
</event>
<event>
 5    0  0.5655767E-005  0.3247304E+03  0.7546771E-02  0.1073493E+00
         21   -1    0    0  502  501  0.00000000000E+00  0.00000000000E+00  0.54501026044E+02  0.54501026044E+02  0.00000000000E+00 0. -1.
         21   -1    0    0  501  502 -0.00000000000E+00 -0.00000000000E+00 -0.19348230744E+04  0.19348230744E+04  0.00000000000E+00 0. -1.
         25    1    1    2    0    0  0.17537795424E+03  0.65991715818E+02 -0.57979966317E+03  0.62201686697E+03  0.12500000000E+03 0.  0.
         25    1    1    2    0    0 -0.90528998021E+02 -0.81183655655E+02 -0.11103171077E+04  0.11239285409E+04  0.12500000000E+03 0.  0.
         25    1    1    2    0    0 -0.84848956218E+02  0.15191939837E+02 -0.19020527749E+03  0.24337869256E+03  0.12500000000E+03 0.  0.
</event>
<event>
 5    0  0.5655767E-005  0.3429570E+03  0.7546771E-02  0.1065543E+00
         21   -1    0    0  502  501  0.00000000000E+00  0.00000000000E+00  0.13633367713E+04  0.13633367713E+04  0.00000000000E+00 0.  1.
         21   -1    0    0  501  502 -0.00000000000E+00 -0.00000000000E+00 -0.86273235776E+02  0.86273235776E+02  0.00000000000E+00 0.  1.
         25    1    1    2    0    0 -0.14615365938E+03  0.49938303758E+02  0.26008166507E+03  0.32729527775E+03  0.12500000000E+03 0.  0.
         25    1    1    2    0    0  0.72906094563E+01  0.14297394436E+03  0.57010975551E+03  0.60095327196E+03  0.12500000000E+03 0.  0.
         25    1    1    2    0    0  0.13886304992E+03 -0.19291224812E+03  0.44687211491E+03  0.52136145733E+03  0.12500000000E+03 0.  0.
</event>
<event>
 5    0  0.5655767E-005  0.3938957E+03  0.7546771E-02  0.1045914E+00
         21   -1    0    0  502  501  0.00000000000E+00  0.00000000000E+00  0.26080370771E+03  0.26080370771E+03  0.00000000000E+00 0.  1.
         21   -1    0    0  501  502 -0.00000000000E+00 -0.00000000000E+00 -0.59490652098E+03  0.59490652098E+03  0.00000000000E+00 0.  1.
         25    1    1    2    0    0  0.80842853079E+02  0.39067549330E+02 -0.37631791486E+03  0.40657350301E+03  0.12500000000E+03 0.  0.
         25    1    1    2    0    0  0.70088530118E+02 -0.83709942289E+02  0.14767670434E+03  0.22215572353E+03  0.12500000000E+03 0.  0.
         25    1    1    2    0    0 -0.15093138320E+03  0.44642392958E+02 -0.10546160275E+03  0.22698100215E+03  0.12500000000E+03 0.  0.
</event>
<event>
 5    0  0.5655767E-005  0.3717136E+03  0.7546771E-02  0.1054040E+00
         21   -1    0    0  502  501  0.00000000000E+00  0.00000000000E+00  0.43649447137E+03  0.43649447137E+03  0.00000000000E+00 0. -1.
         21   -1    0    0  501  502 -0.00000000000E+00 -0.00000000000E+00 -0.31654699798E+03  0.31654699798E+03  0.00000000000E+00 0. -1.
         25    1    1    2    0    0 -0.11838915360E+03  0.13791328792E+03  0.20438126101E+03  0.30072041256E+03  0.12500000000E+03 0.  0.
         25    1    1    2    0    0  0.17394023403E+03 -0.16880907584E+03 -0.13364082454E+03  0.30370475644E+03  0.12500000000E+03 0.  0.
         25    1    1    2    0    0 -0.55551080422E+02  0.30895787919E+02  0.49207036932E+02  0.14861630035E+03  0.12500000000E+03 0.  0.
</event>
<event>
 5    0  0.5655767E-005  0.3796237E+03  0.7546771E-02  0.1051073E+00
         21   -1    0    0  502  501  0.00000000000E+00  0.00000000000E+00  0.28816959217E+03  0.28816959217E+03  0.00000000000E+00 0.  1.
         21   -1    0    0  501  502 -0.00000000000E+00 -0.00000000000E+00 -0.50010194431E+03  0.50010194431E+03  0.00000000000E+00 0.  1.
         25    1    1    2    0    0  0.12603877574E+03  0.14157963447E+03 -0.13824698397E+03  0.26583414842E+03  0.12500000000E+03 0.  0.
         25    1    1    2    0    0 -0.21146929609E+03 -0.17922225903E+03  0.68109598037E+02  0.31161482420E+03  0.12500000000E+03 0.  0.
         25    1    1    2    0    0  0.85430520350E+02  0.37642624556E+02 -0.14179496621E+03  0.21082256386E+03  0.12500000000E+03 0.  0.
</event>
<event>
 5    0  0.5854719E-005  0.4076001E+03  0.7546771E-02  0.1041179E+00
         21   -1    0    0  502  501  0.00000000000E+00  0.00000000000E+00  0.48837858334E+03  0.48837858334E+03  0.00000000000E+00 0.  1.
         21   -1    0    0  501  502 -0.00000000000E+00 -0.00000000000E+00 -0.34018246472E+03  0.34018246472E+03  0.00000000000E+00 0.  1.
         25    1    1    2    0    0 -0.70545289804E+02 -0.44695575294E+02 -0.14916572923E+03  0.21177758886E+03  0.12500000000E+03 0.  0.
         25    1    1    2    0    0  0.19190802230E+03 -0.11197349591E+02 -0.40222986660E+02  0.23280240187E+03  0.12500000000E+03 0.  0.
         25    1    1    2    0    0 -0.12136273249E+03  0.55892924885E+02  0.33758483452E+03  0.38398105733E+03  0.12500000000E+03 0.  0.
</event>
<event>
 5    0  0.5951461E-005  0.2907512E+03  0.7546771E-02  0.1089958E+00
         21   -1    0    0  502  501  0.00000000000E+00  0.00000000000E+00  0.43115435197E+03  0.43115435197E+03  0.00000000000E+00 0. -1.
         21   -1    0    0  501  502 -0.00000000000E+00 -0.00000000000E+00 -0.19606961428E+03  0.19606961428E+03  0.00000000000E+00 0. -1.
         25    1    1    2    0    0 -0.22052373611E+02 -0.56914036608E+02  0.23859784358E+03  0.27618733806E+03  0.12500000000E+03 0.  0.
         25    1    1    2    0    0  0.10236760053E+03  0.42375340475E+02 -0.77828289554E+02  0.18427435463E+03  0.12500000000E+03 0.  0.
         25    1    1    2    0    0 -0.80315226916E+02  0.14538696133E+02  0.74315183671E+02  0.16676227356E+03  0.12500000000E+03 0.  0.
</event>
<event>
 5    0  0.5655767E-005  0.3103939E+03  0.7546771E-02  0.1080157E+00
         21   -1    0    0  502  501  0.00000000000E+00  0.00000000000E+00  0.46812855501E+02  0.46812855501E+02  0.00000000000E+00 0. -1.
         21   -1    0    0  501  502 -0.00000000000E+00 -0.00000000000E+00 -0.20580751368E+04  0.20580751368E+04  0.00000000000E+00 0. -1.
         25    1    1    2    0    0 -0.12753545245E+03 -0.11275293354E+03 -0.47943758231E+03  0.52389303391E+03  0.12500000000E+03 0.  0.
         25    1    1    2    0    0 -0.48056337081E+02  0.40365411500E+02 -0.87073881153E+03  0.88190127332E+03  0.12500000000E+03 0.  0.
         25    1    1    2    0    0  0.17559178953E+03  0.72387522044E+02 -0.66108588741E+03  0.69909368502E+03  0.12500000000E+03 0.  0.
</event>
<event>
 5    0  0.5655767E-005  0.2229137E+03  0.7546771E-02  0.1131729E+00
         21   -1    0    0  502  501  0.00000000000E+00  0.00000000000E+00  0.16270830204E+03  0.16270830204E+03  0.00000000000E+00 0. -1.
         21   -1    0    0  501  502 -0.00000000000E+00 -0.00000000000E+00 -0.30539637632E+03  0.30539637632E+03  0.00000000000E+00 0. -1.
         25    1    1    2    0    0 -0.95716789969E+01  0.83332527917E+02 -0.17606090226E+02  0.15156154414E+03  0.12500000000E+03 0.  0.
         25    1    1    2    0    0  0.17856362786E+02 -0.10240451656E+03 -0.86090037596E+02  0.18396203216E+03  0.12500000000E+03 0.  0.
         25    1    1    2    0    0 -0.82846837886E+01  0.19071988639E+02 -0.38991946464E+02  0.13258110207E+03  0.12500000000E+03 0.  0.
</event>
<event>
 5    0  0.5655767E-005  0.5049050E+03  0.7546771E-02  0.1012507E+00
         21   -1    0    0  502  501  0.00000000000E+00  0.00000000000E+00  0.29086266485E+03  0.29086266485E+03  0.00000000000E+00 0.  1.
         21   -1    0    0  501  502 -0.00000000000E+00 -0.00000000000E+00 -0.87645854924E+03  0.87645854924E+03  0.00000000000E+00 0. -1.
         25    1    1    2    0    0 -0.31379123287E+03 -0.19584052265E+03 -0.14508374716E+03  0.41652459931E+03  0.12500000000E+03 0.  0.
         25    1    1    2    0    0  0.27363709688E+02  0.89878460672E+01  0.51905924420E+02  0.13837911322E+03  0.12500000000E+03 0.  0.
         25    1    1    2    0    0  0.28642752318E+03  0.18685267658E+03 -0.49241806165E+03  0.61241750157E+03  0.12500000000E+03 0.  0.
</event>
<event>
 5    0  0.5655767E-005  0.2476020E+03  0.7546771E-02  0.1114830E+00
         21   -1    0    0  502  501  0.00000000000E+00  0.00000000000E+00  0.23946541057E+03  0.23946541057E+03  0.00000000000E+00 0. -1.
         21   -1    0    0  501  502 -0.00000000000E+00 -0.00000000000E+00 -0.25601503124E+03  0.25601503124E+03  0.00000000000E+00 0. -1.
         25    1    1    2    0    0 -0.30785757645E+02 -0.47668908439E+02  0.94307660072E+02  0.16655036011E+03  0.12500000000E+03 0.  0.
         25    1    1    2    0    0 -0.92760975133E+01 -0.55879624037E+02 -0.20111962284E+02  0.13870136767E+03  0.12500000000E+03 0.  0.
         25    1    1    2    0    0  0.40061855159E+02  0.10354853248E+03 -0.90745318459E+02  0.19022871402E+03  0.12500000000E+03 0.  0.
</event>
<event>
 5    0  0.5655767E-005  0.2084638E+03  0.7546771E-02  0.1142788E+00
         21   -1    0    0  502  501  0.00000000000E+00  0.00000000000E+00  0.17229642725E+03  0.17229642725E+03  0.00000000000E+00 0. -1.
         21   -1    0    0  501  502 -0.00000000000E+00 -0.00000000000E+00 -0.25222319558E+03  0.25222319558E+03  0.00000000000E+00 0. -1.
         25    1    1    2    0    0 -0.39989403645E+02  0.56249604954E+00 -0.41663241894E+02  0.13769638532E+03  0.12500000000E+03 0.  0.
         25    1    1    2    0    0  0.55008842781E+02 -0.44953509613E+02 -0.51386608914E+02  0.15268390349E+03  0.12500000000E+03 0.  0.
         25    1    1    2    0    0 -0.15019439135E+02  0.44391013563E+02  0.13123082478E+02  0.13413933402E+03  0.12500000000E+03 0.  0.
</event>
<event>
 5    0  0.5655767E-005  0.3069359E+03  0.7546771E-02  0.1081824E+00
         21   -1    0    0  502  501  0.00000000000E+00  0.00000000000E+00  0.27843814600E+03  0.27843814600E+03  0.00000000000E+00 0. -1.
         21   -1    0    0  501  502 -0.00000000000E+00 -0.00000000000E+00 -0.33835025920E+03  0.33835025920E+03  0.00000000000E+00 0. -1.
         25    1    1    2    0    0 -0.15099498021E+03  0.63182661652E+02  0.37777960083E+02  0.20938888951E+03  0.12500000000E+03 0.  0.
         25    1    1    2    0    0  0.44447907164E+02  0.23200953503E+02  0.74782350350E+02  0.15404966932E+03  0.12500000000E+03 0.  0.
         25    1    1    2    0    0  0.10654707304E+03 -0.86383615155E+02 -0.17247242363E+03  0.25334984637E+03  0.12500000000E+03 0.  0.
</event>
<event>
 5    0  0.5655767E-005  0.2839933E+03  0.7546771E-02  0.1093528E+00
         21   -1    0    0  502  501  0.00000000000E+00  0.00000000000E+00  0.25452738704E+03  0.25452738704E+03  0.00000000000E+00 0.  1.
         21   -1    0    0  501  502 -0.00000000000E+00 -0.00000000000E+00 -0.31687039868E+03  0.31687039868E+03  0.00000000000E+00 0.  1.
         25    1    1    2    0    0 -0.12518908298E+03  0.26737804671E+02  0.67520449264E+02  0.19123605247E+03  0.12500000000E+03 0.  0.
         25    1    1    2    0    0  0.12591329462E+03  0.77335931178E+02 -0.85320154138E+02  0.21151721612E+03  0.12500000000E+03 0.  0.
         25    1    1    2    0    0 -0.72421163906E+00 -0.10407373585E+03 -0.44543306769E+02  0.16864451712E+03  0.12500000000E+03 0.  0.
</event>
<event>
 5    0  0.7671080E-005  0.2904155E+03  0.7546771E-02  0.1090132E+00
         21   -1    0    0  502  501  0.00000000000E+00  0.00000000000E+00  0.40487014993E+03  0.40487014993E+03  0.00000000000E+00 0.  1.
         21   -1    0    0  501  502 -0.00000000000E+00 -0.00000000000E+00 -0.20831659929E+03  0.20831659929E+03  0.00000000000E+00 0.  1.
         25    1    1    2    0    0  0.22072240914E+02 -0.60157946822E+02  0.20039425427E+03  0.24472233149E+03  0.12500000000E+03 0.  0.
         25    1    1    2    0    0 -0.11663131082E+03 -0.32239837813E+02  0.45736612603E+02  0.17988637397E+03  0.12500000000E+03 0.  0.
         25    1    1    2    0    0  0.94559069908E+02  0.92397784636E+02 -0.49577316235E+02  0.18857804377E+03  0.12500000000E+03 0.  0.
</event>
<event>
 5    0  0.5655767E-005  0.3860938E+03  0.7546771E-02  0.1048704E+00
         21   -1    0    0  502  501  0.00000000000E+00  0.00000000000E+00  0.57947999702E+03  0.57947999702E+03  0.00000000000E+00 0.  1.
         21   -1    0    0  501  502 -0.00000000000E+00 -0.00000000000E+00 -0.25724517866E+03  0.25724517866E+03  0.00000000000E+00 0.  1.
         25    1    1    2    0    0 -0.15461047143E+03  0.56276758649E+02  0.31281456521E+02  0.20898564774E+03  0.12500000000E+03 0.  0.
         25    1    1    2    0    0  0.39709200583E+02 -0.25943711672E+03  0.16872405895E+03  0.33612088036E+03  0.12500000000E+03 0.  0.
         25    1    1    2    0    0  0.11490127084E+03  0.20316035807E+03  0.12222930288E+03  0.29161864758E+03  0.12500000000E+03 0.  0.
</event>
<event>
 5    0  0.5655767E-005  0.3011124E+03  0.7546771E-02  0.1084686E+00
         21   -1    0    0  502  501  0.00000000000E+00  0.00000000000E+00  0.31069119888E+03  0.31069119888E+03  0.00000000000E+00 0.  1.
         21   -1    0    0  501  502 -0.00000000000E+00 -0.00000000000E+00 -0.29182898352E+03  0.29182898352E+03  0.00000000000E+00 0.  1.
         25    1    1    2    0    0 -0.11095230253E+03 -0.63408411470E+02 -0.35897401372E+02  0.18233119181E+03  0.12500000000E+03 0.  0.
         25    1    1    2    0    0 -0.84638835040E+02  0.72241092906E+01 -0.50291860619E+02  0.15928022914E+03  0.12500000000E+03 0.  0.
         25    1    1    2    0    0  0.19559113757E+03  0.56184302179E+02  0.10505147734E+03  0.26090876145E+03  0.12500000000E+03 0.  0.
</event>
<event>
 5    0  0.5655767E-005  0.4022224E+03  0.7546771E-02  0.1043013E+00
         21   -1    0    0  502  501  0.00000000000E+00  0.00000000000E+00  0.28968397008E+03  0.28968397008E+03  0.00000000000E+00 0. -1.
         21   -1    0    0  501  502 -0.00000000000E+00 -0.00000000000E+00 -0.55848043139E+03  0.55848043139E+03  0.00000000000E+00 0. -1.
         25    1    1    2    0    0  0.69592110950E+01 -0.16551885945E+03 -0.34340800984E+03  0.40124678774E+03  0.12500000000E+03 0.  0.
         25    1    1    2    0    0 -0.69036918637E+02 -0.47766143938E+02 -0.55826532280E+02  0.16059048025E+03  0.12500000000E+03 0.  0.
         25    1    1    2    0    0  0.62077707543E+02  0.21328500338E+03  0.13043808080E+03  0.28632713348E+03  0.12500000000E+03 0.  0.
</event>
<event>
 5    0  0.5655767E-005  0.2568343E+03  0.7546771E-02  0.1109060E+00
         21   -1    0    0  502  501  0.00000000000E+00  0.00000000000E+00  0.67660820504E+03  0.67660820504E+03  0.00000000000E+00 0.  1.
         21   -1    0    0  501  502 -0.00000000000E+00 -0.00000000000E+00 -0.97491941901E+02  0.97491941901E+02  0.00000000000E+00 0.  1.
         25    1    1    2    0    0 -0.19643092388E+02 -0.67262749046E+01  0.67883758496E+02  0.14375082094E+03  0.12500000000E+03 0.  0.
         25    1    1    2    0    0  0.44876611449E+02 -0.93433632787E+01  0.47993996540E+03  0.49806483421E+03  0.12500000000E+03 0.  0.
         25    1    1    2    0    0 -0.25233519061E+02  0.16069638183E+02  0.31292539242E+02  0.13228449179E+03  0.12500000000E+03 0.  0.
</event>
<event>
 5    0  0.5655767E-005  0.3573717E+03  0.7546771E-02  0.1059629E+00
         21   -1    0    0  502  501  0.00000000000E+00  0.00000000000E+00  0.44523046502E+03  0.44523046502E+03  0.00000000000E+00 0. -1.
         21   -1    0    0  501  502 -0.00000000000E+00 -0.00000000000E+00 -0.28685033305E+03  0.28685033305E+03  0.00000000000E+00 0. -1.
         25    1    1    2    0    0  0.96199541073E+02  0.72461790262E+02  0.58916668338E+02  0.18330640076E+03  0.12500000000E+03 0.  0.
         25    1    1    2    0    0 -0.13396448097E+03  0.13907052268E+03  0.17492566564E+03  0.28898283849E+03  0.12500000000E+03 0.  0.
         25    1    1    2    0    0  0.37764939893E+02 -0.21153231294E+03 -0.75462202007E+02  0.25979155882E+03  0.12500000000E+03 0.  0.
</event>
<event>
 5    0  0.5655767E-005  0.2108008E+03  0.7546771E-02  0.1140933E+00
         21   -1    0    0  502  501  0.00000000000E+00  0.00000000000E+00  0.13763216122E+03  0.13763216122E+03  0.00000000000E+00 0. -1.
         21   -1    0    0  501  502 -0.00000000000E+00 -0.00000000000E+00 -0.32286766608E+03  0.32286766608E+03  0.00000000000E+00 0. -1.
         25    1    1    2    0    0 -0.43430603173E+02 -0.28357719913E+02 -0.32862371497E+02  0.13926705652E+03  0.12500000000E+03 0.  0.
         25    1    1    2    0    0 -0.38814762840E+01  0.69024934802E+02 -0.83733734033E+02  0.16557731033E+03  0.12500000000E+03 0.  0.
         25    1    1    2    0    0  0.47312079457E+02 -0.40667214890E+02 -0.68639399330E+02  0.15565546046E+03  0.12500000000E+03 0.  0.
</event>
<event>
 5    0  0.6096854E-005  0.2811010E+03  0.7546771E-02  0.1095089E+00
         21   -1    0    0  502  501  0.00000000000E+00  0.00000000000E+00  0.71462007887E+02  0.71462007887E+02  0.00000000000E+00 0.  1.
         21   -1    0    0  501  502 -0.00000000000E+00 -0.00000000000E+00 -0.11057314836E+04  0.11057314836E+04  0.00000000000E+00 0.  1.
         25    1    1    2    0    0 -0.49611821274E+02 -0.51226207133E+02 -0.43301160379E+03  0.45629979851E+03  0.12500000000E+03 0.  0.
         25    1    1    2    0    0 -0.37174517879E+02  0.66864011232E+02 -0.59873327248E+02  0.15831157915E+03  0.12500000000E+03 0.  0.
         25    1    1    2    0    0  0.86786339153E+02 -0.15637804098E+02 -0.54138454472E+03  0.56258211387E+03  0.12500000000E+03 0.  0.
</event>
<event>
 5    0  0.5655767E-005  0.5504842E+03  0.7546771E-02  0.1001382E+00
         21   -1    0    0  502  501  0.00000000000E+00  0.00000000000E+00  0.48116953378E+03  0.48116953378E+03  0.00000000000E+00 0. -1.
         21   -1    0    0  501  502 -0.00000000000E+00 -0.00000000000E+00 -0.62978390179E+03  0.62978390179E+03  0.00000000000E+00 0. -1.
         25    1    1    2    0    0 -0.37996270043E+01  0.70063335793E+02 -0.19069047802E+03  0.23856061409E+03  0.12500000000E+03 0.  0.
         25    1    1    2    0    0  0.20905312596E+03 -0.67881003436E+02 -0.33836084957E+03  0.42240277535E+03  0.12500000000E+03 0.  0.
         25    1    1    2    0    0 -0.20525349896E+03 -0.21823323572E+01  0.38043695957E+03  0.44999004613E+03  0.12500000000E+03 0.  0.
</event>
<event>
 5    0  0.5953701E-005  0.3713086E+03  0.7546771E-02  0.1054194E+00
         21   -1    0    0  502  501  0.00000000000E+00  0.00000000000E+00  0.59164556186E+03  0.59164556186E+03  0.00000000000E+00 0. -1.
         21   -1    0    0  501  502 -0.00000000000E+00 -0.00000000000E+00 -0.23302819001E+03  0.23302819001E+03  0.00000000000E+00 0. -1.
         25    1    1    2    0    0  0.15386876089E+02  0.18648355686E+03  0.92250567722E+02  0.24320370100E+03  0.12500000000E+03 0.  0.
         25    1    1    2    0    0  0.60314030331E+02 -0.77808758411E+02 -0.88886422206E+02  0.18225745854E+03  0.12500000000E+03 0.  0.
         25    1    1    2    0    0 -0.75700906420E+02 -0.10867479845E+03  0.35525322634E+03  0.39921259233E+03  0.12500000000E+03 0.  0.
</event>
<event>
 5    0  0.5655767E-005  0.2894884E+03  0.7546771E-02  0.1090617E+00
         21   -1    0    0  502  501  0.00000000000E+00  0.00000000000E+00  0.30568804372E+03  0.30568804372E+03  0.00000000000E+00 0.  1.
         21   -1    0    0  501  502 -0.00000000000E+00 -0.00000000000E+00 -0.27414721468E+03  0.27414721468E+03  0.00000000000E+00 0.  1.
         25    1    1    2    0    0 -0.20340933966E+02  0.96479572178E+02  0.58579452275E+01  0.15931533813E+03  0.12500000000E+03 0.  0.
         25    1    1    2    0    0  0.92953586302E+02  0.50681517857E+02 -0.86982395888E+02  0.18547216140E+03  0.12500000000E+03 0.  0.
         25    1    1    2    0    0 -0.72612652335E+02 -0.14716109004E+03  0.11266527970E+03  0.23504775887E+03  0.12500000000E+03 0.  0.
</event>
<event>
 5    0  0.5655767E-005  0.2174708E+03  0.7546771E-02  0.1135783E+00
         21   -1    0    0  502  501  0.00000000000E+00  0.00000000000E+00  0.19735088498E+03  0.19735088498E+03  0.00000000000E+00 0. -1.
         21   -1    0    0  501  502 -0.00000000000E+00 -0.00000000000E+00 -0.23964200352E+03  0.23964200352E+03  0.00000000000E+00 0. -1.
         25    1    1    2    0    0 -0.23659592233E+02 -0.54386434935E+02  0.63674868354E+02  0.15230610451E+03  0.12500000000E+03 0.  0.
         25    1    1    2    0    0 -0.15674137563E+02  0.31410489688E+02 -0.37955999880E+02  0.13526993523E+03  0.12500000000E+03 0.  0.
         25    1    1    2    0    0  0.39333729796E+02  0.22975945247E+02 -0.68009987022E+02  0.14941684876E+03  0.12500000000E+03 0.  0.
</event>
<event>
 5    0  0.5655767E-005  0.4105231E+03  0.7546771E-02  0.1040196E+00
         21   -1    0    0  502  501  0.00000000000E+00  0.00000000000E+00  0.29825401295E+03  0.29825401295E+03  0.00000000000E+00 0.  1.
         21   -1    0    0  501  502 -0.00000000000E+00 -0.00000000000E+00 -0.56505256755E+03  0.56505256755E+03  0.00000000000E+00 0.  1.
         25    1    1    2    0    0 -0.91328638671E+02 -0.25941810854E+03 -0.15808773819E+03  0.34096247337E+03  0.12500000000E+03 0.  0.
         25    1    1    2    0    0  0.65502653979E+02  0.23872236945E+03  0.84457417921E+02  0.28989139827E+03  0.12500000000E+03 0.  0.
         25    1    1    2    0    0  0.25825984693E+02  0.20695739091E+02 -0.19316823433E+03  0.23245270886E+03  0.12500000000E+03 0.  0.
</event>
<event>
 5    0  0.5655767E-005  0.4034584E+03  0.7546771E-02  0.1042589E+00
         21   -1    0    0  502  501  0.00000000000E+00  0.00000000000E+00  0.95365632860E+03  0.95365632860E+03  0.00000000000E+00 0.  1.
         21   -1    0    0  501  502 -0.00000000000E+00 -0.00000000000E+00 -0.17068907539E+03  0.17068907539E+03  0.00000000000E+00 0.  1.
         25    1    1    2    0    0  0.14454256100E+03 -0.18659641645E+02  0.62963347435E+03  0.65825834304E+03  0.12500000000E+03 0.  0.
         25    1    1    2    0    0  0.59906483460E+02 -0.52980292716E+02 -0.35635873096E+02  0.15261262604E+03  0.12500000000E+03 0.  0.
         25    1    1    2    0    0 -0.20444904446E+03  0.71639934361E+02  0.18896965196E+03  0.31347443490E+03  0.12500000000E+03 0.  0.
</event>
<event>
 5    0  0.5655767E-005  0.3445065E+03  0.7546771E-02  0.1064893E+00
         21   -1    0    0  502  501  0.00000000000E+00  0.00000000000E+00  0.21746241632E+03  0.21746241632E+03  0.00000000000E+00 0. -1.
         21   -1    0    0  501  502 -0.00000000000E+00 -0.00000000000E+00 -0.54577134402E+03  0.54577134402E+03  0.00000000000E+00 0. -1.
         25    1    1    2    0    0 -0.11628344231E+03 -0.61569885218E+02 -0.36496921889E+03  0.40760301822E+03  0.12500000000E+03 0.  0.
         25    1    1    2    0    0 -0.24906976045E+02  0.89074658980E+02 -0.20093648863E+02  0.15679096611E+03  0.12500000000E+03 0.  0.
         25    1    1    2    0    0  0.14119041835E+03 -0.27504773762E+02  0.56753940065E+02  0.19883977602E+03  0.12500000000E+03 0.  0.
</event>
<event>
 5    0  0.5655767E-005  0.3403095E+03  0.7546771E-02  0.1066664E+00
         21   -1    0    0  502  501  0.00000000000E+00  0.00000000000E+00  0.18009640459E+03  0.18009640459E+03  0.00000000000E+00 0.  1.
         21   -1    0    0  501  502 -0.00000000000E+00 -0.00000000000E+00 -0.64304757191E+03  0.64304757191E+03  0.00000000000E+00 0.  1.
         25    1    1    2    0    0  0.60831736513E+02  0.76651591023E+02  0.36322702746E+02  0.16285056128E+03  0.12500000000E+03 0.  0.
         25    1    1    2    0    0 -0.20178019321E+02 -0.16729146548E+03 -0.10436904967E+03  0.23433199827E+03  0.12500000000E+03 0.  0.
         25    1    1    2    0    0 -0.40653717192E+02  0.90639874453E+02 -0.39490482039E+03  0.42596141695E+03  0.12500000000E+03 0.  0.
</event>
<event>
 5    0  0.5655767E-005  0.3406593E+03  0.7546771E-02  0.1066515E+00
         21   -1    0    0  502  501  0.00000000000E+00  0.00000000000E+00  0.47305018418E+03  0.47305018418E+03  0.00000000000E+00 0. -1.
         21   -1    0    0  501  502 -0.00000000000E+00 -0.00000000000E+00 -0.24532015479E+03  0.24532015479E+03  0.00000000000E+00 0. -1.
         25    1    1    2    0    0  0.12162638987E+03 -0.16785422772E+03  0.10005003532E+02  0.24226663115E+03  0.12500000000E+03 0.  0.
         25    1    1    2    0    0 -0.10662627608E+03  0.56466062432E+02  0.25049047913E+03  0.30484103906E+03  0.12500000000E+03 0.  0.
         25    1    1    2    0    0 -0.15000113792E+02  0.11138816529E+03 -0.32765453275E+02  0.17126266875E+03  0.12500000000E+03 0.  0.
</event>
<event>
 5    0  0.5655767E-005  0.2549773E+03  0.7546771E-02  0.1110199E+00
         21   -1    0    0  502  501  0.00000000000E+00  0.00000000000E+00  0.99593445829E+02  0.99593445829E+02  0.00000000000E+00 0.  1.
         21   -1    0    0  501  502 -0.00000000000E+00 -0.00000000000E+00 -0.65278839784E+03  0.65278839784E+03  0.00000000000E+00 0.  1.
         25    1    1    2    0    0  0.65223292264E+02 -0.12559573822E+03 -0.25498196064E+03  0.31728404871E+03  0.12500000000E+03 0.  0.
         25    1    1    2    0    0 -0.96626144540E+02  0.46622654672E+02 -0.17223677482E+03  0.23832916384E+03  0.12500000000E+03 0.  0.
         25    1    1    2    0    0  0.31402852276E+02  0.78973083547E+02 -0.12597621655E+03  0.19676863112E+03  0.12500000000E+03 0.  0.
</event>
<event>
 5    0  0.5655767E-005  0.7390480E+03  0.7546771E-02  0.9652691E-01
         21   -1    0    0  502  501  0.00000000000E+00  0.00000000000E+00  0.81039595103E+03  0.81039595103E+03  0.00000000000E+00 0.  1.
         21   -1    0    0  501  502 -0.00000000000E+00 -0.00000000000E+00 -0.67398165417E+03  0.67398165417E+03  0.00000000000E+00 0.  1.
         25    1    1    2    0    0  0.25546587713E+03  0.18787795227E+03  0.64244797671E+03  0.72727253633E+03  0.12500000000E+03 0.  0.
         25    1    1    2    0    0 -0.20184193568E+02 -0.20947031030E+03 -0.40122793262E+03  0.46999368770E+03  0.12500000000E+03 0.  0.
         25    1    1    2    0    0 -0.23528168357E+03  0.21592358029E+02 -0.10480574723E+03  0.28711138117E+03  0.12500000000E+03 0.  0.
</event>
<event>
 5    0  0.5655767E-005  0.2209370E+03  0.7546771E-02  0.1133186E+00
         21   -1    0    0  502  501  0.00000000000E+00  0.00000000000E+00  0.41583842006E+03  0.41583842006E+03  0.00000000000E+00 0.  1.
         21   -1    0    0  501  502 -0.00000000000E+00 -0.00000000000E+00 -0.11738493112E+03  0.11738493112E+03  0.00000000000E+00 0.  1.
         25    1    1    2    0    0  0.18758159521E+02 -0.69912407504E+02  0.34563774901E+02  0.14852362710E+03  0.12500000000E+03 0.  0.
         25    1    1    2    0    0  0.16945909229E+02  0.70602808470E+02  0.10125422253E+03  0.17649175047E+03  0.12500000000E+03 0.  0.
         25    1    1    2    0    0 -0.35704068750E+02 -0.69040096594E+00  0.16263549151E+03  0.20820797361E+03  0.12500000000E+03 0.  0.
</event>
<event>
 5    0  0.5655767E-005  0.3384357E+03  0.7546771E-02  0.1067464E+00
         21   -1    0    0  502  501  0.00000000000E+00  0.00000000000E+00  0.87265413644E+03  0.87265413644E+03  0.00000000000E+00 0. -1.
         21   -1    0    0  501  502 -0.00000000000E+00 -0.00000000000E+00 -0.13125326723E+03  0.13125326723E+03  0.00000000000E+00 0. -1.
         25    1    1    2    0    0  0.66726668333E+02 -0.13897942522E+03  0.31314687917E+03  0.37074748392E+03  0.12500000000E+03 0.  0.
         25    1    1    2    0    0 -0.22169524284E+02  0.24537313355E+03  0.17147827906E+03  0.32516036453E+03  0.12500000000E+03 0.  0.
         25    1    1    2    0    0 -0.44557144049E+02 -0.10639370833E+03  0.25677571099E+03  0.30799955522E+03  0.12500000000E+03 0.  0.
</event>
<event>
 5    0  0.5655767E-005  0.2619612E+03  0.7546771E-02  0.1105971E+00
         21   -1    0    0  502  501  0.00000000000E+00  0.00000000000E+00  0.94739453845E+03  0.94739453845E+03  0.00000000000E+00 0. -1.
         21   -1    0    0  501  502 -0.00000000000E+00 -0.00000000000E+00 -0.72434097624E+02  0.72434097624E+02  0.00000000000E+00 0. -1.
         25    1    1    2    0    0  0.20365214385E+02  0.61607581245E+02  0.77009017709E+02  0.16051674315E+03  0.12500000000E+03 0.  0.
         25    1    1    2    0    0 -0.56761040322E+02  0.16384197750E+01  0.59119416524E+03  0.60692671809E+03  0.12500000000E+03 0.  0.
         25    1    1    2    0    0  0.36395825937E+02 -0.63246001020E+02  0.20675725788E+03  0.25238517484E+03  0.12500000000E+03 0.  0.
</event>
<event>
 5    0  0.5655767E-005  0.5966500E+03  0.7546771E-02  0.9912381E-01
         21   -1    0    0  502  501  0.00000000000E+00  0.00000000000E+00  0.14103307800E+04  0.14103307800E+04  0.00000000000E+00 0.  1.
         21   -1    0    0  501  502 -0.00000000000E+00 -0.00000000000E+00 -0.25241679660E+03  0.25241679660E+03  0.00000000000E+00 0. -1.
         25    1    1    2    0    0  0.27633682861E+02  0.59841727210E+01  0.43848736138E+03  0.45683213201E+03  0.12500000000E+03 0.  0.
         25    1    1    2    0    0  0.22993404881E+02  0.43409027718E+03  0.55767450076E+03  0.71804520346E+03  0.12500000000E+03 0.  0.
         25    1    1    2    0    0 -0.50627087742E+02 -0.44007444990E+03  0.16175212130E+03  0.48787024117E+03  0.12500000000E+03 0.  0.
</event>
<event>
 5    0  0.5655767E-005  0.3651035E+03  0.7546771E-02  0.1056581E+00
         21   -1    0    0  502  501  0.00000000000E+00  0.00000000000E+00  0.13851803723E+04  0.13851803723E+04  0.00000000000E+00 0.  1.
         21   -1    0    0  501  502 -0.00000000000E+00 -0.00000000000E+00 -0.96233371254E+02  0.96233371254E+02  0.00000000000E+00 0.  1.
         25    1    1    2    0    0  0.14352386114E+03  0.42311401885E+02  0.93334216194E+03  0.95348935217E+03  0.12500000000E+03 0.  0.
         25    1    1    2    0    0 -0.10435191447E+03  0.95546817009E+02  0.11432954529E+03  0.22071420711E+03  0.12500000000E+03 0.  0.
         25    1    1    2    0    0 -0.39171946672E+02 -0.13785821889E+03  0.24127529387E+03  0.30721018433E+03  0.12500000000E+03 0.  0.
</event>
<event>
 5    0  0.5655767E-005  0.2353805E+03  0.7546771E-02  0.1122909E+00
         21   -1    0    0  502  501  0.00000000000E+00  0.00000000000E+00  0.22784700224E+03  0.22784700224E+03  0.00000000000E+00 0. -1.
         21   -1    0    0  501  502 -0.00000000000E+00 -0.00000000000E+00 -0.24316306441E+03  0.24316306441E+03  0.00000000000E+00 0. -1.
         25    1    1    2    0    0 -0.43212215620E+02  0.24555899666E+02  0.42221948355E+02  0.14098929289E+03  0.12500000000E+03 0.  0.
         25    1    1    2    0    0  0.83465421360E+02  0.45532145074E+02  0.26213878302E+02  0.15922254932E+03  0.12500000000E+03 0.  0.
         25    1    1    2    0    0 -0.40253205740E+02 -0.70088044740E+02 -0.83751888825E+02  0.17079822443E+03  0.12500000000E+03 0.  0.
</event>
<event>
 5    0  0.5655767E-005  0.4080725E+03  0.7546771E-02  0.1041020E+00
         21   -1    0    0  502  501  0.00000000000E+00  0.00000000000E+00  0.61540538043E+03  0.61540538043E+03  0.00000000000E+00 0. -1.
         21   -1    0    0  501  502 -0.00000000000E+00 -0.00000000000E+00 -0.27059096763E+03  0.27059096763E+03  0.00000000000E+00 0. -1.
         25    1    1    2    0    0  0.40736137324E+02 -0.99339866265E+02  0.24443609094E+02  0.16658430880E+03  0.12500000000E+03 0.  0.
         25    1    1    2    0    0 -0.62603956593E+02 -0.24226973540E+03  0.14110728493E+03  0.31328923686E+03  0.12500000000E+03 0.  0.
         25    1    1    2    0    0  0.21867819269E+02  0.34160960166E+03  0.17926351878E+03  0.40612280241E+03  0.12500000000E+03 0.  0.
</event>
<event>
 5    0  0.5655767E-005  0.2817250E+03  0.7546771E-02  0.1094751E+00
         21   -1    0    0  502  501  0.00000000000E+00  0.00000000000E+00  0.16018340415E+03  0.16018340415E+03  0.00000000000E+00 0.  1.
         21   -1    0    0  501  502 -0.00000000000E+00 -0.00000000000E+00 -0.49548797850E+03  0.49548797850E+03  0.00000000000E+00 0.  1.
         25    1    1    2    0    0  0.16234340666E+02  0.33772795110E+02 -0.29927204470E+03  0.32648569991E+03  0.12500000000E+03 0.  0.
         25    1    1    2    0    0  0.40257433349E+02 -0.64738588758E+02  0.60707128798E+02  0.15849953092E+03  0.12500000000E+03 0.  0.
         25    1    1    2    0    0 -0.56491774015E+02  0.30965793648E+02 -0.96739658449E+02  0.17068615182E+03  0.12500000000E+03 0.  0.
</event>
<event>
 5    0  0.5655767E-005  0.4810441E+03  0.7546771E-02  0.1018849E+00
         21   -1    0    0  502  501  0.00000000000E+00  0.00000000000E+00  0.21918602941E+04  0.21918602941E+04  0.00000000000E+00 0. -1.
         21   -1    0    0  501  502 -0.00000000000E+00 -0.00000000000E+00 -0.10557396484E+03  0.10557396484E+03  0.00000000000E+00 0. -1.
         25    1    1    2    0    0 -0.36903978944E+03  0.17433359428E+01  0.11578754282E+04  0.12216766809E+04  0.12500000000E+03 0.  0.
         25    1    1    2    0    0  0.26607724098E+03  0.10423932177E+02  0.27576171480E+03  0.40320624981E+03  0.12500000000E+03 0.  0.
         25    1    1    2    0    0  0.10296254845E+03 -0.12167268120E+02  0.65264918623E+03  0.67255132821E+03  0.12500000000E+03 0.  0.
</event>
<event>
 5    0  0.5655767E-005  0.3180530E+03  0.7546771E-02  0.1076549E+00
         21   -1    0    0  502  501  0.00000000000E+00  0.00000000000E+00  0.47082007277E+03  0.47082007277E+03  0.00000000000E+00 0. -1.
         21   -1    0    0  501  502 -0.00000000000E+00 -0.00000000000E+00 -0.21485424538E+03  0.21485424538E+03  0.00000000000E+00 0. -1.
         25    1    1    2    0    0 -0.16719105780E+01  0.54890632606E+02  0.44113147704E+02  0.14348082322E+03  0.12500000000E+03 0.  0.
         25    1    1    2    0    0 -0.83596466534E+02  0.29038344468E+02  0.30819268593E+03  0.34415015085E+03  0.12500000000E+03 0.  0.
         25    1    1    2    0    0  0.85268377113E+02 -0.83928977074E+02 -0.96340006247E+02  0.19804334407E+03  0.12500000000E+03 0.  0.
</event>
<event>
 5    0  0.5655767E-005  0.2823074E+03  0.7546771E-02  0.1094435E+00
         21   -1    0    0  502  501  0.00000000000E+00  0.00000000000E+00  0.66154078720E+03  0.66154078720E+03  0.00000000000E+00 0. -1.
         21   -1    0    0  501  502 -0.00000000000E+00 -0.00000000000E+00 -0.12047253029E+03  0.12047253029E+03  0.00000000000E+00 0. -1.
         25    1    1    2    0    0  0.18479653268E+03 -0.66525633981E+02  0.23524410910E+03  0.33096859267E+03  0.12500000000E+03 0.  0.
         25    1    1    2    0    0 -0.44572110857E+02  0.26640789613E+01  0.11198820320E+03  0.17366671540E+03  0.12500000000E+03 0.  0.
         25    1    1    2    0    0 -0.14022442183E+03  0.63861555020E+02  0.19383594461E+03  0.27737800942E+03  0.12500000000E+03 0.  0.
</event>
<event>
 5    0  0.5655767E-005  0.2266475E+03  0.7546771E-02  0.1129022E+00
         21   -1    0    0  502  501  0.00000000000E+00  0.00000000000E+00  0.65287518198E+02  0.65287518198E+02  0.00000000000E+00 0.  1.
         21   -1    0    0  501  502 -0.00000000000E+00 -0.00000000000E+00 -0.78681303423E+03  0.78681303423E+03  0.00000000000E+00 0.  1.
         25    1    1    2    0    0 -0.41150205179E+02  0.53562327605E+01 -0.11080856286E+03  0.17212078962E+03  0.12500000000E+03 0.  0.
         25    1    1    2    0    0  0.83909517458E+02  0.92715198755E+01 -0.21576282579E+03  0.26325912177E+03  0.12500000000E+03 0.  0.
         25    1    1    2    0    0 -0.42759312280E+02 -0.14627752636E+02 -0.39495412738E+03  0.41672064104E+03  0.12500000000E+03 0.  0.
</event>
<event>
 5    0  0.5655767E-005  0.2702370E+03  0.7546771E-02  0.1101144E+00
         21   -1    0    0  502  501  0.00000000000E+00  0.00000000000E+00  0.11752657603E+03  0.11752657603E+03  0.00000000000E+00 0.  1.
         21   -1    0    0  501  502 -0.00000000000E+00 -0.00000000000E+00 -0.62137455903E+03  0.62137455903E+03  0.00000000000E+00 0.  1.
         25    1    1    2    0    0 -0.88715646670E+02 -0.45691848936E+02 -0.89406967484E+02  0.18323977968E+03  0.12500000000E+03 0.  0.
         25    1    1    2    0    0 -0.50338494303E+02 -0.20245145351E+02 -0.58639734655E+02  0.14834907617E+03  0.12500000000E+03 0.  0.
         25    1    1    2    0    0  0.13905414097E+03  0.65936994287E+02 -0.35580128086E+03  0.40731227921E+03  0.12500000000E+03 0.  0.
</event>
<event>
 5    0  0.5655767E-005  0.2504870E+03  0.7546771E-02  0.1112997E+00
         21   -1    0    0  502  501  0.00000000000E+00  0.00000000000E+00  0.27507790683E+03  0.27507790683E+03  0.00000000000E+00 0.  1.
         21   -1    0    0  501  502 -0.00000000000E+00 -0.00000000000E+00 -0.22809442071E+03  0.22809442071E+03  0.00000000000E+00 0.  1.
         25    1    1    2    0    0 -0.51469583581E+02  0.52336318558E+02  0.61369846003E+02  0.15741494933E+03  0.12500000000E+03 0.  0.
         25    1    1    2    0    0  0.10049981916E+03 -0.22753301136E+02  0.78314406529E+02  0.17993352282E+03  0.12500000000E+03 0.  0.
         25    1    1    2    0    0 -0.49030235583E+02 -0.29583017421E+02 -0.92700766418E+02  0.16582385539E+03  0.12500000000E+03 0.  0.
</event>
<event>
 5    0  0.5655767E-005  0.3796364E+03  0.7546771E-02  0.1051068E+00
         21   -1    0    0  502  501  0.00000000000E+00  0.00000000000E+00  0.62075979674E+03  0.62075979674E+03  0.00000000000E+00 0. -1.
         21   -1    0    0  501  502 -0.00000000000E+00 -0.00000000000E+00 -0.23217315981E+03  0.23217315981E+03  0.00000000000E+00 0. -1.
         25    1    1    2    0    0 -0.73914227535E+02  0.18942490486E+03 -0.34914732765E+02  0.24122426531E+03  0.12500000000E+03 0.  0.
         25    1    1    2    0    0  0.73735051503E+02 -0.24901738370E+03  0.35482816385E+03  0.45713733283E+03  0.12500000000E+03 0.  0.
         25    1    1    2    0    0  0.17917603199E+00  0.59592478845E+02  0.68673205847E+02  0.15457135841E+03  0.12500000000E+03 0.  0.
</event>
<event>
 5    0  0.5655767E-005  0.2825351E+03  0.7546771E-02  0.1094312E+00
         21   -1    0    0  502  501  0.00000000000E+00  0.00000000000E+00  0.24834799627E+03  0.24834799627E+03  0.00000000000E+00 0.  1.
         21   -1    0    0  501  502 -0.00000000000E+00 -0.00000000000E+00 -0.32142834797E+03  0.32142834797E+03  0.00000000000E+00 0.  1.
         25    1    1    2    0    0  0.22682907404E+02  0.11684608815E+03 -0.93562726659E+02  0.19633264228E+03  0.12500000000E+03 0.  0.
         25    1    1    2    0    0 -0.12286496789E+01  0.60529217095E+02  0.60936885499E+02  0.15166937633E+03  0.12500000000E+03 0.  0.
         25    1    1    2    0    0 -0.21454257725E+02 -0.17737530525E+03 -0.40454510540E+02  0.22177432563E+03  0.12500000000E+03 0.  0.
</event>
<event>
 5    0  0.5655767E-005  0.3209582E+03  0.7546771E-02  0.1075209E+00
         21   -1    0    0  502  501  0.00000000000E+00  0.00000000000E+00  0.53147423737E+03  0.53147423737E+03  0.00000000000E+00 0. -1.
         21   -1    0    0  501  502 -0.00000000000E+00 -0.00000000000E+00 -0.19382716870E+03  0.19382716870E+03  0.00000000000E+00 0. -1.
         25    1    1    2    0    0  0.73412386636E+02 -0.82395849014E+01 -0.95196957505E+01  0.14550908521E+03  0.12500000000E+03 0.  0.
         25    1    1    2    0    0 -0.62066964369E+02  0.25609219453E+02 -0.59485738999E+02  0.15385607993E+03  0.12500000000E+03 0.  0.
         25    1    1    2    0    0 -0.11345422267E+02 -0.17369634552E+02  0.40665250341E+03  0.42593624094E+03  0.12500000000E+03 0.  0.
</event>
<event>
 5    0  0.5655767E-005  0.2519709E+03  0.7546771E-02  0.1112066E+00
         21   -1    0    0  502  501  0.00000000000E+00  0.00000000000E+00  0.98377058054E+02  0.98377058054E+02  0.00000000000E+00 0. -1.
         21   -1    0    0  501  502 -0.00000000000E+00 -0.00000000000E+00 -0.64536737881E+03  0.64536737881E+03  0.00000000000E+00 0. -1.
         25    1    1    2    0    0  0.62863818893E+01  0.21095527538E+02 -0.32632859171E+03  0.35014267041E+03  0.12500000000E+03 0.  0.
         25    1    1    2    0    0  0.41568366771E+02 -0.10111380200E+03 -0.83279208989E+02  0.18577501640E+03  0.12500000000E+03 0.  0.
         25    1    1    2    0    0 -0.47854748660E+02  0.80018274460E+02 -0.13738252006E+03  0.20782675005E+03  0.12500000000E+03 0.  0.
</event>
<event>
 5    0  0.5655767E-005  0.3402584E+03  0.7546771E-02  0.1066686E+00
         21   -1    0    0  502  501  0.00000000000E+00  0.00000000000E+00  0.58105142879E+03  0.58105142879E+03  0.00000000000E+00 0.  1.
         21   -1    0    0  501  502 -0.00000000000E+00 -0.00000000000E+00 -0.19925215581E+03  0.19925215581E+03  0.00000000000E+00 0.  1.
         25    1    1    2    0    0  0.97160709439E+02 -0.22631372259E+03  0.38063660834E+02  0.27880449560E+03  0.12500000000E+03 0.  0.
         25    1    1    2    0    0 -0.38455239962E+02  0.11834365863E+03  0.23989089626E+03  0.29775269793E+03  0.12500000000E+03 0.  0.
         25    1    1    2    0    0 -0.58705469477E+02  0.10797006396E+03  0.10384471588E+03  0.20374639107E+03  0.12500000000E+03 0.  0.
</event>
<event>
 5    0  0.5655767E-005  0.3644096E+03  0.7546771E-02  0.1056851E+00
         21   -1    0    0  502  501  0.00000000000E+00  0.00000000000E+00  0.13697023014E+04  0.13697023014E+04  0.00000000000E+00 0.  1.
         21   -1    0    0  501  502 -0.00000000000E+00 -0.00000000000E+00 -0.96951279143E+02  0.96951279143E+02  0.00000000000E+00 0.  1.
         25    1    1    2    0    0 -0.25769668681E+03  0.14420530526E+03  0.66081826132E+03  0.73451244166E+03  0.12500000000E+03 0.  0.
         25    1    1    2    0    0  0.13025571728E+03 -0.10944495509E+03  0.40446503907E+03  0.45624743058E+03  0.12500000000E+03 0.  0.
         25    1    1    2    0    0  0.12744096954E+03 -0.34760350163E+02  0.20746772182E+03  0.27589370826E+03  0.12500000000E+03 0.  0.
</event>
<event>
 5    0  0.5655767E-005  0.3094658E+03  0.7546771E-02  0.1080602E+00
         21   -1    0    0  502  501  0.00000000000E+00  0.00000000000E+00  0.15934091746E+04  0.15934091746E+04  0.00000000000E+00 0.  1.
         21   -1    0    0  501  502 -0.00000000000E+00 -0.00000000000E+00 -0.60103258579E+02  0.60103258579E+02  0.00000000000E+00 0.  1.
         25    1    1    2    0    0 -0.47705445350E+02 -0.34881365860E+01  0.49381753408E+03  0.51163339764E+03  0.12500000000E+03 0.  0.
         25    1    1    2    0    0  0.81660151791E+02  0.76090255883E+02  0.10966468343E+03  0.20027343864E+03  0.12500000000E+03 0.  0.
         25    1    1    2    0    0 -0.33954706441E+02 -0.72602119297E+02  0.92982369855E+03  0.94160559695E+03  0.12500000000E+03 0.  0.
</event>
<event>
 5    0  0.5939284E-005  0.3064194E+03  0.7546771E-02  0.1082075E+00
         21   -1    0    0  502  501  0.00000000000E+00  0.00000000000E+00  0.10123176854E+03  0.10123176854E+03  0.00000000000E+00 0.  1.
         21   -1    0    0  501  502 -0.00000000000E+00 -0.00000000000E+00 -0.92750367574E+03  0.92750367574E+03  0.00000000000E+00 0.  1.
         25    1    1    2    0    0  0.14359341361E+03 -0.77407228285E+02 -0.27544368322E+03  0.34366432758E+03  0.12500000000E+03 0.  0.
         25    1    1    2    0    0  0.61466648595E+01  0.10055493042E+03 -0.41848184764E+03  0.44821995976E+03  0.12500000000E+03 0.  0.
         25    1    1    2    0    0 -0.14974007847E+03 -0.23147702131E+02 -0.13234637634E+03  0.23685115694E+03  0.12500000000E+03 0.  0.
</event>
<event>
 5    0  0.5655767E-005  0.5051395E+03  0.7546771E-02  0.1012446E+00
         21   -1    0    0  502  501  0.00000000000E+00  0.00000000000E+00  0.67938625982E+03  0.67938625982E+03  0.00000000000E+00 0. -1.
         21   -1    0    0  501  502 -0.00000000000E+00 -0.00000000000E+00 -0.37558294940E+03  0.37558294940E+03  0.00000000000E+00 0. -1.
         25    1    1    2    0    0 -0.15631520874E+03 -0.12668072736E+03 -0.24083879476E+03  0.33780286593E+03  0.12500000000E+03 0.  0.
         25    1    1    2    0    0  0.74142815473E+02 -0.49168357044E+02  0.34561088947E+02  0.15727095501E+03  0.12500000000E+03 0.  0.
         25    1    1    2    0    0  0.82172393266E+02  0.17584908441E+03  0.51008101623E+03  0.55989538828E+03  0.12500000000E+03 0.  0.
</event>
<event>
 5    0  0.5655767E-005  0.2710565E+03  0.7546771E-02  0.1100676E+00
         21   -1    0    0  502  501  0.00000000000E+00  0.00000000000E+00  0.19390405679E+03  0.19390405679E+03  0.00000000000E+00 0.  1.
         21   -1    0    0  501  502 -0.00000000000E+00 -0.00000000000E+00 -0.37890701266E+03  0.37890701266E+03  0.00000000000E+00 0.  1.
         25    1    1    2    0    0  0.10882908409E+03  0.34486971494E+02 -0.48696421638E+02  0.17615181585E+03  0.12500000000E+03 0.  0.
         25    1    1    2    0    0 -0.11319487711E+03 -0.11547374720E+03 -0.15746027567E+02  0.20498830182E+03  0.12500000000E+03 0.  0.
         25    1    1    2    0    0  0.43657930190E+01  0.80986775710E+02 -0.12056050667E+03  0.19167095178E+03  0.12500000000E+03 0.  0.
</event>
<event>
 5    0  0.5655767E-005  0.3783214E+03  0.7546771E-02  0.1051556E+00
         21   -1    0    0  502  501  0.00000000000E+00  0.00000000000E+00  0.85794315868E+03  0.85794315868E+03  0.00000000000E+00 0. -1.
         21   -1    0    0  501  502 -0.00000000000E+00 -0.00000000000E+00 -0.16682581555E+03  0.16682581555E+03  0.00000000000E+00 0. -1.
         25    1    1    2    0    0  0.91628489746E+02  0.22484076789E+03  0.10392385837E+03  0.29218884198E+03  0.12500000000E+03 0.  0.
         25    1    1    2    0    0 -0.87063262187E+01 -0.25545685457E+03  0.39670799614E+03  0.48819692632E+03  0.12500000000E+03 0.  0.
         25    1    1    2    0    0 -0.82922163528E+02  0.30616086674E+02  0.19048548862E+03  0.24438320593E+03  0.12500000000E+03 0.  0.
</event>
<event>
 5    0  0.5655767E-005  0.4041431E+03  0.7546771E-02  0.1042354E+00
         21   -1    0    0  502  501  0.00000000000E+00  0.00000000000E+00  0.47267379029E+03  0.47267379029E+03  0.00000000000E+00 0.  1.
         21   -1    0    0  501  502 -0.00000000000E+00 -0.00000000000E+00 -0.34554829364E+03  0.34554829364E+03  0.00000000000E+00 0.  1.
         25    1    1    2    0    0  0.51444307622E+02  0.13544423126E+02  0.17594212918E+03  0.22228495452E+03  0.12500000000E+03 0.  0.
         25    1    1    2    0    0  0.26750619904E+02  0.53053078592E+02  0.23298662023E+03  0.27099444648E+03  0.12500000000E+03 0.  0.
         25    1    1    2    0    0 -0.78194927526E+02 -0.66597501717E+02 -0.28180325276E+03  0.32494268294E+03  0.12500000000E+03 0.  0.
</event>
<event>
 5    0  0.5655767E-005  0.2910560E+03  0.7546771E-02  0.1089799E+00
         21   -1    0    0  502  501  0.00000000000E+00  0.00000000000E+00  0.15490435080E+04  0.15490435080E+04  0.00000000000E+00 0. -1.
         21   -1    0    0  501  502 -0.00000000000E+00 -0.00000000000E+00 -0.54687697449E+02  0.54687697449E+02  0.00000000000E+00 0. -1.
         25    1    1    2    0    0  0.80819359145E+02  0.76070675870E+02  0.39923025054E+03  0.43281440536E+03  0.12500000000E+03 0.  0.
         25    1    1    2    0    0 -0.14378269546E+03  0.18475747900E+02  0.86222770605E+03  0.88321935773E+03  0.12500000000E+03 0.  0.
         25    1    1    2    0    0  0.62963336317E+02 -0.94546423770E+02  0.23289785398E+03  0.28769744239E+03  0.12500000000E+03 0.  0.
</event>
<event>
 5    0  0.5655767E-005  0.3692285E+03  0.7546771E-02  0.1054988E+00
         21   -1    0    0  502  501  0.00000000000E+00  0.00000000000E+00  0.78498235591E+03  0.78498235591E+03  0.00000000000E+00 0. -1.
         21   -1    0    0  501  502 -0.00000000000E+00 -0.00000000000E+00 -0.17367228273E+03  0.17367228273E+03  0.00000000000E+00 0. -1.
         25    1    1    2    0    0  0.71020996485E+02 -0.39174754819E+01  0.78534203524E+01  0.14403473459E+03  0.12500000000E+03 0.  0.
         25    1    1    2    0    0  0.98514997595E+02  0.69930595772E+02  0.19088773286E+01  0.17385090391E+03  0.12500000000E+03 0.  0.
         25    1    1    2    0    0 -0.16953599408E+03 -0.66013120290E+02  0.60154777550E+03  0.64076900014E+03  0.12500000000E+03 0.  0.
</event>
<event>
 5    0  0.5655767E-005  0.2875350E+03  0.7546771E-02  0.1091643E+00
         21   -1    0    0  502  501  0.00000000000E+00  0.00000000000E+00  0.12371413663E+03  0.12371413663E+03  0.00000000000E+00 0.  1.
         21   -1    0    0  501  502 -0.00000000000E+00 -0.00000000000E+00 -0.66828564379E+03  0.66828564379E+03  0.00000000000E+00 0.  1.
         25    1    1    2    0    0 -0.16695987764E+03 -0.38364763457E+02 -0.16877593538E+03  0.27103094322E+03  0.12500000000E+03 0.  0.
         25    1    1    2    0    0  0.27644786651E+02  0.90396899376E+02 -0.10883301681E+03  0.19080214672E+03  0.12500000000E+03 0.  0.
         25    1    1    2    0    0  0.13931509099E+03 -0.52032135919E+02 -0.26696255497E+03  0.33016669048E+03  0.12500000000E+03 0.  0.
</event>
<event>
 5    0  0.5655767E-005  0.4777053E+03  0.7546771E-02  0.1019768E+00
         21   -1    0    0  502  501  0.00000000000E+00  0.00000000000E+00  0.19360887653E+03  0.19360887653E+03  0.00000000000E+00 0. -1.
         21   -1    0    0  501  502 -0.00000000000E+00 -0.00000000000E+00 -0.11786769867E+04  0.11786769867E+04  0.00000000000E+00 0. -1.
         25    1    1    2    0    0  0.16452319491E+03 -0.97943064177E+02 -0.92443126513E+03  0.95229138893E+03  0.12500000000E+03 0.  0.
         25    1    1    2    0    0 -0.80655445532E+02 -0.47350074921E+02 -0.12620657251E+03  0.20074966857E+03  0.12500000000E+03 0.  0.
         25    1    1    2    0    0 -0.83867749380E+02  0.14529313910E+03  0.65569727498E+02  0.21924480568E+03  0.12500000000E+03 0.  0.
</event>
<event>
 5    0  0.5655767E-005  0.5736934E+03  0.7546771E-02  0.9961539E-01
         21   -1    0    0  502  501  0.00000000000E+00  0.00000000000E+00  0.12824427850E+04  0.12824427850E+04  0.00000000000E+00 0.  1.
         21   -1    0    0  501  502 -0.00000000000E+00 -0.00000000000E+00 -0.25663843057E+03  0.25663843057E+03  0.00000000000E+00 0.  1.
         25    1    1    2    0    0 -0.16325960240E+03  0.13333489539E+03  0.92332593230E+02  0.26188203428E+03  0.12500000000E+03 0.  0.
         25    1    1    2    0    0  0.38247851947E+03 -0.33300419752E+03  0.41554153220E+03  0.66744391405E+03  0.12500000000E+03 0.  0.
         25    1    1    2    0    0 -0.21921891707E+03  0.19966930212E+03  0.51793022895E+03  0.60975526720E+03  0.12500000000E+03 0.  0.
</event>
<event>
 5    0  0.5655767E-005  0.3877386E+03  0.7546771E-02  0.1048110E+00
         21   -1    0    0  502  501  0.00000000000E+00  0.00000000000E+00  0.32002211823E+04  0.32002211823E+04  0.00000000000E+00 0. -1.
         21   -1    0    0  501  502 -0.00000000000E+00 -0.00000000000E+00 -0.46978373367E+02  0.46978373367E+02  0.00000000000E+00 0. -1.
         25    1    1    2    0    0  0.23844434751E+02 -0.57968178717E+02  0.13438042966E+04  0.13510602704E+04  0.12500000000E+03 0.  0.
         25    1    1    2    0    0 -0.19868814072E+03 -0.13285722121E+03  0.10512180837E+04  0.10852706935E+04  0.12500000000E+03 0.  0.
         25    1    1    2    0    0  0.17484370597E+03  0.19082539993E+03  0.75822042855E+03  0.81086859173E+03  0.12500000000E+03 0.  0.
</event>
<event>
 5    0  0.5656383E-005  0.3945494E+03  0.7546771E-02  0.1045684E+00
         21   -1    0    0  502  501  0.00000000000E+00  0.00000000000E+00  0.34564850244E+03  0.34564850244E+03  0.00000000000E+00 0. -1.
         21   -1    0    0  501  502 -0.00000000000E+00 -0.00000000000E+00 -0.45036858885E+03  0.45036858885E+03  0.00000000000E+00 0. -1.
         25    1    1    2    0    0 -0.16735179846E+03  0.10405123975E+03 -0.72613071813E+02  0.24439914717E+03  0.12500000000E+03 0.  0.
         25    1    1    2    0    0  0.22365753455E+03 -0.11935931369E+03 -0.19104521454E+03  0.34116361547E+03  0.12500000000E+03 0.  0.
         25    1    1    2    0    0 -0.56305736088E+02  0.15308073947E+02  0.15893819993E+03  0.21045432864E+03  0.12500000000E+03 0.  0.
</event>
<event>
 5    0  0.5655767E-005  0.2386568E+03  0.7546771E-02  0.1120691E+00
         21   -1    0    0  502  501  0.00000000000E+00  0.00000000000E+00  0.20761150749E+03  0.20761150749E+03  0.00000000000E+00 0.  1.
         21   -1    0    0  501  502 -0.00000000000E+00 -0.00000000000E+00 -0.27434450162E+03  0.27434450162E+03  0.00000000000E+00 0.  1.
         25    1    1    2    0    0  0.29925020656E+02  0.71514229671E+02  0.65000808717E+02  0.16081012729E+03  0.12500000000E+03 0.  0.
         25    1    1    2    0    0 -0.24536836928E+02 -0.10024550910E+03 -0.93816606202E+02  0.18729061391E+03  0.12500000000E+03 0.  0.
         25    1    1    2    0    0 -0.53881837280E+01  0.28731279427E+02 -0.37917196644E+02  0.13385526789E+03  0.12500000000E+03 0.  0.
</event>
<event>
 5    0  0.5655767E-005  0.3672483E+03  0.7546771E-02  0.1055750E+00
         21   -1    0    0  502  501  0.00000000000E+00  0.00000000000E+00  0.44749816697E+03  0.44749816697E+03  0.00000000000E+00 0.  1.
         21   -1    0    0  501  502 -0.00000000000E+00 -0.00000000000E+00 -0.30138957822E+03  0.30138957822E+03  0.00000000000E+00 0.  1.
         25    1    1    2    0    0  0.14536156035E+03  0.57880578565E+02  0.33669097153E+01  0.20029099002E+03  0.12500000000E+03 0.  0.
         25    1    1    2    0    0 -0.50573559044E+02 -0.22685641857E+03  0.17372535055E+03  0.31595413741E+03  0.12500000000E+03 0.  0.
         25    1    1    2    0    0 -0.94788001305E+02  0.16897584001E+03 -0.30983671514E+02  0.23264261776E+03  0.12500000000E+03 0.  0.
</event>
<event>
 5    0  0.5846332E-005  0.2963928E+03  0.7546771E-02  0.1087058E+00
         21   -1    0    0  502  501  0.00000000000E+00  0.00000000000E+00  0.12892050676E+03  0.12892050676E+03  0.00000000000E+00 0. -1.
         21   -1    0    0  501  502 -0.00000000000E+00 -0.00000000000E+00 -0.68141735571E+03  0.68141735571E+03  0.00000000000E+00 0. -1.
         25    1    1    2    0    0  0.73122969497E+02 -0.85447764211E+02 -0.25243823428E+03  0.30331229979E+03  0.12500000000E+03 0.  0.
         25    1    1    2    0    0 -0.71598299287E+02  0.13368633924E+03 -0.31595747265E+03  0.37209202932E+03  0.12500000000E+03 0.  0.
         25    1    1    2    0    0 -0.15246702091E+01 -0.48238575027E+02  0.15898857975E+02  0.13493353336E+03  0.12500000000E+03 0.  0.
</event>
<event>
 5    0  0.5655767E-005  0.2136505E+03  0.7546771E-02  0.1138707E+00
         21   -1    0    0  502  501  0.00000000000E+00  0.00000000000E+00  0.33738771606E+03  0.33738771606E+03  0.00000000000E+00 0. -1.
         21   -1    0    0  501  502 -0.00000000000E+00 -0.00000000000E+00 -0.13529404401E+03  0.13529404401E+03  0.00000000000E+00 0. -1.
         25    1    1    2    0    0  0.43050149630E+02  0.11047336390E+02  0.10948610367E+03  0.17201036574E+03  0.12500000000E+03 0.  0.
         25    1    1    2    0    0 -0.35430390560E+02 -0.72348297549E+01  0.11468490279E+03  0.17345109473E+03  0.12500000000E+03 0.  0.
         25    1    1    2    0    0 -0.76197590690E+01 -0.38125066355E+01 -0.22077334410E+02  0.12722029960E+03  0.12500000000E+03 0.  0.
</event>
<event>
 5    0  0.5655767E-005  0.3678477E+03  0.7546771E-02  0.1055519E+00
         21   -1    0    0  502  501  0.00000000000E+00  0.00000000000E+00  0.11920019982E+03  0.11920019982E+03  0.00000000000E+00 0. -1.
         21   -1    0    0  501  502 -0.00000000000E+00 -0.00000000000E+00 -0.11351651354E+04  0.11351651354E+04  0.00000000000E+00 0. -1.
         25    1    1    2    0    0  0.10432712709E+03 -0.22408424155E+03 -0.35902120184E+03  0.45345244528E+03  0.12500000000E+03 0.  0.
         25    1    1    2    0    0 -0.34778553999E+02  0.19051357953E+03 -0.15465715693E+03  0.27757667047E+03  0.12500000000E+03 0.  0.
         25    1    1    2    0    0 -0.69548573093E+02  0.33570662026E+02 -0.50228657686E+03  0.52333621952E+03  0.12500000000E+03 0.  0.
</event>
<event>
 5    0  0.5655767E-005  0.2883447E+03  0.7546771E-02  0.1091217E+00
         21   -1    0    0  502  501  0.00000000000E+00  0.00000000000E+00  0.51922924068E+02  0.51922924068E+02  0.00000000000E+00 0.  1.
         21   -1    0    0  501  502 -0.00000000000E+00 -0.00000000000E+00 -0.16012712413E+04  0.16012712413E+04  0.00000000000E+00 0.  1.
         25    1    1    2    0    0 -0.53176146565E+02  0.21938638151E+02 -0.62642471992E+03  0.64135944379E+03  0.12500000000E+03 0.  0.
         25    1    1    2    0    0  0.30146685148E+02  0.38109722867E+02 -0.77687801458E+02  0.15498892895E+03  0.12500000000E+03 0.  0.
         25    1    1    2    0    0  0.23029461417E+02 -0.60048361018E+02 -0.84523579587E+03  0.85684579265E+03  0.12500000000E+03 0.  0.
</event>
<event>
 5    0  0.5655767E-005  0.6949787E+03  0.7546771E-02  0.9725858E-01
         21   -1    0    0  502  501  0.00000000000E+00  0.00000000000E+00  0.90831001454E+03  0.90831001454E+03  0.00000000000E+00 0. -1.
         21   -1    0    0  501  502 -0.00000000000E+00 -0.00000000000E+00 -0.53175173647E+03  0.53175173647E+03  0.00000000000E+00 0. -1.
         25    1    1    2    0    0  0.34321363940E+03 -0.24827615647E+02  0.97138126601E+02  0.37877807276E+03  0.12500000000E+03 0.  0.
         25    1    1    2    0    0  0.26625962076E+03  0.49574548678E+01 -0.12428217098E+03  0.31935845070E+03  0.12500000000E+03 0.  0.
         25    1    1    2    0    0 -0.60947326016E+03  0.19870160779E+02  0.40370232245E+03  0.74192522756E+03  0.12500000000E+03 0.  0.
</event>
<event>
 5    0  0.5655767E-005  0.2733638E+03  0.7546771E-02  0.1099370E+00
         21   -1    0    0  502  501  0.00000000000E+00  0.00000000000E+00  0.31046626685E+03  0.31046626685E+03  0.00000000000E+00 0. -1.
         21   -1    0    0  501  502 -0.00000000000E+00 -0.00000000000E+00 -0.24069520869E+03  0.24069520869E+03  0.00000000000E+00 0. -1.
         25    1    1    2    0    0  0.91487837762E+02 -0.12278774974E+03  0.15018655643E+02  0.19823575854E+03  0.12500000000E+03 0.  0.
         25    1    1    2    0    0 -0.53452073468E+02  0.16096653466E+03  0.50864665046E+02  0.21674769570E+03  0.12500000000E+03 0.  0.
         25    1    1    2    0    0 -0.38035764294E+02 -0.38178784919E+02  0.38877374753E+01  0.13617802130E+03  0.12500000000E+03 0.  0.
</event>
<event>
 5    0  0.5655767E-005  0.2864266E+03  0.7546771E-02  0.1092230E+00
         21   -1    0    0  502  501  0.00000000000E+00  0.00000000000E+00  0.12254198283E+04  0.12254198283E+04  0.00000000000E+00 0. -1.
         21   -1    0    0  501  502 -0.00000000000E+00 -0.00000000000E+00 -0.66948636802E+02  0.66948636802E+02  0.00000000000E+00 0. -1.
         25    1    1    2    0    0 -0.15607013996E+03 -0.39972546621E+02  0.43021269499E+03  0.47609206672E+03  0.12500000000E+03 0.  0.
         25    1    1    2    0    0  0.12953521778E+03  0.10055879847E+03  0.29048798822E+03  0.35622986384E+03  0.12500000000E+03 0.  0.
         25    1    1    2    0    0  0.26534922175E+02 -0.60586251845E+02  0.43777050830E+03  0.46004653454E+03  0.12500000000E+03 0.  0.
</event>
<event>
 5    0  0.5655767E-005  0.3653441E+03  0.7546771E-02  0.1056488E+00
         21   -1    0    0  502  501  0.00000000000E+00  0.00000000000E+00  0.54217340947E+02  0.54217340947E+02  0.00000000000E+00 0. -1.
         21   -1    0    0  501  502 -0.00000000000E+00 -0.00000000000E+00 -0.24618748931E+04  0.24618748931E+04  0.00000000000E+00 0. -1.
         25    1    1    2    0    0  0.17621031491E+02  0.17778849955E+03 -0.15163841368E+04  0.15319807772E+04  0.12500000000E+03 0.  0.
         25    1    1    2    0    0 -0.32612811811E+01 -0.22756195197E+03 -0.72283101879E+03  0.76805257610E+03  0.12500000000E+03 0.  0.
         25    1    1    2    0    0 -0.14359750310E+02  0.49773452417E+02 -0.16844239656E+03  0.21605888076E+03  0.12500000000E+03 0.  0.
</event>
<event>
 5    0  0.5655767E-005  0.3175996E+03  0.7546771E-02  0.1076759E+00
         21   -1    0    0  502  501  0.00000000000E+00  0.00000000000E+00  0.49312689046E+03  0.49312689046E+03  0.00000000000E+00 0.  1.
         21   -1    0    0  501  502 -0.00000000000E+00 -0.00000000000E+00 -0.20455087373E+03  0.20455087373E+03  0.00000000000E+00 0.  1.
         25    1    1    2    0    0 -0.47131020766E+01  0.34851250357E+02  0.12161839496E+03  0.17791249809E+03  0.12500000000E+03 0.  0.
         25    1    1    2    0    0 -0.14667548715E+03  0.13039776946E+03  0.51204511499E+02  0.23825234272E+03  0.12500000000E+03 0.  0.
         25    1    1    2    0    0  0.15138858923E+03 -0.16524901982E+03  0.11575311026E+03  0.28151292339E+03  0.12500000000E+03 0.  0.
</event>
<event>
 5    0  0.5655767E-005  0.2922992E+03  0.7546771E-02  0.1089155E+00
         21   -1    0    0  502  501  0.00000000000E+00  0.00000000000E+00  0.28542512783E+03  0.28542512783E+03  0.00000000000E+00 0.  1.
         21   -1    0    0  501  502 -0.00000000000E+00 -0.00000000000E+00 -0.29933876763E+03  0.29933876763E+03  0.00000000000E+00 0.  1.
         25    1    1    2    0    0  0.82746237043E+02 -0.12058214582E+03  0.86723901399E+02  0.21102850213E+03  0.12500000000E+03 0.  0.
         25    1    1    2    0    0 -0.53805446916E+02  0.75648939903E+02 -0.16190172110E+03  0.22462180554E+03  0.12500000000E+03 0.  0.
         25    1    1    2    0    0 -0.28940790127E+02  0.44933205918E+02  0.61264179900E+02  0.14911358780E+03  0.12500000000E+03 0.  0.
</event>
<event>
 5    0  0.5655767E-005  0.2662350E+03  0.7546771E-02  0.1103454E+00
         21   -1    0    0  502  501  0.00000000000E+00  0.00000000000E+00  0.60453640836E+03  0.60453640836E+03  0.00000000000E+00 0. -1.
         21   -1    0    0  501  502 -0.00000000000E+00 -0.00000000000E+00 -0.11724865112E+03  0.11724865112E+03  0.00000000000E+00 0. -1.
         25    1    1    2    0    0  0.75380099959E+01  0.45723943002E+02  0.11106644242E+03  0.17351730516E+03  0.12500000000E+03 0.  0.
         25    1    1    2    0    0  0.59392797116E+02 -0.71372297146E+02  0.11526312183E+02  0.15613892859E+03  0.12500000000E+03 0.  0.
         25    1    1    2    0    0 -0.66930807112E+02  0.25648354144E+02  0.36469500264E+03  0.39212882573E+03  0.12500000000E+03 0.  0.
</event>
<event>
 5    0  0.5655767E-005  0.2549669E+03  0.7546771E-02  0.1110205E+00
         21   -1    0    0  502  501  0.00000000000E+00  0.00000000000E+00  0.12843815560E+03  0.12843815560E+03  0.00000000000E+00 0. -1.
         21   -1    0    0  501  502 -0.00000000000E+00 -0.00000000000E+00 -0.50614336383E+03  0.50614336383E+03  0.00000000000E+00 0. -1.
         25    1    1    2    0    0  0.85709263178E+02 -0.32278853952E+02 -0.86111234445E+01  0.15520036615E+03  0.12500000000E+03 0.  0.
         25    1    1    2    0    0 -0.59370863791E+02 -0.55181079660E+02 -0.20912549579E+03  0.25676511447E+03  0.12500000000E+03 0.  0.
         25    1    1    2    0    0 -0.26338399387E+02  0.87459933612E+02 -0.15996858899E+03  0.22261603880E+03  0.12500000000E+03 0.  0.
</event>
<event>
 5    0  0.5655767E-005  0.2150069E+03  0.7546771E-02  0.1137661E+00
         21   -1    0    0  502  501  0.00000000000E+00  0.00000000000E+00  0.17925466687E+03  0.17925466687E+03  0.00000000000E+00 0.  1.
         21   -1    0    0  501  502 -0.00000000000E+00 -0.00000000000E+00 -0.25788984743E+03  0.25788984743E+03  0.00000000000E+00 0.  1.
         25    1    1    2    0    0 -0.38882722488E+02 -0.43957219732E+02  0.14779836612E+02  0.13887961278E+03  0.12500000000E+03 0.  0.
         25    1    1    2    0    0  0.16057978371E+02  0.58459925123E+02  0.16093557395E+01  0.13893527824E+03  0.12500000000E+03 0.  0.
         25    1    1    2    0    0  0.22824744117E+02 -0.14502705391E+02 -0.95024372917E+02  0.15932962328E+03  0.12500000000E+03 0.  0.
</event>
<event>
 5    0  0.6777593E-005  0.2948243E+03  0.7546771E-02  0.1087857E+00
         21   -1    0    0  502  501  0.00000000000E+00  0.00000000000E+00  0.66274985496E+03  0.66274985496E+03  0.00000000000E+00 0.  1.
         21   -1    0    0  501  502 -0.00000000000E+00 -0.00000000000E+00 -0.13115260551E+03  0.13115260551E+03  0.00000000000E+00 0.  1.
         25    1    1    2    0    0  0.18641222758E+02  0.24534380984E+02  0.27553363605E+03  0.30412697288E+03  0.12500000000E+03 0.  0.
         25    1    1    2    0    0  0.13948009992E+03 -0.78746088568E+02  0.86366009031E+02  0.22077076857E+03  0.12500000000E+03 0.  0.
         25    1    1    2    0    0 -0.15812132268E+03  0.54211707585E+02  0.16969760436E+03  0.26900471901E+03  0.12500000000E+03 0.  0.
</event>
<event>
 5    0  0.6522829E-005  0.2546987E+03  0.7546771E-02  0.1110371E+00
         21   -1    0    0  502  501  0.00000000000E+00  0.00000000000E+00  0.57671846780E+03  0.57671846780E+03  0.00000000000E+00 0. -1.
         21   -1    0    0  501  502 -0.00000000000E+00 -0.00000000000E+00 -0.11248367581E+03  0.11248367581E+03  0.00000000000E+00 0. -1.
         25    1    1    2    0    0 -0.61188675988E+02  0.52326492464E+02  0.26764288285E+03  0.30616960761E+03  0.12500000000E+03 0.  0.
         25    1    1    2    0    0  0.73838704738E+02 -0.11499729138E+03  0.85468300781E+02  0.20397637555E+03  0.12500000000E+03 0.  0.
         25    1    1    2    0    0 -0.12650028750E+02  0.62670798919E+02  0.11112360836E+03  0.17905616046E+03  0.12500000000E+03 0.  0.
</event>
<event>
 5    0  0.5655767E-005  0.2712553E+03  0.7546771E-02  0.1100563E+00
         21   -1    0    0  502  501  0.00000000000E+00  0.00000000000E+00  0.36497363770E+03  0.36497363770E+03  0.00000000000E+00 0.  1.
         21   -1    0    0  501  502 -0.00000000000E+00 -0.00000000000E+00 -0.20160199171E+03  0.20160199171E+03  0.00000000000E+00 0.  1.
         25    1    1    2    0    0  0.26260561747E+02  0.66947266514E+02  0.16172145245E+03  0.21668036778E+03  0.12500000000E+03 0.  0.
         25    1    1    2    0    0 -0.14116309804E+02 -0.87195555047E+02 -0.10356991046E+03  0.18480817453E+03  0.12500000000E+03 0.  0.
         25    1    1    2    0    0 -0.12144251943E+02  0.20248288533E+02  0.10522010399E+03  0.16508708710E+03  0.12500000000E+03 0.  0.
</event>
<event>
 5    0  0.5655767E-005  0.3395734E+03  0.7546771E-02  0.1066978E+00
         21   -1    0    0  502  501  0.00000000000E+00  0.00000000000E+00  0.86840984727E+02  0.86840984727E+02  0.00000000000E+00 0. -1.
         21   -1    0    0  501  502 -0.00000000000E+00 -0.00000000000E+00 -0.13278305374E+04  0.13278305374E+04  0.00000000000E+00 0. -1.
         25    1    1    2    0    0 -0.13992505562E+03 -0.20499739606E+02 -0.71058774077E+03  0.73522731032E+03  0.12500000000E+03 0.  0.
         25    1    1    2    0    0 -0.37214847775E+02 -0.20024015483E+02 -0.34016439124E+02  0.13626453765E+03  0.12500000000E+03 0.  0.
         25    1    1    2    0    0  0.17713990339E+03  0.40523755089E+02 -0.49638537276E+03  0.54317967414E+03  0.12500000000E+03 0.  0.
</event>
<event>
 5    0  0.5655767E-005  0.2086588E+03  0.7546771E-02  0.1142632E+00
         21   -1    0    0  502  501  0.00000000000E+00  0.00000000000E+00  0.36489704382E+02  0.36489704382E+02  0.00000000000E+00 0.  1.
         21   -1    0    0  501  502 -0.00000000000E+00 -0.00000000000E+00 -0.11931723488E+04  0.11931723488E+04  0.00000000000E+00 0.  1.
         25    1    1    2    0    0  0.13144547467E+02 -0.61990448475E+02 -0.30774883039E+03  0.33815667587E+03  0.12500000000E+03 0.  0.
         25    1    1    2    0    0 -0.48064453934E+02  0.41693886805E+02 -0.46725108695E+03  0.48784951592E+03  0.12500000000E+03 0.  0.
         25    1    1    2    0    0  0.34919906467E+02  0.20296561670E+02 -0.38168272707E+03  0.40365586138E+03  0.12500000000E+03 0.  0.
</event>
<event>
 5    0  0.5655767E-005  0.4039498E+03  0.7546771E-02  0.1042421E+00
         21   -1    0    0  502  501  0.00000000000E+00  0.00000000000E+00  0.99797079947E+02  0.99797079947E+02  0.00000000000E+00 0.  1.
         21   -1    0    0  501  502 -0.00000000000E+00 -0.00000000000E+00 -0.16350723406E+04  0.16350723406E+04  0.00000000000E+00 0.  1.
         25    1    1    2    0    0 -0.83594901340E+02 -0.33357292435E+03 -0.76778194462E+03  0.85051344367E+03  0.12500000000E+03 0.  0.
         25    1    1    2    0    0  0.86515264387E+02  0.19174845704E+03 -0.50148059939E+03  0.55799655313E+03  0.12500000000E+03 0.  0.
         25    1    1    2    0    0 -0.29203630468E+01  0.14182446731E+03 -0.26601271670E+03  0.32635942379E+03  0.12500000000E+03 0.  0.
</event>
<event>
 5    0  0.5655767E-005  0.3864786E+03  0.7546771E-02  0.1048565E+00
         21   -1    0    0  502  501  0.00000000000E+00  0.00000000000E+00  0.60667752156E+03  0.60667752156E+03  0.00000000000E+00 0.  1.
         21   -1    0    0  501  502 -0.00000000000E+00 -0.00000000000E+00 -0.24620284879E+03  0.24620284879E+03  0.00000000000E+00 0. -1.
         25    1    1    2    0    0 -0.11176811970E+03 -0.14235548718E+02  0.33983464720E+03  0.37921939674E+03  0.12500000000E+03 0.  0.
         25    1    1    2    0    0  0.20158505988E+03  0.13107718416E+03 -0.33265556883E+02  0.27303729022E+03  0.12500000000E+03 0.  0.
         25    1    1    2    0    0 -0.89816940184E+02 -0.11684163544E+03  0.53905582458E+02  0.20062368339E+03  0.12500000000E+03 0.  0.
</event>
<event>
 5    0  0.5655767E-005  0.4340879E+03  0.7546771E-02  0.1032576E+00
         21   -1    0    0  502  501  0.00000000000E+00  0.00000000000E+00  0.95532195437E+02  0.95532195437E+02  0.00000000000E+00 0.  1.
         21   -1    0    0  501  502 -0.00000000000E+00 -0.00000000000E+00 -0.19724479072E+04  0.19724479072E+04  0.00000000000E+00 0.  1.
         25    1    1    2    0    0  0.15330315277E+03 -0.35610162334E+02 -0.85034504666E+03  0.87377436372E+03  0.12500000000E+03 0.  0.
         25    1    1    2    0    0 -0.21879733420E+02 -0.39832133824E+02  0.15387294371E+02  0.13389208508E+03  0.12500000000E+03 0.  0.
         25    1    1    2    0    0 -0.13142341935E+03  0.75442296158E+02 -0.10419579595E+04  0.10603136538E+04  0.12500000000E+03 0.  0.
</event>
<event>
 5    0  0.5655767E-005  0.2230647E+03  0.7546771E-02  0.1131619E+00
         21   -1    0    0  502  501  0.00000000000E+00  0.00000000000E+00  0.37369934601E+03  0.37369934601E+03  0.00000000000E+00 0.  1.
         21   -1    0    0  501  502 -0.00000000000E+00 -0.00000000000E+00 -0.13314947424E+03  0.13314947424E+03  0.00000000000E+00 0.  1.
         25    1    1    2    0    0  0.40261806891E+02 -0.19896908648E+02  0.11653896388E+03  0.17670096256E+03  0.12500000000E+03 0.  0.
         25    1    1    2    0    0 -0.61616273741E+02 -0.64222668744E+02  0.54369814907E+02  0.16279494201E+03  0.12500000000E+03 0.  0.
         25    1    1    2    0    0  0.21354466850E+02  0.84119577392E+02  0.69641092980E+02  0.16735291568E+03  0.12500000000E+03 0.  0.
</event>
<event>
 5    0  0.5655767E-005  0.3089993E+03  0.7546771E-02  0.1080827E+00
         21   -1    0    0  502  501  0.00000000000E+00  0.00000000000E+00  0.39413122083E+03  0.39413122083E+03  0.00000000000E+00 0.  1.
         21   -1    0    0  501  502 -0.00000000000E+00 -0.00000000000E+00 -0.24225581247E+03  0.24225581247E+03  0.00000000000E+00 0.  1.
         25    1    1    2    0    0  0.71151797102E+02 -0.10854294301E+03  0.76612149373E+02  0.19580237522E+03  0.12500000000E+03 0.  0.
         25    1    1    2    0    0  0.51732179006E+02 -0.88364870091E+02 -0.14165371899E+02  0.16220427359E+03  0.12500000000E+03 0.  0.
         25    1    1    2    0    0 -0.12288397611E+03  0.19690781311E+03  0.89428630890E+02  0.27838038449E+03  0.12500000000E+03 0.  0.
</event>
<event>
 5    0  0.5715582E-005  0.4050873E+03  0.7546771E-02  0.1042032E+00
         21   -1    0    0  502  501  0.00000000000E+00  0.00000000000E+00  0.31887335801E+03  0.31887335801E+03  0.00000000000E+00 0. -1.
         21   -1    0    0  501  502 -0.00000000000E+00 -0.00000000000E+00 -0.51461107340E+03  0.51461107340E+03  0.00000000000E+00 0. -1.
         25    1    1    2    0    0  0.53738612804E+02  0.17030277735E+03 -0.24348100050E+02  0.21933696554E+03  0.12500000000E+03 0.  0.
         25    1    1    2    0    0  0.26820548347E+02 -0.10488788055E+03  0.16932696482E+03  0.23668001672E+03  0.12500000000E+03 0.  0.
         25    1    1    2    0    0 -0.80559161151E+02 -0.65414896799E+02 -0.34071658016E+03  0.37746744914E+03  0.12500000000E+03 0.  0.
</event>
<event>
 5    0  0.5655767E-005  0.3376808E+03  0.7546771E-02  0.1067788E+00
         21   -1    0    0  502  501  0.00000000000E+00  0.00000000000E+00  0.10401374409E+04  0.10401374409E+04  0.00000000000E+00 0.  1.
         21   -1    0    0  501  502 -0.00000000000E+00 -0.00000000000E+00 -0.10962815861E+03  0.10962815861E+03  0.00000000000E+00 0.  1.
         25    1    1    2    0    0 -0.51582327536E+02  0.84508039582E+02  0.47278699706E+03  0.49895379532E+03  0.12500000000E+03 0.  0.
         25    1    1    2    0    0  0.17398915530E+03 -0.14469109314E+03  0.17232294903E+03  0.31068945485E+03  0.12500000000E+03 0.  0.
         25    1    1    2    0    0 -0.12240682776E+03  0.60183053559E+02  0.28539933621E+03  0.34012234935E+03  0.12500000000E+03 0.  0.
</event>
<event>
 5    0  0.5655767E-005  0.3539309E+03  0.7546771E-02  0.1061013E+00
         21   -1    0    0  502  501  0.00000000000E+00  0.00000000000E+00  0.10716577111E+04  0.10716577111E+04  0.00000000000E+00 0.  1.
         21   -1    0    0  501  502 -0.00000000000E+00 -0.00000000000E+00 -0.11689093456E+03  0.11689093456E+03  0.00000000000E+00 0.  1.
         25    1    1    2    0    0  0.12488487156E+03  0.12019542525E+03  0.40118979609E+03  0.45455629341E+03  0.12500000000E+03 0.  0.
         25    1    1    2    0    0 -0.38215363524E+02 -0.19675761756E+03  0.11340751850E+03  0.26203098925E+03  0.12500000000E+03 0.  0.
         25    1    1    2    0    0 -0.86669508034E+02  0.76562192310E+02  0.44016946191E+03  0.47196136295E+03  0.12500000000E+03 0.  0.
</event>
<event>
 5    0  0.5655767E-005  0.2656857E+03  0.7546771E-02  0.1103774E+00
         21   -1    0    0  502  501  0.00000000000E+00  0.00000000000E+00  0.39912273436E+03  0.39912273436E+03  0.00000000000E+00 0.  1.
         21   -1    0    0  501  502 -0.00000000000E+00 -0.00000000000E+00 -0.17686017455E+03  0.17686017455E+03  0.00000000000E+00 0.  1.
         25    1    1    2    0    0 -0.38604552741E+02 -0.11563287503E+03  0.90207993520E+02  0.19652927358E+03  0.12500000000E+03 0.  0.
         25    1    1    2    0    0  0.67227521195E+02  0.13872816884E+03  0.14883880393E+03  0.24807868508E+03  0.12500000000E+03 0.  0.
         25    1    1    2    0    0 -0.28622968453E+02 -0.23095293811E+02 -0.16784237642E+02  0.13137495025E+03  0.12500000000E+03 0.  0.
</event>
<event>
 5    0  0.5655767E-005  0.2817502E+03  0.7546771E-02  0.1094737E+00
         21   -1    0    0  502  501  0.00000000000E+00  0.00000000000E+00  0.11704447764E+04  0.11704447764E+04  0.00000000000E+00 0.  1.
         21   -1    0    0  501  502 -0.00000000000E+00 -0.00000000000E+00 -0.67823075959E+02  0.67823075959E+02  0.00000000000E+00 0.  1.
         25    1    1    2    0    0 -0.12605873270E+03  0.11787207295E+03  0.31158483769E+03  0.37748475565E+03  0.12500000000E+03 0.  0.
         25    1    1    2    0    0  0.40158175207E+02 -0.63867782873E+02  0.19632169855E+03  0.24466095325E+03  0.12500000000E+03 0.  0.
         25    1    1    2    0    0  0.85900557496E+02 -0.54004290075E+02  0.59471516421E+03  0.61612214346E+03  0.12500000000E+03 0.  0.
</event>
<event>
 5    0  0.5655767E-005  0.4348059E+03  0.7546771E-02  0.1032352E+00
         21   -1    0    0  502  501  0.00000000000E+00  0.00000000000E+00  0.14050203310E+04  0.14050203310E+04  0.00000000000E+00 0.  1.
         21   -1    0    0  501  502 -0.00000000000E+00 -0.00000000000E+00 -0.13455762158E+03  0.13455762158E+03  0.00000000000E+00 0.  1.
         25    1    1    2    0    0 -0.20728676347E+03  0.12301256633E+03  0.34427751763E+03  0.43846539536E+03  0.12500000000E+03 0.  0.
         25    1    1    2    0    0 -0.39131096595E+02 -0.21822848472E+03  0.65384218534E+03  0.70163346385E+03  0.12500000000E+03 0.  0.
         25    1    1    2    0    0  0.24641786006E+03  0.95215918390E+02  0.27234300641E+03  0.39947909334E+03  0.12500000000E+03 0.  0.
</event>
<event>
 5    0  0.5655767E-005  0.2928425E+03  0.7546771E-02  0.1088874E+00
         21   -1    0    0  502  501  0.00000000000E+00  0.00000000000E+00  0.90994001254E+02  0.90994001254E+02  0.00000000000E+00 0. -1.
         21   -1    0    0  501  502 -0.00000000000E+00 -0.00000000000E+00 -0.94244392512E+03  0.94244392512E+03  0.00000000000E+00 0. -1.
         25    1    1    2    0    0 -0.14658685409E+03  0.20972150108E+02 -0.27400456355E+03  0.33560547928E+03  0.12500000000E+03 0.  0.
         25    1    1    2    0    0  0.20898872888E+03  0.24649082546E+02 -0.35344678621E+03  0.42992266369E+03  0.12500000000E+03 0.  0.
         25    1    1    2    0    0 -0.62401874789E+02 -0.45621232654E+02 -0.22399857410E+03  0.26790978341E+03  0.12500000000E+03 0.  0.
</event>
<event>
 5    0  0.5655767E-005  0.2969267E+03  0.7546771E-02  0.1086787E+00
         21   -1    0    0  502  501  0.00000000000E+00  0.00000000000E+00  0.50531200108E+03  0.50531200108E+03  0.00000000000E+00 0. -1.
         21   -1    0    0  501  502 -0.00000000000E+00 -0.00000000000E+00 -0.17447729209E+03  0.17447729209E+03  0.00000000000E+00 0. -1.
         25    1    1    2    0    0 -0.64079263086E+02  0.64380548819E+02  0.16343154363E+03  0.22491304204E+03  0.12500000000E+03 0.  0.
         25    1    1    2    0    0  0.50322089127E+02 -0.15285328139E+03  0.21272909306E+03  0.29457614519E+03  0.12500000000E+03 0.  0.
         25    1    1    2    0    0  0.13757173960E+02  0.88472732567E+02 -0.45325927705E+02  0.16030010594E+03  0.12500000000E+03 0.  0.
</event>
<event>
 5    0  0.5655767E-005  0.4140426E+03  0.7546771E-02  0.1039023E+00
         21   -1    0    0  502  501  0.00000000000E+00  0.00000000000E+00  0.11337486555E+04  0.11337486555E+04  0.00000000000E+00 0.  1.
         21   -1    0    0  501  502 -0.00000000000E+00 -0.00000000000E+00 -0.15120749851E+03  0.15120749851E+03  0.00000000000E+00 0.  1.
         25    1    1    2    0    0  0.57721946141E+02 -0.35890805791E+02  0.71591562582E+03  0.72991791066E+03  0.12500000000E+03 0.  0.
         25    1    1    2    0    0  0.57346981677E+02  0.10000262717E+03 -0.60835032361E+02  0.18059651965E+03  0.12500000000E+03 0.  0.
         25    1    1    2    0    0 -0.11506892782E+03 -0.64111821379E+02  0.32746056357E+03  0.37444172375E+03  0.12500000000E+03 0.  0.
</event>
<event>
 5    0  0.5655767E-005  0.2517678E+03  0.7546771E-02  0.1112193E+00
         21   -1    0    0  502  501  0.00000000000E+00  0.00000000000E+00  0.26926472831E+03  0.26926472831E+03  0.00000000000E+00 0. -1.
         21   -1    0    0  501  502 -0.00000000000E+00 -0.00000000000E+00 -0.23540789445E+03  0.23540789445E+03  0.00000000000E+00 0. -1.
         25    1    1    2    0    0  0.45063054308E+02  0.85537548141E+02 -0.11652869731E+03  0.19634481990E+03  0.12500000000E+03 0.  0.
         25    1    1    2    0    0 -0.28837299744E+02 -0.36694401876E+02  0.84612640478E+02  0.15799483509E+03  0.12500000000E+03 0.  0.
         25    1    1    2    0    0 -0.16225754564E+02 -0.48843146265E+02  0.65772890698E+02  0.15033296777E+03  0.12500000000E+03 0.  0.
</event>
<event>
 5    0  0.5655767E-005  0.2393143E+03  0.7546771E-02  0.1120250E+00
         21   -1    0    0  502  501  0.00000000000E+00  0.00000000000E+00  0.83485511577E+02  0.83485511577E+02  0.00000000000E+00 0. -1.
         21   -1    0    0  501  502 -0.00000000000E+00 -0.00000000000E+00 -0.68600306995E+03  0.68600306995E+03  0.00000000000E+00 0. -1.
         25    1    1    2    0    0 -0.28464853261E+02 -0.87873114079E+02 -0.78095396998E+02  0.17394201069E+03  0.12500000000E+03 0.  0.
         25    1    1    2    0    0  0.21414381959E+02  0.88258316199E+02 -0.24965159552E+03  0.29359670515E+03  0.12500000000E+03 0.  0.
         25    1    1    2    0    0  0.70504713022E+01 -0.38520211969E+00 -0.27477056586E+03  0.30194986569E+03  0.12500000000E+03 0.  0.
</event>
<event>
 5    0  0.5655767E-005  0.2755653E+03  0.7546771E-02  0.1098136E+00
         21   -1    0    0  502  501  0.00000000000E+00  0.00000000000E+00  0.12068095957E+03  0.12068095957E+03  0.00000000000E+00 0.  1.
         21   -1    0    0  501  502 -0.00000000000E+00 -0.00000000000E+00 -0.62923107898E+03  0.62923107898E+03  0.00000000000E+00 0.  1.
         25    1    1    2    0    0 -0.12633328259E+03 -0.24885993142E+02 -0.14005729912E+03  0.22764107270E+03  0.12500000000E+03 0.  0.
         25    1    1    2    0    0  0.31569931906E+02 -0.50220455843E+02 -0.30883001400E+03  0.33840764225E+03  0.12500000000E+03 0.  0.
         25    1    1    2    0    0  0.94763350681E+02  0.75106448985E+02 -0.59662806287E+02  0.18386332360E+03  0.12500000000E+03 0.  0.
</event>
<event>
 5    0  0.5655767E-005  0.4164603E+03  0.7546771E-02  0.1038225E+00
         21   -1    0    0  502  501  0.00000000000E+00  0.00000000000E+00  0.20855545607E+04  0.20855545607E+04  0.00000000000E+00 0.  1.
         21   -1    0    0  501  502 -0.00000000000E+00 -0.00000000000E+00 -0.83162126614E+02  0.83162126614E+02  0.00000000000E+00 0.  1.
         25    1    1    2    0    0  0.42295403752E+02  0.65914698659E+02  0.16553841453E+04  0.16619432353E+04  0.12500000000E+03 0.  0.
         25    1    1    2    0    0 -0.77288326429E+02 -0.12913652041E+03  0.29363647486E+03  0.35284147385E+03  0.12500000000E+03 0.  0.
         25    1    1    2    0    0  0.34992922676E+02  0.63221821750E+02  0.53371813875E+02  0.15393197816E+03  0.12500000000E+03 0.  0.
</event>
<event>
 5    0  0.5655767E-005  0.2733451E+03  0.7546771E-02  0.1099380E+00
         21   -1    0    0  502  501  0.00000000000E+00  0.00000000000E+00  0.65340039549E+03  0.65340039549E+03  0.00000000000E+00 0.  1.
         21   -1    0    0  501  502 -0.00000000000E+00 -0.00000000000E+00 -0.11435184189E+03  0.11435184189E+03  0.00000000000E+00 0.  1.
         25    1    1    2    0    0  0.62095055892E+02  0.14328584538E+03  0.33397166449E+03  0.38929256625E+03  0.12500000000E+03 0.  0.
         25    1    1    2    0    0  0.10639529008E+02 -0.87037349870E+02  0.54187677060E+02  0.16201853041E+03  0.12500000000E+03 0.  0.
         25    1    1    2    0    0 -0.72734584900E+02 -0.56248495510E+02  0.15088921204E+03  0.21644114072E+03  0.12500000000E+03 0.  0.
</event>
<event>
 5    0  0.5655767E-005  0.3028065E+03  0.7546771E-02  0.1083846E+00
         21   -1    0    0  502  501  0.00000000000E+00  0.00000000000E+00  0.14448970273E+04  0.14448970273E+04  0.00000000000E+00 0. -1.
         21   -1    0    0  501  502 -0.00000000000E+00 -0.00000000000E+00 -0.63459042118E+02  0.63459042118E+02  0.00000000000E+00 0. -1.
         25    1    1    2    0    0  0.97397379996E+02 -0.20207701960E+02  0.16088956830E+03  0.22672682690E+03  0.12500000000E+03 0.  0.
         25    1    1    2    0    0 -0.42619653744E+02  0.15017078194E+03  0.70051084339E+03  0.72849717936E+03  0.12500000000E+03 0.  0.
         25    1    1    2    0    0 -0.54777726252E+02 -0.12996307998E+03  0.52003757354E+03  0.55313206320E+03  0.12500000000E+03 0.  0.
</event>
<event>
 5    0  0.5655767E-005  0.3671309E+03  0.7546771E-02  0.1055795E+00
         21   -1    0    0  502  501  0.00000000000E+00  0.00000000000E+00  0.25723184288E+03  0.25723184288E+03  0.00000000000E+00 0.  1.
         21   -1    0    0  501  502 -0.00000000000E+00 -0.00000000000E+00 -0.52398297737E+03  0.52398297737E+03  0.00000000000E+00 0.  1.
         25    1    1    2    0    0  0.17001053370E+03  0.27699464591E+02 -0.26729509195E+03  0.34167602797E+03  0.12500000000E+03 0.  0.
         25    1    1    2    0    0  0.86038371558E+02 -0.72544295108E+01 -0.19520791521E+02  0.15317078517E+03  0.12500000000E+03 0.  0.
         25    1    1    2    0    0 -0.25604890526E+03 -0.20445035080E+02  0.20064748982E+02  0.28636800711E+03  0.12500000000E+03 0.  0.
</event>
<event>
 5    0  0.5655767E-005  0.3066804E+03  0.7546771E-02  0.1081948E+00
         21   -1    0    0  502  501  0.00000000000E+00  0.00000000000E+00  0.54480977811E+02  0.54480977811E+02  0.00000000000E+00 0. -1.
         21   -1    0    0  501  502 -0.00000000000E+00 -0.00000000000E+00 -0.17263437645E+04  0.17263437645E+04  0.00000000000E+00 0. -1.
         25    1    1    2    0    0 -0.40351860347E+02  0.16183442513E+03 -0.72787296923E+03  0.75712793710E+03  0.12500000000E+03 0.  0.
         25    1    1    2    0    0 -0.70740869532E+02 -0.47275476839E+01 -0.54304607479E+03  0.56173896043E+03  0.12500000000E+03 0.  0.
         25    1    1    2    0    0  0.11109272988E+03 -0.15710687745E+03 -0.40094374271E+03  0.46195784482E+03  0.12500000000E+03 0.  0.
</event>
<event>
 5    0  0.5655767E-005  0.2489286E+03  0.7546771E-02  0.1113984E+00
         21   -1    0    0  502  501  0.00000000000E+00  0.00000000000E+00  0.39437390572E+03  0.39437390572E+03  0.00000000000E+00 0.  1.
         21   -1    0    0  501  502 -0.00000000000E+00 -0.00000000000E+00 -0.15712358849E+03  0.15712358849E+03  0.00000000000E+00 0.  1.
         25    1    1    2    0    0  0.11198016438E+03 -0.22285228271E+01  0.92398117633E+02  0.19159054171E+03  0.12500000000E+03 0.  0.
         25    1    1    2    0    0 -0.11765435859E+03  0.26803726549E+02  0.15385298921E+03  0.23207052838E+03  0.12500000000E+03 0.  0.
         25    1    1    2    0    0  0.56741942067E+01 -0.24575203722E+02 -0.90007896198E+01  0.12783642412E+03  0.12500000000E+03 0.  0.
</event>
<event>
 5    0  0.5655767E-005  0.3923441E+03  0.7546771E-02  0.1046463E+00
         21   -1    0    0  502  501  0.00000000000E+00  0.00000000000E+00  0.58126858473E+02  0.58126858473E+02  0.00000000000E+00 0.  1.
         21   -1    0    0  501  502 -0.00000000000E+00 -0.00000000000E+00 -0.26482399907E+04  0.26482399907E+04  0.00000000000E+00 0.  1.
         25    1    1    2    0    0  0.13237358896E+03  0.14040722342E+03 -0.66579904774E+03  0.70437939168E+03  0.12500000000E+03 0.  0.
         25    1    1    2    0    0 -0.11690765445E+03  0.15504350974E+03 -0.78376912719E+03  0.81708318690E+03  0.12500000000E+03 0.  0.
         25    1    1    2    0    0 -0.15465934518E+02 -0.29545073317E+03 -0.11405449573E+04  0.11849042706E+04  0.12500000000E+03 0.  0.
</event>
<event>
 5    0  0.5655767E-005  0.3216875E+03  0.7546771E-02  0.1074875E+00
         21   -1    0    0  502  501  0.00000000000E+00  0.00000000000E+00  0.40887662324E+03  0.40887662324E+03  0.00000000000E+00 0.  1.
         21   -1    0    0  501  502 -0.00000000000E+00 -0.00000000000E+00 -0.25309068319E+03  0.25309068319E+03  0.00000000000E+00 0.  1.
         25    1    1    2    0    0  0.15881014716E+03 -0.11159593730E+03  0.84386508184E+02  0.24580561187E+03  0.12500000000E+03 0.  0.
         25    1    1    2    0    0 -0.73882048549E+02 -0.68451320580E+02 -0.24314594665E+02  0.16235867670E+03  0.12500000000E+03 0.  0.
         25    1    1    2    0    0 -0.84928098608E+02  0.18004725788E+03  0.95714026525E+02  0.25380301786E+03  0.12500000000E+03 0.  0.
</event>
<event>
 5    0  0.5655767E-005  0.2494922E+03  0.7546771E-02  0.1113626E+00
         21   -1    0    0  502  501  0.00000000000E+00  0.00000000000E+00  0.44326055111E+03  0.44326055111E+03  0.00000000000E+00 0.  1.
         21   -1    0    0  501  502 -0.00000000000E+00 -0.00000000000E+00 -0.14042839903E+03  0.14042839903E+03  0.00000000000E+00 0.  1.
         25    1    1    2    0    0  0.76062352136E+02 -0.57015169901E+02  0.26084392332E+03  0.30446800052E+03  0.12500000000E+03 0.  0.
         25    1    1    2    0    0 -0.49380795423E+02  0.51968875940E+02 -0.15279525171E+01  0.14410607781E+03  0.12500000000E+03 0.  0.
         25    1    1    2    0    0 -0.26681556713E+02  0.50462939607E+01  0.43516181276E+02  0.13511487181E+03  0.12500000000E+03 0.  0.
</event>
<event>
 5    0  0.5655767E-005  0.2429016E+03  0.7546771E-02  0.1117875E+00
         21   -1    0    0  502  501  0.00000000000E+00  0.00000000000E+00  0.13237805982E+03  0.13237805982E+03  0.00000000000E+00 0.  1.
         21   -1    0    0  501  502 -0.00000000000E+00 -0.00000000000E+00 -0.44570217405E+03  0.44570217405E+03  0.00000000000E+00 0.  1.
         25    1    1    2    0    0 -0.18312634258E+02 -0.71308682930E+02 -0.67958513401E+01  0.14522900685E+03  0.12500000000E+03 0.  0.
         25    1    1    2    0    0 -0.45349794219E+01  0.63436991301E+02 -0.54452942406E+02  0.15044913041E+03  0.12500000000E+03 0.  0.
         25    1    1    2    0    0  0.22847613680E+02  0.78716916284E+01 -0.25207532048E+03  0.28240209662E+03  0.12500000000E+03 0.  0.
</event>
<event>
 5    0  0.5655767E-005  0.3247770E+03  0.7546771E-02  0.1073472E+00
         21   -1    0    0  502  501  0.00000000000E+00  0.00000000000E+00  0.15310646399E+04  0.15310646399E+04  0.00000000000E+00 0.  1.
         21   -1    0    0  501  502 -0.00000000000E+00 -0.00000000000E+00 -0.68893316122E+02  0.68893316122E+02  0.00000000000E+00 0.  1.
         25    1    1    2    0    0  0.18395433928E+03 -0.32235991574E+02  0.64866747198E+03  0.68649315168E+03  0.12500000000E+03 0.  0.
         25    1    1    2    0    0 -0.10340011588E+03  0.53848920389E+02  0.71174597162E+03  0.73198266257E+03  0.12500000000E+03 0.  0.
         25    1    1    2    0    0 -0.80554223404E+02 -0.21612928815E+02  0.10175788015E+03  0.18148214175E+03  0.12500000000E+03 0.  0.
</event>
<event>
 5    0  0.5655767E-005  0.2658253E+03  0.7546771E-02  0.1103693E+00
         21   -1    0    0  502  501  0.00000000000E+00  0.00000000000E+00  0.46765108150E+03  0.46765108150E+03  0.00000000000E+00 0. -1.
         21   -1    0    0  501  502 -0.00000000000E+00 -0.00000000000E+00 -0.15110220220E+03  0.15110220220E+03  0.00000000000E+00 0. -1.
         25    1    1    2    0    0  0.10218205596E+02 -0.91539863777E+02  0.20889029299E+03  0.26027699263E+03  0.12500000000E+03 0.  0.
         25    1    1    2    0    0  0.96200887352E+02  0.78991078796E+02  0.42845356370E+02  0.18153491625E+03  0.12500000000E+03 0.  0.
         25    1    1    2    0    0 -0.10641909295E+03  0.12548784981E+02  0.64813229945E+02  0.17694137482E+03  0.12500000000E+03 0.  0.
</event>
<event>
 5    0  0.5655767E-005  0.2427834E+03  0.7546771E-02  0.1117952E+00
         21   -1    0    0  502  501  0.00000000000E+00  0.00000000000E+00  0.65990487150E+03  0.65990487150E+03  0.00000000000E+00 0.  1.
         21   -1    0    0  501  502 -0.00000000000E+00 -0.00000000000E+00 -0.89321648664E+02  0.89321648664E+02  0.00000000000E+00 0.  1.
         25    1    1    2    0    0  0.89029569224E+00 -0.55325640615E+02  0.21311138980E+03  0.25318606518E+03  0.12500000000E+03 0.  0.
         25    1    1    2    0    0 -0.30720726346E+02  0.11799617212E+03  0.28865824089E+03  0.33736543939E+03  0.12500000000E+03 0.  0.
         25    1    1    2    0    0  0.29830430653E+02 -0.62670531501E+02  0.68813592147E+02  0.15867501560E+03  0.12500000000E+03 0.  0.
</event>
<event>
 5    0  0.5655767E-005  0.2067981E+03  0.7546771E-02  0.1144127E+00
         21   -1    0    0  502  501  0.00000000000E+00  0.00000000000E+00  0.22667929797E+03  0.22667929797E+03  0.00000000000E+00 0.  1.
         21   -1    0    0  501  502 -0.00000000000E+00 -0.00000000000E+00 -0.18866061899E+03  0.18866061899E+03  0.00000000000E+00 0.  1.
         25    1    1    2    0    0  0.17737292338E+02 -0.23480274224E+02  0.72282665033E+02  0.14736254097E+03  0.12500000000E+03 0.  0.
         25    1    1    2    0    0 -0.37181145803E+02  0.76964474590E+01  0.14592846248E+02  0.13145198389E+03  0.12500000000E+03 0.  0.
         25    1    1    2    0    0  0.19443853465E+02  0.15783826765E+02 -0.48856832305E+02  0.13652539210E+03  0.12500000000E+03 0.  0.
</event>
<event>
 5    0  0.5655767E-005  0.5803517E+03  0.7546771E-02  0.9947030E-01
         21   -1    0    0  502  501  0.00000000000E+00  0.00000000000E+00  0.23808562148E+03  0.23808562148E+03  0.00000000000E+00 0. -1.
         21   -1    0    0  501  502 -0.00000000000E+00 -0.00000000000E+00 -0.14146509364E+04  0.14146509364E+04  0.00000000000E+00 0. -1.
         25    1    1    2    0    0  0.41512379872E+03 -0.50726550039E+02 -0.36072196593E+03  0.56625637996E+03  0.12500000000E+03 0.  0.
         25    1    1    2    0    0 -0.18759800115E+03 -0.35843927797E+02 -0.77730147626E+03  0.81012368327E+03  0.12500000000E+03 0.  0.
         25    1    1    2    0    0 -0.22752579757E+03  0.86570477837E+02 -0.38541872743E+02  0.27635649467E+03  0.12500000000E+03 0.  0.
</event>
<event>
 5    0  0.6267890E-005  0.2842204E+03  0.7546771E-02  0.1093406E+00
         21   -1    0    0  502  501  0.00000000000E+00  0.00000000000E+00  0.13513517431E+03  0.13513517431E+03  0.00000000000E+00 0. -1.
         21   -1    0    0  501  502 -0.00000000000E+00 -0.00000000000E+00 -0.59778098273E+03  0.59778098273E+03  0.00000000000E+00 0. -1.
         25    1    1    2    0    0  0.47321343438E+02  0.10772324847E+03 -0.18999290559E+03  0.25605841517E+03  0.12500000000E+03 0.  0.
         25    1    1    2    0    0  0.93510538969E+02 -0.30955054789E+02 -0.32955658990E+02  0.16252234239E+03  0.12500000000E+03 0.  0.
         25    1    1    2    0    0 -0.14083188241E+03 -0.76768193680E+02 -0.23969724384E+03  0.31433539948E+03  0.12500000000E+03 0.  0.
</event>
<event>
 5    0  0.5655767E-005  0.3474469E+03  0.7546771E-02  0.1063668E+00
         21   -1    0    0  502  501  0.00000000000E+00  0.00000000000E+00  0.10224549036E+03  0.10224549036E+03  0.00000000000E+00 0. -1.
         21   -1    0    0  501  502 -0.00000000000E+00 -0.00000000000E+00 -0.11806816378E+04  0.11806816378E+04  0.00000000000E+00 0. -1.
         25    1    1    2    0    0  0.19592311091E+02  0.11351329968E+03 -0.34568237449E+03  0.38521478670E+03  0.12500000000E+03 0.  0.
         25    1    1    2    0    0 -0.17191700602E+03  0.60176728003E+02 -0.17722656584E+03  0.28321537951E+03  0.12500000000E+03 0.  0.
         25    1    1    2    0    0  0.15232469493E+03 -0.17369002768E+03 -0.55552720712E+03  0.61449696196E+03  0.12500000000E+03 0.  0.
</event>
<event>
 5    0  0.5655767E-005  0.3851501E+03  0.7546771E-02  0.1049047E+00
         21   -1    0    0  502  501  0.00000000000E+00  0.00000000000E+00  0.19809596876E+03  0.19809596876E+03  0.00000000000E+00 0.  1.
         21   -1    0    0  501  502 -0.00000000000E+00 -0.00000000000E+00 -0.74883185065E+03  0.74883185065E+03  0.00000000000E+00 0.  1.
         25    1    1    2    0    0  0.52598239078E+02 -0.24360388526E+03 -0.11335681710E+03  0.30097208450E+03  0.12500000000E+03 0.  0.
         25    1    1    2    0    0 -0.12073063514E+03  0.16573214390E+03 -0.79419091709E+02  0.25293363144E+03  0.12500000000E+03 0.  0.
         25    1    1    2    0    0  0.68132396064E+02  0.77871741359E+02 -0.35795997308E+03  0.39302210348E+03  0.12500000000E+03 0.  0.
</event>
<event>
 5    0  0.5655767E-005  0.2403022E+03  0.7546771E-02  0.1119592E+00
         21   -1    0    0  502  501  0.00000000000E+00  0.00000000000E+00  0.26260858429E+03  0.26260858429E+03  0.00000000000E+00 0.  1.
         21   -1    0    0  501  502 -0.00000000000E+00 -0.00000000000E+00 -0.21989052735E+03  0.21989052735E+03  0.00000000000E+00 0.  1.
         25    1    1    2    0    0  0.12616617966E+02 -0.75855854866E+01 -0.11284027559E+03  0.16904037373E+03  0.12500000000E+03 0.  0.
         25    1    1    2    0    0  0.28686179987E+01  0.24038232577E+02  0.22124886905E+02  0.12923070926E+03  0.12500000000E+03 0.  0.
         25    1    1    2    0    0 -0.15485235964E+02 -0.16452647091E+02  0.13343344563E+03  0.18422802865E+03  0.12500000000E+03 0.  0.
</event>
<event>
 5    0  0.5655767E-005  0.5714718E+03  0.7546771E-02  0.9966427E-01
         21   -1    0    0  502  501  0.00000000000E+00  0.00000000000E+00  0.57453081203E+03  0.57453081203E+03  0.00000000000E+00 0.  1.
         21   -1    0    0  501  502 -0.00000000000E+00 -0.00000000000E+00 -0.56842905293E+03  0.56842905293E+03  0.00000000000E+00 0.  1.
         25    1    1    2    0    0  0.19277307621E+03  0.46131533455E+03  0.73441191152E+02  0.52056882865E+03  0.12500000000E+03 0.  0.
         25    1    1    2    0    0 -0.40347277835E+02 -0.12516337811E+03 -0.13593816723E+03  0.22671118049E+03  0.12500000000E+03 0.  0.
         25    1    1    2    0    0 -0.15242579838E+03 -0.33615195644E+03  0.68598735177E+02  0.39567985582E+03  0.12500000000E+03 0.  0.
</event>
<event>
 5    0  0.5655767E-005  0.3047049E+03  0.7546771E-02  0.1082912E+00
         21   -1    0    0  502  501  0.00000000000E+00  0.00000000000E+00  0.11088158133E+04  0.11088158133E+04  0.00000000000E+00 0.  1.
         21   -1    0    0  501  502 -0.00000000000E+00 -0.00000000000E+00 -0.83733554977E+02  0.83733554977E+02  0.00000000000E+00 0.  1.
         25    1    1    2    0    0 -0.36789870138E+02 -0.11166892164E+03  0.79659630681E+03  0.81487061466E+03  0.12500000000E+03 0.  0.
         25    1    1    2    0    0  0.11255255242E+02  0.76724643795E+02  0.49683308355E+02  0.15526359156E+03  0.12500000000E+03 0.  0.
         25    1    1    2    0    0  0.25534614896E+02  0.34944277842E+02  0.17880264314E+03  0.22241516204E+03  0.12500000000E+03 0.  0.
</event>
<event>
 5    0  0.5655767E-005  0.2431136E+03  0.7546771E-02  0.1117736E+00
         21   -1    0    0  502  501  0.00000000000E+00  0.00000000000E+00  0.22266452265E+03  0.22266452265E+03  0.00000000000E+00 0.  1.
         21   -1    0    0  501  502 -0.00000000000E+00 -0.00000000000E+00 -0.26544074887E+03  0.26544074887E+03  0.00000000000E+00 0.  1.
         25    1    1    2    0    0 -0.23942898619E+02 -0.39927982312E+02 -0.53933888055E+02  0.14387970825E+03  0.12500000000E+03 0.  0.
         25    1    1    2    0    0  0.11949199401E+03  0.13747577737E+02 -0.37482146544E+02  0.17747462871E+03  0.12500000000E+03 0.  0.
         25    1    1    2    0    0 -0.95549095396E+02  0.26180404575E+02  0.48639808381E+02  0.16675093455E+03  0.12500000000E+03 0.  0.
</event>
<event>
 5    0  0.5655767E-005  0.4435445E+03  0.7546771E-02  0.1029665E+00
         21   -1    0    0  502  501  0.00000000000E+00  0.00000000000E+00  0.10401405169E+04  0.10401405169E+04  0.00000000000E+00 0. -1.
         21   -1    0    0  501  502 -0.00000000000E+00 -0.00000000000E+00 -0.18913955561E+03  0.18913955561E+03  0.00000000000E+00 0. -1.
         25    1    1    2    0    0 -0.26654715951E+03  0.24030865607E+03  0.43647835436E+03  0.57873482032E+03  0.12500000000E+03 0.  0.
         25    1    1    2    0    0  0.80873871311E+02 -0.10836764419E+03  0.32896590938E+03  0.37699827441E+03  0.12500000000E+03 0.  0.
         25    1    1    2    0    0  0.18567328820E+03 -0.13194101188E+03  0.85556697549E+02  0.27354697780E+03  0.12500000000E+03 0.  0.
</event>
<event>
 5    0  0.5655767E-005  0.2131456E+03  0.7546771E-02  0.1139099E+00
         21   -1    0    0  502  501  0.00000000000E+00  0.00000000000E+00  0.80353193867E+03  0.80353193867E+03  0.00000000000E+00 0.  1.
         21   -1    0    0  501  502 -0.00000000000E+00 -0.00000000000E+00 -0.56539179644E+02  0.56539179644E+02  0.00000000000E+00 0.  1.
         25    1    1    2    0    0 -0.34073409796E+02 -0.48862244399E+02  0.26938138700E+03  0.30288586603E+03  0.12500000000E+03 0.  0.
         25    1    1    2    0    0  0.18930682445E+02  0.55106936594E+02  0.13874548873E+03  0.19562836154E+03  0.12500000000E+03 0.  0.
         25    1    1    2    0    0  0.15142727351E+02 -0.62446921960E+01  0.33886588331E+03  0.36155689074E+03  0.12500000000E+03 0.  0.
</event>
<event>
 5    0  0.5655767E-005  0.3205008E+03  0.7546771E-02  0.1075419E+00
         21   -1    0    0  502  501  0.00000000000E+00  0.00000000000E+00  0.73601459420E+02  0.73601459420E+02  0.00000000000E+00 0.  1.
         21   -1    0    0  501  502 -0.00000000000E+00 -0.00000000000E+00 -0.13956349555E+04  0.13956349555E+04  0.00000000000E+00 0.  1.
         25    1    1    2    0    0 -0.40661348639E+02 -0.76431006987E+02 -0.15587188165E+03  0.21775235382E+03  0.12500000000E+03 0.  0.
         25    1    1    2    0    0 -0.61621984622E+02  0.10945693866E+03 -0.18353314930E+03  0.25512253389E+03  0.12500000000E+03 0.  0.
         25    1    1    2    0    0  0.10228333326E+03 -0.33025931668E+02 -0.98262846510E+03  0.99636152718E+03  0.12500000000E+03 0.  0.
</event>
<event>
 5    0  0.5655767E-005  0.4016477E+03  0.7546771E-02  0.1043211E+00
         21   -1    0    0  502  501  0.00000000000E+00  0.00000000000E+00  0.10923821619E+04  0.10923821619E+04  0.00000000000E+00 0. -1.
         21   -1    0    0  501  502 -0.00000000000E+00 -0.00000000000E+00 -0.14767808873E+03  0.14767808873E+03  0.00000000000E+00 0. -1.
         25    1    1    2    0    0  0.18528396696E+02 -0.19800121222E+03  0.22379076130E+03  0.32443040297E+03  0.12500000000E+03 0.  0.
         25    1    1    2    0    0  0.55807605713E+02  0.17637574285E+03  0.50003154888E+02  0.22879730553E+03  0.12500000000E+03 0.  0.
         25    1    1    2    0    0 -0.74336002408E+02  0.21625469371E+02  0.67091015695E+03  0.68683254209E+03  0.12500000000E+03 0.  0.
</event>
<event>
 5    0  0.5655767E-005  0.2493136E+03  0.7546771E-02  0.1113739E+00
         21   -1    0    0  502  501  0.00000000000E+00  0.00000000000E+00  0.69962256685E+03  0.69962256685E+03  0.00000000000E+00 0.  1.
         21   -1    0    0  501  502 -0.00000000000E+00 -0.00000000000E+00 -0.88843982724E+02  0.88843982724E+02  0.00000000000E+00 0.  1.
         25    1    1    2    0    0 -0.12589095174E+03  0.50555008332E+02  0.20449580271E+03  0.27540492719E+03  0.12500000000E+03 0.  0.
         25    1    1    2    0    0  0.33290126904E+02  0.13644293485E+02  0.25726058772E+03  0.28827488494E+03  0.12500000000E+03 0.  0.
         25    1    1    2    0    0  0.92600824834E+02 -0.64199301817E+02  0.14902219369E+03  0.22478673744E+03  0.12500000000E+03 0.  0.
</event>
<event>
 5    0  0.5655767E-005  0.4074810E+03  0.7546771E-02  0.1041220E+00
         21   -1    0    0  502  501  0.00000000000E+00  0.00000000000E+00  0.41728980447E+03  0.41728980447E+03  0.00000000000E+00 0.  1.
         21   -1    0    0  501  502 -0.00000000000E+00 -0.00000000000E+00 -0.39790270103E+03  0.39790270103E+03  0.00000000000E+00 0.  1.
         25    1    1    2    0    0  0.12152425004E+03  0.34338294786E+02  0.66038657583E+02  0.18956098262E+03  0.12500000000E+03 0.  0.
         25    1    1    2    0    0 -0.81045415289E+02 -0.20878804830E+02  0.25515025417E+03  0.29619408507E+03  0.12500000000E+03 0.  0.
         25    1    1    2    0    0 -0.40478834748E+02 -0.13459489956E+02 -0.30180180831E+03  0.32943743781E+03  0.12500000000E+03 0.  0.
</event>
<event>
 5    0  0.5655767E-005  0.2046973E+03  0.7546771E-02  0.1145835E+00
         21   -1    0    0  502  501  0.00000000000E+00  0.00000000000E+00  0.31758968187E+02  0.31758968187E+02  0.00000000000E+00 0.  1.
         21   -1    0    0  501  502 -0.00000000000E+00 -0.00000000000E+00 -0.13193432480E+04  0.13193432480E+04  0.00000000000E+00 0.  1.
         25    1    1    2    0    0 -0.44058532167E+02  0.41500093175E+02 -0.37706438056E+03  0.40182827063E+03  0.12500000000E+03 0.  0.
         25    1    1    2    0    0 -0.89747693335E+01 -0.83337865124E+01 -0.35976881191E+03  0.38106245749E+03  0.12500000000E+03 0.  0.
         25    1    1    2    0    0  0.53033301501E+02 -0.33166306663E+02 -0.55075108734E+03  0.56821148807E+03  0.12500000000E+03 0.  0.
</event>
<event>
 5    0  0.5655767E-005  0.2506374E+03  0.7546771E-02  0.1112903E+00
         21   -1    0    0  502  501  0.00000000000E+00  0.00000000000E+00  0.22627886693E+03  0.22627886693E+03  0.00000000000E+00 0.  1.
         21   -1    0    0  501  502 -0.00000000000E+00 -0.00000000000E+00 -0.27761812490E+03  0.27761812490E+03  0.00000000000E+00 0.  1.
         25    1    1    2    0    0 -0.14993601553E+02  0.84092092584E+01  0.72850000112E+02  0.14569710156E+03  0.12500000000E+03 0.  0.
         25    1    1    2    0    0  0.49162820959E+02 -0.15511667425E+02  0.47202883543E+02  0.14321559624E+03  0.12500000000E+03 0.  0.
         25    1    1    2    0    0 -0.34169219406E+02  0.71024581664E+01 -0.17139214163E+03  0.21498429403E+03  0.12500000000E+03 0.  0.
</event>
<event>
 5    0  0.5655767E-005  0.4802368E+03  0.7546771E-02  0.1019070E+00
         21   -1    0    0  502  501  0.00000000000E+00  0.00000000000E+00  0.16812943608E+03  0.16812943608E+03  0.00000000000E+00 0. -1.
         21   -1    0    0  501  502 -0.00000000000E+00 -0.00000000000E+00 -0.13717250532E+04  0.13717250532E+04  0.00000000000E+00 0. -1.
         25    1    1    2    0    0 -0.10916006415E+03  0.20939985201E+02 -0.34499862299E+03  0.38341029257E+03  0.12500000000E+03 0.  0.
         25    1    1    2    0    0  0.35160278639E+03 -0.21923474100E+03 -0.54492391239E+03  0.69588466096E+03  0.12500000000E+03 0.  0.
         25    1    1    2    0    0 -0.24244272225E+03  0.19829475580E+03 -0.31367308171E+03  0.46055953571E+03  0.12500000000E+03 0.  0.
</event>
<event>
 5    0  0.5655767E-005  0.3884697E+03  0.7546771E-02  0.1047847E+00
         21   -1    0    0  502  501  0.00000000000E+00  0.00000000000E+00  0.29058761973E+03  0.29058761973E+03  0.00000000000E+00 0.  1.
         21   -1    0    0  501  502 -0.00000000000E+00 -0.00000000000E+00 -0.51932255211E+03  0.51932255211E+03  0.00000000000E+00 0.  1.
         25    1    1    2    0    0 -0.20102848916E+03 -0.87432294839E+01 -0.23033729954E+03  0.33040758023E+03  0.12500000000E+03 0.  0.
         25    1    1    2    0    0 -0.25086772498E+02 -0.13274253779E+03 -0.13500725894E+02  0.18454592137E+03  0.12500000000E+03 0.  0.
         25    1    1    2    0    0  0.22611526166E+03  0.14148576728E+03  0.15103093049E+02  0.29495667024E+03  0.12500000000E+03 0.  0.
</event>
<event>
 5    0  0.5655767E-005  0.2273628E+03  0.7546771E-02  0.1128510E+00
         21   -1    0    0  502  501  0.00000000000E+00  0.00000000000E+00  0.87099707615E+02  0.87099707615E+02  0.00000000000E+00 0. -1.
         21   -1    0    0  501  502 -0.00000000000E+00 -0.00000000000E+00 -0.59350177388E+03  0.59350177388E+03  0.00000000000E+00 0. -1.
         25    1    1    2    0    0  0.80973099690E+02 -0.26513867815E+01 -0.16997099410E+03  0.22600622018E+03  0.12500000000E+03 0.  0.
         25    1    1    2    0    0 -0.11248265309E+03 -0.27882078827E+02 -0.21936712815E+03  0.27780693742E+03  0.12500000000E+03 0.  0.
         25    1    1    2    0    0  0.31509553397E+02  0.30533465609E+02 -0.11706394401E+03  0.17678832389E+03  0.12500000000E+03 0.  0.
</event>
<event>
 5    0  0.5655767E-005  0.3167175E+03  0.7546771E-02  0.1077170E+00
         21   -1    0    0  502  501  0.00000000000E+00  0.00000000000E+00  0.18220944213E+04  0.18220944213E+04  0.00000000000E+00 0. -1.
         21   -1    0    0  501  502 -0.00000000000E+00 -0.00000000000E+00 -0.55052030950E+02  0.55052030950E+02  0.00000000000E+00 0. -1.
         25    1    1    2    0    0 -0.21126054885E+03 -0.62238241705E+02  0.86947852935E+03  0.90560616784E+03  0.12500000000E+03 0.  0.
         25    1    1    2    0    0  0.27164201509E+02  0.13300474464E+02  0.46730277840E+03  0.48467688532E+03  0.12500000000E+03 0.  0.
         25    1    1    2    0    0  0.18409634734E+03  0.48937767241E+02  0.43026108258E+03  0.48686339907E+03  0.12500000000E+03 0.  0.
</event>
<event>
 5    0  0.5655767E-005  0.2416195E+03  0.7546771E-02  0.1118719E+00
         21   -1    0    0  502  501  0.00000000000E+00  0.00000000000E+00  0.51101008733E+03  0.51101008733E+03  0.00000000000E+00 0. -1.
         21   -1    0    0  501  502 -0.00000000000E+00 -0.00000000000E+00 -0.11424432374E+03  0.11424432374E+03  0.00000000000E+00 0. -1.
         25    1    1    2    0    0  0.66817955890E+02  0.86883518409E+02  0.20350038763E+03  0.26277517533E+03  0.12500000000E+03 0.  0.
         25    1    1    2    0    0 -0.75690982653E+00 -0.43546955568E+02  0.16565899285E+03  0.21204907961E+03  0.12500000000E+03 0.  0.
         25    1    1    2    0    0 -0.66061046064E+02 -0.43336562842E+02  0.27606383109E+02  0.15043015613E+03  0.12500000000E+03 0.  0.
</event>
<event>
 5    0  0.5655767E-005  0.3098621E+03  0.7546771E-02  0.1080412E+00
         21   -1    0    0  502  501  0.00000000000E+00  0.00000000000E+00  0.41517071759E+03  0.41517071759E+03  0.00000000000E+00 0.  1.
         21   -1    0    0  501  502 -0.00000000000E+00 -0.00000000000E+00 -0.23126514614E+03  0.23126514614E+03  0.00000000000E+00 0.  1.
         25    1    1    2    0    0  0.21840570143E+02 -0.34928307079E+02 -0.13093912851E+03  0.18565304337E+03  0.12500000000E+03 0.  0.
         25    1    1    2    0    0 -0.10973948658E+03  0.67530602925E+02  0.15378714927E+03  0.23638659972E+03  0.12500000000E+03 0.  0.
         25    1    1    2    0    0  0.87898916436E+02 -0.32602295845E+02  0.16105755069E+03  0.22439622064E+03  0.12500000000E+03 0.  0.
</event>
<event>
 5    0  0.5655767E-005  0.3091620E+03  0.7546771E-02  0.1080748E+00
         21   -1    0    0  502  501  0.00000000000E+00  0.00000000000E+00  0.14123885175E+03  0.14123885175E+03  0.00000000000E+00 0.  1.
         21   -1    0    0  501  502 -0.00000000000E+00 -0.00000000000E+00 -0.67673395089E+03  0.67673395089E+03  0.00000000000E+00 0.  1.
         25    1    1    2    0    0  0.41806043774E+02 -0.14713546907E+03 -0.48589961389E+02  0.20342707760E+03  0.12500000000E+03 0.  0.
         25    1    1    2    0    0 -0.11778708842E+03  0.63406583492E+01 -0.22840416943E+03  0.28584517970E+03  0.12500000000E+03 0.  0.
         25    1    1    2    0    0  0.75981044650E+02  0.14079481072E+03 -0.25850096833E+03  0.32870054533E+03  0.12500000000E+03 0.  0.
</event>
<event>
 5    0  0.6222327E-005  0.2940372E+03  0.7546771E-02  0.1088260E+00
         21   -1    0    0  502  501  0.00000000000E+00  0.00000000000E+00  0.80941143985E+03  0.80941143985E+03  0.00000000000E+00 0.  1.
         21   -1    0    0  501  502 -0.00000000000E+00 -0.00000000000E+00 -0.10681574648E+03  0.10681574648E+03  0.00000000000E+00 0.  1.
         25    1    1    2    0    0 -0.66805479577E+02  0.59475541656E+02  0.70592794157E+02  0.16914093160E+03  0.12500000000E+03 0.  0.
         25    1    1    2    0    0 -0.33836720348E+02 -0.44782273362E+02  0.54894888375E+03  0.56579170427E+03  0.12500000000E+03 0.  0.
         25    1    1    2    0    0  0.10064219992E+03 -0.14693268294E+02  0.83054015457E+02  0.18129455045E+03  0.12500000000E+03 0.  0.
</event>
<event>
 5    0  0.5655767E-005  0.3735437E+03  0.7546771E-02  0.1053346E+00
         21   -1    0    0  502  501  0.00000000000E+00  0.00000000000E+00  0.44061307973E+03  0.44061307973E+03  0.00000000000E+00 0.  1.
         21   -1    0    0  501  502 -0.00000000000E+00 -0.00000000000E+00 -0.31668357716E+03  0.31668357716E+03  0.00000000000E+00 0.  1.
         25    1    1    2    0    0  0.13563822884E+03  0.21554732946E+03  0.16937644823E+03  0.33041150340E+03  0.12500000000E+03 0.  0.
         25    1    1    2    0    0 -0.55287529234E+02 -0.35091082907E+02 -0.11603676286E+03  0.18269544418E+03  0.12500000000E+03 0.  0.
         25    1    1    2    0    0 -0.80350699609E+02 -0.18045624655E+03  0.70589817191E+02  0.24418970932E+03  0.12500000000E+03 0.  0.
</event>
<event>
 5    0  0.5655767E-005  0.2544943E+03  0.7546771E-02  0.1110497E+00
         21   -1    0    0  502  501  0.00000000000E+00  0.00000000000E+00  0.35036434928E+02  0.35036434928E+02  0.00000000000E+00 0. -1.
         21   -1    0    0  501  502 -0.00000000000E+00 -0.00000000000E+00 -0.18485707087E+04  0.18485707087E+04  0.00000000000E+00 0. -1.
         25    1    1    2    0    0 -0.56331950525E+02  0.61187086768E+02 -0.25078160882E+03  0.29229020435E+03  0.12500000000E+03 0.  0.
         25    1    1    2    0    0  0.32599749216E+02  0.41905888293E+02 -0.75844818340E+03  0.77051119007E+03  0.12500000000E+03 0.  0.
         25    1    1    2    0    0  0.23732201310E+02 -0.10309297506E+03 -0.80430448158E+03  0.82080574923E+03  0.12500000000E+03 0.  0.
</event>
<event>
 5    0  0.5655767E-005  0.3087194E+03  0.7546771E-02  0.1080961E+00
         21   -1    0    0  502  501  0.00000000000E+00  0.00000000000E+00  0.11072288443E+04  0.11072288443E+04  0.00000000000E+00 0.  1.
         21   -1    0    0  501  502 -0.00000000000E+00 -0.00000000000E+00 -0.86077680320E+02  0.86077680320E+02  0.00000000000E+00 0.  1.
         25    1    1    2    0    0  0.11435303881E+03 -0.51722239381E+02  0.41221225519E+03  0.44865995014E+03  0.12500000000E+03 0.  0.
         25    1    1    2    0    0 -0.14969666564E+03 -0.66434620325E+02  0.15468575519E+03  0.25763410749E+03  0.12500000000E+03 0.  0.
         25    1    1    2    0    0  0.35343626828E+02  0.11815685971E+03  0.45425315363E+03  0.48701246702E+03  0.12500000000E+03 0.  0.
</event>
<event>
 5    0  0.5655767E-005  0.3777000E+03  0.7546771E-02  0.1051787E+00
         21   -1    0    0  502  501  0.00000000000E+00  0.00000000000E+00  0.30422921503E+03  0.30422921503E+03  0.00000000000E+00 0.  1.
         21   -1    0    0  501  502 -0.00000000000E+00 -0.00000000000E+00 -0.46891373883E+03  0.46891373883E+03  0.00000000000E+00 0.  1.
         25    1    1    2    0    0 -0.32803159036E+02  0.21739551001E+03  0.79517280917E+02  0.26511290610E+03  0.12500000000E+03 0.  0.
         25    1    1    2    0    0 -0.98401311734E+01 -0.11785700616E+03  0.42315013692E+02  0.17720796389E+03  0.12500000000E+03 0.  0.
         25    1    1    2    0    0  0.42643290210E+02 -0.99538503854E+02 -0.28651681840E+03  0.33082208387E+03  0.12500000000E+03 0.  0.
</event>
<event>
 5    0  0.5655767E-005  0.2960269E+03  0.7546771E-02  0.1087244E+00
         21   -1    0    0  502  501  0.00000000000E+00  0.00000000000E+00  0.14715968531E+04  0.14715968531E+04  0.00000000000E+00 0. -1.
         21   -1    0    0  501  502 -0.00000000000E+00 -0.00000000000E+00 -0.59548873098E+02  0.59548873098E+02  0.00000000000E+00 0. -1.
         25    1    1    2    0    0 -0.53599613079E+02 -0.21029170599E+01  0.20265660194E+03  0.24407383943E+03  0.12500000000E+03 0.  0.
         25    1    1    2    0    0 -0.12625985615E+03  0.38049156946E+01  0.27554340807E+03  0.32787985359E+03  0.12500000000E+03 0.  0.
         25    1    1    2    0    0  0.17985946922E+03 -0.17019986347E+01  0.93384796997E+03  0.95919203317E+03  0.12500000000E+03 0.  0.
</event>
<event>
 5    0  0.5655767E-005  0.2736662E+03  0.7546771E-02  0.1099200E+00
         21   -1    0    0  502  501  0.00000000000E+00  0.00000000000E+00  0.11512469141E+04  0.11512469141E+04  0.00000000000E+00 0. -1.
         21   -1    0    0  501  502 -0.00000000000E+00 -0.00000000000E+00 -0.65053958813E+02  0.65053958813E+02  0.00000000000E+00 0. -1.
         25    1    1    2    0    0 -0.40773211865E+01 -0.33926510507E+02  0.16169768111E+03  0.20721672891E+03  0.12500000000E+03 0.  0.
         25    1    1    2    0    0 -0.10928281919E+03  0.10018545632E+03  0.66383332113E+03  0.69157757228E+03  0.12500000000E+03 0.  0.
         25    1    1    2    0    0  0.11336014038E+03 -0.66258945812E+02  0.26066195304E+03  0.31750657173E+03  0.12500000000E+03 0.  0.
</event>
<event>
 5    0  0.5655767E-005  0.2216848E+03  0.7546771E-02  0.1132633E+00
         21   -1    0    0  502  501  0.00000000000E+00  0.00000000000E+00  0.11101320810E+04  0.11101320810E+04  0.00000000000E+00 0.  1.
         21   -1    0    0  501  502 -0.00000000000E+00 -0.00000000000E+00 -0.44268760758E+02  0.44268760758E+02  0.00000000000E+00 0.  1.
         25    1    1    2    0    0  0.48264915666E+02 -0.23993553112E+01  0.58299456786E+03  0.59819973683E+03  0.12500000000E+03 0.  0.
         25    1    1    2    0    0 -0.14925529794E+02  0.35235183805E+02  0.31971040560E+03  0.34540415902E+03  0.12500000000E+03 0.  0.
         25    1    1    2    0    0 -0.33339385872E+02 -0.32835828494E+02  0.16315834682E+03  0.21079694594E+03  0.12500000000E+03 0.  0.
</event>
<event>
 5    0  0.5655767E-005  0.5086427E+03  0.7546771E-02  0.1011547E+00
         21   -1    0    0  502  501  0.00000000000E+00  0.00000000000E+00  0.31690579683E+03  0.31690579683E+03  0.00000000000E+00 0.  1.
         21   -1    0    0  501  502 -0.00000000000E+00 -0.00000000000E+00 -0.81638586627E+03  0.81638586627E+03  0.00000000000E+00 0.  1.
         25    1    1    2    0    0 -0.29598830887E+03 -0.34166822585E+02 -0.21184742067E+03  0.38636871043E+03  0.12500000000E+03 0.  0.
         25    1    1    2    0    0 -0.25897610903E+02 -0.20373125035E+03 -0.35789206361E+01  0.24044732748E+03  0.12500000000E+03 0.  0.
         25    1    1    2    0    0  0.32188591977E+03  0.23789807293E+03 -0.28405372814E+03  0.50647562520E+03  0.12500000000E+03 0.  0.
</event>
<event>
 5    0  0.5655767E-005  0.2769910E+03  0.7546771E-02  0.1097344E+00
         21   -1    0    0  502  501  0.00000000000E+00  0.00000000000E+00  0.57609521935E+02  0.57609521935E+02  0.00000000000E+00 0.  1.
         21   -1    0    0  501  502 -0.00000000000E+00 -0.00000000000E+00 -0.13317942012E+04  0.13317942012E+04  0.00000000000E+00 0.  1.
         25    1    1    2    0    0 -0.24492389242E+02 -0.80855844472E+02 -0.16426452093E+03  0.22303671795E+03  0.12500000000E+03 0.  0.
         25    1    1    2    0    0 -0.52613853892E+02 -0.65624290220E+02 -0.49298397829E+03  0.51549293684E+03  0.12500000000E+03 0.  0.
         25    1    1    2    0    0  0.77106243134E+02  0.14648013469E+03 -0.61693618002E+03  0.65087406831E+03  0.12500000000E+03 0.  0.
</event>
<event>
 5    0  0.5655767E-005  0.4981668E+03  0.7546771E-02  0.1014259E+00
         21   -1    0    0  502  501  0.00000000000E+00  0.00000000000E+00  0.90482048351E+03  0.90482048351E+03  0.00000000000E+00 0. -1.
         21   -1    0    0  501  502 -0.00000000000E+00 -0.00000000000E+00 -0.27427563165E+03  0.27427563165E+03  0.00000000000E+00 0. -1.
         25    1    1    2    0    0  0.25099966998E+03  0.26749371111E+02  0.14405931355E+03  0.31637706777E+03  0.12500000000E+03 0.  0.
         25    1    1    2    0    0 -0.60372444019E+01  0.27933544969E+02 -0.13176357327E+03  0.18385692942E+03  0.12500000000E+03 0.  0.
         25    1    1    2    0    0 -0.24496242558E+03 -0.54682916081E+02  0.61824911158E+03  0.67886211798E+03  0.12500000000E+03 0.  0.
</event>
<event>
 5    0  0.5655767E-005  0.3370278E+03  0.7546771E-02  0.1068069E+00
         21   -1    0    0  502  501  0.00000000000E+00  0.00000000000E+00  0.44479991596E+03  0.44479991596E+03  0.00000000000E+00 0.  1.
         21   -1    0    0  501  502 -0.00000000000E+00 -0.00000000000E+00 -0.25536815949E+03  0.25536815949E+03  0.00000000000E+00 0.  1.
         25    1    1    2    0    0 -0.10720657410E+03  0.11795814870E+03  0.18512634508E+03  0.27441599447E+03  0.12500000000E+03 0.  0.
         25    1    1    2    0    0  0.17104394752E+03 -0.16311802455E+03 -0.43207637011E+02  0.27084206064E+03  0.12500000000E+03 0.  0.
         25    1    1    2    0    0 -0.63837373425E+02  0.45159875851E+02  0.47513048398E+02  0.15491002034E+03  0.12500000000E+03 0.  0.
</event>
<event>
 5    0  0.5655767E-005  0.4499816E+03  0.7546771E-02  0.1027728E+00
         21   -1    0    0  502  501  0.00000000000E+00  0.00000000000E+00  0.13094782814E+04  0.13094782814E+04  0.00000000000E+00 0. -1.
         21   -1    0    0  501  502 -0.00000000000E+00 -0.00000000000E+00 -0.15462912562E+03  0.15462912562E+03  0.00000000000E+00 0. -1.
         25    1    1    2    0    0  0.80068101146E+02 -0.73278330904E+02  0.34168702011E+03  0.37967833006E+03  0.12500000000E+03 0.  0.
         25    1    1    2    0    0  0.24991471583E+03 -0.20038991153E+02  0.59891715790E+03  0.66120018783E+03  0.12500000000E+03 0.  0.
         25    1    1    2    0    0 -0.32998281697E+03  0.93317322057E+02  0.21424497774E+03  0.42322888911E+03  0.12500000000E+03 0.  0.
</event>
<event>
 5    0  0.5655767E-005  0.4176016E+03  0.7546771E-02  0.1037850E+00
         21   -1    0    0  502  501  0.00000000000E+00  0.00000000000E+00  0.32480554745E+03  0.32480554745E+03  0.00000000000E+00 0.  1.
         21   -1    0    0  501  502 -0.00000000000E+00 -0.00000000000E+00 -0.53690920912E+03  0.53690920912E+03  0.00000000000E+00 0.  1.
         25    1    1    2    0    0 -0.10580323204E+03  0.23621374179E+03  0.54882980868E+02  0.29262330275E+03  0.12500000000E+03 0.  0.
         25    1    1    2    0    0  0.15593752724E+03 -0.16017762039E+03  0.50409509741E+01  0.25617141461E+03  0.12500000000E+03 0.  0.
         25    1    1    2    0    0 -0.50134295202E+02 -0.76036121400E+02 -0.27202759351E+03  0.31292003922E+03  0.12500000000E+03 0.  0.
</event>
<event>
 5    0  0.5655767E-005  0.2932980E+03  0.7546771E-02  0.1088640E+00
         21   -1    0    0  502  501  0.00000000000E+00  0.00000000000E+00  0.15050763733E+03  0.15050763733E+03  0.00000000000E+00 0. -1.
         21   -1    0    0  501  502 -0.00000000000E+00 -0.00000000000E+00 -0.57155704789E+03  0.57155704789E+03  0.00000000000E+00 0. -1.
         25    1    1    2    0    0  0.18058545887E+03  0.14011066714E+02 -0.15318100263E+03  0.26813585645E+03  0.12500000000E+03 0.  0.
         25    1    1    2    0    0 -0.56829599778E+02  0.66074479421E+02 -0.44912227872E+02  0.15886330116E+03  0.12500000000E+03 0.  0.
         25    1    1    2    0    0 -0.12375585909E+03 -0.80085546135E+02 -0.22295618006E+03  0.29506552761E+03  0.12500000000E+03 0.  0.
</event>
<event>
 5    0  0.5655767E-005  0.2969150E+03  0.7546771E-02  0.1086793E+00
         21   -1    0    0  502  501  0.00000000000E+00  0.00000000000E+00  0.66560389390E+02  0.66560389390E+02  0.00000000000E+00 0. -1.
         21   -1    0    0  501  502 -0.00000000000E+00 -0.00000000000E+00 -0.13244891630E+04  0.13244891630E+04  0.00000000000E+00 0. -1.
         25    1    1    2    0    0 -0.49518809028E+02  0.55847739472E+02 -0.64548026000E+02  0.15925617763E+03  0.12500000000E+03 0.  0.
         25    1    1    2    0    0  0.25483374963E+02 -0.11664248019E+02 -0.89851447508E+03  0.90760052832E+03  0.12500000000E+03 0.  0.
         25    1    1    2    0    0  0.24035434065E+02 -0.44183491453E+02 -0.29486627251E+03  0.32419284642E+03  0.12500000000E+03 0.  0.
</event>
<event>
 5    0  0.5655767E-005  0.2669931E+03  0.7546771E-02  0.1103013E+00
         21   -1    0    0  502  501  0.00000000000E+00  0.00000000000E+00  0.67460168451E+03  0.67460168451E+03  0.00000000000E+00 0.  1.
         21   -1    0    0  501  502 -0.00000000000E+00 -0.00000000000E+00 -0.10567021271E+03  0.10567021271E+03  0.00000000000E+00 0.  1.
         25    1    1    2    0    0 -0.68172637130E+02  0.27030759576E+02  0.32513544433E+03  0.35597222866E+03  0.12500000000E+03 0.  0.
         25    1    1    2    0    0 -0.30323555322E+02 -0.88613045190E+02  0.18875381530E+03  0.24499957668E+03  0.12500000000E+03 0.  0.
         25    1    1    2    0    0  0.98496192452E+02  0.61582285614E+02  0.55042212168E+02  0.17930009188E+03  0.12500000000E+03 0.  0.
</event>
<event>
 5    0  0.5655767E-005  0.2292145E+03  0.7546771E-02  0.1127194E+00
         21   -1    0    0  502  501  0.00000000000E+00  0.00000000000E+00  0.23155963259E+03  0.23155963259E+03  0.00000000000E+00 0.  1.
         21   -1    0    0  501  502 -0.00000000000E+00 -0.00000000000E+00 -0.22689303568E+03  0.22689303568E+03  0.00000000000E+00 0.  1.
         25    1    1    2    0    0 -0.34468889598E+02 -0.82835620663E+01 -0.43047354731E+02  0.13687511279E+03  0.12500000000E+03 0.  0.
         25    1    1    2    0    0  0.57552638491E+02  0.89482550690E+02  0.46990043270E+02  0.17074102390E+03  0.12500000000E+03 0.  0.
         25    1    1    2    0    0 -0.23083748893E+02 -0.81198988624E+02  0.72390837584E+00  0.15083653158E+03  0.12500000000E+03 0.  0.
</event>
<event>
 5    0  0.5655767E-005  0.2975811E+03  0.7546771E-02  0.1086456E+00
         21   -1    0    0  502  501  0.00000000000E+00  0.00000000000E+00  0.30766759758E+03  0.30766759758E+03  0.00000000000E+00 0.  1.
         21   -1    0    0  501  502 -0.00000000000E+00 -0.00000000000E+00 -0.28782533485E+03  0.28782533485E+03  0.00000000000E+00 0.  1.
         25    1    1    2    0    0 -0.97454386945E+02  0.10718483612E+03 -0.67966938252E+02  0.20305282890E+03  0.12500000000E+03 0.  0.
         25    1    1    2    0    0 -0.60907660510E+02 -0.29631129364E+02  0.10330692013E+03  0.17574147684E+03  0.12500000000E+03 0.  0.
         25    1    1    2    0    0  0.15836204745E+03 -0.77553706757E+02 -0.15497719153E+02  0.21669862668E+03  0.12500000000E+03 0.  0.
</event>
<event>
 5    0  0.5655767E-005  0.2661651E+03  0.7546771E-02  0.1103495E+00
         21   -1    0    0  502  501  0.00000000000E+00  0.00000000000E+00  0.49165789277E+02  0.49165789277E+02  0.00000000000E+00 0. -1.
         21   -1    0    0  501  502 -0.00000000000E+00 -0.00000000000E+00 -0.14409181966E+04  0.14409181966E+04  0.00000000000E+00 0. -1.
         25    1    1    2    0    0 -0.12030341124E+03 -0.71217577834E+02 -0.42413596406E+03  0.46374688156E+03  0.12500000000E+03 0.  0.
         25    1    1    2    0    0  0.69864725803E+01 -0.49117361672E+01 -0.61978004730E+03  0.63231735939E+03  0.12500000000E+03 0.  0.
         25    1    1    2    0    0  0.11331693865E+03  0.76129314002E+02 -0.34783639594E+03  0.39401974491E+03  0.12500000000E+03 0.  0.
</event>
<event>
 5    0  0.5655767E-005  0.3048559E+03  0.7546771E-02  0.1082838E+00
         21   -1    0    0  502  501  0.00000000000E+00  0.00000000000E+00  0.33303350258E+03  0.33303350258E+03  0.00000000000E+00 0.  1.
         21   -1    0    0  501  502 -0.00000000000E+00 -0.00000000000E+00 -0.27906245894E+03  0.27906245894E+03  0.00000000000E+00 0.  1.
         25    1    1    2    0    0 -0.33533821351E+02 -0.49018755149E+02  0.18725375835E+02  0.13965312467E+03  0.12500000000E+03 0.  0.
         25    1    1    2    0    0  0.16114410978E+03 -0.54185171042E+02 -0.91842036804E+02  0.23013782089E+03  0.12500000000E+03 0.  0.
         25    1    1    2    0    0 -0.12761028843E+03  0.10320392619E+03  0.12708770462E+03  0.24230501596E+03  0.12500000000E+03 0.  0.
</event>
<event>
 5    0  0.5655767E-005  0.6837465E+03  0.7546771E-02  0.9745439E-01
         21   -1    0    0  502  501  0.00000000000E+00  0.00000000000E+00  0.18311345314E+04  0.18311345314E+04  0.00000000000E+00 0. -1.
         21   -1    0    0  501  502 -0.00000000000E+00 -0.00000000000E+00 -0.25531125653E+03  0.25531125653E+03  0.00000000000E+00 0. -1.
         25    1    1    2    0    0  0.20116467031E+03 -0.16851827889E+03 -0.11446300556E+02  0.29089801082E+03  0.12500000000E+03 0.  0.
         25    1    1    2    0    0  0.13285140420E+03 -0.23676996378E+03  0.59940811977E+03  0.66979445010E+03  0.12500000000E+03 0.  0.
         25    1    1    2    0    0 -0.33401607451E+03  0.40528824267E+03  0.98786145565E+03  0.11257533270E+04  0.12500000000E+03 0.  0.
</event>
<event>
 5    0  0.5655767E-005  0.4532031E+03  0.7546771E-02  0.1026771E+00
         21   -1    0    0  502  501  0.00000000000E+00  0.00000000000E+00  0.38364191565E+03  0.38364191565E+03  0.00000000000E+00 0.  1.
         21   -1    0    0  501  502 -0.00000000000E+00 -0.00000000000E+00 -0.53537696654E+03  0.53537696654E+03  0.00000000000E+00 0.  1.
         25    1    1    2    0    0 -0.44942377877E+02 -0.15322248705E+03  0.17922532058E+03  0.27063566543E+03  0.12500000000E+03 0.  0.
         25    1    1    2    0    0  0.16622213601E+03 -0.42336542498E+02  0.16963562490E+02  0.21292004082E+03  0.12500000000E+03 0.  0.
         25    1    1    2    0    0 -0.12127975813E+03  0.19555902955E+03 -0.34792393396E+03  0.43546317593E+03  0.12500000000E+03 0.  0.
</event>
<event>
 5    0  0.5655767E-005  0.3092242E+03  0.7546771E-02  0.1080718E+00
         21   -1    0    0  502  501  0.00000000000E+00  0.00000000000E+00  0.85177872910E+03  0.85177872910E+03  0.00000000000E+00 0.  1.
         21   -1    0    0  501  502 -0.00000000000E+00 -0.00000000000E+00 -0.11225872623E+03  0.11225872623E+03  0.00000000000E+00 0.  1.
         25    1    1    2    0    0 -0.35999246987E+02 -0.65000871254E+02  0.74679032566E+02  0.16347176194E+03  0.12500000000E+03 0.  0.
         25    1    1    2    0    0 -0.12346844054E+03  0.14352394238E+03  0.30357493233E+03  0.37898062930E+03  0.12500000000E+03 0.  0.
         25    1    1    2    0    0  0.15946768753E+03 -0.78523071124E+02  0.36126603797E+03  0.42158506408E+03  0.12500000000E+03 0.  0.
</event>
<event>
 5    0  0.6023109E-005  0.2843324E+03  0.7546771E-02  0.1093346E+00
         21   -1    0    0  502  501  0.00000000000E+00  0.00000000000E+00  0.50091701658E+03  0.50091701658E+03  0.00000000000E+00 0. -1.
         21   -1    0    0  501  502 -0.00000000000E+00 -0.00000000000E+00 -0.16139387943E+03  0.16139387943E+03  0.00000000000E+00 0. -1.
         25    1    1    2    0    0  0.10464992592E+03 -0.26781563549E+01  0.54043212344E+02  0.17176858943E+03  0.12500000000E+03 0.  0.
         25    1    1    2    0    0 -0.15835535368E+03  0.90397337372E+02  0.23100876981E+03  0.31974700682E+03  0.12500000000E+03 0.  0.
         25    1    1    2    0    0  0.53705427762E+02 -0.87719181017E+02  0.54471154996E+02  0.17079529975E+03  0.12500000000E+03 0.  0.
</event>
<event>
 5    0  0.5655767E-005  0.6292349E+03  0.7546771E-02  0.9846543E-01
         21   -1    0    0  502  501  0.00000000000E+00  0.00000000000E+00  0.25392524210E+03  0.25392524210E+03  0.00000000000E+00 0.  1.
         21   -1    0    0  501  502 -0.00000000000E+00 -0.00000000000E+00 -0.15592642582E+04  0.15592642582E+04  0.00000000000E+00 0.  1.
         25    1    1    2    0    0 -0.30262259771E+03  0.39710627398E+02 -0.17407303155E+03  0.37293939305E+03  0.12500000000E+03 0.  0.
         25    1    1    2    0    0  0.13194915121E+03  0.31717741306E+03 -0.19084742721E+03  0.41238311112E+03  0.12500000000E+03 0.  0.
         25    1    1    2    0    0  0.17067344650E+03 -0.35688804046E+03 -0.94041855737E+03  0.10278669962E+04  0.12500000000E+03 0.  0.
</event>
<event>
 5    0  0.5927079E-005  0.2778789E+03  0.7546771E-02  0.1096853E+00
         21   -1    0    0  502  501  0.00000000000E+00  0.00000000000E+00  0.15764490991E+03  0.15764490991E+03  0.00000000000E+00 0. -1.
         21   -1    0    0  501  502 -0.00000000000E+00 -0.00000000000E+00 -0.48981392362E+03  0.48981392362E+03  0.00000000000E+00 0. -1.
         25    1    1    2    0    0 -0.64561551116E+02  0.88020625570E+02 -0.13256095244E+03  0.21239875357E+03  0.12500000000E+03 0.  0.
         25    1    1    2    0    0 -0.16455508216E+02 -0.14236438943E+03 -0.13617579280E+02  0.19065372169E+03  0.12500000000E+03 0.  0.
         25    1    1    2    0    0  0.81017059333E+02  0.54343763862E+02 -0.18599048199E+03  0.24440635827E+03  0.12500000000E+03 0.  0.
</event>
<event>
 5    0  0.5655767E-005  0.2619026E+03  0.7546771E-02  0.1106005E+00
         21   -1    0    0  502  501  0.00000000000E+00  0.00000000000E+00  0.12142493749E+04  0.12142493749E+04  0.00000000000E+00 0.  1.
         21   -1    0    0  501  502 -0.00000000000E+00 -0.00000000000E+00 -0.56490038645E+02  0.56490038645E+02  0.00000000000E+00 0.  1.
         25    1    1    2    0    0 -0.23723659587E+02  0.84593223407E+02  0.14766491883E+03  0.21248236097E+03  0.12500000000E+03 0.  0.
         25    1    1    2    0    0 -0.69500450528E+02 -0.49418518189E+02  0.40307950226E+03  0.43054684729E+03  0.12500000000E+03 0.  0.
         25    1    1    2    0    0  0.93224110115E+02 -0.35174705217E+02  0.60701491519E+03  0.62771020532E+03  0.12500000000E+03 0.  0.
</event>
<event>
 5    0  0.5655767E-005  0.3341659E+03  0.7546771E-02  0.1069308E+00
         21   -1    0    0  502  501  0.00000000000E+00  0.00000000000E+00  0.56888178984E+02  0.56888178984E+02  0.00000000000E+00 0.  1.
         21   -1    0    0  501  502 -0.00000000000E+00 -0.00000000000E+00 -0.19629178142E+04  0.19629178142E+04  0.00000000000E+00 0.  1.
         25    1    1    2    0    0  0.38493340814E+02 -0.10437816746E+02 -0.19404361600E+03  0.23424049653E+03  0.12500000000E+03 0.  0.
         25    1    1    2    0    0  0.18315537328E+03  0.18512808690E+02 -0.11078396938E+04  0.11299656641E+04  0.12500000000E+03 0.  0.
         25    1    1    2    0    0 -0.22164871409E+03 -0.80749919432E+01 -0.60414632542E+03  0.65559983257E+03  0.12500000000E+03 0.  0.
</event>
<event>
 5    0  0.5793190E-005  0.3172800E+03  0.7546771E-02  0.1076908E+00
         21   -1    0    0  502  501  0.00000000000E+00  0.00000000000E+00  0.51929159686E+03  0.51929159686E+03  0.00000000000E+00 0. -1.
         21   -1    0    0  501  502 -0.00000000000E+00 -0.00000000000E+00 -0.19385372271E+03  0.19385372271E+03  0.00000000000E+00 0. -1.
         25    1    1    2    0    0 -0.66464300765E+02  0.15999496104E+03  0.97829774527E+02  0.23497139319E+03  0.12500000000E+03 0.  0.
         25    1    1    2    0    0 -0.22462266057E+02 -0.41480316955E+02 -0.47353241528E+02  0.14174801436E+03  0.12500000000E+03 0.  0.
         25    1    1    2    0    0  0.88926566822E+02 -0.11851464409E+03  0.27496134116E+03  0.33642591202E+03  0.12500000000E+03 0.  0.
</event>
<event>
 5    0  0.5655767E-005  0.4242022E+03  0.7546771E-02  0.1035707E+00
         21   -1    0    0  502  501  0.00000000000E+00  0.00000000000E+00  0.19600826186E+03  0.19600826186E+03  0.00000000000E+00 0.  1.
         21   -1    0    0  501  502 -0.00000000000E+00 -0.00000000000E+00 -0.91806097364E+03  0.91806097364E+03  0.00000000000E+00 0.  1.
         25    1    1    2    0    0  0.15818045349E+03 -0.13458454545E+03 -0.15162210094E+03  0.28591662637E+03  0.12500000000E+03 0.  0.
         25    1    1    2    0    0  0.10586860847E+03  0.10931968861E+02 -0.46615711051E+03  0.49422173352E+03  0.12500000000E+03 0.  0.
         25    1    1    2    0    0 -0.26404906196E+03  0.12365257658E+03 -0.10427350033E+03  0.33393087562E+03  0.12500000000E+03 0.  0.
</event>
<event>
 5    0  0.5655767E-005  0.2239460E+03  0.7546771E-02  0.1130975E+00
         21   -1    0    0  502  501  0.00000000000E+00  0.00000000000E+00  0.44050273679E+02  0.44050273679E+02  0.00000000000E+00 0.  1.
         21   -1    0    0  501  502 -0.00000000000E+00 -0.00000000000E+00 -0.11385134856E+04  0.11385134856E+04  0.00000000000E+00 0.  1.
         25    1    1    2    0    0 -0.57204723903E+02 -0.22033803805E+02 -0.16367277905E+03  0.21487588871E+03  0.12500000000E+03 0.  0.
         25    1    1    2    0    0  0.59348318440E+02  0.17741057281E+02 -0.47966559050E+03  0.49954083589E+03  0.12500000000E+03 0.  0.
         25    1    1    2    0    0 -0.21435945378E+01  0.42927465235E+01 -0.45112484235E+03  0.46814703465E+03  0.12500000000E+03 0.  0.
</event>
<event>
 5    0  0.5655767E-005  0.3152120E+03  0.7546771E-02  0.1077874E+00
         21   -1    0    0  502  501  0.00000000000E+00  0.00000000000E+00  0.10434001046E+04  0.10434001046E+04  0.00000000000E+00 0. -1.
         21   -1    0    0  501  502 -0.00000000000E+00 -0.00000000000E+00 -0.95225807434E+02  0.95225807434E+02  0.00000000000E+00 0. -1.
         25    1    1    2    0    0 -0.80404188539E+02  0.81969567744E+02  0.81579116139E+02  0.18831886725E+03  0.12500000000E+03 0.  0.
         25    1    1    2    0    0  0.31777066516E+02  0.18221822153E+02  0.70737604686E+03  0.71926885684E+03  0.12500000000E+03 0.  0.
         25    1    1    2    0    0  0.48627122024E+02 -0.10019138990E+03  0.15921913419E+03  0.23103818797E+03  0.12500000000E+03 0.  0.
</event>
<event>
 5    0  0.5655767E-005  0.3298451E+03  0.7546771E-02  0.1071205E+00
         21   -1    0    0  502  501  0.00000000000E+00  0.00000000000E+00  0.53571426360E+03  0.53571426360E+03  0.00000000000E+00 0. -1.
         21   -1    0    0  501  502 -0.00000000000E+00 -0.00000000000E+00 -0.20308923624E+03  0.20308923624E+03  0.00000000000E+00 0. -1.
         25    1    1    2    0    0  0.15951394266E+02 -0.70927025836E+01  0.60817273914E+02  0.14010172810E+03  0.12500000000E+03 0.  0.
         25    1    1    2    0    0  0.13235644556E+02  0.68456949613E+02 -0.11688157392E+03  0.18479133789E+03  0.12500000000E+03 0.  0.
         25    1    1    2    0    0 -0.29187038823E+02 -0.61364247029E+02  0.38868932737E+03  0.41391043386E+03  0.12500000000E+03 0.  0.
</event>
<event>
 5    0  0.5655767E-005  0.2703627E+03  0.7546771E-02  0.1101072E+00
         21   -1    0    0  502  501  0.00000000000E+00  0.00000000000E+00  0.23170331507E+03  0.23170331507E+03  0.00000000000E+00 0.  1.
         21   -1    0    0  501  502 -0.00000000000E+00 -0.00000000000E+00 -0.31547242914E+03  0.31547242914E+03  0.00000000000E+00 0.  1.
         25    1    1    2    0    0  0.92319749118E+02  0.26133251019E+02  0.64324421577E+02  0.17020139276E+03  0.12500000000E+03 0.  0.
         25    1    1    2    0    0 -0.89902926456E+01 -0.10390593287E+03 -0.12704919627E+03  0.20650367193E+03  0.12500000000E+03 0.  0.
         25    1    1    2    0    0 -0.83329456472E+02  0.77772681848E+02 -0.21044339370E+02  0.17047067952E+03  0.12500000000E+03 0.  0.
</event>
<event>
 5    0  0.5655767E-005  0.3439256E+03  0.7546771E-02  0.1065136E+00
         21   -1    0    0  502  501  0.00000000000E+00  0.00000000000E+00  0.15791718873E+03  0.15791718873E+03  0.00000000000E+00 0. -1.
         21   -1    0    0  501  502 -0.00000000000E+00 -0.00000000000E+00 -0.74903068724E+03  0.74903068724E+03  0.00000000000E+00 0. -1.
         25    1    1    2    0    0 -0.26925870011E+02 -0.24875170190E+03 -0.31285578166E+03  0.41965003490E+03  0.12500000000E+03 0.  0.
         25    1    1    2    0    0  0.87824586325E+02  0.73863734042E+02 -0.16549304891E+03  0.23702733683E+03  0.12500000000E+03 0.  0.
         25    1    1    2    0    0 -0.60898716314E+02  0.17488796786E+03 -0.11276466794E+03  0.25027050423E+03  0.12500000000E+03 0.  0.
</event>
<event>
 5    0  0.5655767E-005  0.2316429E+03  0.7546771E-02  0.1125489E+00
         21   -1    0    0  502  501  0.00000000000E+00  0.00000000000E+00  0.51688063200E+02  0.51688063200E+02  0.00000000000E+00 0.  1.
         21   -1    0    0  501  502 -0.00000000000E+00 -0.00000000000E+00 -0.10381205521E+04  0.10381205521E+04  0.00000000000E+00 0.  1.
         25    1    1    2    0    0  0.51446369589E+01  0.34688681258E+02 -0.18803305080E+03  0.22849770259E+03  0.12500000000E+03 0.  0.
         25    1    1    2    0    0  0.80030277103E+02 -0.49934034008E+02 -0.53217025431E+03  0.55473275780E+03  0.12500000000E+03 0.  0.
         25    1    1    2    0    0 -0.85174914062E+02  0.15245352750E+02 -0.26622918382E+03  0.30657815494E+03  0.12500000000E+03 0.  0.
</event>
<event>
 5    0  0.5655767E-005  0.4163411E+03  0.7546771E-02  0.1038264E+00
         21   -1    0    0  502  501  0.00000000000E+00  0.00000000000E+00  0.22841278591E+03  0.22841278591E+03  0.00000000000E+00 0. -1.
         21   -1    0    0  501  502 -0.00000000000E+00 -0.00000000000E+00 -0.75888886623E+03  0.75888886623E+03  0.00000000000E+00 0. -1.
         25    1    1    2    0    0  0.23673711534E+03  0.11090605370E+02 -0.13638822932E+03  0.30065630278E+03  0.12500000000E+03 0.  0.
         25    1    1    2    0    0 -0.24466557574E+03  0.13940602534E+03 -0.83012250397E+02  0.31907885792E+03  0.12500000000E+03 0.  0.
         25    1    1    2    0    0  0.79284604025E+01 -0.15049663071E+03 -0.31107560061E+03  0.36756649145E+03  0.12500000000E+03 0.  0.
</event>
<event>
 5    0  0.5655767E-005  0.2004995E+03  0.7546771E-02  0.1149318E+00
         21   -1    0    0  502  501  0.00000000000E+00  0.00000000000E+00  0.54824282681E+02  0.54824282681E+02  0.00000000000E+00 0.  1.
         21   -1    0    0  501  502 -0.00000000000E+00 -0.00000000000E+00 -0.73325252042E+03  0.73325252042E+03  0.00000000000E+00 0.  1.
         25    1    1    2    0    0 -0.38468900784E+02 -0.21953064650E+02 -0.17741901603E+03  0.22150462890E+03  0.12500000000E+03 0.  0.
         25    1    1    2    0    0  0.11683471946E+02 -0.18836779322E+02 -0.28916468498E+03  0.31580459593E+03  0.12500000000E+03 0.  0.
         25    1    1    2    0    0  0.26785428838E+02  0.40789843971E+02 -0.21184453674E+03  0.25076757828E+03  0.12500000000E+03 0.  0.
</event>
<event>
 5    0  0.5655767E-005  0.2939968E+03  0.7546771E-02  0.1088281E+00
         21   -1    0    0  502  501  0.00000000000E+00  0.00000000000E+00  0.57647586014E+03  0.57647586014E+03  0.00000000000E+00 0. -1.
         21   -1    0    0  501  502 -0.00000000000E+00 -0.00000000000E+00 -0.14993540047E+03  0.14993540047E+03  0.00000000000E+00 0. -1.
         25    1    1    2    0    0  0.59069306713E+02 -0.11434855821E+03  0.13152054185E+03  0.22245770090E+03  0.12500000000E+03 0.  0.
         25    1    1    2    0    0 -0.12720954664E+03  0.12546909295E+03  0.28765478168E+03  0.36096403625E+03  0.12500000000E+03 0.  0.
         25    1    1    2    0    0  0.68140239924E+02 -0.11120534732E+02  0.73651361469E+01  0.14298952346E+03  0.12500000000E+03 0.  0.
</event>
<event>
 5    0  0.5655767E-005  0.4704677E+03  0.7546771E-02  0.1021788E+00
         21   -1    0    0  502  501  0.00000000000E+00  0.00000000000E+00  0.14252130125E+03  0.14252130125E+03  0.00000000000E+00 0.  1.
         21   -1    0    0  501  502 -0.00000000000E+00 -0.00000000000E+00 -0.15530297340E+04  0.15530297340E+04  0.00000000000E+00 0.  1.
         25    1    1    2    0    0  0.19214168533E+03  0.31887074602E+02 -0.42294319778E+03  0.48212152132E+03  0.12500000000E+03 0.  0.
         25    1    1    2    0    0  0.11055429922E+03  0.38105198542E+02 -0.82240757229E+03  0.84003182927E+03  0.12500000000E+03 0.  0.
         25    1    1    2    0    0 -0.30269598455E+03 -0.69992273145E+02 -0.16515766268E+03  0.37339768465E+03  0.12500000000E+03 0.  0.
</event>
<event>
 5    0  0.5655767E-005  0.2256833E+03  0.7546771E-02  0.1129715E+00
         21   -1    0    0  502  501  0.00000000000E+00  0.00000000000E+00  0.90302760397E+02  0.90302760397E+02  0.00000000000E+00 0.  1.
         21   -1    0    0  501  502 -0.00000000000E+00 -0.00000000000E+00 -0.56402453060E+03  0.56402453060E+03  0.00000000000E+00 0.  1.
         25    1    1    2    0    0  0.78510987609E+02 -0.21262088964E+02 -0.68760425523E+02  0.16422255546E+03  0.12500000000E+03 0.  0.
         25    1    1    2    0    0 -0.74811376662E+02  0.31809228565E+02 -0.19470084039E+03  0.24523863144E+03  0.12500000000E+03 0.  0.
         25    1    1    2    0    0 -0.36996109477E+01 -0.10547139601E+02 -0.21026050428E+03  0.24486610410E+03  0.12500000000E+03 0.  0.
</event>
<event>
 5    0  0.5655767E-005  0.2826762E+03  0.7546771E-02  0.1094236E+00
         21   -1    0    0  502  501  0.00000000000E+00  0.00000000000E+00  0.30612516586E+03  0.30612516586E+03  0.00000000000E+00 0.  1.
         21   -1    0    0  501  502 -0.00000000000E+00 -0.00000000000E+00 -0.26102341014E+03  0.26102341014E+03  0.00000000000E+00 0.  1.
         25    1    1    2    0    0  0.43614847704E+02 -0.15327491409E+03 -0.34764214085E+02  0.20549697032E+03  0.12500000000E+03 0.  0.
         25    1    1    2    0    0  0.65966210987E+02  0.99652604362E+02  0.90441927995E+01  0.17317326575E+03  0.12500000000E+03 0.  0.
         25    1    1    2    0    0 -0.10958105869E+03  0.53622309723E+02  0.70821777002E+02  0.18847833993E+03  0.12500000000E+03 0.  0.
</event>
<event>
 5    0  0.5655767E-005  0.3512624E+03  0.7546771E-02  0.1062098E+00
         21   -1    0    0  502  501  0.00000000000E+00  0.00000000000E+00  0.17221655401E+04  0.17221655401E+04  0.00000000000E+00 0.  1.
         21   -1    0    0  501  502 -0.00000000000E+00 -0.00000000000E+00 -0.71645433602E+02  0.71645433602E+02  0.00000000000E+00 0.  1.
         25    1    1    2    0    0  0.13431611493E+03 -0.13566812818E+03  0.53169586043E+03  0.57859497727E+03  0.12500000000E+03 0.  0.
         25    1    1    2    0    0 -0.56011211399E+02  0.22834389049E+03  0.43913647375E+03  0.51356015295E+03  0.12500000000E+03 0.  0.
         25    1    1    2    0    0 -0.78304903528E+02 -0.92675762309E+02  0.67968777235E+03  0.70165584350E+03  0.12500000000E+03 0.  0.
</event>
<event>
 5    0  0.5655767E-005  0.3607240E+03  0.7546771E-02  0.1058298E+00
         21   -1    0    0  502  501  0.00000000000E+00  0.00000000000E+00  0.71439615500E+02  0.71439615500E+02  0.00000000000E+00 0.  1.
         21   -1    0    0  501  502 -0.00000000000E+00 -0.00000000000E+00 -0.18214240980E+04  0.18214240980E+04  0.00000000000E+00 0.  1.
         25    1    1    2    0    0  0.80894112692E+02  0.11704836988E+03 -0.84692383192E+03  0.86784166496E+03  0.12500000000E+03 0.  0.
         25    1    1    2    0    0 -0.21874763053E+02  0.12801098034E+03 -0.51546903408E+03  0.54607567373E+03  0.12500000000E+03 0.  0.
         25    1    1    2    0    0 -0.59019349639E+02 -0.24505935022E+03 -0.38759161650E+03  0.47894637481E+03  0.12500000000E+03 0.  0.
</event>
<event>
 5    0  0.5655767E-005  0.3998660E+03  0.7546771E-02  0.1043826E+00
         21   -1    0    0  502  501  0.00000000000E+00  0.00000000000E+00  0.65648202793E+03  0.65648202793E+03  0.00000000000E+00 0.  1.
         21   -1    0    0  501  502 -0.00000000000E+00 -0.00000000000E+00 -0.24356012994E+03  0.24356012994E+03  0.00000000000E+00 0.  1.
         25    1    1    2    0    0 -0.31439227190E+03  0.83872487837E+02  0.26051284389E+03  0.43516552791E+03  0.12500000000E+03 0.  0.
         25    1    1    2    0    0  0.24637646393E+03 -0.82293977335E+02  0.57863367548E+02  0.29401841777E+03  0.12500000000E+03 0.  0.
         25    1    1    2    0    0  0.68015807972E+02 -0.15785105021E+01  0.94545686546E+02  0.17085821219E+03  0.12500000000E+03 0.  0.
</event>
<event>
 5    0  0.5655767E-005  0.3324761E+03  0.7546771E-02  0.1070046E+00
         21   -1    0    0  502  501  0.00000000000E+00  0.00000000000E+00  0.36111153512E+03  0.36111153512E+03  0.00000000000E+00 0. -1.
         21   -1    0    0  501  502 -0.00000000000E+00 -0.00000000000E+00 -0.30611139451E+03  0.30611139451E+03  0.00000000000E+00 0. -1.
         25    1    1    2    0    0 -0.19812704419E+03  0.53112965190E+02  0.11147599686E+03  0.26481542739E+03  0.12500000000E+03 0.  0.
         25    1    1    2    0    0  0.87349099052E+02  0.51617393202E+02 -0.11373679482E+03  0.19711742410E+03  0.12500000000E+03 0.  0.
         25    1    1    2    0    0  0.11077794514E+03 -0.10473035839E+03  0.57260938573E+02  0.20529007814E+03  0.12500000000E+03 0.  0.
</event>
<event>
 5    0  0.5655767E-005  0.3844969E+03  0.7546771E-02  0.1049284E+00
         21   -1    0    0  502  501  0.00000000000E+00  0.00000000000E+00  0.58378743769E+03  0.58378743769E+03  0.00000000000E+00 0. -1.
         21   -1    0    0  501  502 -0.00000000000E+00 -0.00000000000E+00 -0.25323922644E+03  0.25323922644E+03  0.00000000000E+00 0. -1.
         25    1    1    2    0    0 -0.31874531127E+03  0.37316102187E+02  0.80887629412E+02  0.35377800035E+03  0.12500000000E+03 0.  0.
         25    1    1    2    0    0  0.21238609104E+03 -0.39684760077E+02  0.14960747427E+03  0.29101568378E+03  0.12500000000E+03 0.  0.
         25    1    1    2    0    0  0.10635922023E+03  0.23686578902E+01  0.10005310757E+03  0.19223298001E+03  0.12500000000E+03 0.  0.
</event>
<event>
 5    0  0.5655767E-005  0.2911552E+03  0.7546771E-02  0.1089748E+00
         21   -1    0    0  502  501  0.00000000000E+00  0.00000000000E+00  0.42428449340E+03  0.42428449340E+03  0.00000000000E+00 0. -1.
         21   -1    0    0  501  502 -0.00000000000E+00 -0.00000000000E+00 -0.19979834711E+03  0.19979834711E+03  0.00000000000E+00 0. -1.
         25    1    1    2    0    0 -0.19164598639E+02  0.17930279555E+03 -0.29310706215E+02  0.22136145064E+03  0.12500000000E+03 0.  0.
         25    1    1    2    0    0  0.31047142483E+02 -0.75082946566E+02  0.13159207775E+03  0.19885383790E+03  0.12500000000E+03 0.  0.
         25    1    1    2    0    0 -0.11882543843E+02 -0.10421984898E+03  0.12220477476E+03  0.20386755196E+03  0.12500000000E+03 0.  0.
</event>
<event>
 5    0  0.5655767E-005  0.2041028E+03  0.7546771E-02  0.1146323E+00
         21   -1    0    0  502  501  0.00000000000E+00  0.00000000000E+00  0.29118561351E+02  0.29118561351E+02  0.00000000000E+00 0.  1.
         21   -1    0    0  501  502 -0.00000000000E+00 -0.00000000000E+00 -0.14306316351E+04  0.14306316351E+04  0.00000000000E+00 0.  1.
         25    1    1    2    0    0 -0.18230170137E+02 -0.30928689483E+02 -0.62105048098E+03  0.63452157005E+03  0.12500000000E+03 0.  0.
         25    1    1    2    0    0 -0.32455705262E+02  0.72883784614E+01 -0.42715060381E+03  0.44630609631E+03  0.12500000000E+03 0.  0.
         25    1    1    2    0    0  0.50685875399E+02  0.23640311022E+02 -0.35331198898E+03  0.37892253011E+03  0.12500000000E+03 0.  0.
</event>
<event>
 5    0  0.5655767E-005  0.3373537E+03  0.7546771E-02  0.1067929E+00
         21   -1    0    0  502  501  0.00000000000E+00  0.00000000000E+00  0.19534847256E+03  0.19534847256E+03  0.00000000000E+00 0.  1.
         21   -1    0    0  501  502 -0.00000000000E+00 -0.00000000000E+00 -0.58258723729E+03  0.58258723729E+03  0.00000000000E+00 0.  1.
         25    1    1    2    0    0 -0.12775154625E+03 -0.19540529371E+03 -0.28824487290E+03  0.39142533532E+03  0.12500000000E+03 0.  0.
         25    1    1    2    0    0  0.83061769450E+02  0.18069549584E+03 -0.31918718451E+02  0.23705257718E+03  0.12500000000E+03 0.  0.
         25    1    1    2    0    0  0.44689776805E+02  0.14709797873E+02 -0.67075173376E+02  0.14945779735E+03  0.12500000000E+03 0.  0.
</event>
<event>
 5    0  0.5655767E-005  0.4061182E+03  0.7546771E-02  0.1041682E+00
         21   -1    0    0  502  501  0.00000000000E+00  0.00000000000E+00  0.11326268444E+04  0.11326268444E+04  0.00000000000E+00 0. -1.
         21   -1    0    0  501  502 -0.00000000000E+00 -0.00000000000E+00 -0.14561898387E+03  0.14561898387E+03  0.00000000000E+00 0. -1.
         25    1    1    2    0    0  0.13307053842E+03 -0.14409589910E+03  0.54060080012E+03  0.58851136049E+03  0.12500000000E+03 0.  0.
         25    1    1    2    0    0 -0.25862750960E+03  0.18048035170E+03  0.24151554227E+03  0.41643259146E+03  0.12500000000E+03 0.  0.
         25    1    1    2    0    0  0.12555697117E+03 -0.36384452606E+02  0.20489151817E+03  0.27330187636E+03  0.12500000000E+03 0.  0.
</event>
<event>
 5    0  0.5655767E-005  0.3171245E+03  0.7546771E-02  0.1076980E+00
         21   -1    0    0  502  501  0.00000000000E+00  0.00000000000E+00  0.12128000320E+04  0.12128000320E+04  0.00000000000E+00 0.  1.
         21   -1    0    0  501  502 -0.00000000000E+00 -0.00000000000E+00 -0.82922126408E+02  0.82922126408E+02  0.00000000000E+00 0.  1.
         25    1    1    2    0    0 -0.12802644906E+02 -0.10802926252E+03  0.47757379903E+03  0.50550565061E+03  0.12500000000E+03 0.  0.
         25    1    1    2    0    0  0.10867606527E+03  0.17385996226E+02  0.70799279484E+02  0.18097043406E+03  0.12500000000E+03 0.  0.
         25    1    1    2    0    0 -0.95873420362E+02  0.90643266296E+02  0.58150482707E+03  0.60924607373E+03  0.12500000000E+03 0.  0.
</event>
<event>
 5    0  0.5655767E-005  0.2452481E+03  0.7546771E-02  0.1116345E+00
         21   -1    0    0  502  501  0.00000000000E+00  0.00000000000E+00  0.93775171024E+02  0.93775171024E+02  0.00000000000E+00 0. -1.
         21   -1    0    0  501  502 -0.00000000000E+00 -0.00000000000E+00 -0.64139159033E+03  0.64139159033E+03  0.00000000000E+00 0. -1.
         25    1    1    2    0    0 -0.52059542951E+02 -0.43937089869E+02 -0.24111394500E+03  0.28000285419E+03  0.12500000000E+03 0.  0.
         25    1    1    2    0    0  0.72609404820E+02  0.24068606907E+02 -0.29123967838E+03  0.32603216677E+03  0.12500000000E+03 0.  0.
         25    1    1    2    0    0 -0.20549861869E+02  0.19868482962E+02 -0.15262795924E+02  0.12913174039E+03  0.12500000000E+03 0.  0.
</event>
<event>
 5    0  0.5655767E-005  0.4072471E+03  0.7546771E-02  0.1041299E+00
         21   -1    0    0  502  501  0.00000000000E+00  0.00000000000E+00  0.70558738622E+03  0.70558738622E+03  0.00000000000E+00 0. -1.
         21   -1    0    0  501  502 -0.00000000000E+00 -0.00000000000E+00 -0.23505265565E+03  0.23505265565E+03  0.00000000000E+00 0. -1.
         25    1    1    2    0    0 -0.19512886483E+03  0.17529867498E+03  0.21989661563E+03  0.36439596719E+03  0.12500000000E+03 0.  0.
         25    1    1    2    0    0  0.26251354460E+03 -0.25228179515E+01  0.10396855885E+03  0.30879473270E+03  0.12500000000E+03 0.  0.
         25    1    1    2    0    0 -0.67384679768E+02 -0.17277585703E+03  0.14666955609E+03  0.26744934198E+03  0.12500000000E+03 0.  0.
</event>
<event>
 5    0  0.5655767E-005  0.2510902E+03  0.7546771E-02  0.1112618E+00
         21   -1    0    0  502  501  0.00000000000E+00  0.00000000000E+00  0.10445707343E+03  0.10445707343E+03  0.00000000000E+00 0.  1.
         21   -1    0    0  501  502 -0.00000000000E+00 -0.00000000000E+00 -0.60356151666E+03  0.60356151666E+03  0.00000000000E+00 0.  1.
         25    1    1    2    0    0 -0.53883575354E+02  0.27991018057E+02 -0.31043490344E+03  0.34012022295E+03  0.12500000000E+03 0.  0.
         25    1    1    2    0    0  0.10305019366E+01 -0.10048288440E+03 -0.77833636295E+02  0.17827211484E+03  0.12500000000E+03 0.  0.
         25    1    1    2    0    0  0.52853073418E+02  0.72491866345E+02 -0.11083590350E+03  0.18962625230E+03  0.12500000000E+03 0.  0.
</event>
<event>
 5    0  0.5655767E-005  0.2320250E+03  0.7546771E-02  0.1125223E+00
         21   -1    0    0  502  501  0.00000000000E+00  0.00000000000E+00  0.43889489035E+03  0.43889489035E+03  0.00000000000E+00 0.  1.
         21   -1    0    0  501  502 -0.00000000000E+00 -0.00000000000E+00 -0.12266173140E+03  0.12266173140E+03  0.00000000000E+00 0.  1.
         25    1    1    2    0    0 -0.35927325851E+02  0.74444149834E+02  0.68470466908E+02  0.16476015606E+03  0.12500000000E+03 0.  0.
         25    1    1    2    0    0  0.50104424735E+01  0.16700898200E+02  0.19140819005E+03  0.22927302448E+03  0.12500000000E+03 0.  0.
         25    1    1    2    0    0  0.30916883377E+02 -0.91145048034E+02  0.56354501994E+02  0.16752344121E+03  0.12500000000E+03 0.  0.
</event>
<event>
 5    0  0.5655767E-005  0.2287432E+03  0.7546771E-02  0.1127528E+00
         21   -1    0    0  502  501  0.00000000000E+00  0.00000000000E+00  0.37667891616E+03  0.37667891616E+03  0.00000000000E+00 0.  1.
         21   -1    0    0  501  502 -0.00000000000E+00 -0.00000000000E+00 -0.13890726336E+03  0.13890726336E+03  0.00000000000E+00 0.  1.
         25    1    1    2    0    0  0.35195922884E+02  0.24553797488E+02 -0.22824264781E+02  0.13411781769E+03  0.12500000000E+03 0.  0.
         25    1    1    2    0    0  0.10598291996E+02  0.27331837541E+02  0.16705429557E+03  0.21069288267E+03  0.12500000000E+03 0.  0.
         25    1    1    2    0    0 -0.45794214879E+02 -0.51885635028E+02  0.93541622001E+02  0.17077547917E+03  0.12500000000E+03 0.  0.
</event>
<event>
 5    0  0.5655767E-005  0.3029072E+03  0.7546771E-02  0.1083796E+00
         21   -1    0    0  502  501  0.00000000000E+00  0.00000000000E+00  0.24816266212E+03  0.24816266212E+03  0.00000000000E+00 0.  1.
         21   -1    0    0  501  502 -0.00000000000E+00 -0.00000000000E+00 -0.36972832833E+03  0.36972832833E+03  0.00000000000E+00 0.  1.
         25    1    1    2    0    0 -0.90700559240E+02 -0.13210366189E+03  0.14984700152E+02  0.20378299775E+03  0.12500000000E+03 0.  0.
         25    1    1    2    0    0  0.99400345332E+00  0.58463385521E+02  0.62906517626E+02  0.15166141714E+03  0.12500000000E+03 0.  0.
         25    1    1    2    0    0  0.89706555787E+02  0.73640276372E+02 -0.19945688399E+03  0.26244657557E+03  0.12500000000E+03 0.  0.
</event>
<event>
 5    0  0.5655767E-005  0.8113194E+03  0.7546771E-02  0.9543776E-01
         21   -1    0    0  502  501  0.00000000000E+00  0.00000000000E+00  0.17733132711E+04  0.17733132711E+04  0.00000000000E+00 0.  1.
         21   -1    0    0  501  502 -0.00000000000E+00 -0.00000000000E+00 -0.37119171228E+03  0.37119171228E+03  0.00000000000E+00 0.  1.
         25    1    1    2    0    0  0.29019102981E+03 -0.26523572788E+03 -0.25548148736E+02  0.41332618237E+03  0.12500000000E+03 0.  0.
         25    1    1    2    0    0 -0.57701093472E+03  0.26593943433E+03  0.79470217570E+03  0.10251058236E+04  0.12500000000E+03 0.  0.
         25    1    1    2    0    0  0.28681990491E+03 -0.70370644565E+00  0.63296753190E+03  0.70607297746E+03  0.12500000000E+03 0.  0.
</event>
<event>
 5    0  0.5841926E-005  0.4499138E+03  0.7546771E-02  0.1027748E+00
         21   -1    0    0  502  501  0.00000000000E+00  0.00000000000E+00  0.64158545268E+03  0.64158545268E+03  0.00000000000E+00 0. -1.
         21   -1    0    0  501  502 -0.00000000000E+00 -0.00000000000E+00 -0.31550345528E+03  0.31550345528E+03  0.00000000000E+00 0. -1.
         25    1    1    2    0    0 -0.46247191233E+02  0.40832491852E+02 -0.12711751193E+03  0.18865300667E+03  0.12500000000E+03 0.  0.
         25    1    1    2    0    0  0.49559833760E+02 -0.29690758375E+03  0.17395877010E+03  0.36945492838E+03  0.12500000000E+03 0.  0.
         25    1    1    2    0    0 -0.33126425271E+01  0.25607509190E+03  0.27924073923E+03  0.39898097290E+03  0.12500000000E+03 0.  0.
</event>
<event>
 5    0  0.5655767E-005  0.2972457E+03  0.7546771E-02  0.1086626E+00
         21   -1    0    0  502  501  0.00000000000E+00  0.00000000000E+00  0.16875074787E+03  0.16875074787E+03  0.00000000000E+00 0. -1.
         21   -1    0    0  501  502 -0.00000000000E+00 -0.00000000000E+00 -0.52358286115E+03  0.52358286115E+03  0.00000000000E+00 0. -1.
         25    1    1    2    0    0 -0.45623578751E+02 -0.90321211238E+02 -0.96094093473E+02  0.18734595522E+03  0.12500000000E+03 0.  0.
         25    1    1    2    0    0  0.62054453513E+02 -0.19614215766E+02  0.53520132711E+02  0.15074772723E+03  0.12500000000E+03 0.  0.
         25    1    1    2    0    0 -0.16430874762E+02  0.10993542700E+03 -0.31225815252E+03  0.35423992656E+03  0.12500000000E+03 0.  0.
</event>
<event>
 5    0  0.6475525E-005  0.3254831E+03  0.7546771E-02  0.1073153E+00
         21   -1    0    0  502  501  0.00000000000E+00  0.00000000000E+00  0.26477407087E+03  0.26477407087E+03  0.00000000000E+00 0.  1.
         21   -1    0    0  501  502 -0.00000000000E+00 -0.00000000000E+00 -0.40011196138E+03  0.40011196138E+03  0.00000000000E+00 0.  1.
         25    1    1    2    0    0  0.16297814772E+03 -0.63286426566E+02  0.15208471667E+02  0.21546077609E+03  0.12500000000E+03 0.  0.
         25    1    1    2    0    0 -0.13841091857E+03  0.14367355427E+03  0.14529347860E+01  0.23542893534E+03  0.12500000000E+03 0.  0.
         25    1    1    2    0    0 -0.24567229158E+02 -0.80387127706E+02 -0.15199929696E+03  0.21399632082E+03  0.12500000000E+03 0.  0.
</event>
<event>
 5    0  0.5655767E-005  0.2979585E+03  0.7546771E-02  0.1086266E+00
         21   -1    0    0  502  501  0.00000000000E+00  0.00000000000E+00  0.11837761124E+03  0.11837761124E+03  0.00000000000E+00 0. -1.
         21   -1    0    0  501  502 -0.00000000000E+00 -0.00000000000E+00 -0.74996648974E+03  0.74996648974E+03  0.00000000000E+00 0. -1.
         25    1    1    2    0    0  0.93659333265E+02  0.25674774040E+02 -0.44248133657E+03  0.46994254749E+03  0.12500000000E+03 0.  0.
         25    1    1    2    0    0 -0.14047034231E+03  0.29764153455E+02 -0.16488520881E+03  0.25185304045E+03  0.12500000000E+03 0.  0.
         25    1    1    2    0    0  0.46811009046E+02 -0.55438927495E+02 -0.24222333121E+02  0.14654851303E+03  0.12500000000E+03 0.  0.
</event>
<event>
 5    0  0.5655767E-005  0.4343348E+03  0.7546771E-02  0.1032499E+00
         21   -1    0    0  502  501  0.00000000000E+00  0.00000000000E+00  0.12877227616E+04  0.12877227616E+04  0.00000000000E+00 0. -1.
         21   -1    0    0  501  502 -0.00000000000E+00 -0.00000000000E+00 -0.14649637846E+03  0.14649637846E+03  0.00000000000E+00 0. -1.
         25    1    1    2    0    0 -0.13476230564E+03 -0.18183303359E+03  0.10506170889E+03  0.27908259315E+03  0.12500000000E+03 0.  0.
         25    1    1    2    0    0  0.13637374015E+03  0.16459068247E+02  0.13287277110E+03  0.22836127349E+03  0.12500000000E+03 0.  0.
         25    1    1    2    0    0 -0.16114345078E+01  0.16537396534E+03  0.90329190316E+03  0.92677527343E+03  0.12500000000E+03 0.  0.
</event>
<event>
 5    0  0.5655767E-005  0.4382485E+03  0.7546771E-02  0.1031286E+00
         21   -1    0    0  502  501  0.00000000000E+00  0.00000000000E+00  0.10350473845E+04  0.10350473845E+04  0.00000000000E+00 0.  1.
         21   -1    0    0  501  502 -0.00000000000E+00 -0.00000000000E+00 -0.18555837612E+03  0.18555837612E+03  0.00000000000E+00 0.  1.
         25    1    1    2    0    0 -0.99586482278E+02  0.22213121060E+03  0.67848957698E+03  0.73159609639E+03  0.12500000000E+03 0.  0.
         25    1    1    2    0    0 -0.51736749785E+02 -0.18978982205E+03  0.17269965911E+03  0.29008109226E+03  0.12500000000E+03 0.  0.
         25    1    1    2    0    0  0.15132323206E+03 -0.32341388552E+02 -0.17002277033E+01  0.19892857198E+03  0.12500000000E+03 0.  0.
</event>
<event>
 5    0  0.5655767E-005  0.2574104E+03  0.7546771E-02  0.1108709E+00
         21   -1    0    0  502  501  0.00000000000E+00  0.00000000000E+00  0.12245417633E+04  0.12245417633E+04  0.00000000000E+00 0. -1.
         21   -1    0    0  501  502 -0.00000000000E+00 -0.00000000000E+00 -0.54110115281E+02  0.54110115281E+02  0.00000000000E+00 0. -1.
         25    1    1    2    0    0 -0.76321385301E+02  0.11563811109E+02  0.20715108617E+03  0.25395914649E+03  0.12500000000E+03 0.  0.
         25    1    1    2    0    0  0.58164250118E+02 -0.17844795120E+02  0.82766406794E+03  0.83925819988E+03  0.12500000000E+03 0.  0.
         25    1    1    2    0    0  0.18157135183E+02  0.62809840106E+01  0.13561649390E+03  0.18543453221E+03  0.12500000000E+03 0.  0.
</event>
<event>
 5    0  0.5655767E-005  0.2754416E+03  0.7546771E-02  0.1098205E+00
         21   -1    0    0  502  501  0.00000000000E+00  0.00000000000E+00  0.15028853117E+03  0.15028853117E+03  0.00000000000E+00 0. -1.
         21   -1    0    0  501  502 -0.00000000000E+00 -0.00000000000E+00 -0.50481600278E+03  0.50481600278E+03  0.00000000000E+00 0. -1.
         25    1    1    2    0    0  0.72566832228E+02  0.31954668674E+02 -0.30094746063E+03  0.33538249813E+03  0.12500000000E+03 0.  0.
         25    1    1    2    0    0  0.17087229114E+02 -0.21479010215E+02 -0.95800040611E+02  0.15986234410E+03  0.12500000000E+03 0.  0.
         25    1    1    2    0    0 -0.89654061342E+02 -0.10475658459E+02  0.42220029640E+02  0.15985969172E+03  0.12500000000E+03 0.  0.
</event>
<event>
 5    0  0.5655767E-005  0.2521932E+03  0.7546771E-02  0.1111927E+00
         21   -1    0    0  502  501  0.00000000000E+00  0.00000000000E+00  0.10203740260E+04  0.10203740260E+04  0.00000000000E+00 0. -1.
         21   -1    0    0  501  502 -0.00000000000E+00 -0.00000000000E+00 -0.62331486090E+02  0.62331486090E+02  0.00000000000E+00 0. -1.
         25    1    1    2    0    0 -0.55411574636E+02  0.12217942345E+03  0.45641151313E+03  0.49186860383E+03  0.12500000000E+03 0.  0.
         25    1    1    2    0    0 -0.85393724108E+01 -0.79623797213E+02  0.34831457718E+03  0.37863031395E+03  0.12500000000E+03 0.  0.
         25    1    1    2    0    0  0.63950947047E+02 -0.42555626235E+02  0.15331644961E+03  0.21220659432E+03  0.12500000000E+03 0.  0.
</event>
<event>
 5    0  0.5655767E-005  0.3911099E+03  0.7546771E-02  0.1046902E+00
         21   -1    0    0  502  501  0.00000000000E+00  0.00000000000E+00  0.34415435146E+04  0.34415435146E+04  0.00000000000E+00 0. -1.
         21   -1    0    0  501  502 -0.00000000000E+00 -0.00000000000E+00 -0.44447194440E+02  0.44447194440E+02  0.00000000000E+00 0. -1.
         25    1    1    2    0    0  0.72537161833E+02  0.12629397784E+03  0.78230692520E+03  0.80550663182E+03  0.12500000000E+03 0.  0.
         25    1    1    2    0    0 -0.30660561199E+02 -0.28148226842E+03  0.86153907439E+03  0.91544902324E+03  0.12500000000E+03 0.  0.
         25    1    1    2    0    0 -0.41876600634E+02  0.15518829058E+03  0.17532503206E+04  0.17650350540E+04  0.12500000000E+03 0.  0.
</event>
<event>
 5    0  0.5655767E-005  0.5290582E+03  0.7546771E-02  0.1006461E+00
         21   -1    0    0  502  501  0.00000000000E+00  0.00000000000E+00  0.22109680611E+04  0.22109680611E+04  0.00000000000E+00 0.  1.
         21   -1    0    0  501  502 -0.00000000000E+00 -0.00000000000E+00 -0.12659730859E+03  0.12659730859E+03  0.00000000000E+00 0.  1.
         25    1    1    2    0    0 -0.16406977821E+03  0.11535895496E+03  0.42748131164E+03  0.48845864965E+03  0.12500000000E+03 0.  0.
         25    1    1    2    0    0 -0.12745831140E+03  0.14272795368E+03  0.11882049255E+03  0.25760473474E+03  0.12500000000E+03 0.  0.
         25    1    1    2    0    0  0.29152808962E+03 -0.25808690864E+03  0.15380689483E+04  0.15915019853E+04  0.12500000000E+03 0.  0.
</event>
<event>
 5    0  0.5655767E-005  0.2577311E+03  0.7546771E-02  0.1108514E+00
         21   -1    0    0  502  501  0.00000000000E+00  0.00000000000E+00  0.38144293984E+02  0.38144293984E+02  0.00000000000E+00 0.  1.
         21   -1    0    0  501  502 -0.00000000000E+00 -0.00000000000E+00 -0.17414226610E+04  0.17414226610E+04  0.00000000000E+00 0.  1.
         25    1    1    2    0    0 -0.22500735103E+02 -0.12704818028E+03 -0.49797899635E+03  0.52939173019E+03  0.12500000000E+03 0.  0.
         25    1    1    2    0    0 -0.28824654559E+01  0.12567279988E+03 -0.44088582100E+03  0.47519182274E+03  0.12500000000E+03 0.  0.
         25    1    1    2    0    0  0.25383200559E+02  0.13753803940E+01 -0.76441354962E+03  0.77498340201E+03  0.12500000000E+03 0.  0.
</event>
<event>
 5    0  0.5655767E-005  0.2595869E+03  0.7546771E-02  0.1107392E+00
         21   -1    0    0  502  501  0.00000000000E+00  0.00000000000E+00  0.79793468381E+03  0.79793468381E+03  0.00000000000E+00 0.  1.
         21   -1    0    0  501  502 -0.00000000000E+00 -0.00000000000E+00 -0.84449721055E+02  0.84449721055E+02  0.00000000000E+00 0.  1.
         25    1    1    2    0    0 -0.44460202545E+02  0.38013129521E+01  0.12966663051E+03  0.18555213461E+03  0.12500000000E+03 0.  0.
         25    1    1    2    0    0  0.15963051805E+03 -0.39215700515E+02  0.30308716838E+03  0.36675142139E+03  0.12500000000E+03 0.  0.
         25    1    1    2    0    0 -0.11517031550E+03  0.35414387563E+02  0.28073116386E+03  0.33008084886E+03  0.12500000000E+03 0.  0.
</event>
<event>
 5    0  0.5655767E-005  0.3761572E+03  0.7546771E-02  0.1052363E+00
         21   -1    0    0  502  501  0.00000000000E+00  0.00000000000E+00  0.23111519016E+03  0.23111519016E+03  0.00000000000E+00 0. -1.
         21   -1    0    0  501  502 -0.00000000000E+00 -0.00000000000E+00 -0.61222380754E+03  0.61222380754E+03  0.00000000000E+00 0. -1.
         25    1    1    2    0    0 -0.75612948493E+02 -0.13979742529E+03 -0.29801063714E+03  0.36013327804E+03  0.12500000000E+03 0.  0.
         25    1    1    2    0    0  0.31200858816E+02  0.17802507434E+02 -0.22089499156E+03  0.25633965780E+03  0.12500000000E+03 0.  0.
         25    1    1    2    0    0  0.44412089677E+02  0.12199491786E+03  0.13779701133E+03  0.22686606186E+03  0.12500000000E+03 0.  0.
</event>
<event>
 5    0  0.5655767E-005  0.2724528E+03  0.7546771E-02  0.1099884E+00
         21   -1    0    0  502  501  0.00000000000E+00  0.00000000000E+00  0.99885266404E+02  0.99885266404E+02  0.00000000000E+00 0. -1.
         21   -1    0    0  501  502 -0.00000000000E+00 -0.00000000000E+00 -0.74315766770E+03  0.74315766770E+03  0.00000000000E+00 0. -1.
         25    1    1    2    0    0  0.57428845346E+02 -0.12798967607E+03 -0.12259394383E+03  0.22435174285E+03  0.12500000000E+03 0.  0.
         25    1    1    2    0    0  0.77960172113E+01 -0.23192674331E+00 -0.11307892256E+03  0.16873847931E+03  0.12500000000E+03 0.  0.
         25    1    1    2    0    0 -0.65224862557E+02  0.12822160281E+03 -0.40759953491E+03  0.44995271194E+03  0.12500000000E+03 0.  0.
</event>
<event>
 5    0  0.5655767E-005  0.3685469E+03  0.7546771E-02  0.1055250E+00
         21   -1    0    0  502  501  0.00000000000E+00  0.00000000000E+00  0.69212614734E+03  0.69212614734E+03  0.00000000000E+00 0. -1.
         21   -1    0    0  501  502 -0.00000000000E+00 -0.00000000000E+00 -0.19624573801E+03  0.19624573801E+03  0.00000000000E+00 0. -1.
         25    1    1    2    0    0 -0.50917393155E+02 -0.52130365381E+02  0.30856140590E+03  0.34080096410E+03  0.12500000000E+03 0.  0.
         25    1    1    2    0    0 -0.60763894981E+02 -0.85702665177E+02  0.26983813503E+03  0.31539628544E+03  0.12500000000E+03 0.  0.
         25    1    1    2    0    0  0.11168128814E+03  0.13783303056E+03 -0.82519131605E+02  0.23217463581E+03  0.12500000000E+03 0.  0.
</event>
<event>
 5    0  0.5655767E-005  0.3710735E+03  0.7546771E-02  0.1054283E+00
         21   -1    0    0  502  501  0.00000000000E+00  0.00000000000E+00  0.93357078202E+02  0.93357078202E+02  0.00000000000E+00 0. -1.
         21   -1    0    0  501  502 -0.00000000000E+00 -0.00000000000E+00 -0.14749338519E+04  0.14749338519E+04  0.00000000000E+00 0. -1.
         25    1    1    2    0    0 -0.14198705848E+03  0.20094837305E+03 -0.57142604905E+03  0.63458120280E+03  0.12500000000E+03 0.  0.
         25    1    1    2    0    0 -0.37576027422E+02 -0.57610163730E+02 -0.92895235373E+02  0.17025103100E+03  0.12500000000E+03 0.  0.
         25    1    1    2    0    0  0.17956308590E+03 -0.14333820932E+03 -0.71725548926E+03  0.76345869629E+03  0.12500000000E+03 0.  0.
</event>
<event>
 5    0  0.5669957E-005  0.3234621E+03  0.7546771E-02  0.1074067E+00
         21   -1    0    0  502  501  0.00000000000E+00  0.00000000000E+00  0.74512784634E+03  0.74512784634E+03  0.00000000000E+00 0. -1.
         21   -1    0    0  501  502 -0.00000000000E+00 -0.00000000000E+00 -0.14041582678E+03  0.14041582678E+03  0.00000000000E+00 0. -1.
         25    1    1    2    0    0  0.65554189986E+02 -0.15073776228E+02  0.78286549112E+02  0.16210599719E+03  0.12500000000E+03 0.  0.
         25    1    1    2    0    0  0.63085456842E+02 -0.15813905597E+03  0.11019896335E+03  0.23823632681E+03  0.12500000000E+03 0.  0.
         25    1    1    2    0    0 -0.12863964683E+03  0.17321283220E+03  0.41622650709E+03  0.48520134911E+03  0.12500000000E+03 0.  0.
</event>
<event>
 5    0  0.5655767E-005  0.2752816E+03  0.7546771E-02  0.1098294E+00
         21   -1    0    0  502  501  0.00000000000E+00  0.00000000000E+00  0.26984738435E+03  0.26984738435E+03  0.00000000000E+00 0. -1.
         21   -1    0    0  501  502 -0.00000000000E+00 -0.00000000000E+00 -0.28082532795E+03  0.28082532795E+03  0.00000000000E+00 0. -1.
         25    1    1    2    0    0  0.18802624858E+02  0.85091369420E+02  0.86214554664E+02  0.17507720950E+03  0.12500000000E+03 0.  0.
         25    1    1    2    0    0  0.10184073511E+03 -0.63780445639E+02  0.39719377997E+01  0.17343660762E+03  0.12500000000E+03 0.  0.
         25    1    1    2    0    0 -0.12064335997E+03 -0.21310923781E+02 -0.10116443607E+03  0.20215889518E+03  0.12500000000E+03 0.  0.
</event>
<event>
 5    0  0.5655767E-005  0.4016755E+03  0.7546771E-02  0.1043201E+00
         21   -1    0    0  502  501  0.00000000000E+00  0.00000000000E+00  0.21763296070E+03  0.21763296070E+03  0.00000000000E+00 0. -1.
         21   -1    0    0  501  502 -0.00000000000E+00 -0.00000000000E+00 -0.74135481603E+03  0.74135481603E+03  0.00000000000E+00 0. -1.
         25    1    1    2    0    0 -0.74794615877E+02  0.18453647382E+03 -0.18328924288E+01  0.23510913259E+03  0.12500000000E+03 0.  0.
         25    1    1    2    0    0 -0.90547381015E+02 -0.24123840402E+03 -0.28477658838E+03  0.40387807699E+03  0.12500000000E+03 0.  0.
         25    1    1    2    0    0  0.16534199689E+03  0.56701930205E+02 -0.23711237452E+03  0.32000056715E+03  0.12500000000E+03 0.  0.
</event>
<event>
 5    0  0.5655767E-005  0.5105098E+03  0.7546771E-02  0.1011072E+00
         21   -1    0    0  502  501  0.00000000000E+00  0.00000000000E+00  0.36398330351E+03  0.36398330351E+03  0.00000000000E+00 0. -1.
         21   -1    0    0  501  502 -0.00000000000E+00 -0.00000000000E+00 -0.71602261161E+03  0.71602261161E+03  0.00000000000E+00 0. -1.
         25    1    1    2    0    0 -0.32279214009E+03  0.14927438842E+03 -0.34044801369E+03  0.50794434613E+03  0.12500000000E+03 0.  0.
         25    1    1    2    0    0  0.30962834053E+03 -0.22481315779E+03  0.63165209830E+02  0.40746227912E+03  0.12500000000E+03 0.  0.
         25    1    1    2    0    0  0.13163799562E+02  0.75538769370E+02 -0.74756504236E+02  0.16459928986E+03  0.12500000000E+03 0.  0.
</event>
<event>
 5    0  0.7426044E-005  0.2572092E+03  0.7546771E-02  0.1108832E+00
         21   -1    0    0  502  501  0.00000000000E+00  0.00000000000E+00  0.62771451198E+03  0.62771451198E+03  0.00000000000E+00 0.  1.
         21   -1    0    0  501  502 -0.00000000000E+00 -0.00000000000E+00 -0.10539275793E+03  0.10539275793E+03  0.00000000000E+00 0.  1.
         25    1    1    2    0    0 -0.53810852445E+02 -0.21080453925E+01  0.35199562318E+03  0.37739365447E+03  0.12500000000E+03 0.  0.
         25    1    1    2    0    0 -0.56525410254E+02 -0.34756289390E+02  0.78263041239E+02  0.16171958843E+03  0.12500000000E+03 0.  0.
         25    1    1    2    0    0  0.11033626270E+03  0.36864334783E+02  0.92063089634E+02  0.19399402702E+03  0.12500000000E+03 0.  0.
</event>
<event>
 5    0  0.5655767E-005  0.3180082E+03  0.7546771E-02  0.1076570E+00
         21   -1    0    0  502  501  0.00000000000E+00  0.00000000000E+00  0.63545053557E+03  0.63545053557E+03  0.00000000000E+00 0.  1.
         21   -1    0    0  501  502 -0.00000000000E+00 -0.00000000000E+00 -0.15914572298E+03  0.15914572298E+03  0.00000000000E+00 0.  1.
         25    1    1    2    0    0  0.10581381362E+03  0.16704342508E+03  0.10920484696E+03  0.25816809953E+03  0.12500000000E+03 0.  0.
         25    1    1    2    0    0  0.27340305543E+02 -0.99599435837E+02  0.60158930801E+02  0.17294981030E+03  0.12500000000E+03 0.  0.
         25    1    1    2    0    0 -0.13315411916E+03 -0.67443989240E+02  0.30694103483E+03  0.36347834873E+03  0.12500000000E+03 0.  0.
</event>
<event>
 5    0  0.5655767E-005  0.2596670E+03  0.7546771E-02  0.1107343E+00
         21   -1    0    0  502  501  0.00000000000E+00  0.00000000000E+00  0.29977953965E+03  0.29977953965E+03  0.00000000000E+00 0. -1.
         21   -1    0    0  501  502 -0.00000000000E+00 -0.00000000000E+00 -0.22492176550E+03  0.22492176550E+03  0.00000000000E+00 0. -1.
         25    1    1    2    0    0  0.80749945803E+02  0.32163530951E+02  0.99515439591E+02  0.18188834264E+03  0.12500000000E+03 0.  0.
         25    1    1    2    0    0  0.55152812655E+02  0.21283411284E+02  0.32937532330E+02  0.14214322838E+03  0.12500000000E+03 0.  0.
         25    1    1    2    0    0 -0.13590275846E+03 -0.53446942235E+02 -0.57595197767E+02  0.20066973413E+03  0.12500000000E+03 0.  0.
</event>
<event>
 5    0  0.5742747E-005  0.2976263E+03  0.7546771E-02  0.1086433E+00
         21   -1    0    0  502  501  0.00000000000E+00  0.00000000000E+00  0.13078276752E+03  0.13078276752E+03  0.00000000000E+00 0.  1.
         21   -1    0    0  501  502 -0.00000000000E+00 -0.00000000000E+00 -0.67731697387E+03  0.67731697387E+03  0.00000000000E+00 0.  1.
         25    1    1    2    0    0 -0.12649352449E+03  0.11889230202E+01 -0.88059025042E+02  0.19844751741E+03  0.12500000000E+03 0.  0.
         25    1    1    2    0    0 -0.13028346577E+02 -0.11990872958E+03 -0.25587379949E+03  0.30926403365E+03  0.12500000000E+03 0.  0.
         25    1    1    2    0    0  0.13952187107E+03  0.11871980656E+03 -0.20260138182E+03  0.30038819033E+03  0.12500000000E+03 0.  0.
</event>
<event>
 5    0  0.5655767E-005  0.2452439E+03  0.7546771E-02  0.1116348E+00
         21   -1    0    0  502  501  0.00000000000E+00  0.00000000000E+00  0.71071123891E+03  0.71071123891E+03  0.00000000000E+00 0.  1.
         21   -1    0    0  501  502 -0.00000000000E+00 -0.00000000000E+00 -0.84625923313E+02  0.84625923313E+02  0.00000000000E+00 0.  1.
         25    1    1    2    0    0 -0.95299359376E+01  0.30070459429E+02  0.15683023352E+03  0.20301668492E+03  0.12500000000E+03 0.  0.
         25    1    1    2    0    0 -0.33870612751E+01 -0.11778921034E+03  0.11608243677E+03  0.20733041837E+03  0.12500000000E+03 0.  0.
         25    1    1    2    0    0  0.12916997213E+02  0.87718750915E+02  0.35317264532E+03  0.38499005894E+03  0.12500000000E+03 0.  0.
</event>
<event>
 5    0  0.5655767E-005  0.5871621E+03  0.7546771E-02  0.9932405E-01
         21   -1    0    0  502  501  0.00000000000E+00  0.00000000000E+00  0.45308612565E+03  0.45308612565E+03  0.00000000000E+00 0.  1.
         21   -1    0    0  501  502 -0.00000000000E+00 -0.00000000000E+00 -0.76091337749E+03  0.76091337749E+03  0.00000000000E+00 0.  1.
         25    1    1    2    0    0 -0.46966159203E+03  0.22244960451E+03 -0.13267836818E+03  0.55072169647E+03  0.12500000000E+03 0.  0.
         25    1    1    2    0    0  0.30527891281E+03 -0.25787259712E+03 -0.56544078778E+02  0.42251121144E+03  0.12500000000E+03 0.  0.
         25    1    1    2    0    0  0.16438267923E+03  0.35422992602E+02 -0.11860480489E+03  0.24076659523E+03  0.12500000000E+03 0.  0.
</event>
<event>
 5    0  0.6418153E-005  0.4226621E+03  0.7546771E-02  0.1036203E+00
         21   -1    0    0  502  501  0.00000000000E+00  0.00000000000E+00  0.18613528464E+03  0.18613528464E+03  0.00000000000E+00 0. -1.
         21   -1    0    0  501  502 -0.00000000000E+00 -0.00000000000E+00 -0.95974938396E+03  0.95974938396E+03  0.00000000000E+00 0. -1.
         25    1    1    2    0    0 -0.17912117272E+03 -0.20523585550E+03 -0.31831253895E+03  0.43721164595E+03  0.12500000000E+03 0.  0.
         25    1    1    2    0    0  0.47850183479E+02  0.18816011915E+03 -0.47238985274E+03  0.52580513831E+03  0.12500000000E+03 0.  0.
         25    1    1    2    0    0  0.13127098924E+03  0.17075736350E+02  0.17088292361E+02  0.18286788434E+03  0.12500000000E+03 0.  0.
</event>
<event>
 5    0  0.5655767E-005  0.2478605E+03  0.7546771E-02  0.1114664E+00
         21   -1    0    0  502  501  0.00000000000E+00  0.00000000000E+00  0.71409209165E+03  0.71409209165E+03  0.00000000000E+00 0. -1.
         21   -1    0    0  501  502 -0.00000000000E+00 -0.00000000000E+00 -0.86032068843E+02  0.86032068843E+02  0.00000000000E+00 0. -1.
         25    1    1    2    0    0  0.26865971432E+02  0.10833193204E+03  0.19996018738E+03  0.26089588816E+03  0.12500000000E+03 0.  0.
         25    1    1    2    0    0  0.23294582882E+01  0.25920900298E+02  0.25570165161E+03  0.28580702245E+03  0.12500000000E+03 0.  0.
         25    1    1    2    0    0 -0.29195429720E+02 -0.13425283234E+03  0.17239818382E+03  0.25342124988E+03  0.12500000000E+03 0.  0.
</event>
<event>
 5    0  0.5655767E-005  0.3891597E+03  0.7546771E-02  0.1047599E+00
         21   -1    0    0  502  501  0.00000000000E+00  0.00000000000E+00  0.18788439775E+04  0.18788439775E+04  0.00000000000E+00 0.  1.
         21   -1    0    0  501  502 -0.00000000000E+00 -0.00000000000E+00 -0.80605551824E+02  0.80605551824E+02  0.00000000000E+00 0.  1.
         25    1    1    2    0    0  0.90911040651E+02  0.28681884520E+02  0.13281490377E+03  0.20579666294E+03  0.12500000000E+03 0.  0.
         25    1    1    2    0    0 -0.72031531711E+02  0.21407408037E+03  0.59108564447E+03  0.64499883143E+03  0.12500000000E+03 0.  0.
         25    1    1    2    0    0 -0.18879508940E+02 -0.24275596489E+03  0.10743378775E+04  0.11086540350E+04  0.12500000000E+03 0.  0.
</event>
<event>
 5    0  0.5655767E-005  0.1967736E+03  0.7546771E-02  0.1152490E+00
         21   -1    0    0  502  501  0.00000000000E+00  0.00000000000E+00  0.16715958387E+03  0.16715958387E+03  0.00000000000E+00 0. -1.
         21   -1    0    0  501  502 -0.00000000000E+00 -0.00000000000E+00 -0.23163402520E+03  0.23163402520E+03  0.00000000000E+00 0. -1.
         25    1    1    2    0    0  0.74067757154E+01  0.58580136003E+01 -0.44518408107E+01  0.12543522446E+03  0.12500000000E+03 0.  0.
         25    1    1    2    0    0  0.15392237915E+02 -0.26377549167E+02 -0.65791778905E+02  0.14452077449E+03  0.12500000000E+03 0.  0.
         25    1    1    2    0    0 -0.22799013630E+02  0.20519535567E+02  0.57691783847E+01  0.12883761012E+03  0.12500000000E+03 0.  0.
</event>
<event>
 5    0  0.6326874E-005  0.3345707E+03  0.7546771E-02  0.1069132E+00
         21   -1    0    0  502  501  0.00000000000E+00  0.00000000000E+00  0.61851449444E+03  0.61851449444E+03  0.00000000000E+00 0.  1.
         21   -1    0    0  501  502 -0.00000000000E+00 -0.00000000000E+00 -0.18097807643E+03  0.18097807643E+03  0.00000000000E+00 0.  1.
         25    1    1    2    0    0 -0.39853300810E+02 -0.10815701734E+03  0.13275656795E+02  0.17055048827E+03  0.12500000000E+03 0.  0.
         25    1    1    2    0    0  0.15296265397E+03 -0.17451645620E+02  0.57971449925E+02  0.20661031545E+03  0.12500000000E+03 0.  0.
         25    1    1    2    0    0 -0.11310935316E+03  0.12560866296E+03  0.36628931129E+03  0.42233176716E+03  0.12500000000E+03 0.  0.
</event>
<event>
 5    0  0.5655767E-005  0.2848133E+03  0.7546771E-02  0.1093089E+00
         21   -1    0    0  502  501  0.00000000000E+00  0.00000000000E+00  0.97493645485E+02  0.97493645485E+02  0.00000000000E+00 0. -1.
         21   -1    0    0  501  502 -0.00000000000E+00 -0.00000000000E+00 -0.83203989619E+03  0.83203989619E+03  0.00000000000E+00 0. -1.
         25    1    1    2    0    0  0.60733107237E+01  0.59876140696E+02 -0.29133280514E+03  0.32267916059E+03  0.12500000000E+03 0.  0.
         25    1    1    2    0    0  0.58709262221E+02 -0.16200972064E+03 -0.13243889446E+03  0.25071694761E+03  0.12500000000E+03 0.  0.
         25    1    1    2    0    0 -0.64782572945E+02  0.10213357994E+03 -0.31077455111E+03  0.35613743348E+03  0.12500000000E+03 0.  0.
</event>
<event>
 5    0  0.5655767E-005  0.2643052E+03  0.7546771E-02  0.1104584E+00
         21   -1    0    0  502  501  0.00000000000E+00  0.00000000000E+00  0.42602479573E+03  0.42602479573E+03  0.00000000000E+00 0.  1.
         21   -1    0    0  501  502 -0.00000000000E+00 -0.00000000000E+00 -0.16397459110E+03  0.16397459110E+03  0.00000000000E+00 0.  1.
         25    1    1    2    0    0 -0.10045993351E+02  0.12047528194E+03  0.46889285371E+02  0.18010780278E+03  0.12500000000E+03 0.  0.
         25    1    1    2    0    0  0.15744415989E+02  0.35209695616E+02  0.23185517187E+02  0.13285397061E+03  0.12500000000E+03 0.  0.
         25    1    1    2    0    0 -0.56984226376E+01 -0.15568497755E+03  0.19197540207E+03  0.27703761343E+03  0.12500000000E+03 0.  0.
</event>
<event>
 5    0  0.5655767E-005  0.2961166E+03  0.7546771E-02  0.1087198E+00
         21   -1    0    0  502  501  0.00000000000E+00  0.00000000000E+00  0.34970065393E+03  0.34970065393E+03  0.00000000000E+00 0.  1.
         21   -1    0    0  501  502 -0.00000000000E+00 -0.00000000000E+00 -0.25074315534E+03  0.25074315534E+03  0.00000000000E+00 0.  1.
         25    1    1    2    0    0  0.30592824888E+02  0.46999552993E+01 -0.12354859002E+03  0.17845801918E+03  0.12500000000E+03 0.  0.
         25    1    1    2    0    0  0.88709474093E+01  0.12282591741E+03  0.10180570439E+03  0.20286522901E+03  0.12500000000E+03 0.  0.
         25    1    1    2    0    0 -0.39463772298E+02 -0.12752587271E+03  0.12070038422E+03  0.21912056108E+03  0.12500000000E+03 0.  0.
</event>
<event>
 5    0  0.5655767E-005  0.3945163E+03  0.7546771E-02  0.1045695E+00
         21   -1    0    0  502  501  0.00000000000E+00  0.00000000000E+00  0.27250371657E+03  0.27250371657E+03  0.00000000000E+00 0.  1.
         21   -1    0    0  501  502 -0.00000000000E+00 -0.00000000000E+00 -0.57115971452E+03  0.57115971452E+03  0.00000000000E+00 0.  1.
         25    1    1    2    0    0  0.17253287360E+03 -0.20675510159E+03  0.22410964986E+02  0.29772893016E+03  0.12500000000E+03 0.  0.
         25    1    1    2    0    0 -0.12758444254E+03  0.18383446618E+03 -0.32145637280E+03  0.41113513660E+03  0.12500000000E+03 0.  0.
         25    1    1    2    0    0 -0.44948431059E+02  0.22920635407E+02  0.38940986788E+00  0.13479936432E+03  0.12500000000E+03 0.  0.
</event>
<event>
 5    0  0.5655767E-005  0.2314990E+03  0.7546771E-02  0.1125589E+00
         21   -1    0    0  502  501  0.00000000000E+00  0.00000000000E+00  0.31648951235E+03  0.31648951235E+03  0.00000000000E+00 0.  1.
         21   -1    0    0  501  502 -0.00000000000E+00 -0.00000000000E+00 -0.16933189047E+03  0.16933189047E+03  0.00000000000E+00 0.  1.
         25    1    1    2    0    0  0.89873986420E+02  0.25170605536E+02 -0.27998472103E+02  0.15849229400E+03  0.12500000000E+03 0.  0.
         25    1    1    2    0    0 -0.33103022207E+02 -0.15621415505E+02  0.12592651780E+03  0.18116933125E+03  0.12500000000E+03 0.  0.
         25    1    1    2    0    0 -0.56770964213E+02 -0.95491900309E+01  0.49229576178E+02  0.14615977757E+03  0.12500000000E+03 0.  0.
</event>
<event>
 5    0  0.5655767E-005  0.4503276E+03  0.7546771E-02  0.1027624E+00
         21   -1    0    0  502  501  0.00000000000E+00  0.00000000000E+00  0.72353872256E+03  0.72353872256E+03  0.00000000000E+00 0. -1.
         21   -1    0    0  501  502 -0.00000000000E+00 -0.00000000000E+00 -0.28028209607E+03  0.28028209607E+03  0.00000000000E+00 0. -1.
         25    1    1    2    0    0 -0.23268021560E+03  0.21715272489E+03  0.14409191772E+03  0.37105642349E+03  0.12500000000E+03 0.  0.
         25    1    1    2    0    0  0.26027962023E+03 -0.14987844554E+03  0.35152881058E+03  0.47896402142E+03  0.12500000000E+03 0.  0.
         25    1    1    2    0    0 -0.27599404628E+02 -0.67274279347E+02 -0.52364101811E+02  0.15380037372E+03  0.12500000000E+03 0.  0.
</event>
<event>
 5    0  0.5655767E-005  0.3445351E+03  0.7546771E-02  0.1064881E+00
         21   -1    0    0  502  501  0.00000000000E+00  0.00000000000E+00  0.41880351393E+03  0.41880351393E+03  0.00000000000E+00 0. -1.
         21   -1    0    0  501  502 -0.00000000000E+00 -0.00000000000E+00 -0.28343698408E+03  0.28343698408E+03  0.00000000000E+00 0. -1.
         25    1    1    2    0    0 -0.98168128846E+02  0.14613480165E+03 -0.93532072736E+02  0.23529898089E+03  0.12500000000E+03 0.  0.
         25    1    1    2    0    0  0.87368969623E+01  0.37452769553E+02  0.18011975786E+03  0.22259193715E+03  0.12500000000E+03 0.  0.
         25    1    1    2    0    0  0.89431231884E+02 -0.18358757121E+03  0.48778844724E+02  0.24434957997E+03  0.12500000000E+03 0.  0.
</event>
<event>
 5    0  0.5660715E-005  0.2604829E+03  0.7546771E-02  0.1106853E+00
         21   -1    0    0  502  501  0.00000000000E+00  0.00000000000E+00  0.12559256972E+03  0.12559256972E+03  0.00000000000E+00 0. -1.
         21   -1    0    0  501  502 -0.00000000000E+00 -0.00000000000E+00 -0.54024961684E+03  0.54024961684E+03  0.00000000000E+00 0. -1.
         25    1    1    2    0    0 -0.13646151560E+03  0.23404490496E+01 -0.29138693014E+03  0.34519351964E+03  0.12500000000E+03 0.  0.
         25    1    1    2    0    0  0.58889903316E+02 -0.23591996327E+02 -0.24809911605E+02  0.14235566275E+03  0.12500000000E+03 0.  0.
         25    1    1    2    0    0  0.77571612279E+02  0.21251547277E+02 -0.98460205372E+02  0.17829300417E+03  0.12500000000E+03 0.  0.
</event>
<event>
 5    0  0.5655767E-005  0.3405147E+03  0.7546771E-02  0.1066577E+00
         21   -1    0    0  502  501  0.00000000000E+00  0.00000000000E+00  0.56949584624E+03  0.56949584624E+03  0.00000000000E+00 0.  1.
         21   -1    0    0  501  502 -0.00000000000E+00 -0.00000000000E+00 -0.20360163990E+03  0.20360163990E+03  0.00000000000E+00 0.  1.
         25    1    1    2    0    0  0.17115319864E+03  0.17791639623E+03  0.80470076416E+02  0.28818066321E+03  0.12500000000E+03 0.  0.
         25    1    1    2    0    0 -0.42705214271E+02 -0.41006338904E+01  0.48651279454E+02  0.14082790035E+03  0.12500000000E+03 0.  0.
         25    1    1    2    0    0 -0.12844798437E+03 -0.17381576234E+03  0.23677285046E+03  0.34408892258E+03  0.12500000000E+03 0.  0.
</event>
<event>
 5    0  0.5908868E-005  0.2559758E+03  0.7546771E-02  0.1109585E+00
         21   -1    0    0  502  501  0.00000000000E+00  0.00000000000E+00  0.11324674625E+03  0.11324674625E+03  0.00000000000E+00 0. -1.
         21   -1    0    0  501  502 -0.00000000000E+00 -0.00000000000E+00 -0.57859145882E+03  0.57859145882E+03  0.00000000000E+00 0. -1.
         25    1    1    2    0    0 -0.17112375960E+02  0.85443652590E+02 -0.15732913620E+03  0.21902262046E+03  0.12500000000E+03 0.  0.
         25    1    1    2    0    0  0.85369032951E+02 -0.11121513260E+03 -0.83192702274E+02  0.20543296526E+03  0.12500000000E+03 0.  0.
         25    1    1    2    0    0 -0.68256656992E+02  0.25771480007E+02 -0.22482287411E+03  0.26738261934E+03  0.12500000000E+03 0.  0.
</event>
<event>
 5    0  0.5655767E-005  0.2902449E+03  0.7546771E-02  0.1090221E+00
         21   -1    0    0  502  501  0.00000000000E+00  0.00000000000E+00  0.21161590004E+03  0.21161590004E+03  0.00000000000E+00 0.  1.
         21   -1    0    0  501  502 -0.00000000000E+00 -0.00000000000E+00 -0.39808978345E+03  0.39808978345E+03  0.00000000000E+00 0.  1.
         25    1    1    2    0    0 -0.11580484505E+02 -0.33894936787E+02  0.61727096025E+02  0.14393821155E+03  0.12500000000E+03 0.  0.
         25    1    1    2    0    0  0.52394380297E+01  0.13322090890E+03 -0.24537827721E+03  0.30595875736E+03  0.12500000000E+03 0.  0.
         25    1    1    2    0    0  0.63410464752E+01 -0.99325972111E+02 -0.28227022286E+01  0.15980871457E+03  0.12500000000E+03 0.  0.
</event>
<event>
 5    0  0.6750740E-005  0.3314440E+03  0.7546771E-02  0.1070500E+00
         21   -1    0    0  502  501  0.00000000000E+00  0.00000000000E+00  0.43933399012E+03  0.43933399012E+03  0.00000000000E+00 0. -1.
         21   -1    0    0  501  502 -0.00000000000E+00 -0.00000000000E+00 -0.25004929298E+03  0.25004929298E+03  0.00000000000E+00 0. -1.
         25    1    1    2    0    0  0.78542249220E+02  0.16060096957E+03 -0.55328357716E+02  0.22505062432E+03  0.12500000000E+03 0.  0.
         25    1    1    2    0    0 -0.63640493858E+02 -0.15626974181E+03  0.25415089462E+02  0.21152132619E+03  0.12500000000E+03 0.  0.
         25    1    1    2    0    0 -0.14901755362E+02 -0.43312277630E+01  0.21919796540E+03  0.25281133258E+03  0.12500000000E+03 0.  0.
</event>
<event>
 5    0  0.6653930E-005  0.2995489E+03  0.7546771E-02  0.1085466E+00
         21   -1    0    0  502  501  0.00000000000E+00  0.00000000000E+00  0.45950519972E+03  0.45950519972E+03  0.00000000000E+00 0.  1.
         21   -1    0    0  501  502 -0.00000000000E+00 -0.00000000000E+00 -0.19527429096E+03  0.19527429096E+03  0.00000000000E+00 0.  1.
         25    1    1    2    0    0  0.92400571271E+02  0.10836015623E+02 -0.27492711610E+02  0.15822810748E+03  0.12500000000E+03 0.  0.
         25    1    1    2    0    0  0.19047058225E+02  0.10701255039E+03  0.37016779712E+02  0.16973425803E+03  0.12500000000E+03 0.  0.
         25    1    1    2    0    0 -0.11144762950E+03 -0.11784856601E+03  0.25470684066E+03  0.32681712518E+03  0.12500000000E+03 0.  0.
</event>
<event>
 5    0  0.5655767E-005  0.2409512E+03  0.7546771E-02  0.1119161E+00
         21   -1    0    0  502  501  0.00000000000E+00  0.00000000000E+00  0.14692881168E+03  0.14692881168E+03  0.00000000000E+00 0.  1.
         21   -1    0    0  501  502 -0.00000000000E+00 -0.00000000000E+00 -0.39514035220E+03  0.39514035220E+03  0.00000000000E+00 0.  1.
         25    1    1    2    0    0  0.80346969405E+02  0.44293473727E+02 -0.52059071428E+02  0.16356250862E+03  0.12500000000E+03 0.  0.
         25    1    1    2    0    0  0.40431483109E+02 -0.52240195294E+02 -0.45996915384E+02  0.14867568414E+03  0.12500000000E+03 0.  0.
         25    1    1    2    0    0 -0.12077845251E+03  0.79467215669E+01 -0.15015555371E+03  0.22983097112E+03  0.12500000000E+03 0.  0.
</event>
<event>
 5    0  0.5655767E-005  0.3416672E+03  0.7546771E-02  0.1066088E+00
         21   -1    0    0  502  501  0.00000000000E+00  0.00000000000E+00  0.70066190811E+02  0.70066190811E+02  0.00000000000E+00 0. -1.
         21   -1    0    0  501  502 -0.00000000000E+00 -0.00000000000E+00 -0.16660884732E+04  0.16660884732E+04  0.00000000000E+00 0. -1.
         25    1    1    2    0    0 -0.15169862389E+03  0.14351245260E+03 -0.51746931606E+03  0.57184594919E+03  0.12500000000E+03 0.  0.
         25    1    1    2    0    0  0.25014748077E+02  0.15279583649E+02 -0.73468204192E+03  0.74581626827E+03  0.12500000000E+03 0.  0.
         25    1    1    2    0    0  0.12668387581E+03 -0.15879203625E+03 -0.34387092443E+03  0.41849244657E+03  0.12500000000E+03 0.  0.
</event>
<event>
 5    0  0.5655767E-005  0.2595725E+03  0.7546771E-02  0.1107400E+00
         21   -1    0    0  502  501  0.00000000000E+00  0.00000000000E+00  0.19878831957E+04  0.19878831957E+04  0.00000000000E+00 0. -1.
         21   -1    0    0  501  502 -0.00000000000E+00 -0.00000000000E+00 -0.33894291094E+02  0.33894291094E+02  0.00000000000E+00 0. -1.
         25    1    1    2    0    0  0.55483918359E+01  0.46894456006E+02  0.11985636140E+04  0.12059890595E+04  0.12500000000E+03 0.  0.
         25    1    1    2    0    0 -0.46227316413E+02 -0.76549790559E+02  0.25684217203E+03  0.29931544657E+03  0.12500000000E+03 0.  0.
         25    1    1    2    0    0  0.40678924577E+02  0.29655334553E+02  0.49858311857E+03  0.51647298080E+03  0.12500000000E+03 0.  0.
</event>
<event>
 5    0  0.5655767E-005  0.3662706E+03  0.7546771E-02  0.1056128E+00
         21   -1    0    0  502  501  0.00000000000E+00  0.00000000000E+00  0.47675233651E+03  0.47675233651E+03  0.00000000000E+00 0. -1.
         21   -1    0    0  501  502 -0.00000000000E+00 -0.00000000000E+00 -0.28139172145E+03  0.28139172145E+03  0.00000000000E+00 0. -1.
         25    1    1    2    0    0  0.12506760876E+03 -0.14253856575E+03  0.78148434994E+01  0.22725584979E+03  0.12500000000E+03 0.  0.
         25    1    1    2    0    0 -0.13815744936E+02 -0.12386144461E+03  0.10599240100E+03  0.20589298516E+03  0.12500000000E+03 0.  0.
         25    1    1    2    0    0 -0.11125186382E+03  0.26640001036E+03  0.81553370563E+02  0.32499522300E+03  0.12500000000E+03 0.  0.
</event>
<event>
 5    0  0.5655767E-005  0.2377492E+03  0.7546771E-02  0.1121301E+00
         21   -1    0    0  502  501  0.00000000000E+00  0.00000000000E+00  0.22677781447E+03  0.22677781447E+03  0.00000000000E+00 0.  1.
         21   -1    0    0  501  502 -0.00000000000E+00 -0.00000000000E+00 -0.24925146873E+03  0.24925146873E+03  0.00000000000E+00 0.  1.
         25    1    1    2    0    0 -0.27813226981E+01  0.22938063933E+02  0.87394952667E+01  0.12741769622E+03  0.12500000000E+03 0.  0.
         25    1    1    2    0    0 -0.14336524637E+02  0.10570258984E+03  0.67706260415E+01  0.16446706301E+03  0.12500000000E+03 0.  0.
         25    1    1    2    0    0  0.17117847335E+02 -0.12864065377E+03 -0.37983775568E+02  0.18414452397E+03  0.12500000000E+03 0.  0.
</event>
<event>
 5    0  0.5655767E-005  0.2405219E+03  0.7546771E-02  0.1119446E+00
         21   -1    0    0  502  501  0.00000000000E+00  0.00000000000E+00  0.34702053257E+03  0.34702053257E+03  0.00000000000E+00 0.  1.
         21   -1    0    0  501  502 -0.00000000000E+00 -0.00000000000E+00 -0.16670705902E+03  0.16670705902E+03  0.00000000000E+00 0.  1.
         25    1    1    2    0    0  0.10174794788E+03  0.16045284252E+02  0.15785068847E+03  0.22616793737E+03  0.12500000000E+03 0.  0.
         25    1    1    2    0    0 -0.38427516172E+02 -0.48811344508E+02  0.32457762277E+02  0.14330990086E+03  0.12500000000E+03 0.  0.
         25    1    1    2    0    0 -0.63320431707E+02  0.32766060255E+02 -0.99949771950E+01  0.14424975336E+03  0.12500000000E+03 0.  0.
</event>
<event>
 5    0  0.6698769E-005  0.3173984E+03  0.7546771E-02  0.1076853E+00
         21   -1    0    0  502  501  0.00000000000E+00  0.00000000000E+00  0.43619649691E+03  0.43619649691E+03  0.00000000000E+00 0. -1.
         21   -1    0    0  501  502 -0.00000000000E+00 -0.00000000000E+00 -0.23095491344E+03  0.23095491344E+03  0.00000000000E+00 0. -1.
         25    1    1    2    0    0 -0.19241469475E+03 -0.45840865622E+02  0.19900012437E+03  0.30716583341E+03  0.12500000000E+03 0.  0.
         25    1    1    2    0    0  0.53529761259E+02  0.12338810692E+02 -0.72355848654E+02  0.15452524203E+03  0.12500000000E+03 0.  0.
         25    1    1    2    0    0  0.13888493349E+03  0.33502054930E+02  0.78597307753E+02  0.20546033491E+03  0.12500000000E+03 0.  0.
</event>
<event>
 5    0  0.5655767E-005  0.2785780E+03  0.7546771E-02  0.1096468E+00
         21   -1    0    0  502  501  0.00000000000E+00  0.00000000000E+00  0.59013429769E+03  0.59013429769E+03  0.00000000000E+00 0.  1.
         21   -1    0    0  501  502 -0.00000000000E+00 -0.00000000000E+00 -0.13150512828E+03  0.13150512828E+03  0.00000000000E+00 0.  1.
         25    1    1    2    0    0  0.78826232752E+01  0.52856632626E+02  0.12756547625E+03  0.18642400622E+03  0.12500000000E+03 0.  0.
         25    1    1    2    0    0 -0.14500592352E+03  0.62718615923E+02  0.14600304105E+03  0.24880158889E+03  0.12500000000E+03 0.  0.
         25    1    1    2    0    0  0.13712330025E+03 -0.11557524855E+03  0.18506065211E+03  0.28641383086E+03  0.12500000000E+03 0.  0.
</event>
<event>
 5    0  0.5655767E-005  0.3112173E+03  0.7546771E-02  0.1079764E+00
         21   -1    0    0  502  501  0.00000000000E+00  0.00000000000E+00  0.35207848491E+03  0.35207848491E+03  0.00000000000E+00 0.  1.
         21   -1    0    0  501  502 -0.00000000000E+00 -0.00000000000E+00 -0.27509830439E+03  0.27509830439E+03  0.00000000000E+00 0.  1.
         25    1    1    2    0    0  0.29760261452E+02  0.77230098853E+02  0.15323305795E+02  0.15069825822E+03  0.12500000000E+03 0.  0.
         25    1    1    2    0    0 -0.10974138889E+03  0.13102493425E+03  0.62438731503E+02  0.22075846761E+03  0.12500000000E+03 0.  0.
         25    1    1    2    0    0  0.79981127433E+02 -0.20825503310E+03 -0.78185678220E+00  0.25572006347E+03  0.12500000000E+03 0.  0.
</event>
<event>
 5    0  0.5655767E-005  0.2352044E+03  0.7546771E-02  0.1123029E+00
         21   -1    0    0  502  501  0.00000000000E+00  0.00000000000E+00  0.28564355994E+02  0.28564355994E+02  0.00000000000E+00 0.  1.
         21   -1    0    0  501  502 -0.00000000000E+00 -0.00000000000E+00 -0.19367188562E+04  0.19367188562E+04  0.00000000000E+00 0.  1.
         25    1    1    2    0    0 -0.31154960246E+02  0.43491620809E+02 -0.42709684995E+03  0.44821743816E+03  0.12500000000E+03 0.  0.
         25    1    1    2    0    0  0.47508379387E+02 -0.23720899357E+02 -0.30211552805E+03  0.33123785935E+03  0.12500000000E+03 0.  0.
         25    1    1    2    0    0 -0.16353419141E+02 -0.19770721451E+02 -0.11789421222E+04  0.11858279147E+04  0.12500000000E+03 0.  0.
</event>
<event>
 5    0  0.5655767E-005  0.2866202E+03  0.7546771E-02  0.1092127E+00
         21   -1    0    0  502  501  0.00000000000E+00  0.00000000000E+00  0.12610173329E+04  0.12610173329E+04  0.00000000000E+00 0. -1.
         21   -1    0    0  501  502 -0.00000000000E+00 -0.00000000000E+00 -0.65146727309E+02  0.65146727309E+02  0.00000000000E+00 0. -1.
         25    1    1    2    0    0  0.11688527209E+03  0.39572908804E+02  0.54261767221E+03  0.57033947797E+03  0.12500000000E+03 0.  0.
         25    1    1    2    0    0 -0.15198521983E+03 -0.59968539931E+02  0.21196351972E+03  0.29537986817E+03  0.12500000000E+03 0.  0.
         25    1    1    2    0    0  0.35099947743E+02  0.20395631126E+02  0.44128941363E+03  0.46044471404E+03  0.12500000000E+03 0.  0.
</event>
<event>
 5    0  0.5655767E-005  0.2831994E+03  0.7546771E-02  0.1093954E+00
         21   -1    0    0  502  501  0.00000000000E+00  0.00000000000E+00  0.13660713442E+03  0.13660713442E+03  0.00000000000E+00 0.  1.
         21   -1    0    0  501  502 -0.00000000000E+00 -0.00000000000E+00 -0.58709875038E+03  0.58709875038E+03  0.00000000000E+00 0.  1.
         25    1    1    2    0    0  0.87668295192E+02 -0.92545038897E+02 -0.14818406766E+03  0.23202118893E+03  0.12500000000E+03 0.  0.
         25    1    1    2    0    0  0.59305099059E+02 -0.49157988124E+02 -0.13656315870E+03  0.20051957232E+03  0.12500000000E+03 0.  0.
         25    1    1    2    0    0 -0.14697339425E+03  0.14170302702E+03 -0.16574438960E+03  0.29116512354E+03  0.12500000000E+03 0.  0.
</event>
<event>
 5    0  0.5655767E-005  0.2600431E+03  0.7546771E-02  0.1107117E+00
         21   -1    0    0  502  501  0.00000000000E+00  0.00000000000E+00  0.25747058614E+03  0.25747058614E+03  0.00000000000E+00 0. -1.
         21   -1    0    0  501  502 -0.00000000000E+00 -0.00000000000E+00 -0.26264141460E+03  0.26264141460E+03  0.00000000000E+00 0. -1.
         25    1    1    2    0    0 -0.11345976891E+03  0.60043897348E+01  0.11756380295E+03  0.20580432362E+03  0.12500000000E+03 0.  0.
         25    1    1    2    0    0  0.70619230237E+02 -0.13035836760E+02 -0.11007417191E+03  0.18137897354E+03  0.12500000000E+03 0.  0.
         25    1    1    2    0    0  0.42840538675E+02  0.70314470251E+01 -0.12660459507E+02  0.13292870358E+03  0.12500000000E+03 0.  0.
</event>
<event>
 5    0  0.6715782E-005  0.4480662E+03  0.7546771E-02  0.1028300E+00
         21   -1    0    0  502  501  0.00000000000E+00  0.00000000000E+00  0.36795622876E+03  0.36795622876E+03  0.00000000000E+00 0. -1.
         21   -1    0    0  501  502 -0.00000000000E+00 -0.00000000000E+00 -0.54561750960E+03  0.54561750960E+03  0.00000000000E+00 0. -1.
         25    1    1    2    0    0 -0.55754974155E+02  0.21717051919E+03 -0.26940569174E+02  0.25811324223E+03  0.12500000000E+03 0.  0.
         25    1    1    2    0    0 -0.10519570307E+03 -0.16158115613E+03  0.15981285725E+03  0.27989239951E+03  0.12500000000E+03 0.  0.
         25    1    1    2    0    0  0.16095067723E+03 -0.55589363062E+02 -0.31053356891E+03  0.37556809662E+03  0.12500000000E+03 0.  0.
</event>
<event>
 5    0  0.5772094E-005  0.2851246E+03  0.7546771E-02  0.1092922E+00
         21   -1    0    0  502  501  0.00000000000E+00  0.00000000000E+00  0.30018104074E+03  0.30018104074E+03  0.00000000000E+00 0. -1.
         21   -1    0    0  501  502 -0.00000000000E+00 -0.00000000000E+00 -0.27082341285E+03  0.27082341285E+03  0.00000000000E+00 0. -1.
         25    1    1    2    0    0 -0.14315680371E+02  0.25172772610E+02 -0.12254249021E+03  0.17742679925E+03  0.12500000000E+03 0.  0.
         25    1    1    2    0    0  0.65047456477E+02  0.35733254837E+02  0.19143384291E+03  0.24037461036E+03  0.12500000000E+03 0.  0.
         25    1    1    2    0    0 -0.50731776106E+02 -0.60906027447E+02 -0.39533724812E+02  0.15320304398E+03  0.12500000000E+03 0.  0.
</event>
<event>
 5    0  0.5655767E-005  0.3699694E+03  0.7546771E-02  0.1054705E+00
         21   -1    0    0  502  501  0.00000000000E+00  0.00000000000E+00  0.55351626790E+03  0.55351626790E+03  0.00000000000E+00 0. -1.
         21   -1    0    0  501  502 -0.00000000000E+00 -0.00000000000E+00 -0.24728702187E+03  0.24728702187E+03  0.00000000000E+00 0. -1.
         25    1    1    2    0    0  0.92535948103E+02 -0.21125135907E+03  0.64435615592E+02  0.27012402144E+03  0.12500000000E+03 0.  0.
         25    1    1    2    0    0 -0.47922731050E+02  0.28750544377E+03  0.18657363727E+03  0.36795473971E+03  0.12500000000E+03 0.  0.
         25    1    1    2    0    0 -0.44613217053E+02 -0.76254084696E+02  0.55219993163E+02  0.16272452862E+03  0.12500000000E+03 0.  0.
</event>
<event>
 5    0  0.6152529E-005  0.3231021E+03  0.7546771E-02  0.1074230E+00
         21   -1    0    0  502  501  0.00000000000E+00  0.00000000000E+00  0.34818253738E+03  0.34818253738E+03  0.00000000000E+00 0.  1.
         21   -1    0    0  501  502 -0.00000000000E+00 -0.00000000000E+00 -0.29982830152E+03  0.29982830152E+03  0.00000000000E+00 0.  1.
         25    1    1    2    0    0 -0.91918256393E+02 -0.43381975160E+02  0.12359972163E+03  0.20305874227E+03  0.12500000000E+03 0.  0.
         25    1    1    2    0    0 -0.89413256581E+02  0.87977061672E+02 -0.12249891667E+03  0.21532691058E+03  0.12500000000E+03 0.  0.
         25    1    1    2    0    0  0.18133151297E+03 -0.44595086512E+02  0.47253430907E+02  0.22962518606E+03  0.12500000000E+03 0.  0.
</event>
<event>
 5    0  0.6449141E-005  0.5725849E+03  0.7546771E-02  0.9963975E-01
         21   -1    0    0  502  501  0.00000000000E+00  0.00000000000E+00  0.36332436805E+03  0.36332436805E+03  0.00000000000E+00 0. -1.
         21   -1    0    0  501  502 -0.00000000000E+00 -0.00000000000E+00 -0.90237130490E+03  0.90237130490E+03  0.00000000000E+00 0. -1.
         25    1    1    2    0    0 -0.83401200452E+02 -0.59728442481E+02  0.16713644704E+03  0.23255717363E+03  0.12500000000E+03 0.  0.
         25    1    1    2    0    0  0.14466088050E+03 -0.29431198161E+03 -0.46547891698E+03  0.58295963413E+03  0.12500000000E+03 0.  0.
         25    1    1    2    0    0 -0.61259680044E+02  0.35404042409E+03 -0.24070446690E+03  0.45017886520E+03  0.12500000000E+03 0.  0.
</event>
<event>
 5    0  0.5655767E-005  0.3281359E+03  0.7546771E-02  0.1071965E+00
         21   -1    0    0  502  501  0.00000000000E+00  0.00000000000E+00  0.89542263739E+03  0.89542263739E+03  0.00000000000E+00 0. -1.
         21   -1    0    0  501  502 -0.00000000000E+00 -0.00000000000E+00 -0.12024845637E+03  0.12024845637E+03  0.00000000000E+00 0. -1.
         25    1    1    2    0    0 -0.15939954504E+02  0.12157579280E+03  0.47140764839E+03  0.50287665138E+03  0.12500000000E+03 0.  0.
         25    1    1    2    0    0  0.10668830044E+03  0.44561281419E+02  0.61862523181E+02  0.18116311166E+03  0.12500000000E+03 0.  0.
         25    1    1    2    0    0 -0.90748345936E+02 -0.16613707422E+03  0.24190400946E+03  0.33163133072E+03  0.12500000000E+03 0.  0.
</event>
<event>
 5    0  0.5655767E-005  0.2990359E+03  0.7546771E-02  0.1085724E+00
         21   -1    0    0  502  501  0.00000000000E+00  0.00000000000E+00  0.21363572126E+03  0.21363572126E+03  0.00000000000E+00 0.  1.
         21   -1    0    0  501  502 -0.00000000000E+00 -0.00000000000E+00 -0.41857439714E+03  0.41857439714E+03  0.00000000000E+00 0.  1.
         25    1    1    2    0    0 -0.15226755598E+03  0.12473617991E+03 -0.58237815203E+02  0.24033552858E+03  0.12500000000E+03 0.  0.
         25    1    1    2    0    0  0.16683209629E+03 -0.44024617796E+02 -0.73265323238E+02  0.22530850608E+03  0.12500000000E+03 0.  0.
         25    1    1    2    0    0 -0.14564540316E+02 -0.80711562111E+02 -0.73435537439E+02  0.16656608374E+03  0.12500000000E+03 0.  0.
</event>
<event>
 5    0  0.5655767E-005  0.3009549E+03  0.7546771E-02  0.1084764E+00
         21   -1    0    0  502  501  0.00000000000E+00  0.00000000000E+00  0.44205531007E+02  0.44205531007E+02  0.00000000000E+00 0. -1.
         21   -1    0    0  501  502 -0.00000000000E+00 -0.00000000000E+00 -0.20489258841E+04  0.20489258841E+04  0.00000000000E+00 0. -1.
         25    1    1    2    0    0  0.92525893855E+02 -0.89859167165E+02 -0.56781228227E+03  0.59554302855E+03  0.12500000000E+03 0.  0.
         25    1    1    2    0    0  0.39387579467E+02 -0.34882827654E+02 -0.99033387864E+03  0.99957710271E+03  0.12500000000E+03 0.  0.
         25    1    1    2    0    0 -0.13191347332E+03  0.12474199482E+03 -0.44657419218E+03  0.49801128384E+03  0.12500000000E+03 0.  0.
</event>
<event>
 5    0  0.5655767E-005  0.3752500E+03  0.7546771E-02  0.1052703E+00
         21   -1    0    0  502  501  0.00000000000E+00  0.00000000000E+00  0.12843228609E+04  0.12843228609E+04  0.00000000000E+00 0. -1.
         21   -1    0    0  501  502 -0.00000000000E+00 -0.00000000000E+00 -0.10963956304E+03  0.10963956304E+03  0.00000000000E+00 0. -1.
         25    1    1    2    0    0  0.15994925487E+03  0.73862797206E+02  0.20431331641E+03  0.29733551454E+03  0.12500000000E+03 0.  0.
         25    1    1    2    0    0  0.13201930429E+03  0.10638476979E+02  0.35565379496E+03  0.39957088954E+03  0.12500000000E+03 0.  0.
         25    1    1    2    0    0 -0.29196855916E+03 -0.84501274185E+02  0.61471618646E+03  0.69705601982E+03  0.12500000000E+03 0.  0.
</event>
<event>
 5    0  0.5655767E-005  0.3274962E+03  0.7546771E-02  0.1072250E+00
         21   -1    0    0  502  501  0.00000000000E+00  0.00000000000E+00  0.28031402541E+03  0.28031402541E+03  0.00000000000E+00 0. -1.
         21   -1    0    0  501  502 -0.00000000000E+00 -0.00000000000E+00 -0.38262003063E+03  0.38262003063E+03  0.00000000000E+00 0. -1.
         25    1    1    2    0    0  0.54540005226E+00 -0.79165690124E+02 -0.48611034248E+02  0.15574189098E+03  0.12500000000E+03 0.  0.
         25    1    1    2    0    0  0.20892609772E+03  0.38144332459E+02  0.24796614276E+02  0.24767918057E+03  0.12500000000E+03 0.  0.
         25    1    1    2    0    0 -0.20947149777E+03  0.41021357665E+02 -0.78491585249E+02  0.25951298449E+03  0.12500000000E+03 0.  0.
</event>
<event>
 5    0  0.5908048E-005  0.3805871E+03  0.7546771E-02  0.1050717E+00
         21   -1    0    0  502  501  0.00000000000E+00  0.00000000000E+00  0.63721948793E+03  0.63721948793E+03  0.00000000000E+00 0.  1.
         21   -1    0    0  501  502 -0.00000000000E+00 -0.00000000000E+00 -0.22731022588E+03  0.22731022588E+03  0.00000000000E+00 0.  1.
         25    1    1    2    0    0 -0.26202401139E+03 -0.10404379783E+03  0.19581551496E+03  0.36530865074E+03  0.12500000000E+03 0.  0.
         25    1    1    2    0    0  0.14352828199E+03 -0.28739071178E+02  0.20550230236E+03  0.28157147976E+03  0.12500000000E+03 0.  0.
         25    1    1    2    0    0  0.11849572940E+03  0.13278286900E+03  0.85914447335E+01  0.21764958330E+03  0.12500000000E+03 0.  0.
</event>
<event>
 5    0  0.5655767E-005  0.3519037E+03  0.7546771E-02  0.1061836E+00
         21   -1    0    0  502  501  0.00000000000E+00  0.00000000000E+00  0.16684837197E+03  0.16684837197E+03  0.00000000000E+00 0. -1.
         21   -1    0    0  501  502 -0.00000000000E+00 -0.00000000000E+00 -0.74220796973E+03  0.74220796973E+03  0.00000000000E+00 0. -1.
         25    1    1    2    0    0  0.23436294679E+01 -0.17313807911E+03 -0.47792341600E+03  0.52346736154E+03  0.12500000000E+03 0.  0.
         25    1    1    2    0    0  0.32037438295E+01  0.20760066519E+03 -0.50317830204E+02  0.24751804823E+03  0.12500000000E+03 0.  0.
         25    1    1    2    0    0 -0.55473732974E+01 -0.34462586086E+02 -0.47118351547E+02  0.13807093193E+03  0.12500000000E+03 0.  0.
</event>
<event>
 5    0  0.5655767E-005  0.3298166E+03  0.7546771E-02  0.1071218E+00
         21   -1    0    0  502  501  0.00000000000E+00  0.00000000000E+00  0.79297841321E+03  0.79297841321E+03  0.00000000000E+00 0.  1.
         21   -1    0    0  501  502 -0.00000000000E+00 -0.00000000000E+00 -0.13717771411E+03  0.13717771411E+03  0.00000000000E+00 0.  1.
         25    1    1    2    0    0 -0.53737254994E+02  0.86853548750E+01  0.20982081412E+02  0.13794337862E+03  0.12500000000E+03 0.  0.
         25    1    1    2    0    0 -0.14259013317E+03 -0.40779416223E+02  0.46044187330E+03  0.49962648604E+03  0.12500000000E+03 0.  0.
         25    1    1    2    0    0  0.19632738816E+03  0.32094061348E+02  0.17437674439E+03  0.29258626266E+03  0.12500000000E+03 0.  0.
</event>
<event>
 5    0  0.5655767E-005  0.2257427E+03  0.7546771E-02  0.1129673E+00
         21   -1    0    0  502  501  0.00000000000E+00  0.00000000000E+00  0.27067777762E+03  0.27067777762E+03  0.00000000000E+00 0.  1.
         21   -1    0    0  501  502 -0.00000000000E+00 -0.00000000000E+00 -0.18826732164E+03  0.18826732164E+03  0.00000000000E+00 0.  1.
         25    1    1    2    0    0  0.41965795722E+02  0.75104769574E+02  0.10288606178E+03  0.18333683790E+03  0.12500000000E+03 0.  0.
         25    1    1    2    0    0 -0.40161724944E+02 -0.70971634682E+02 -0.27174766791E+01  0.14927264237E+03  0.12500000000E+03 0.  0.
         25    1    1    2    0    0 -0.18040707785E+01 -0.41331348923E+01 -0.17758129124E+02  0.12633561899E+03  0.12500000000E+03 0.  0.
</event>
<event>
 5    0  0.5655767E-005  0.3853855E+03  0.7546771E-02  0.1048961E+00
         21   -1    0    0  502  501  0.00000000000E+00  0.00000000000E+00  0.20715897842E+03  0.20715897842E+03  0.00000000000E+00 0.  1.
         21   -1    0    0  501  502 -0.00000000000E+00 -0.00000000000E+00 -0.71694675123E+03  0.71694675123E+03  0.00000000000E+00 0.  1.
         25    1    1    2    0    0 -0.40331653201E+02 -0.68572852994E+02  0.12025591082E+03  0.19082809674E+03  0.12500000000E+03 0.  0.
         25    1    1    2    0    0 -0.99898521905E+02  0.81039430783E+02 -0.38072034594E+03  0.42085637198E+03  0.12500000000E+03 0.  0.
         25    1    1    2    0    0  0.14023017511E+03 -0.12466577789E+02 -0.24932333769E+03  0.31242126094E+03  0.12500000000E+03 0.  0.
</event>
<event>
 5    0  0.5655767E-005  0.2623238E+03  0.7546771E-02  0.1105755E+00
         21   -1    0    0  502  501  0.00000000000E+00  0.00000000000E+00  0.12073241711E+03  0.12073241711E+03  0.00000000000E+00 0.  1.
         21   -1    0    0  501  502 -0.00000000000E+00 -0.00000000000E+00 -0.56996917827E+03  0.56996917827E+03  0.00000000000E+00 0.  1.
         25    1    1    2    0    0 -0.58135382487E+02  0.41318499481E+02 -0.66982204599E+02  0.15874053304E+03  0.12500000000E+03 0.  0.
         25    1    1    2    0    0  0.14764226063E+03 -0.63132842250E+02 -0.15094661439E+03  0.25336509880E+03  0.12500000000E+03 0.  0.
         25    1    1    2    0    0 -0.89506878142E+02  0.21814342769E+02 -0.23130794218E+03  0.27859596354E+03  0.12500000000E+03 0.  0.
</event>
<event>
 5    0  0.5655767E-005  0.2307758E+03  0.7546771E-02  0.1126095E+00
         21   -1    0    0  502  501  0.00000000000E+00  0.00000000000E+00  0.22296310752E+03  0.22296310752E+03  0.00000000000E+00 0.  1.
         21   -1    0    0  501  502 -0.00000000000E+00 -0.00000000000E+00 -0.23886226962E+03  0.23886226962E+03  0.00000000000E+00 0.  1.
         25    1    1    2    0    0 -0.92025205816E+02 -0.21539498173E+02 -0.30959302410E+02  0.15973749370E+03  0.12500000000E+03 0.  0.
         25    1    1    2    0    0  0.33085342632E+02 -0.10899956750E+02  0.72857626144E+02  0.14881761536E+03  0.12500000000E+03 0.  0.
         25    1    1    2    0    0  0.58939863185E+02  0.32439454923E+02 -0.57797485837E+02  0.15327026808E+03  0.12500000000E+03 0.  0.
</event>
<event>
 5    0  0.5655767E-005  0.2703178E+03  0.7546771E-02  0.1101098E+00
         21   -1    0    0  502  501  0.00000000000E+00  0.00000000000E+00  0.14881278364E+03  0.14881278364E+03  0.00000000000E+00 0. -1.
         21   -1    0    0  501  502 -0.00000000000E+00 -0.00000000000E+00 -0.49103107977E+03  0.49103107977E+03  0.00000000000E+00 0. -1.
         25    1    1    2    0    0  0.49315970194E+02  0.39656739331E+02  0.28008882853E+02  0.14287833779E+03  0.12500000000E+03 0.  0.
         25    1    1    2    0    0 -0.50117798117E+02  0.58365848205E+02 -0.27510414018E+03  0.31181028506E+03  0.12500000000E+03 0.  0.
         25    1    1    2    0    0  0.80182792358E+00 -0.98022587536E+02 -0.95123038809E+02  0.18515524056E+03  0.12500000000E+03 0.  0.
</event>
<event>
 5    0  0.5655767E-005  0.3914564E+03  0.7546771E-02  0.1046779E+00
         21   -1    0    0  502  501  0.00000000000E+00  0.00000000000E+00  0.39074035847E+03  0.39074035847E+03  0.00000000000E+00 0.  1.
         21   -1    0    0  501  502 -0.00000000000E+00 -0.00000000000E+00 -0.39217368602E+03  0.39217368602E+03  0.00000000000E+00 0.  1.
         25    1    1    2    0    0  0.22047450076E+03  0.19774879900E+03 -0.94442471683E+02  0.33504921049E+03  0.12500000000E+03 0.  0.
         25    1    1    2    0    0 -0.22520167792E+03 -0.95210828263E+02  0.39090832665E+02  0.27736977260E+03  0.12500000000E+03 0.  0.
         25    1    1    2    0    0  0.47271771574E+01 -0.10253797074E+03  0.53918311466E+02  0.17049506139E+03  0.12500000000E+03 0.  0.
</event>
<event>
 5    0  0.5655767E-005  0.3411730E+03  0.7546771E-02  0.1066297E+00
         21   -1    0    0  502  501  0.00000000000E+00  0.00000000000E+00  0.20666201221E+03  0.20666201221E+03  0.00000000000E+00 0. -1.
         21   -1    0    0  501  502 -0.00000000000E+00 -0.00000000000E+00 -0.56323375040E+03  0.56323375040E+03  0.00000000000E+00 0. -1.
         25    1    1    2    0    0  0.10125926099E+03 -0.33685727381E+02 -0.36731358027E+03  0.40240829069E+03  0.12500000000E+03 0.  0.
         25    1    1    2    0    0 -0.16171034960E+03  0.73118068017E+02  0.38608057666E+02  0.22048145309E+03  0.12500000000E+03 0.  0.
         25    1    1    2    0    0  0.60451088612E+02 -0.39432340636E+02 -0.27866215582E+02  0.14700601883E+03  0.12500000000E+03 0.  0.
</event>
<event>
 5    0  0.5655767E-005  0.2521208E+03  0.7546771E-02  0.1111972E+00
         21   -1    0    0  502  501  0.00000000000E+00  0.00000000000E+00  0.60496432224E+03  0.60496432224E+03  0.00000000000E+00 0. -1.
         21   -1    0    0  501  502 -0.00000000000E+00 -0.00000000000E+00 -0.10507214088E+03  0.10507214088E+03  0.00000000000E+00 0. -1.
         25    1    1    2    0    0  0.26640741013E+02 -0.39307955936E+02  0.30079090884E+03  0.32917322996E+03  0.12500000000E+03 0.  0.
         25    1    1    2    0    0  0.51908684233E+02 -0.54015544374E+02  0.60057121515E+02  0.15761994917E+03  0.12500000000E+03 0.  0.
         25    1    1    2    0    0 -0.78549425247E+02  0.93323500310E+02  0.13904415100E+03  0.22324328398E+03  0.12500000000E+03 0.  0.
</event>
<event>
 5    0  0.5655767E-005  0.2688831E+03  0.7546771E-02  0.1101921E+00
         21   -1    0    0  502  501  0.00000000000E+00  0.00000000000E+00  0.28965222615E+03  0.28965222615E+03  0.00000000000E+00 0. -1.
         21   -1    0    0  501  502 -0.00000000000E+00 -0.00000000000E+00 -0.24960318305E+03  0.24960318305E+03  0.00000000000E+00 0. -1.
         25    1    1    2    0    0 -0.73554802121E+02 -0.51362819863E+01 -0.18102902270E+02  0.14625117223E+03  0.12500000000E+03 0.  0.
         25    1    1    2    0    0  0.16501005771E+03 -0.63161996554E+02  0.56651978615E+02  0.22372349818E+03  0.12500000000E+03 0.  0.
         25    1    1    2    0    0 -0.91455255594E+02  0.68298278541E+02  0.14999667503E+01  0.16928073880E+03  0.12500000000E+03 0.  0.
</event>
<event>
 5    0  0.5655767E-005  0.2552922E+03  0.7546771E-02  0.1110005E+00
         21   -1    0    0  502  501  0.00000000000E+00  0.00000000000E+00  0.79624495890E+02  0.79624495890E+02  0.00000000000E+00 0.  1.
         21   -1    0    0  501  502 -0.00000000000E+00 -0.00000000000E+00 -0.81851799881E+03  0.81851799881E+03  0.00000000000E+00 0.  1.
         25    1    1    2    0    0  0.91860684210E+02 -0.81706549043E+02 -0.13980095712E+03  0.22424016828E+03  0.12500000000E+03 0.  0.
         25    1    1    2    0    0 -0.11469505982E+03  0.53062621322E+02 -0.32499793165E+03  0.37043117323E+03  0.12500000000E+03 0.  0.
         25    1    1    2    0    0  0.22834375613E+02  0.28643927721E+02 -0.27409461416E+03  0.30347115319E+03  0.12500000000E+03 0.  0.
</event>
<event>
 5    0  0.5655767E-005  0.2555761E+03  0.7546771E-02  0.1109831E+00
         21   -1    0    0  502  501  0.00000000000E+00  0.00000000000E+00  0.15430765179E+04  0.15430765179E+04  0.00000000000E+00 0.  1.
         21   -1    0    0  501  502 -0.00000000000E+00 -0.00000000000E+00 -0.42330462289E+02  0.42330462289E+02  0.00000000000E+00 0.  1.
         25    1    1    2    0    0  0.99511809779E+01 -0.29403912703E+02  0.18712036382E+03  0.22716215935E+03  0.12500000000E+03 0.  0.
         25    1    1    2    0    0 -0.83352955282E+02  0.93971907353E+00  0.10040447267E+04  0.10152238233E+04  0.12500000000E+03 0.  0.
         25    1    1    2    0    0  0.73401774305E+02  0.28464193630E+02  0.30958096508E+03  0.34302099751E+03  0.12500000000E+03 0.  0.
</event>
<event>
 5    0  0.5655767E-005  0.3267308E+03  0.7546771E-02  0.1072593E+00
         21   -1    0    0  502  501  0.00000000000E+00  0.00000000000E+00  0.12608839357E+04  0.12608839357E+04  0.00000000000E+00 0.  1.
         21   -1    0    0  501  502 -0.00000000000E+00 -0.00000000000E+00 -0.84665203284E+02  0.84665203284E+02  0.00000000000E+00 0.  1.
         25    1    1    2    0    0 -0.14149982222E+03  0.10753897953E+02  0.10182754942E+03  0.21478290395E+03  0.12500000000E+03 0.  0.
         25    1    1    2    0    0  0.65574904493E+02  0.80778692942E+02  0.69828614927E+03  0.71697546094E+03  0.12500000000E+03 0.  0.
         25    1    1    2    0    0  0.75924917728E+02 -0.91532590896E+02  0.37610503377E+03  0.41379077413E+03  0.12500000000E+03 0.  0.
</event>
<event>
 5    0  0.5655767E-005  0.2508861E+03  0.7546771E-02  0.1112746E+00
         21   -1    0    0  502  501  0.00000000000E+00  0.00000000000E+00  0.22914428896E+03  0.22914428896E+03  0.00000000000E+00 0.  1.
         21   -1    0    0  501  502 -0.00000000000E+00 -0.00000000000E+00 -0.27469094019E+03  0.27469094019E+03  0.00000000000E+00 0.  1.
         25    1    1    2    0    0 -0.13086788010E+03  0.10148285343E+02 -0.21884501147E+02  0.18257415241E+03  0.12500000000E+03 0.  0.
         25    1    1    2    0    0  0.28721887587E+02 -0.67285893604E+02 -0.37044309475E+02  0.14949789018E+03  0.12500000000E+03 0.  0.
         25    1    1    2    0    0  0.10214599252E+03  0.57137608261E+02  0.13382159390E+02  0.17176318655E+03  0.12500000000E+03 0.  0.
</event>
<event>
 5    0  0.5655767E-005  0.3015947E+03  0.7546771E-02  0.1084446E+00
         21   -1    0    0  502  501  0.00000000000E+00  0.00000000000E+00  0.94148121987E+03  0.94148121987E+03  0.00000000000E+00 0. -1.
         21   -1    0    0  501  502 -0.00000000000E+00 -0.00000000000E+00 -0.96613024205E+02  0.96613024205E+02  0.00000000000E+00 0. -1.
         25    1    1    2    0    0  0.13272598647E+03 -0.12222691331E+03  0.14022417052E+03  0.26046770207E+03  0.12500000000E+03 0.  0.
         25    1    1    2    0    0 -0.11682097223E+03  0.86182347190E+02  0.34161178526E+03  0.39166075671E+03  0.12500000000E+03 0.  0.
         25    1    1    2    0    0 -0.15905014243E+02  0.36044566117E+02  0.36303223988E+03  0.38596578530E+03  0.12500000000E+03 0.  0.
</event>
<event>
 5    0  0.5655767E-005  0.3220343E+03  0.7546771E-02  0.1074717E+00
         21   -1    0    0  502  501  0.00000000000E+00  0.00000000000E+00  0.49716356115E+02  0.49716356115E+02  0.00000000000E+00 0.  1.
         21   -1    0    0  501  502 -0.00000000000E+00 -0.00000000000E+00 -0.20859557005E+04  0.20859557005E+04  0.00000000000E+00 0.  1.
         25    1    1    2    0    0  0.10061410915E+03 -0.14844426122E+02 -0.17304647259E+03  0.23646064709E+03  0.12500000000E+03 0.  0.
         25    1    1    2    0    0 -0.49496788689E+02  0.11514755540E+03 -0.62293110764E+03  0.64759328013E+03  0.12500000000E+03 0.  0.
         25    1    1    2    0    0 -0.51117320465E+02 -0.10030312928E+03 -0.12402617642E+04  0.12516181294E+04  0.12500000000E+03 0.  0.
</event>
<event>
 5    0  0.6007878E-005  0.3139284E+03  0.7546771E-02  0.1078478E+00
         21   -1    0    0  502  501  0.00000000000E+00  0.00000000000E+00  0.64116942754E+03  0.64116942754E+03  0.00000000000E+00 0.  1.
         21   -1    0    0  501  502 -0.00000000000E+00 -0.00000000000E+00 -0.15370512167E+03  0.15370512167E+03  0.00000000000E+00 0.  1.
         25    1    1    2    0    0 -0.14112847555E+03 -0.55134808740E+02  0.90296110525E+02  0.21618390625E+03  0.12500000000E+03 0.  0.
         25    1    1    2    0    0  0.33392387867E+02  0.64012956986E+02  0.38708268446E+03  0.41312312310E+03  0.12500000000E+03 0.  0.
         25    1    1    2    0    0  0.10773608768E+03 -0.88781482456E+01  0.10085510880E+02  0.16556751986E+03  0.12500000000E+03 0.  0.
</event>
<event>
 5    0  0.5655767E-005  0.2878520E+03  0.7546771E-02  0.1091476E+00
         21   -1    0    0  502  501  0.00000000000E+00  0.00000000000E+00  0.73253799438E+02  0.73253799438E+02  0.00000000000E+00 0. -1.
         21   -1    0    0  501  502 -0.00000000000E+00 -0.00000000000E+00 -0.11311187538E+04  0.11311187538E+04  0.00000000000E+00 0. -1.
         25    1    1    2    0    0  0.88450267300E+02  0.49847172812E+02 -0.37205163778E+03  0.40540795700E+03  0.12500000000E+03 0.  0.
         25    1    1    2    0    0 -0.26986310849E+02  0.22485539486E+01 -0.62556667736E+03  0.63850762313E+03  0.12500000000E+03 0.  0.
         25    1    1    2    0    0 -0.61463956451E+02 -0.52095726761E+02 -0.60246639253E+02  0.16045697314E+03  0.12500000000E+03 0.  0.
</event>
<event>
 5    0  0.5655767E-005  0.3531044E+03  0.7546771E-02  0.1061348E+00
         21   -1    0    0  502  501  0.00000000000E+00  0.00000000000E+00  0.63970937800E+03  0.63970937800E+03  0.00000000000E+00 0. -1.
         21   -1    0    0  501  502 -0.00000000000E+00 -0.00000000000E+00 -0.19490526816E+03  0.19490526816E+03  0.00000000000E+00 0. -1.
         25    1    1    2    0    0 -0.10147038507E+03  0.11139030616E+03  0.92529913071E+02  0.21654289221E+03  0.12500000000E+03 0.  0.
         25    1    1    2    0    0 -0.53257159597E+02  0.67062982224E+02 -0.27203422050E+02  0.15394412884E+03  0.12500000000E+03 0.  0.
         25    1    1    2    0    0  0.15472754467E+03 -0.17845328838E+03  0.37947761882E+03  0.46412762512E+03  0.12500000000E+03 0.  0.
</event>
<event>
 5    0  0.5655767E-005  0.2737378E+03  0.7546771E-02  0.1099159E+00
         21   -1    0    0  502  501  0.00000000000E+00  0.00000000000E+00  0.89798024277E+03  0.89798024277E+03  0.00000000000E+00 0.  1.
         21   -1    0    0  501  502 -0.00000000000E+00 -0.00000000000E+00 -0.83445453620E+02  0.83445453620E+02  0.00000000000E+00 0.  1.
         25    1    1    2    0    0 -0.59443038840E+02 -0.34770311623E+02  0.41143970791E+03  0.43548832669E+03  0.12500000000E+03 0.  0.
         25    1    1    2    0    0 -0.13175760153E+02  0.84284314255E+01  0.10111524200E+02  0.12637991151E+03  0.12500000000E+03 0.  0.
         25    1    1    2    0    0  0.72618798993E+02  0.26341880198E+02  0.39298355704E+03  0.41955745819E+03  0.12500000000E+03 0.  0.
</event>
<event>
 5    0  0.5655767E-005  0.8181578E+03  0.7546771E-02  0.9534100E-01
         21   -1    0    0  502  501  0.00000000000E+00  0.00000000000E+00  0.76245037909E+03  0.76245037909E+03  0.00000000000E+00 0. -1.
         21   -1    0    0  501  502 -0.00000000000E+00 -0.00000000000E+00 -0.87793537982E+03  0.87793537982E+03  0.00000000000E+00 0. -1.
         25    1    1    2    0    0  0.67902136320E+02 -0.45214130599E+03  0.30867280042E+02  0.47499499964E+03  0.12500000000E+03 0.  0.
         25    1    1    2    0    0 -0.38464979311E+02  0.66796382708E+03  0.22519111306E+03  0.71693184217E+03  0.12500000000E+03 0.  0.
         25    1    1    2    0    0 -0.29437157009E+02 -0.21582252109E+03 -0.37154339383E+03  0.44845891709E+03  0.12500000000E+03 0.  0.
</event>
<event>
 5    0  0.5655767E-005  0.2840095E+03  0.7546771E-02  0.1093519E+00
         21   -1    0    0  502  501  0.00000000000E+00  0.00000000000E+00  0.11246433289E+03  0.11246433289E+03  0.00000000000E+00 0.  1.
         21   -1    0    0  501  502 -0.00000000000E+00 -0.00000000000E+00 -0.71721762745E+03  0.71721762745E+03  0.00000000000E+00 0.  1.
         25    1    1    2    0    0  0.32590324604E+02  0.68115288384E+02 -0.96296781986E+01  0.14635420210E+03  0.12500000000E+03 0.  0.
         25    1    1    2    0    0  0.36168281637E+02 -0.97321706091E+02 -0.44696244004E+03  0.47558393778E+03  0.12500000000E+03 0.  0.
         25    1    1    2    0    0 -0.68758606241E+02  0.29206417707E+02 -0.14816117632E+03  0.20774382045E+03  0.12500000000E+03 0.  0.
</event>
<event>
 5    0  0.6576848E-005  0.2843908E+03  0.7546771E-02  0.1093315E+00
         21   -1    0    0  502  501  0.00000000000E+00  0.00000000000E+00  0.45395035899E+03  0.45395035899E+03  0.00000000000E+00 0. -1.
         21   -1    0    0  501  502 -0.00000000000E+00 -0.00000000000E+00 -0.17816511137E+03  0.17816511137E+03  0.00000000000E+00 0. -1.
         25    1    1    2    0    0  0.11498734186E+03 -0.16111356785E+03  0.57269042849E+02  0.24100708247E+03  0.12500000000E+03 0.  0.
         25    1    1    2    0    0 -0.34418412398E+02  0.54431909010E+02  0.81975176686E+02  0.16276482858E+03  0.12500000000E+03 0.  0.
         25    1    1    2    0    0 -0.80568929462E+02  0.10668165884E+03  0.13654102808E+03  0.22834355930E+03  0.12500000000E+03 0.  0.
</event>
<event>
 5    0  0.5655767E-005  0.2912017E+03  0.7546771E-02  0.1089723E+00
         21   -1    0    0  502  501  0.00000000000E+00  0.00000000000E+00  0.18150256774E+03  0.18150256774E+03  0.00000000000E+00 0.  1.
         21   -1    0    0  501  502 -0.00000000000E+00 -0.00000000000E+00 -0.46720245098E+03  0.46720245098E+03  0.00000000000E+00 0.  1.
         25    1    1    2    0    0  0.19868895117E+02  0.19381286418E+03 -0.17721984670E+03  0.29153057023E+03  0.12500000000E+03 0.  0.
         25    1    1    2    0    0 -0.36610823009E+02 -0.45538916865E+02 -0.82575068610E+02  0.16080356733E+03  0.12500000000E+03 0.  0.
         25    1    1    2    0    0  0.16741927892E+02 -0.14827394732E+03 -0.25904967935E+02  0.19637088116E+03  0.12500000000E+03 0.  0.
</event>
<event>
 5    0  0.5655767E-005  0.2688445E+03  0.7546771E-02  0.1101943E+00
         21   -1    0    0  502  501  0.00000000000E+00  0.00000000000E+00  0.20935685671E+03  0.20935685671E+03  0.00000000000E+00 0. -1.
         21   -1    0    0  501  502 -0.00000000000E+00 -0.00000000000E+00 -0.34523515438E+03  0.34523515438E+03  0.00000000000E+00 0. -1.
         25    1    1    2    0    0 -0.10903051427E+03  0.63067735262E+02  0.25296421133E+02  0.17924871323E+03  0.12500000000E+03 0.  0.
         25    1    1    2    0    0  0.11198376423E+03 -0.97455308194E+02 -0.14981714225E+03  0.24516948558E+03  0.12500000000E+03 0.  0.
         25    1    1    2    0    0 -0.29532499645E+01  0.34387572932E+02 -0.11357576556E+02  0.13017381228E+03  0.12500000000E+03 0.  0.
</event>
<event>
 5    0  0.6139827E-005  0.3227898E+03  0.7546771E-02  0.1074372E+00
         21   -1    0    0  502  501  0.00000000000E+00  0.00000000000E+00  0.17697810066E+03  0.17697810066E+03  0.00000000000E+00 0.  1.
         21   -1    0    0  501  502 -0.00000000000E+00 -0.00000000000E+00 -0.58873547362E+03  0.58873547362E+03  0.00000000000E+00 0.  1.
         25    1    1    2    0    0 -0.82797694495E+02 -0.60770248836E+01  0.83407047409E+01  0.15028957316E+03  0.12500000000E+03 0.  0.
         25    1    1    2    0    0  0.13994180783E+03 -0.14128813654E+03 -0.29936166255E+03  0.38051077791E+03  0.12500000000E+03 0.  0.
         25    1    1    2    0    0 -0.57144113335E+02  0.14736516142E+03 -0.12073641515E+03  0.23491322320E+03  0.12500000000E+03 0.  0.
</event>
<event>
 5    0  0.5655767E-005  0.2537107E+03  0.7546771E-02  0.1110982E+00
         21   -1    0    0  502  501  0.00000000000E+00  0.00000000000E+00  0.81921321949E+02  0.81921321949E+02  0.00000000000E+00 0. -1.
         21   -1    0    0  501  502 -0.00000000000E+00 -0.00000000000E+00 -0.78574297255E+03  0.78574297255E+03  0.00000000000E+00 0. -1.
         25    1    1    2    0    0  0.10755686076E+03 -0.39223974436E+02 -0.18993715147E+03  0.25457438986E+03  0.12500000000E+03 0.  0.
         25    1    1    2    0    0  0.17983594268E+02 -0.47857392506E+02 -0.17713545504E+03  0.22274583972E+03  0.12500000000E+03 0.  0.
         25    1    1    2    0    0 -0.12554045503E+03  0.87081366942E+02 -0.33674904410E+03  0.39034406492E+03  0.12500000000E+03 0.  0.
</event>
<event>
 5    0  0.5655767E-005  0.3577683E+03  0.7546771E-02  0.1059471E+00
         21   -1    0    0  502  501  0.00000000000E+00  0.00000000000E+00  0.56661044969E+03  0.56661044969E+03  0.00000000000E+00 0. -1.
         21   -1    0    0  501  502 -0.00000000000E+00 -0.00000000000E+00 -0.22590149023E+03  0.22590149023E+03  0.00000000000E+00 0. -1.
         25    1    1    2    0    0  0.95568141681E+02  0.38177303414E+02  0.30143221047E+03  0.34216538941E+03  0.12500000000E+03 0.  0.
         25    1    1    2    0    0 -0.57045879593E+02 -0.27365073357E+02  0.19915470897E+03  0.24349677148E+03  0.12500000000E+03 0.  0.
         25    1    1    2    0    0 -0.38522262088E+02 -0.10812230057E+02 -0.15987795998E+03  0.20684977902E+03  0.12500000000E+03 0.  0.
</event>
<event>
 5    0  0.5655767E-005  0.2928761E+03  0.7546771E-02  0.1088857E+00
         21   -1    0    0  502  501  0.00000000000E+00  0.00000000000E+00  0.68605600030E+03  0.68605600030E+03  0.00000000000E+00 0.  1.
         21   -1    0    0  501  502 -0.00000000000E+00 -0.00000000000E+00 -0.12502830170E+03  0.12502830170E+03  0.00000000000E+00 0.  1.
         25    1    1    2    0    0  0.25014270679E+02  0.37189224214E+02  0.17085903401E+03  0.21639445843E+03  0.12500000000E+03 0.  0.
         25    1    1    2    0    0 -0.17426756611E+03 -0.97274504707E+01  0.83379076838E+02  0.23030605364E+03  0.12500000000E+03 0.  0.
         25    1    1    2    0    0  0.14925329543E+03 -0.27461773743E+02  0.30678958774E+03  0.36438378993E+03  0.12500000000E+03 0.  0.
</event>
<event>
 5    0  0.5655767E-005  0.3855837E+03  0.7546771E-02  0.1048889E+00
         21   -1    0    0  502  501  0.00000000000E+00  0.00000000000E+00  0.40107612692E+03  0.40107612692E+03  0.00000000000E+00 0. -1.
         21   -1    0    0  501  502 -0.00000000000E+00 -0.00000000000E+00 -0.37068972778E+03  0.37068972778E+03  0.00000000000E+00 0. -1.
         25    1    1    2    0    0  0.69743476065E+02  0.13487748334E+03  0.22475678331E+03  0.29865816515E+03  0.12500000000E+03 0.  0.
         25    1    1    2    0    0 -0.17384180809E+03 -0.45877576380E+02 -0.18630551978E+03  0.28750734417E+03  0.12500000000E+03 0.  0.
         25    1    1    2    0    0  0.10409833202E+03 -0.88999906956E+02 -0.80648643924E+01  0.18560034538E+03  0.12500000000E+03 0.  0.
</event>
<event>
 5    0  0.5655767E-005  0.2864500E+03  0.7546771E-02  0.1092217E+00
         21   -1    0    0  502  501  0.00000000000E+00  0.00000000000E+00  0.78642939670E+03  0.78642939670E+03  0.00000000000E+00 0. -1.
         21   -1    0    0  501  502 -0.00000000000E+00 -0.00000000000E+00 -0.10433689639E+03  0.10433689639E+03  0.00000000000E+00 0. -1.
         25    1    1    2    0    0 -0.12859763394E+03  0.33752598833E+02  0.84845855393E+02  0.20124713305E+03  0.12500000000E+03 0.  0.
         25    1    1    2    0    0  0.51965679477E+02 -0.83405331949E+02  0.15953357826E+03  0.22523952547E+03  0.12500000000E+03 0.  0.
         25    1    1    2    0    0  0.76631954466E+02  0.49652733116E+02  0.43771306666E+03  0.46427963457E+03  0.12500000000E+03 0.  0.
</event>
<event>
 5    0  0.5655767E-005  0.2646740E+03  0.7546771E-02  0.1104367E+00
         21   -1    0    0  502  501  0.00000000000E+00  0.00000000000E+00  0.15853661195E+03  0.15853661195E+03  0.00000000000E+00 0.  1.
         21   -1    0    0  501  502 -0.00000000000E+00 -0.00000000000E+00 -0.44186836742E+03  0.44186836742E+03  0.00000000000E+00 0.  1.
         25    1    1    2    0    0 -0.85404491904E+02 -0.65658200193E+02  0.12192305718E+02  0.16546473585E+03  0.12500000000E+03 0.  0.
         25    1    1    2    0    0  0.84363389071E+02  0.10501591995E+03 -0.13674974965E+03  0.22906553405E+03  0.12500000000E+03 0.  0.
         25    1    1    2    0    0  0.10411028331E+01 -0.39357719758E+02 -0.15877431154E+03  0.20587470948E+03  0.12500000000E+03 0.  0.
</event>
<event>
 5    0  0.5655767E-005  0.6272608E+03  0.7546771E-02  0.9850409E-01
         21   -1    0    0  502  501  0.00000000000E+00  0.00000000000E+00  0.11234948630E+04  0.11234948630E+04  0.00000000000E+00 0. -1.
         21   -1    0    0  501  502 -0.00000000000E+00 -0.00000000000E+00 -0.35020733040E+03  0.35020733040E+03  0.00000000000E+00 0. -1.
         25    1    1    2    0    0 -0.22183323000E+02 -0.13396430123E+03  0.50046323920E+03  0.53341071195E+03  0.12500000000E+03 0.  0.
         25    1    1    2    0    0 -0.10595539528E+03  0.48073035406E+03  0.12552803799E+03  0.52317349648E+03  0.12500000000E+03 0.  0.
         25    1    1    2    0    0  0.12813871828E+03 -0.34676605282E+03  0.14729625536E+03  0.41711798493E+03  0.12500000000E+03 0.  0.
</event>
<event>
 5    0  0.5655767E-005  0.2729792E+03  0.7546771E-02  0.1099587E+00
         21   -1    0    0  502  501  0.00000000000E+00  0.00000000000E+00  0.33520162147E+02  0.33520162147E+02  0.00000000000E+00 0.  1.
         21   -1    0    0  501  502 -0.00000000000E+00 -0.00000000000E+00 -0.22230688536E+04  0.22230688536E+04  0.00000000000E+00 0.  1.
         25    1    1    2    0    0  0.10441830959E+03 -0.32833429761E+02 -0.75976097478E+03  0.77771650123E+03  0.12500000000E+03 0.  0.
         25    1    1    2    0    0 -0.22356197615E+02 -0.12163847770E+02 -0.11612359308E+04  0.11682215739E+04  0.12500000000E+03 0.  0.
         25    1    1    2    0    0 -0.82062111977E+02  0.44997277531E+02 -0.26855178590E+03  0.31065094064E+03  0.12500000000E+03 0.  0.
</event>
<event>
 5    0  0.5655767E-005  0.3475920E+03  0.7546771E-02  0.1063608E+00
         21   -1    0    0  502  501  0.00000000000E+00  0.00000000000E+00  0.79318211436E+03  0.79318211436E+03  0.00000000000E+00 0.  1.
         21   -1    0    0  501  502 -0.00000000000E+00 -0.00000000000E+00 -0.15232339763E+03  0.15232339763E+03  0.00000000000E+00 0.  1.
         25    1    1    2    0    0 -0.10761983051E+03 -0.16662845455E+03  0.39190001334E+03  0.45668116914E+03  0.12500000000E+03 0.  0.
         25    1    1    2    0    0  0.13094400601E+03  0.20571010595E+03  0.10671280411E+03  0.29406734426E+03  0.12500000000E+03 0.  0.
         25    1    1    2    0    0 -0.23324175500E+02 -0.39081651394E+02  0.14224589928E+03  0.19475699859E+03  0.12500000000E+03 0.  0.
</event>
<event>
 5    0  0.5655767E-005  0.2623604E+03  0.7546771E-02  0.1105733E+00
         21   -1    0    0  502  501  0.00000000000E+00  0.00000000000E+00  0.50767210573E+03  0.50767210573E+03  0.00000000000E+00 0.  1.
         21   -1    0    0  501  502 -0.00000000000E+00 -0.00000000000E+00 -0.13558549961E+03  0.13558549961E+03  0.00000000000E+00 0.  1.
         25    1    1    2    0    0  0.10533800610E+03 -0.63364722609E+02  0.10984689319E+03  0.20688770757E+03  0.12500000000E+03 0.  0.
         25    1    1    2    0    0  0.33708431599E+02 -0.32180917458E+02  0.65449077936E+02  0.14859492458E+03  0.12500000000E+03 0.  0.
         25    1    1    2    0    0 -0.13904643770E+03  0.95545640067E+02  0.19679063499E+03  0.28777497319E+03  0.12500000000E+03 0.  0.
</event>
<event>
 5    0  0.5655767E-005  0.2950484E+03  0.7546771E-02  0.1087742E+00
         21   -1    0    0  502  501  0.00000000000E+00  0.00000000000E+00  0.56013395944E+02  0.56013395944E+02  0.00000000000E+00 0.  1.
         21   -1    0    0  501  502 -0.00000000000E+00 -0.00000000000E+00 -0.15541561377E+04  0.15541561377E+04  0.00000000000E+00 0.  1.
         25    1    1    2    0    0  0.18651138571E+03  0.97037955038E+02 -0.51893035972E+03  0.57368683091E+03  0.12500000000E+03 0.  0.
         25    1    1    2    0    0 -0.14915664464E+03 -0.49431887783E+02 -0.56654097023E+03  0.60106978557E+03  0.12500000000E+03 0.  0.
         25    1    1    2    0    0 -0.37354741061E+02 -0.47606067255E+02 -0.41267141182E+03  0.43541291718E+03  0.12500000000E+03 0.  0.
</event>
<event>
 5    0  0.5655767E-005  0.3588761E+03  0.7546771E-02  0.1059030E+00
         21   -1    0    0  502  501  0.00000000000E+00  0.00000000000E+00  0.11316938458E+04  0.11316938458E+04  0.00000000000E+00 0.  1.
         21   -1    0    0  501  502 -0.00000000000E+00 -0.00000000000E+00 -0.11380469180E+03  0.11380469180E+03  0.00000000000E+00 0.  1.
         25    1    1    2    0    0  0.27239586748E+02 -0.34404919795E+02  0.12784462452E+03  0.18410578918E+03  0.12500000000E+03 0.  0.
         25    1    1    2    0    0  0.70486559134E+02 -0.22472325698E+03  0.33023753241E+03  0.42444166273E+03  0.12500000000E+03 0.  0.
         25    1    1    2    0    0 -0.97726145882E+02  0.25912817678E+03  0.55980699703E+03  0.63695108565E+03  0.12500000000E+03 0.  0.
</event>
<event>
 5    0  0.5655767E-005  0.2764860E+03  0.7546771E-02  0.1097624E+00
         21   -1    0    0  502  501  0.00000000000E+00  0.00000000000E+00  0.23201368693E+03  0.23201368693E+03  0.00000000000E+00 0.  1.
         21   -1    0    0  501  502 -0.00000000000E+00 -0.00000000000E+00 -0.32948270031E+03  0.32948270031E+03  0.00000000000E+00 0.  1.
         25    1    1    2    0    0 -0.10686535581E+03 -0.13878835770E+03  0.10395192730E+02  0.21544250402E+03  0.12500000000E+03 0.  0.
         25    1    1    2    0    0  0.82728559691E+02  0.12313747753E+03 -0.98185467007E+02  0.21742179949E+03  0.12500000000E+03 0.  0.
         25    1    1    2    0    0  0.24136796119E+02  0.15650880171E+02 -0.96787391029E+01  0.12863208374E+03  0.12500000000E+03 0.  0.
</event>
<event>
 5    0  0.5655767E-005  0.2498799E+03  0.7546771E-02  0.1113381E+00
         21   -1    0    0  502  501  0.00000000000E+00  0.00000000000E+00  0.96294681322E+02  0.96294681322E+02  0.00000000000E+00 0. -1.
         21   -1    0    0  501  502 -0.00000000000E+00 -0.00000000000E+00 -0.64842599015E+03  0.64842599015E+03  0.00000000000E+00 0. -1.
         25    1    1    2    0    0  0.94127713967E+02  0.38627407446E+02 -0.24883684675E+03  0.29647407887E+03  0.12500000000E+03 0.  0.
         25    1    1    2    0    0 -0.44689926091E+01  0.50958782407E+02 -0.62570990020E+02  0.14885193378E+03  0.12500000000E+03 0.  0.
         25    1    1    2    0    0 -0.89658721358E+02 -0.89586189853E+02 -0.24072347206E+03  0.29939465882E+03  0.12500000000E+03 0.  0.
</event>
<event>
 5    0  0.5655767E-005  0.3726923E+03  0.7546771E-02  0.1053668E+00
         21   -1    0    0  502  501  0.00000000000E+00  0.00000000000E+00  0.10522320087E+04  0.10522320087E+04  0.00000000000E+00 0.  1.
         21   -1    0    0  501  502 -0.00000000000E+00 -0.00000000000E+00 -0.13200471077E+03  0.13200471077E+03  0.00000000000E+00 0.  1.
         25    1    1    2    0    0  0.86991625490E+01 -0.17077134803E+03  0.49157160391E+03  0.53526271167E+03  0.12500000000E+03 0.  0.
         25    1    1    2    0    0  0.17595302031E+03  0.19920603252E+02  0.16784092085E+03  0.27413841486E+03  0.12500000000E+03 0.  0.
         25    1    1    2    0    0 -0.18465218285E+03  0.15085074478E+03  0.26081477317E+03  0.37483559294E+03  0.12500000000E+03 0.  0.
</event>
<event>
 5    0  0.5655767E-005  0.3167275E+03  0.7546771E-02  0.1077165E+00
         21   -1    0    0  502  501  0.00000000000E+00  0.00000000000E+00  0.88474558378E+02  0.88474558378E+02  0.00000000000E+00 0.  1.
         21   -1    0    0  501  502 -0.00000000000E+00 -0.00000000000E+00 -0.11338434091E+04  0.11338434091E+04  0.00000000000E+00 0.  1.
         25    1    1    2    0    0 -0.44419636020E+02  0.97013250252E+02 -0.45924830783E+03  0.48776908782E+03  0.12500000000E+03 0.  0.
         25    1    1    2    0    0 -0.24838462597E+02 -0.21105051784E+03 -0.42261698980E+03  0.48927435083E+03  0.12500000000E+03 0.  0.
         25    1    1    2    0    0  0.69258098617E+02  0.11403726759E+03 -0.16350355311E+03  0.24527452885E+03  0.12500000000E+03 0.  0.
</event>
<event>
 5    0  0.5655767E-005  0.2459467E+03  0.7546771E-02  0.1115894E+00
         21   -1    0    0  502  501  0.00000000000E+00  0.00000000000E+00  0.23495206556E+03  0.23495206556E+03  0.00000000000E+00 0.  1.
         21   -1    0    0  501  502 -0.00000000000E+00 -0.00000000000E+00 -0.25745579202E+03  0.25745579202E+03  0.00000000000E+00 0.  1.
         25    1    1    2    0    0 -0.66096230592E+02  0.60456843992E+02 -0.10866056401E+03  0.18829726460E+03  0.12500000000E+03 0.  0.
         25    1    1    2    0    0  0.48357716734E+02 -0.30121537507E+02  0.10500118146E+03  0.17290466708E+03  0.12500000000E+03 0.  0.
         25    1    1    2    0    0  0.17738513858E+02 -0.30335306485E+02 -0.18844343910E+02  0.13120592590E+03  0.12500000000E+03 0.  0.
</event>
<event>
 5    0  0.5655767E-005  0.3005758E+03  0.7546771E-02  0.1084953E+00
         21   -1    0    0  502  501  0.00000000000E+00  0.00000000000E+00  0.56964784567E+02  0.56964784567E+02  0.00000000000E+00 0.  1.
         21   -1    0    0  501  502 -0.00000000000E+00 -0.00000000000E+00 -0.15859943721E+04  0.15859943721E+04  0.00000000000E+00 0.  1.
         25    1    1    2    0    0 -0.28117009759E+02  0.42152938706E+02 -0.91769784234E+02  0.16313837616E+03  0.12500000000E+03 0.  0.
         25    1    1    2    0    0  0.15279897279E+02  0.27513389753E+02 -0.22685862257E+03  0.26092201232E+03  0.12500000000E+03 0.  0.
         25    1    1    2    0    0  0.12837112480E+02 -0.69666328459E+02 -0.12104011807E+04  0.12188987682E+04  0.12500000000E+03 0.  0.
</event>
<event>
 5    0  0.5655767E-005  0.3810143E+03  0.7546771E-02  0.1050560E+00
         21   -1    0    0  502  501  0.00000000000E+00  0.00000000000E+00  0.13524526187E+03  0.13524526187E+03  0.00000000000E+00 0. -1.
         21   -1    0    0  501  502 -0.00000000000E+00 -0.00000000000E+00 -0.10733970435E+04  0.10733970435E+04  0.00000000000E+00 0. -1.
         25    1    1    2    0    0  0.14755615469E+03  0.83854106032E+02 -0.10230601722E+03  0.23429863646E+03  0.12500000000E+03 0.  0.
         25    1    1    2    0    0 -0.88405416310E+02 -0.23581953802E+03 -0.36593379163E+03  0.46147471437E+03  0.12500000000E+03 0.  0.
         25    1    1    2    0    0 -0.59150738378E+02  0.15196543199E+03 -0.46991197278E+03  0.51286895454E+03  0.12500000000E+03 0.  0.
</event>
<event>
 5    0  0.5655767E-005  0.4654290E+03  0.7546771E-02  0.1023218E+00
         21   -1    0    0  502  501  0.00000000000E+00  0.00000000000E+00  0.15644512897E+03  0.15644512897E+03  0.00000000000E+00 0. -1.
         21   -1    0    0  501  502 -0.00000000000E+00 -0.00000000000E+00 -0.13846653012E+04  0.13846653012E+04  0.00000000000E+00 0. -1.
         25    1    1    2    0    0  0.15240112681E+02  0.23837051353E+03 -0.53035785548E+03  0.59494303730E+03  0.12500000000E+03 0.  0.
         25    1    1    2    0    0  0.11273510007E+03 -0.44236765813E+02 -0.65622703220E+03  0.67891458375E+03  0.12500000000E+03 0.  0.
         25    1    1    2    0    0 -0.12797521275E+03 -0.19413374772E+03 -0.41635284596E+02  0.26725280917E+03  0.12500000000E+03 0.  0.
</event>
<event>
 5    0  0.5655767E-005  0.2717227E+03  0.7546771E-02  0.1100298E+00
         21   -1    0    0  502  501  0.00000000000E+00  0.00000000000E+00  0.70887188342E+02  0.70887188342E+02  0.00000000000E+00 0.  1.
         21   -1    0    0  501  502 -0.00000000000E+00 -0.00000000000E+00 -0.10415598185E+04  0.10415598185E+04  0.00000000000E+00 0.  1.
         25    1    1    2    0    0 -0.73728681519E+01  0.10830724040E+03 -0.60558811347E+03  0.62781110271E+03  0.12500000000E+03 0.  0.
         25    1    1    2    0    0 -0.66972696142E+02 -0.94479215458E+02 -0.16784258685E+03  0.23918151715E+03  0.12500000000E+03 0.  0.
         25    1    1    2    0    0  0.74345564294E+02 -0.13828024940E+02 -0.19724192980E+03  0.24545438695E+03  0.12500000000E+03 0.  0.
</event>
<event>
 5    0  0.5655767E-005  0.2445404E+03  0.7546771E-02  0.1116805E+00
         21   -1    0    0  502  501  0.00000000000E+00  0.00000000000E+00  0.33360227683E+03  0.33360227683E+03  0.00000000000E+00 0.  1.
         21   -1    0    0  501  502 -0.00000000000E+00 -0.00000000000E+00 -0.17925532296E+03  0.17925532296E+03  0.00000000000E+00 0.  1.
         25    1    1    2    0    0  0.58695988918E+02  0.12895331110E+03  0.65440184684E+02  0.19995397803E+03  0.12500000000E+03 0.  0.
         25    1    1    2    0    0  0.55272138114E+01 -0.86562711347E+02  0.32028022036E+02  0.15548134063E+03  0.12500000000E+03 0.  0.
         25    1    1    2    0    0 -0.64223202729E+02 -0.42390599755E+02  0.56878747148E+02  0.15742228112E+03  0.12500000000E+03 0.  0.
</event>
<event>
 5    0  0.5655767E-005  0.3246142E+03  0.7546771E-02  0.1073545E+00
         21   -1    0    0  502  501  0.00000000000E+00  0.00000000000E+00  0.11315256714E+04  0.11315256714E+04  0.00000000000E+00 0. -1.
         21   -1    0    0  501  502 -0.00000000000E+00 -0.00000000000E+00 -0.93125945820E+02  0.93125945820E+02  0.00000000000E+00 0. -1.
         25    1    1    2    0    0  0.55372274291E+02  0.12678805217E+03  0.16579493917E+03  0.24950803752E+03  0.12500000000E+03 0.  0.
         25    1    1    2    0    0 -0.14184483614E+02 -0.41576872989E+02  0.56371273452E+02  0.14398804261E+03  0.12500000000E+03 0.  0.
         25    1    1    2    0    0 -0.41187790677E+02 -0.85211179183E+02  0.81623351296E+03  0.83115553709E+03  0.12500000000E+03 0.  0.
</event>
<event>
 5    0  0.5655767E-005  0.3356527E+03  0.7546771E-02  0.1068663E+00
         21   -1    0    0  502  501  0.00000000000E+00  0.00000000000E+00  0.50441335763E+02  0.50441335763E+02  0.00000000000E+00 0.  1.
         21   -1    0    0  501  502 -0.00000000000E+00 -0.00000000000E+00 -0.22335393570E+04  0.22335393570E+04  0.00000000000E+00 0.  1.
         25    1    1    2    0    0 -0.33462523322E+02  0.37059275698E+02 -0.13232897677E+04  0.13301180172E+04  0.12500000000E+03 0.  0.
         25    1    1    2    0    0 -0.30608075502E+02 -0.98097965089E+02 -0.74522282449E+03  0.76258909196E+03  0.12500000000E+03 0.  0.
         25    1    1    2    0    0  0.64070598824E+02  0.61038689392E+02 -0.11458542907E+03  0.19127358362E+03  0.12500000000E+03 0.  0.
</event>
<event>
 5    0  0.5655767E-005  0.2547083E+03  0.7546771E-02  0.1110365E+00
         21   -1    0    0  502  501  0.00000000000E+00  0.00000000000E+00  0.10178680182E+04  0.10178680182E+04  0.00000000000E+00 0. -1.
         21   -1    0    0  501  502 -0.00000000000E+00 -0.00000000000E+00 -0.63737442746E+02  0.63737442746E+02  0.00000000000E+00 0. -1.
         25    1    1    2    0    0  0.24880972667E+02 -0.77725528232E+02  0.10619790001E+03  0.18320293258E+03  0.12500000000E+03 0.  0.
         25    1    1    2    0    0 -0.90295237192E+01  0.12745197933E+02  0.59741743577E+03  0.61055430957E+03  0.12500000000E+03 0.  0.
         25    1    1    2    0    0 -0.15851448948E+02  0.64980330299E+02  0.25051523972E+03  0.28784821885E+03  0.12500000000E+03 0.  0.
</event>
<event>
 5    0  0.5655767E-005  0.7239739E+03  0.7546771E-02  0.9677090E-01
         21   -1    0    0  502  501  0.00000000000E+00  0.00000000000E+00  0.36375637483E+03  0.36375637483E+03  0.00000000000E+00 0. -1.
         21   -1    0    0  501  502 -0.00000000000E+00 -0.00000000000E+00 -0.14409046231E+04  0.14409046231E+04  0.00000000000E+00 0. -1.
         25    1    1    2    0    0  0.43485708726E+03  0.37423035296E+03 -0.49318555526E+03  0.76681551584E+03  0.12500000000E+03 0.  0.
         25    1    1    2    0    0 -0.37433887436E+03 -0.49297728419E+03 -0.57635009046E+03  0.85496235143E+03  0.12500000000E+03 0.  0.
         25    1    1    2    0    0 -0.60518212900E+02  0.11874693124E+03 -0.76126025804E+01  0.18288313068E+03  0.12500000000E+03 0.  0.
</event>
<event>
 5    0  0.5655767E-005  0.3044835E+03  0.7546771E-02  0.1083021E+00
         21   -1    0    0  502  501  0.00000000000E+00  0.00000000000E+00  0.14688744397E+03  0.14688744397E+03  0.00000000000E+00 0. -1.
         21   -1    0    0  501  502 -0.00000000000E+00 -0.00000000000E+00 -0.63116492531E+03  0.63116492531E+03  0.00000000000E+00 0. -1.
         25    1    1    2    0    0 -0.98279641745E+02  0.82953455457E+02 -0.73234868250E+02  0.19372276501E+03  0.12500000000E+03 0.  0.
         25    1    1    2    0    0  0.26826617957E+02  0.89406247717E+01 -0.39205515264E+03  0.41247041702E+03  0.12500000000E+03 0.  0.
         25    1    1    2    0    0  0.71453023789E+02 -0.91894080228E+02 -0.18987460446E+02  0.17185918725E+03  0.12500000000E+03 0.  0.
</event>
<event>
 5    0  0.5655767E-005  0.5479972E+03  0.7546771E-02  0.1001959E+00
         21   -1    0    0  502  501  0.00000000000E+00  0.00000000000E+00  0.13680473554E+04  0.13680473554E+04  0.00000000000E+00 0.  1.
         21   -1    0    0  501  502 -0.00000000000E+00 -0.00000000000E+00 -0.21951064747E+03  0.21951064747E+03  0.00000000000E+00 0.  1.
         25    1    1    2    0    0  0.17121440225E+02  0.17497059474E+03  0.23118178636E+03  0.31619277519E+03  0.12500000000E+03 0.  0.
         25    1    1    2    0    0 -0.22182573393E+03  0.39223215053E+02 -0.40667011835E+02  0.26081396183E+03  0.12500000000E+03 0.  0.
         25    1    1    2    0    0  0.20470429371E+03 -0.21419380979E+03  0.95802193341E+03  0.10105512659E+04  0.12500000000E+03 0.  0.
</event>
<event>
 5    0  0.5655767E-005  0.3005303E+03  0.7546771E-02  0.1084976E+00
         21   -1    0    0  502  501  0.00000000000E+00  0.00000000000E+00  0.10774138453E+04  0.10774138453E+04  0.00000000000E+00 0. -1.
         21   -1    0    0  501  502 -0.00000000000E+00 -0.00000000000E+00 -0.83828953227E+02  0.83828953227E+02  0.00000000000E+00 0. -1.
         25    1    1    2    0    0  0.41088740118E+02  0.42382386548E+02  0.39454991563E+03  0.41806600816E+03  0.12500000000E+03 0.  0.
         25    1    1    2    0    0 -0.12181656062E+03 -0.16207165901E+03  0.41189040648E+03  0.47579954187E+03  0.12500000000E+03 0.  0.
         25    1    1    2    0    0  0.80727820502E+02  0.11968927246E+03  0.18714456994E+03  0.26737724848E+03  0.12500000000E+03 0.  0.
</event>
<event>
 5    0  0.5655767E-005  0.3642707E+03  0.7546771E-02  0.1056906E+00
         21   -1    0    0  502  501  0.00000000000E+00  0.00000000000E+00  0.72152846090E+02  0.72152846090E+02  0.00000000000E+00 0. -1.
         21   -1    0    0  501  502 -0.00000000000E+00 -0.00000000000E+00 -0.18390559293E+04  0.18390559293E+04  0.00000000000E+00 0. -1.
         25    1    1    2    0    0 -0.10948907839E+03 -0.26298099170E+02 -0.21258372284E+03  0.27110198731E+03  0.12500000000E+03 0.  0.
         25    1    1    2    0    0 -0.13788494739E+03 -0.62576620248E+02 -0.94046574464E+03  0.96074393517E+03  0.12500000000E+03 0.  0.
         25    1    1    2    0    0  0.24737402577E+03  0.88874719419E+02 -0.61385361573E+03  0.67936285292E+03  0.12500000000E+03 0.  0.
</event>
<event>
 5    0  0.5655767E-005  0.4338629E+03  0.7546771E-02  0.1032647E+00
         21   -1    0    0  502  501  0.00000000000E+00  0.00000000000E+00  0.36683813452E+03  0.36683813452E+03  0.00000000000E+00 0.  1.
         21   -1    0    0  501  502 -0.00000000000E+00 -0.00000000000E+00 -0.51313367156E+03  0.51313367156E+03  0.00000000000E+00 0.  1.
         25    1    1    2    0    0  0.20078914977E+03  0.25639671544E+03 -0.10465634559E+03  0.36418883704E+03  0.12500000000E+03 0.  0.
         25    1    1    2    0    0  0.62509772969E+02 -0.28374018602E+02 -0.28859765560E+02  0.14550066225E+03  0.12500000000E+03 0.  0.
         25    1    1    2    0    0 -0.26329892274E+03 -0.22802269684E+03 -0.12779425890E+02  0.37028230678E+03  0.12500000000E+03 0.  0.
</event>
<event>
 5    0  0.5655767E-005  0.3787966E+03  0.7546771E-02  0.1051379E+00
         21   -1    0    0  502  501  0.00000000000E+00  0.00000000000E+00  0.18924177000E+04  0.18924177000E+04  0.00000000000E+00 0.  1.
         21   -1    0    0  501  502 -0.00000000000E+00 -0.00000000000E+00 -0.75821973196E+02  0.75821973196E+02  0.00000000000E+00 0.  1.
         25    1    1    2    0    0 -0.14182363251E+03 -0.28317302183E+02  0.50336661697E+03  0.53844104916E+03  0.12500000000E+03 0.  0.
         25    1    1    2    0    0  0.17093410336E+03  0.82212379341E+02  0.12607210135E+04  0.12810229572E+04  0.12500000000E+03 0.  0.
         25    1    1    2    0    0 -0.29110470842E+02 -0.53895077158E+02  0.52508096305E+02  0.14877566680E+03  0.12500000000E+03 0.  0.
</event>
<event>
 5    0  0.5655767E-005  0.3693756E+03  0.7546771E-02  0.1054932E+00
         21   -1    0    0  502  501  0.00000000000E+00  0.00000000000E+00  0.14297585362E+03  0.14297585362E+03  0.00000000000E+00 0.  1.
         21   -1    0    0  501  502 -0.00000000000E+00 -0.00000000000E+00 -0.95427538582E+03  0.95427538582E+03  0.00000000000E+00 0.  1.
         25    1    1    2    0    0  0.20324414349E+03  0.15187144268E+03 -0.23668676722E+03  0.36880718911E+03  0.12500000000E+03 0.  0.
         25    1    1    2    0    0 -0.16434732382E+03 -0.14998655650E+03 -0.53319361638E+03  0.59112303501E+03  0.12500000000E+03 0.  0.
         25    1    1    2    0    0 -0.38896819672E+02 -0.18848861817E+01 -0.41419148604E+02  0.13732101532E+03  0.12500000000E+03 0.  0.
</event>
<event>
 5    0  0.5655767E-005  0.4477542E+03  0.7546771E-02  0.1028394E+00
         21   -1    0    0  502  501  0.00000000000E+00  0.00000000000E+00  0.24231115158E+03  0.24231115158E+03  0.00000000000E+00 0. -1.
         21   -1    0    0  501  502 -0.00000000000E+00 -0.00000000000E+00 -0.82738170467E+03  0.82738170467E+03  0.00000000000E+00 0. -1.
         25    1    1    2    0    0  0.11907888284E+03 -0.24621650879E+03 -0.64992435887E+02  0.30765462172E+03  0.12500000000E+03 0.  0.
         25    1    1    2    0    0 -0.10683307992E+03  0.32481940044E+03 -0.21482052298E+03  0.42272190263E+03  0.12500000000E+03 0.  0.
         25    1    1    2    0    0 -0.12245802925E+02 -0.78602891649E+02 -0.30525759423E+03  0.33931633190E+03  0.12500000000E+03 0.  0.
</event>
<event>
 5    0  0.5655767E-005  0.3539709E+03  0.7546771E-02  0.1060997E+00
         21   -1    0    0  502  501  0.00000000000E+00  0.00000000000E+00  0.18560047303E+03  0.18560047303E+03  0.00000000000E+00 0.  1.
         21   -1    0    0  501  502 -0.00000000000E+00 -0.00000000000E+00 -0.67508106781E+03  0.67508106781E+03  0.00000000000E+00 0.  1.
         25    1    1    2    0    0 -0.74966272395E+01 -0.23336139026E+03 -0.30078575646E+03  0.40076278417E+03  0.12500000000E+03 0.  0.
         25    1    1    2    0    0 -0.50590649171E+02  0.20715489117E+03 -0.20167284892E+03  0.31901332372E+03  0.12500000000E+03 0.  0.
         25    1    1    2    0    0  0.58087276411E+02  0.26206499081E+02  0.12978010604E+02  0.14090543295E+03  0.12500000000E+03 0.  0.
</event>
<event>
 5    0  0.5655767E-005  0.2210035E+03  0.7546771E-02  0.1133137E+00
         21   -1    0    0  502  501  0.00000000000E+00  0.00000000000E+00  0.38512377452E+03  0.38512377452E+03  0.00000000000E+00 0.  1.
         21   -1    0    0  501  502 -0.00000000000E+00 -0.00000000000E+00 -0.12682297567E+03  0.12682297567E+03  0.00000000000E+00 0.  1.
         25    1    1    2    0    0  0.30681500156E+02 -0.27832769174E+02  0.67314729171E+02  0.14789283368E+03  0.12500000000E+03 0.  0.
         25    1    1    2    0    0 -0.30263802281E+02  0.10117788929E+03  0.84195646168E+02  0.18402926355E+03  0.12500000000E+03 0.  0.
         25    1    1    2    0    0 -0.41769787444E+00 -0.73345120111E+02  0.10679042351E+03  0.18002465295E+03  0.12500000000E+03 0.  0.
</event>
<event>
 5    0  0.5655767E-005  0.3201144E+03  0.7546771E-02  0.1075597E+00
         21   -1    0    0  502  501  0.00000000000E+00  0.00000000000E+00  0.12633317426E+03  0.12633317426E+03  0.00000000000E+00 0. -1.
         21   -1    0    0  501  502 -0.00000000000E+00 -0.00000000000E+00 -0.81113475789E+03  0.81113475789E+03  0.00000000000E+00 0. -1.
         25    1    1    2    0    0  0.10157966478E+03 -0.10041944979E+03 -0.25070217226E+03  0.31445043071E+03  0.12500000000E+03 0.  0.
         25    1    1    2    0    0  0.11516084288E+03 -0.16141346765E+01 -0.11668645427E+03  0.20616826568E+03  0.12500000000E+03 0.  0.
         25    1    1    2    0    0 -0.21674050766E+03  0.10203358447E+03 -0.31741295710E+03  0.41684923576E+03  0.12500000000E+03 0.  0.
</event>
<event>
 5    0  0.5655767E-005  0.2488987E+03  0.7546771E-02  0.1114003E+00
         21   -1    0    0  502  501  0.00000000000E+00  0.00000000000E+00  0.11912372296E+03  0.11912372296E+03  0.00000000000E+00 0. -1.
         21   -1    0    0  501  502 -0.00000000000E+00 -0.00000000000E+00 -0.52005212964E+03  0.52005212964E+03  0.00000000000E+00 0. -1.
         25    1    1    2    0    0 -0.11788505729E+03 -0.64507895339E+02 -0.12465250079E+03  0.22185896702E+03  0.12500000000E+03 0.  0.
         25    1    1    2    0    0  0.52347135854E+02  0.75813700053E+02 -0.20948767973E+03  0.26076431448E+03  0.12500000000E+03 0.  0.
         25    1    1    2    0    0  0.65537921437E+02 -0.11305804714E+02 -0.66788226157E+02  0.15655257111E+03  0.12500000000E+03 0.  0.
</event>
<event>
 5    0  0.5655767E-005  0.2686611E+03  0.7546771E-02  0.1102048E+00
         21   -1    0    0  502  501  0.00000000000E+00  0.00000000000E+00  0.21475446514E+03  0.21475446514E+03  0.00000000000E+00 0. -1.
         21   -1    0    0  501  502 -0.00000000000E+00 -0.00000000000E+00 -0.33609909777E+03  0.33609909777E+03  0.00000000000E+00 0. -1.
         25    1    1    2    0    0 -0.89162975902E+02 -0.13220602860E+03 -0.19395622542E+02  0.20354277300E+03  0.12500000000E+03 0.  0.
         25    1    1    2    0    0  0.61675063107E+02  0.13674363394E+03 -0.22387823207E+02  0.19654223327E+03  0.12500000000E+03 0.  0.
         25    1    1    2    0    0  0.27487912795E+02 -0.45376053449E+01 -0.79561186876E+02  0.15076855663E+03  0.12500000000E+03 0.  0.
</event>
<event>
 5    0  0.5655767E-005  0.2722949E+03  0.7546771E-02  0.1099973E+00
         21   -1    0    0  502  501  0.00000000000E+00  0.00000000000E+00  0.55496650247E+03  0.55496650247E+03  0.00000000000E+00 0.  1.
         21   -1    0    0  501  502 -0.00000000000E+00 -0.00000000000E+00 -0.13360175662E+03  0.13360175662E+03  0.00000000000E+00 0.  1.
         25    1    1    2    0    0  0.58463653449E+02 -0.43830512405E+02  0.10960090822E+03  0.18159425011E+03  0.12500000000E+03 0.  0.
         25    1    1    2    0    0 -0.15021550846E+03  0.14717856084E+02  0.51506586492E+02  0.20263080398E+03  0.12500000000E+03 0.  0.
         25    1    1    2    0    0  0.91751855009E+02  0.29112656322E+02  0.26025725114E+03  0.30434320500E+03  0.12500000000E+03 0.  0.
</event>
<event>
 5    0  0.5655767E-005  0.4454538E+03  0.7546771E-02  0.1029086E+00
         21   -1    0    0  502  501  0.00000000000E+00  0.00000000000E+00  0.10274564776E+03  0.10274564776E+03  0.00000000000E+00 0.  1.
         21   -1    0    0  501  502 -0.00000000000E+00 -0.00000000000E+00 -0.19312653083E+04  0.19312653083E+04  0.00000000000E+00 0.  1.
         25    1    1    2    0    0 -0.23024977764E+03 -0.18323724091E+03 -0.63264612038E+03  0.70884198535E+03  0.12500000000E+03 0.  0.
         25    1    1    2    0    0  0.55243930996E+02 -0.48183238027E+02 -0.80186577021E+02  0.16561522718E+03  0.12500000000E+03 0.  0.
         25    1    1    2    0    0  0.17500584665E+03  0.23142047894E+03 -0.11156869632E+04  0.11595537436E+04  0.12500000000E+03 0.  0.
</event>
<event>
 5    0  0.5655767E-005  0.5307600E+03  0.7546771E-02  0.1006048E+00
         21   -1    0    0  502  501  0.00000000000E+00  0.00000000000E+00  0.64930800013E+03  0.64930800013E+03  0.00000000000E+00 0.  1.
         21   -1    0    0  501  502 -0.00000000000E+00 -0.00000000000E+00 -0.43385609025E+03  0.43385609025E+03  0.00000000000E+00 0.  1.
         25    1    1    2    0    0 -0.25939344382E+03 -0.16469634990E+03  0.47688895670E+03  0.58091128702E+03  0.12500000000E+03 0.  0.
         25    1    1    2    0    0  0.10642952734E+03  0.59612815500E+02 -0.20911964155E+03  0.27246459686E+03  0.12500000000E+03 0.  0.
         25    1    1    2    0    0  0.15296391648E+03  0.10508353440E+03 -0.52317405268E+02  0.22978820649E+03  0.12500000000E+03 0.  0.
</event>
<event>
 5    0  0.5655767E-005  0.2585079E+03  0.7546771E-02  0.1108043E+00
         21   -1    0    0  502  501  0.00000000000E+00  0.00000000000E+00  0.17916187364E+04  0.17916187364E+04  0.00000000000E+00 0. -1.
         21   -1    0    0  501  502 -0.00000000000E+00 -0.00000000000E+00 -0.37299404486E+02  0.37299404486E+02  0.00000000000E+00 0. -1.
         25    1    1    2    0    0  0.38495218446E+02  0.91423321855E+02  0.45923077602E+03  0.48616664969E+03  0.12500000000E+03 0.  0.
         25    1    1    2    0    0  0.50111047229E+02  0.21804580890E+02  0.29963165799E+03  0.32922740967E+03  0.12500000000E+03 0.  0.
         25    1    1    2    0    0 -0.88606265675E+02 -0.11322790275E+03  0.99545689788E+03  0.10135240815E+04  0.12500000000E+03 0.  0.
</event>
<event>
 5    0  0.5655767E-005  0.4518036E+03  0.7546771E-02  0.1027186E+00
         21   -1    0    0  502  501  0.00000000000E+00  0.00000000000E+00  0.26541611834E+03  0.26541611834E+03  0.00000000000E+00 0. -1.
         21   -1    0    0  501  502 -0.00000000000E+00 -0.00000000000E+00 -0.76908095990E+03  0.76908095990E+03  0.00000000000E+00 0. -1.
         25    1    1    2    0    0 -0.20455984744E+02 -0.21016562843E+03 -0.20221199711E+03  0.31796655557E+03  0.12500000000E+03 0.  0.
         25    1    1    2    0    0 -0.13568069129E+03 -0.13169329426E+03 -0.13914248695E+02  0.22709244827E+03  0.12500000000E+03 0.  0.
         25    1    1    2    0    0  0.15613667604E+03  0.34185892269E+03 -0.28753859576E+03  0.48943807441E+03  0.12500000000E+03 0.  0.
</event>
<event>
 5    0  0.5655767E-005  0.3667099E+03  0.7546771E-02  0.1055958E+00
         21   -1    0    0  502  501  0.00000000000E+00  0.00000000000E+00  0.24422504452E+03  0.24422504452E+03  0.00000000000E+00 0. -1.
         21   -1    0    0  501  502 -0.00000000000E+00 -0.00000000000E+00 -0.55062379043E+03  0.55062379043E+03  0.00000000000E+00 0. -1.
         25    1    1    2    0    0 -0.14100888171E+03  0.22140769415E+02 -0.19337806419E+03  0.27091289025E+03  0.12500000000E+03 0.  0.
         25    1    1    2    0    0  0.47020257322E+02 -0.15865018762E+03  0.96729067829E+02  0.22882809966E+03  0.12500000000E+03 0.  0.
         25    1    1    2    0    0  0.93988624384E+02  0.13650941820E+03 -0.20974974954E+03  0.29510784504E+03  0.12500000000E+03 0.  0.
</event>
<event>
 5    0  0.5655767E-005  0.4428287E+03  0.7546771E-02  0.1029882E+00
         21   -1    0    0  502  501  0.00000000000E+00  0.00000000000E+00  0.25327668366E+03  0.25327668366E+03  0.00000000000E+00 0.  1.
         21   -1    0    0  501  502 -0.00000000000E+00 -0.00000000000E+00 -0.77424130919E+03  0.77424130919E+03  0.00000000000E+00 0.  1.
         25    1    1    2    0    0  0.73614084093E+01 -0.28758760379E+03 -0.89508584142E+02  0.32618646020E+03  0.12500000000E+03 0.  0.
         25    1    1    2    0    0  0.81705456042E+02  0.18513084642E+03 -0.63947770334E+01  0.23793928851E+03  0.12500000000E+03 0.  0.
         25    1    1    2    0    0 -0.89066864452E+02  0.10245675737E+03 -0.42506126435E+03  0.46339224414E+03  0.12500000000E+03 0.  0.
</event>
<event>
 5    0  0.5655767E-005  0.2080540E+03  0.7546771E-02  0.1143116E+00
         21   -1    0    0  502  501  0.00000000000E+00  0.00000000000E+00  0.42984238570E+03  0.42984238570E+03  0.00000000000E+00 0. -1.
         21   -1    0    0  501  502 -0.00000000000E+00 -0.00000000000E+00 -0.10070308642E+03  0.10070308642E+03  0.00000000000E+00 0. -1.
         25    1    1    2    0    0  0.36747524481E+02  0.54757942498E+02  0.15558262145E+03  0.21018983068E+03  0.12500000000E+03 0.  0.
         25    1    1    2    0    0 -0.27310166405E+02 -0.33731738999E+02  0.13129879973E+03  0.18640828902E+03  0.12500000000E+03 0.  0.
         25    1    1    2    0    0 -0.94373580760E+01 -0.21026203499E+02  0.42257878099E+02  0.13394735243E+03  0.12500000000E+03 0.  0.
</event>
<event>
 5    0  0.5655767E-005  0.6950004E+03  0.7546771E-02  0.9725821E-01
         21   -1    0    0  502  501  0.00000000000E+00  0.00000000000E+00  0.20576411114E+04  0.20576411114E+04  0.00000000000E+00 0.  1.
         21   -1    0    0  501  502 -0.00000000000E+00 -0.00000000000E+00 -0.23474721697E+03  0.23474721697E+03  0.00000000000E+00 0.  1.
         25    1    1    2    0    0 -0.62346023687E+02 -0.19299068155E+03  0.18906092961E+03  0.30414053485E+03  0.12500000000E+03 0.  0.
         25    1    1    2    0    0  0.29012473286E+03 -0.24811678494E+03  0.13379543077E+04  0.13969541972E+04  0.12500000000E+03 0.  0.
         25    1    1    2    0    0 -0.22777870917E+03  0.44110746649E+03  0.29587865716E+03  0.59129359636E+03  0.12500000000E+03 0.  0.
</event>
<event>
 5    0  0.5655767E-005  0.2551339E+03  0.7546771E-02  0.1110103E+00
         21   -1    0    0  502  501  0.00000000000E+00  0.00000000000E+00  0.45406878865E+03  0.45406878865E+03  0.00000000000E+00 0. -1.
         21   -1    0    0  501  502 -0.00000000000E+00 -0.00000000000E+00 -0.14335565181E+03  0.14335565181E+03  0.00000000000E+00 0. -1.
         25    1    1    2    0    0 -0.71933465214E+01 -0.12096914912E+02  0.29871617836E+03  0.32412101875E+03  0.12500000000E+03 0.  0.
         25    1    1    2    0    0  0.82508451517E+01  0.33178510760E+02  0.53083302066E+02  0.14004187581E+03  0.12500000000E+03 0.  0.
         25    1    1    2    0    0 -0.10574986302E+01 -0.21081595848E+02 -0.41086343586E+02  0.13326154590E+03  0.12500000000E+03 0.  0.
</event>
<event>
 5    0  0.5655767E-005  0.7133778E+03  0.7546771E-02  0.9694624E-01
         21   -1    0    0  502  501  0.00000000000E+00  0.00000000000E+00  0.15861490521E+04  0.15861490521E+04  0.00000000000E+00 0.  1.
         21   -1    0    0  501  502 -0.00000000000E+00 -0.00000000000E+00 -0.32084490767E+03  0.32084490767E+03  0.00000000000E+00 0.  1.
         25    1    1    2    0    0 -0.78108512336E+02  0.22280281660E+02  0.50175267816E+02  0.15728924995E+03  0.12500000000E+03 0.  0.
         25    1    1    2    0    0  0.30408111233E+03 -0.39145120724E+03  0.66034470867E+02  0.51544633267E+03  0.12500000000E+03 0.  0.
         25    1    1    2    0    0 -0.22597259999E+03  0.36917092558E+03  0.11490944057E+04  0.12342583771E+04  0.12500000000E+03 0.  0.
</event>
<event>
 5    0  0.5655767E-005  0.2656388E+03  0.7546771E-02  0.1103802E+00
         21   -1    0    0  502  501  0.00000000000E+00  0.00000000000E+00  0.56429552221E+03  0.56429552221E+03  0.00000000000E+00 0.  1.
         21   -1    0    0  501  502 -0.00000000000E+00 -0.00000000000E+00 -0.12504788588E+03  0.12504788588E+03  0.00000000000E+00 0.  1.
         25    1    1    2    0    0  0.99154116129E+01 -0.16028563276E+03  0.16294948165E+03  0.26070545262E+03  0.12500000000E+03 0.  0.
         25    1    1    2    0    0  0.41969014639E+02  0.22796111875E+02  0.12946459249E+03  0.18619114269E+03  0.12500000000E+03 0.  0.
         25    1    1    2    0    0 -0.51884426252E+02  0.13748952088E+03  0.14683356219E+03  0.24244681278E+03  0.12500000000E+03 0.  0.
</event>
<event>
 5    0  0.6467318E-005  0.2899543E+03  0.7546771E-02  0.1090373E+00
         21   -1    0    0  502  501  0.00000000000E+00  0.00000000000E+00  0.24210163622E+03  0.24210163622E+03  0.00000000000E+00 0. -1.
         21   -1    0    0  501  502 -0.00000000000E+00 -0.00000000000E+00 -0.34726523558E+03  0.34726523558E+03  0.00000000000E+00 0. -1.
         25    1    1    2    0    0 -0.10986963338E+03 -0.23627642798E+02 -0.64257535749E+02  0.17995452966E+03  0.12500000000E+03 0.  0.
         25    1    1    2    0    0  0.62177084274E+02 -0.45530190638E+02  0.11954279180E+03  0.18935275847E+03  0.12500000000E+03 0.  0.
         25    1    1    2    0    0  0.47692549111E+02  0.69157833436E+02 -0.16044885540E+03  0.22005958367E+03  0.12500000000E+03 0.  0.
</event>
<event>
 5    0  0.5655767E-005  0.2537280E+03  0.7546771E-02  0.1110971E+00
         21   -1    0    0  502  501  0.00000000000E+00  0.00000000000E+00  0.25940749480E+03  0.25940749480E+03  0.00000000000E+00 0.  1.
         21   -1    0    0  501  502 -0.00000000000E+00 -0.00000000000E+00 -0.24817289197E+03  0.24817289197E+03  0.00000000000E+00 0.  1.
         25    1    1    2    0    0 -0.14261071413E+03  0.51682039136E+02  0.58773809294E+02  0.20515411186E+03  0.12500000000E+03 0.  0.
         25    1    1    2    0    0  0.54340807516E+02 -0.50740229269E+02 -0.28695369146E+02  0.14824276859E+03  0.12500000000E+03 0.  0.
         25    1    1    2    0    0  0.88269906613E+02 -0.94180986731E+00 -0.18843837321E+02  0.15418350633E+03  0.12500000000E+03 0.  0.
</event>
<event>
 5    0  0.5655767E-005  0.3393393E+03  0.7546771E-02  0.1067078E+00
         21   -1    0    0  502  501  0.00000000000E+00  0.00000000000E+00  0.96222268674E+02  0.96222268674E+02  0.00000000000E+00 0.  1.
         21   -1    0    0  501  502 -0.00000000000E+00 -0.00000000000E+00 -0.11967204288E+04  0.11967204288E+04  0.00000000000E+00 0.  1.
         25    1    1    2    0    0  0.10657495901E+03 -0.94367378713E+02 -0.21879947155E+03  0.28941602029E+03  0.12500000000E+03 0.  0.
         25    1    1    2    0    0 -0.61185919274E+02  0.12566665162E+03 -0.84001594546E+03  0.86069019553E+03  0.12500000000E+03 0.  0.
         25    1    1    2    0    0 -0.45389039736E+02 -0.31299272910E+02 -0.41682743095E+02  0.14283648163E+03  0.12500000000E+03 0.  0.
</event>
<event>
 5    0  0.5655767E-005  0.2342382E+03  0.7546771E-02  0.1123692E+00
         21   -1    0    0  502  501  0.00000000000E+00  0.00000000000E+00  0.23183260566E+03  0.23183260566E+03  0.00000000000E+00 0.  1.
         21   -1    0    0  501  502 -0.00000000000E+00 -0.00000000000E+00 -0.23666875135E+03  0.23666875135E+03  0.00000000000E+00 0.  1.
         25    1    1    2    0    0  0.11148014934E+02  0.57040500828E+02 -0.18360962412E+01  0.13786322287E+03  0.12500000000E+03 0.  0.
         25    1    1    2    0    0  0.20697651547E+02  0.52654186794E+02  0.60289083389E+02  0.14986870835E+03  0.12500000000E+03 0.  0.
         25    1    1    2    0    0 -0.31845666481E+02 -0.10969468762E+03 -0.63289132840E+02  0.18076942579E+03  0.12500000000E+03 0.  0.
</event>
<event>
 5    0  0.5655767E-005  0.3027914E+03  0.7546771E-02  0.1083854E+00
         21   -1    0    0  502  501  0.00000000000E+00  0.00000000000E+00  0.15292725090E+03  0.15292725090E+03  0.00000000000E+00 0.  1.
         21   -1    0    0  501  502 -0.00000000000E+00 -0.00000000000E+00 -0.59951777785E+03  0.59951777785E+03  0.00000000000E+00 0.  1.
         25    1    1    2    0    0 -0.17010957441E+03 -0.41294039163E+02 -0.15530508872E+03  0.26530573978E+03  0.12500000000E+03 0.  0.
         25    1    1    2    0    0  0.22207998341E+02  0.47741530921E+02  0.19758087450E+01  0.13565158600E+03  0.12500000000E+03 0.  0.
         25    1    1    2    0    0  0.14790157607E+03 -0.64474917580E+01 -0.29326124698E+03  0.35148770297E+03  0.12500000000E+03 0.  0.
</event>
<event>
 5    0  0.5655767E-005  0.4784415E+03  0.7546771E-02  0.1019564E+00
         21   -1    0    0  502  501  0.00000000000E+00  0.00000000000E+00  0.15556255081E+04  0.15556255081E+04  0.00000000000E+00 0.  1.
         21   -1    0    0  501  502 -0.00000000000E+00 -0.00000000000E+00 -0.14714743297E+03  0.14714743297E+03  0.00000000000E+00 0.  1.
         25    1    1    2    0    0 -0.35785666408E+03  0.19624147848E+03  0.62352460654E+03  0.75563221535E+03  0.12500000000E+03 0.  0.
         25    1    1    2    0    0  0.14556371114E+02 -0.46048050015E+02  0.22488064924E+03  0.26177971131E+03  0.12500000000E+03 0.  0.
         25    1    1    2    0    0  0.34330029296E+03 -0.15019342847E+03  0.56007281932E+03  0.68536101439E+03  0.12500000000E+03 0.  0.
</event>
<event>
 5    0  0.5655767E-005  0.3144979E+03  0.7546771E-02  0.1078210E+00
         21   -1    0    0  502  501  0.00000000000E+00  0.00000000000E+00  0.57370737203E+03  0.57370737203E+03  0.00000000000E+00 0.  1.
         21   -1    0    0  501  502 -0.00000000000E+00 -0.00000000000E+00 -0.17240306498E+03  0.17240306498E+03  0.00000000000E+00 0.  1.
         25    1    1    2    0    0 -0.95910475662E+02  0.53316911170E+02  0.29214720403E+03  0.33617926941E+03  0.12500000000E+03 0.  0.
         25    1    1    2    0    0  0.17361000313E+03  0.23295828515E+02  0.11481674128E+03  0.24390779588E+03  0.12500000000E+03 0.  0.
         25    1    1    2    0    0 -0.77699527473E+02 -0.76612739685E+02 -0.56596382502E+01  0.16602337172E+03  0.12500000000E+03 0.  0.
</event>
<event>
 5    0  0.5655767E-005  0.4093870E+03  0.7546771E-02  0.1040577E+00
         21   -1    0    0  502  501  0.00000000000E+00  0.00000000000E+00  0.45685652252E+03  0.45685652252E+03  0.00000000000E+00 0.  1.
         21   -1    0    0  501  502 -0.00000000000E+00 -0.00000000000E+00 -0.36684976386E+03  0.36684976386E+03  0.00000000000E+00 0.  1.
         25    1    1    2    0    0 -0.30969486917E+03  0.16487197757E+03  0.74547548508E+02  0.37983683071E+03  0.12500000000E+03 0.  0.
         25    1    1    2    0    0  0.12211226654E+03 -0.86662097880E+02  0.53495918719E+02  0.20225859232E+03  0.12500000000E+03 0.  0.
         25    1    1    2    0    0  0.18758260262E+03 -0.78209879686E+02 -0.38036708564E+02  0.24161086334E+03  0.12500000000E+03 0.  0.
</event>
<event>
 5    0  0.5655767E-005  0.3425459E+03  0.7546771E-02  0.1065717E+00
         21   -1    0    0  502  501  0.00000000000E+00  0.00000000000E+00  0.13606079595E+04  0.13606079595E+04  0.00000000000E+00 0. -1.
         21   -1    0    0  501  502 -0.00000000000E+00 -0.00000000000E+00 -0.86239155401E+02  0.86239155401E+02  0.00000000000E+00 0. -1.
         25    1    1    2    0    0  0.40279457336E+02  0.10421089931E+03  0.15869048510E+03  0.23084630445E+03  0.12500000000E+03 0.  0.
         25    1    1    2    0    0  0.14370431821E+03 -0.16571889794E+03  0.60783322516E+03  0.65817924140E+03  0.12500000000E+03 0.  0.
         25    1    1    2    0    0 -0.18398377554E+03  0.61507998630E+02  0.50784509387E+03  0.55782156908E+03  0.12500000000E+03 0.  0.
</event>
<event>
 5    0  0.5655767E-005  0.3608911E+03  0.7546771E-02  0.1058232E+00
         21   -1    0    0  502  501  0.00000000000E+00  0.00000000000E+00  0.35530276751E+03  0.35530276751E+03  0.00000000000E+00 0.  1.
         21   -1    0    0  501  502 -0.00000000000E+00 -0.00000000000E+00 -0.36656735397E+03  0.36656735397E+03  0.00000000000E+00 0.  1.
         25    1    1    2    0    0 -0.10215818346E+03  0.19163260596E+02 -0.89506973302E+02  0.18558023406E+03  0.12500000000E+03 0.  0.
         25    1    1    2    0    0  0.26907335854E+03 -0.83536444722E+02  0.78425649331E+02  0.31804778312E+03  0.12500000000E+03 0.  0.
         25    1    1    2    0    0 -0.16691517508E+03  0.64373184126E+02 -0.18326248900E+00  0.21824210430E+03  0.12500000000E+03 0.  0.
</event>
<event>
 5    0  0.5655767E-005  0.3744440E+03  0.7546771E-02  0.1053007E+00
         21   -1    0    0  502  501  0.00000000000E+00  0.00000000000E+00  0.62528559300E+03  0.62528559300E+03  0.00000000000E+00 0. -1.
         21   -1    0    0  501  502 -0.00000000000E+00 -0.00000000000E+00 -0.22423078282E+03  0.22423078282E+03  0.00000000000E+00 0. -1.
         25    1    1    2    0    0 -0.13507232706E+03 -0.15592896381E+03  0.16828310424E+03  0.29411320689E+03  0.12500000000E+03 0.  0.
         25    1    1    2    0    0  0.24672850338E+03  0.15319269636E+02  0.79210787830E+02  0.28811279616E+03  0.12500000000E+03 0.  0.
         25    1    1    2    0    0 -0.11165617632E+03  0.14060969417E+03  0.15356091812E+03  0.26729037278E+03  0.12500000000E+03 0.  0.
</event>
<event>
 5    0  0.5655767E-005  0.3130136E+03  0.7546771E-02  0.1078910E+00
         21   -1    0    0  502  501  0.00000000000E+00  0.00000000000E+00  0.13179284022E+03  0.13179284022E+03  0.00000000000E+00 0.  1.
         21   -1    0    0  501  502 -0.00000000000E+00 -0.00000000000E+00 -0.74342044611E+03  0.74342044611E+03  0.00000000000E+00 0.  1.
         25    1    1    2    0    0  0.23104555067E+02  0.20502597089E+03 -0.41718160554E+03  0.48190762726E+03  0.12500000000E+03 0.  0.
         25    1    1    2    0    0 -0.33951307953E+02 -0.48301652548E+02 -0.54575751664E+02  0.14862453909E+03  0.12500000000E+03 0.  0.
         25    1    1    2    0    0  0.10846752886E+02 -0.15672431834E+03 -0.13987024868E+03  0.24468111998E+03  0.12500000000E+03 0.  0.
</event>
<event>
 5    0  0.5655767E-005  0.3013326E+03  0.7546771E-02  0.1084576E+00
         21   -1    0    0  502  501  0.00000000000E+00  0.00000000000E+00  0.81323581851E+03  0.81323581851E+03  0.00000000000E+00 0. -1.
         21   -1    0    0  501  502 -0.00000000000E+00 -0.00000000000E+00 -0.11165439178E+03  0.11165439178E+03  0.00000000000E+00 0. -1.
         25    1    1    2    0    0  0.16327493531E+03  0.50544313253E+02  0.82897489070E+02  0.22739926516E+03  0.12500000000E+03 0.  0.
         25    1    1    2    0    0 -0.19121772750E+02 -0.30490503940E+02  0.25980935903E+03  0.29055329298E+03  0.12500000000E+03 0.  0.
         25    1    1    2    0    0 -0.14415316256E+03 -0.20053809313E+02  0.35887457863E+03  0.40693765214E+03  0.12500000000E+03 0.  0.
</event>
<event>
 5    0  0.5655767E-005  0.2834013E+03  0.7546771E-02  0.1093846E+00
         21   -1    0    0  502  501  0.00000000000E+00  0.00000000000E+00  0.20182289167E+03  0.20182289167E+03  0.00000000000E+00 0. -1.
         21   -1    0    0  501  502 -0.00000000000E+00 -0.00000000000E+00 -0.39795430442E+03  0.39795430442E+03  0.00000000000E+00 0. -1.
         25    1    1    2    0    0 -0.12496082624E+03 -0.66767123602E+02  0.47738681294E+02  0.19487698320E+03  0.12500000000E+03 0.  0.
         25    1    1    2    0    0  0.13609292056E+03  0.20801368063E+02 -0.17125665441E+03  0.25279996364E+03  0.12500000000E+03 0.  0.
         25    1    1    2    0    0 -0.11132094317E+02  0.45965755539E+02 -0.72613439630E+02  0.15210024925E+03  0.12500000000E+03 0.  0.
</event>
<event>
 5    0  0.5655767E-005  0.2724060E+03  0.7546771E-02  0.1099910E+00
         21   -1    0    0  502  501  0.00000000000E+00  0.00000000000E+00  0.18342378138E+03  0.18342378138E+03  0.00000000000E+00 0. -1.
         21   -1    0    0  501  502 -0.00000000000E+00 -0.00000000000E+00 -0.40455513894E+03  0.40455513894E+03  0.00000000000E+00 0. -1.
         25    1    1    2    0    0 -0.10351077753E+03  0.45596538637E+02 -0.24365789246E+03  0.29628988164E+03  0.12500000000E+03 0.  0.
         25    1    1    2    0    0  0.99040665822E+02 -0.61233368793E+01  0.94367355424E+01  0.15987682984E+03  0.12500000000E+03 0.  0.
         25    1    1    2    0    0  0.44701117127E+01 -0.39473201757E+02  0.13089799361E+02  0.13181220885E+03  0.12500000000E+03 0.  0.
</event>
<event>
 5    0  0.5844313E-005  0.2542379E+03  0.7546771E-02  0.1110655E+00
         21   -1    0    0  502  501  0.00000000000E+00  0.00000000000E+00  0.20681086939E+03  0.20681086939E+03  0.00000000000E+00 0. -1.
         21   -1    0    0  501  502 -0.00000000000E+00 -0.00000000000E+00 -0.31254124302E+03  0.31254124302E+03  0.00000000000E+00 0. -1.
         25    1    1    2    0    0  0.69037889416E+02  0.22561292809E+02  0.31768029380E+02  0.14801841034E+03  0.12500000000E+03 0.  0.
         25    1    1    2    0    0 -0.24792430502E+02  0.51721013490E+02  0.34511871205E+02  0.14179491211E+03  0.12500000000E+03 0.  0.
         25    1    1    2    0    0 -0.44245458914E+02 -0.74282306299E+02 -0.17201027422E+03  0.22953878997E+03  0.12500000000E+03 0.  0.
</event>
<event>
 5    0  0.5655767E-005  0.2742146E+03  0.7546771E-02  0.1098891E+00
         21   -1    0    0  502  501  0.00000000000E+00  0.00000000000E+00  0.30583087639E+03  0.30583087639E+03  0.00000000000E+00 0. -1.
         21   -1    0    0  501  502 -0.00000000000E+00 -0.00000000000E+00 -0.24586671973E+03  0.24586671973E+03  0.00000000000E+00 0. -1.
         25    1    1    2    0    0 -0.50242247925E+02 -0.14055313035E+03 -0.10827127638E+02  0.19499151935E+03  0.12500000000E+03 0.  0.
         25    1    1    2    0    0 -0.15957409559E+02 -0.17424189131E+02 -0.14727279368E+02  0.12806300810E+03  0.12500000000E+03 0.  0.
         25    1    1    2    0    0  0.66199657484E+02  0.15797731948E+03  0.85518563662E+02  0.22864306867E+03  0.12500000000E+03 0.  0.
</event>
<event>
 5    0  0.5655767E-005  0.2834591E+03  0.7546771E-02  0.1093815E+00
         21   -1    0    0  502  501  0.00000000000E+00  0.00000000000E+00  0.15400930763E+03  0.15400930763E+03  0.00000000000E+00 0. -1.
         21   -1    0    0  501  502 -0.00000000000E+00 -0.00000000000E+00 -0.52171572168E+03  0.52171572168E+03  0.00000000000E+00 0. -1.
         25    1    1    2    0    0 -0.15623159450E+03 -0.74207652446E+02 -0.26077662163E+03  0.33696369714E+03  0.12500000000E+03 0.  0.
         25    1    1    2    0    0  0.74132393234E+02  0.14471651869E+02 -0.10847262732E+01  0.14605210394E+03  0.12500000000E+03 0.  0.
         25    1    1    2    0    0  0.82099201268E+02  0.59736000577E+02 -0.10584506614E+03  0.19270922822E+03  0.12500000000E+03 0.  0.
</event>
<event>
 5    0  0.5655767E-005  0.3273516E+03  0.7546771E-02  0.1072315E+00
         21   -1    0    0  502  501  0.00000000000E+00  0.00000000000E+00  0.36119275089E+03  0.36119275089E+03  0.00000000000E+00 0.  1.
         21   -1    0    0  501  502 -0.00000000000E+00 -0.00000000000E+00 -0.29668115412E+03  0.29668115412E+03  0.00000000000E+00 0.  1.
         25    1    1    2    0    0 -0.65468047142E+02 -0.53474497708E+02  0.15481755460E+02  0.15169137040E+03  0.12500000000E+03 0.  0.
         25    1    1    2    0    0  0.23014643509E+02 -0.18347759420E+03 -0.26109443949E+02  0.22472295043E+03  0.12500000000E+03 0.  0.
         25    1    1    2    0    0  0.42453403633E+02  0.23695209190E+03  0.75139285263E+02  0.28145958418E+03  0.12500000000E+03 0.  0.
</event>
<event>
 5    0  0.5655767E-005  0.2323798E+03  0.7546771E-02  0.1124976E+00
         21   -1    0    0  502  501  0.00000000000E+00  0.00000000000E+00  0.70926072406E+02  0.70926072406E+02  0.00000000000E+00 0. -1.
         21   -1    0    0  501  502 -0.00000000000E+00 -0.00000000000E+00 -0.76136157427E+03  0.76136157427E+03  0.00000000000E+00 0. -1.
         25    1    1    2    0    0  0.27511623967E+02 -0.13082618126E+02 -0.68480658582E+02  0.14574856758E+03  0.12500000000E+03 0.  0.
         25    1    1    2    0    0 -0.53417294779E+02  0.45442853923E+01 -0.46259383869E+03  0.48217436422E+03  0.12500000000E+03 0.  0.
         25    1    1    2    0    0  0.25905670812E+02  0.85383327332E+01 -0.15936100459E+03  0.20436471488E+03  0.12500000000E+03 0.  0.
</event>
<event>
 5    0  0.5655767E-005  0.3581157E+03  0.7546771E-02  0.1059332E+00
         21   -1    0    0  502  501  0.00000000000E+00  0.00000000000E+00  0.45452335457E+03  0.45452335457E+03  0.00000000000E+00 0. -1.
         21   -1    0    0  501  502 -0.00000000000E+00 -0.00000000000E+00 -0.28215674055E+03  0.28215674055E+03  0.00000000000E+00 0. -1.
         25    1    1    2    0    0  0.24698042374E+03  0.43532700030E+02 -0.71898937633E+02  0.28929030906E+03  0.12500000000E+03 0.  0.
         25    1    1    2    0    0 -0.13053493068E+03  0.22928888054E+02  0.72166491543E+02  0.19595434299E+03  0.12500000000E+03 0.  0.
         25    1    1    2    0    0 -0.11644549306E+03 -0.66461588084E+02  0.17209906011E+03  0.25143544307E+03  0.12500000000E+03 0.  0.
</event>
<event>
 5    0  0.5655767E-005  0.2955337E+03  0.7546771E-02  0.1087495E+00
         21   -1    0    0  502  501  0.00000000000E+00  0.00000000000E+00  0.43544905025E+03  0.43544905025E+03  0.00000000000E+00 0.  1.
         21   -1    0    0  501  502 -0.00000000000E+00 -0.00000000000E+00 -0.20057497072E+03  0.20057497072E+03  0.00000000000E+00 0.  1.
         25    1    1    2    0    0 -0.14849902086E+03  0.55129460445E+01  0.22032900639E+02  0.19542978402E+03  0.12500000000E+03 0.  0.
         25    1    1    2    0    0  0.12346264964E+03 -0.20972102570E+02 -0.16541437479E+02  0.17771177253E+03  0.12500000000E+03 0.  0.
         25    1    1    2    0    0  0.25036371221E+02  0.15459156525E+02  0.22938261637E+03  0.26288246441E+03  0.12500000000E+03 0.  0.
</event>
<event>
 5    0  0.5655767E-005  0.3853541E+03  0.7546771E-02  0.1048972E+00
         21   -1    0    0  502  501  0.00000000000E+00  0.00000000000E+00  0.66621768369E+03  0.66621768369E+03  0.00000000000E+00 0. -1.
         21   -1    0    0  501  502 -0.00000000000E+00 -0.00000000000E+00 -0.22289674679E+03  0.22289674679E+03  0.00000000000E+00 0. -1.
         25    1    1    2    0    0 -0.34309103367E+02  0.29808548900E+03  0.55468998091E+02  0.32974821163E+03  0.12500000000E+03 0.  0.
         25    1    1    2    0    0  0.17643464481E+02 -0.15351926591E+03  0.12813410591E+03  0.23648003286E+03  0.12500000000E+03 0.  0.
         25    1    1    2    0    0  0.16665638886E+02 -0.14456622308E+03  0.25971783290E+03  0.32288618599E+03  0.12500000000E+03 0.  0.
</event>
<event>
 5    0  0.5655767E-005  0.3415559E+03  0.7546771E-02  0.1066135E+00
         21   -1    0    0  502  501  0.00000000000E+00  0.00000000000E+00  0.13034730266E+03  0.13034730266E+03  0.00000000000E+00 0.  1.
         21   -1    0    0  501  502 -0.00000000000E+00 -0.00000000000E+00 -0.89499700394E+03  0.89499700394E+03  0.00000000000E+00 0.  1.
         25    1    1    2    0    0  0.15368197512E+03 -0.19438176564E+03 -0.46489795698E+03  0.54144023742E+03  0.12500000000E+03 0.  0.
         25    1    1    2    0    0 -0.11984204469E+03  0.15360568180E+03 -0.12648435409E+03  0.26378042571E+03  0.12500000000E+03 0.  0.
         25    1    1    2    0    0 -0.33839930426E+02  0.40776083839E+02 -0.17326739021E+03  0.22012364347E+03  0.12500000000E+03 0.  0.
</event>
<event>
 5    0  0.5655767E-005  0.2405336E+03  0.7546771E-02  0.1119438E+00
         21   -1    0    0  502  501  0.00000000000E+00  0.00000000000E+00  0.55308750594E+03  0.55308750594E+03  0.00000000000E+00 0.  1.
         21   -1    0    0  501  502 -0.00000000000E+00 -0.00000000000E+00 -0.10460627006E+03  0.10460627006E+03  0.00000000000E+00 0.  1.
         25    1    1    2    0    0  0.15889005988E+02  0.71760010849E+02  0.12092651895E+03  0.18881255958E+03  0.12500000000E+03 0.  0.
         25    1    1    2    0    0 -0.79364831905E+02 -0.90161585702E+02  0.97629633360E+02  0.19895837100E+03  0.12500000000E+03 0.  0.
         25    1    1    2    0    0  0.63475825918E+02  0.18401574853E+02  0.22992508357E+03  0.26992284543E+03  0.12500000000E+03 0.  0.
</event>
<event>
 5    0  0.5655767E-005  0.3745953E+03  0.7546771E-02  0.1052950E+00
         21   -1    0    0  502  501  0.00000000000E+00  0.00000000000E+00  0.80977861727E+03  0.80977861727E+03  0.00000000000E+00 0.  1.
         21   -1    0    0  501  502 -0.00000000000E+00 -0.00000000000E+00 -0.17328398429E+03  0.17328398429E+03  0.00000000000E+00 0.  1.
         25    1    1    2    0    0  0.54101261551E+02 -0.80948148980E+02  0.56715656065E+02  0.16828908155E+03  0.12500000000E+03 0.  0.
         25    1    1    2    0    0 -0.18353704888E+03  0.46702580057E+02  0.22344587164E+02  0.22801592022E+03  0.12500000000E+03 0.  0.
         25    1    1    2    0    0  0.12943578733E+03  0.34245568923E+02  0.55743438975E+03  0.58675759979E+03  0.12500000000E+03 0.  0.
</event>
<event>
 5    0  0.5655767E-005  0.4748717E+03  0.7546771E-02  0.1020554E+00
         21   -1    0    0  502  501  0.00000000000E+00  0.00000000000E+00  0.17420627944E+04  0.17420627944E+04  0.00000000000E+00 0. -1.
         21   -1    0    0  501  502 -0.00000000000E+00 -0.00000000000E+00 -0.12944604831E+03  0.12944604831E+03  0.00000000000E+00 0. -1.
         25    1    1    2    0    0  0.21669527534E+02  0.42716760747E+02  0.37534053962E+03  0.39849693946E+03  0.12500000000E+03 0.  0.
         25    1    1    2    0    0 -0.16176677244E+03  0.11039459101E+02  0.12598820154E+04  0.12764082619E+04  0.12500000000E+03 0.  0.
         25    1    1    2    0    0  0.14009724490E+03 -0.53756219849E+02 -0.22605808923E+02  0.19660364137E+03  0.12500000000E+03 0.  0.
</event>
<event>
 5    0  0.5655767E-005  0.2657747E+03  0.7546771E-02  0.1103722E+00
         21   -1    0    0  502  501  0.00000000000E+00  0.00000000000E+00  0.35874513027E+03  0.35874513027E+03  0.00000000000E+00 0. -1.
         21   -1    0    0  501  502 -0.00000000000E+00 -0.00000000000E+00 -0.19689802954E+03  0.19689802954E+03  0.00000000000E+00 0. -1.
         25    1    1    2    0    0 -0.38719641752E+02  0.11064017847E+03  0.16444409274E+03  0.23750225133E+03  0.12500000000E+03 0.  0.
         25    1    1    2    0    0  0.27428592782E+00 -0.78321494823E+02  0.72009566235E+02  0.16414843713E+03  0.12500000000E+03 0.  0.
         25    1    1    2    0    0  0.38445355824E+02 -0.32318683647E+02 -0.74606558245E+02  0.15399247134E+03  0.12500000000E+03 0.  0.
</event>
<event>
 5    0  0.5655767E-005  0.6161097E+03  0.7546771E-02  0.9872536E-01
         21   -1    0    0  502  501  0.00000000000E+00  0.00000000000E+00  0.92327421510E+03  0.92327421510E+03  0.00000000000E+00 0.  1.
         21   -1    0    0  501  502 -0.00000000000E+00 -0.00000000000E+00 -0.41113591920E+03  0.41113591920E+03  0.00000000000E+00 0.  1.
         25    1    1    2    0    0  0.27424878725E+03 -0.16347294478E+03 -0.49872720247E+02  0.34647956535E+03  0.12500000000E+03 0.  0.
         25    1    1    2    0    0 -0.13145020091E+03  0.19396705738E+02 -0.15058677964E+03  0.23655182458E+03  0.12500000000E+03 0.  0.
         25    1    1    2    0    0 -0.14279858634E+03  0.14407623904E+03  0.71259779579E+03  0.75137874436E+03  0.12500000000E+03 0.  0.
</event>
<event>
 5    0  0.5655767E-005  0.2625417E+03  0.7546771E-02  0.1105626E+00
         21   -1    0    0  502  501  0.00000000000E+00  0.00000000000E+00  0.19984744020E+03  0.19984744020E+03  0.00000000000E+00 0. -1.
         21   -1    0    0  501  502 -0.00000000000E+00 -0.00000000000E+00 -0.34490388984E+03  0.34490388984E+03  0.00000000000E+00 0. -1.
         25    1    1    2    0    0  0.25918802417E+02  0.10195029493E+03 -0.30137885017E+02  0.16612928420E+03  0.12500000000E+03 0.  0.
         25    1    1    2    0    0  0.31178383189E+02  0.39421955051E+01 -0.15396561368E+03  0.20079353246E+03  0.12500000000E+03 0.  0.
         25    1    1    2    0    0 -0.57097185607E+02 -0.10589249043E+03  0.39047049056E+02  0.17782851339E+03  0.12500000000E+03 0.  0.
</event>
