<event>
 5    0  0.5749909E-005  0.2921645E+03  0.7546771E-02  0.1089224E+00
         21   -1    0    0  502  501  0.00000000000E+00  0.00000000000E+00  0.65592431556E+02  0.65592431556E+02  0.00000000000E+00 0. -1.
         21   -1    0    0  501  502 -0.00000000000E+00 -0.00000000000E+00 -0.13013709666E+04  0.13013709666E+04  0.00000000000E+00 0. -1.
         25    1    1    2    0    0 -0.19073817033E+03 -0.47072776062E+02 -0.47451072632E+03  0.52856629221E+03  0.12500000000E+03 0.  0.
         25    1    1    2    0    0  0.71287831916E+02 -0.50695927453E+02 -0.33858543261E+03  0.37137195265E+03  0.12500000000E+03 0.  0.
         25    1    1    2    0    0  0.11945033841E+03  0.97768703515E+02 -0.42268237610E+03  0.46702515329E+03  0.12500000000E+03 0.  0.
</event>
<event>
 5    0  0.5990370E-005  0.3454929E+03  0.7546771E-02  0.1064480E+00
         21   -1    0    0  502  501  0.00000000000E+00  0.00000000000E+00  0.58626607691E+03  0.58626607691E+03  0.00000000000E+00 0.  1.
         21   -1    0    0  501  502 -0.00000000000E+00 -0.00000000000E+00 -0.20360262282E+03  0.20360262282E+03  0.00000000000E+00 0.  1.
         25    1    1    2    0    0 -0.57821972496E+02  0.43860294737E+01 -0.53592750979E+02  0.14785060269E+03  0.12500000000E+03 0.  0.
         25    1    1    2    0    0  0.14782807884E+02  0.16837350694E+03  0.34942887945E+03  0.40779125916E+03  0.12500000000E+03 0.  0.
         25    1    1    2    0    0  0.43039164612E+02 -0.17275953641E+03  0.86827325609E+02  0.23422683788E+03  0.12500000000E+03 0.  0.
</event>
<event>
 5    0  0.5749909E-005  0.4328195E+03  0.7546771E-02  0.1032973E+00
         21   -1    0    0  502  501  0.00000000000E+00  0.00000000000E+00  0.16622271228E+03  0.16622271228E+03  0.00000000000E+00 0.  1.
         21   -1    0    0  501  502 -0.00000000000E+00 -0.00000000000E+00 -0.11269981187E+04  0.11269981187E+04  0.00000000000E+00 0.  1.
         25    1    1    2    0    0 -0.10226752341E+03 -0.27831511467E+03 -0.41370147733E+03  0.52411054344E+03  0.12500000000E+03 0.  0.
         25    1    1    2    0    0  0.74088351398E+02  0.14425309541E+03 -0.54656703177E+03  0.58365962647E+03  0.12500000000E+03 0.  0.
         25    1    1    2    0    0  0.28179172015E+02  0.13406201926E+03 -0.50689731113E+00  0.18545066106E+03  0.12500000000E+03 0.  0.
</event>
<event>
 5    0  0.5749909E-005  0.3862969E+03  0.7546771E-02  0.1048631E+00
         21   -1    0    0  502  501  0.00000000000E+00  0.00000000000E+00  0.21715706475E+03  0.21715706475E+03  0.00000000000E+00 0.  1.
         21   -1    0    0  501  502 -0.00000000000E+00 -0.00000000000E+00 -0.68717677294E+03  0.68717677294E+03  0.00000000000E+00 0.  1.
         25    1    1    2    0    0 -0.57654026128E+02 -0.25784931147E+03 -0.10409135228E+03  0.31027449746E+03  0.12500000000E+03 0.  0.
         25    1    1    2    0    0 -0.93249896163E+02  0.24224087797E+02 -0.16815107973E+03  0.23061252173E+03  0.12500000000E+03 0.  0.
         25    1    1    2    0    0  0.15090392229E+03  0.23362522368E+03 -0.19777727618E+03  0.36344681849E+03  0.12500000000E+03 0.  0.
</event>
<event>
 5    0  0.5749909E-005  0.2554159E+03  0.7546771E-02  0.1109929E+00
         21   -1    0    0  502  501  0.00000000000E+00  0.00000000000E+00  0.12249498130E+03  0.12249498130E+03  0.00000000000E+00 0. -1.
         21   -1    0    0  501  502 -0.00000000000E+00 -0.00000000000E+00 -0.53257122987E+03  0.53257122987E+03  0.00000000000E+00 0. -1.
         25    1    1    2    0    0 -0.10322380213E+02 -0.90713978079E+02 -0.90475175163E+02  0.17929398951E+03  0.12500000000E+03 0.  0.
         25    1    1    2    0    0 -0.23558299039E+02  0.16092223216E+03 -0.18598226408E+03  0.27688510399E+03  0.12500000000E+03 0.  0.
         25    1    1    2    0    0  0.33880679252E+02 -0.70208254085E+02 -0.13361880933E+03  0.19888711767E+03  0.12500000000E+03 0.  0.
</event>
<event>
 5    0  0.5749909E-005  0.2261374E+03  0.7546771E-02  0.1129388E+00
         21   -1    0    0  502  501  0.00000000000E+00  0.00000000000E+00  0.14836436188E+03  0.14836436188E+03  0.00000000000E+00 0. -1.
         21   -1    0    0  501  502 -0.00000000000E+00 -0.00000000000E+00 -0.34467921030E+03  0.34467921030E+03  0.00000000000E+00 0. -1.
         25    1    1    2    0    0 -0.42766961235E+02 -0.32934558826E+02 -0.12905088897E+03  0.18759752153E+03  0.12500000000E+03 0.  0.
         25    1    1    2    0    0  0.68650215327E+02  0.29714544153E+02  0.25139823606E+02  0.14782698309E+03  0.12500000000E+03 0.  0.
         25    1    1    2    0    0 -0.25883254092E+02  0.32200146731E+01 -0.92403783054E+02  0.15761906756E+03  0.12500000000E+03 0.  0.
</event>
<event>
 5    0  0.5749909E-005  0.2522746E+03  0.7546771E-02  0.1111876E+00
         21   -1    0    0  502  501  0.00000000000E+00  0.00000000000E+00  0.58654316013E+03  0.58654316013E+03  0.00000000000E+00 0. -1.
         21   -1    0    0  501  502 -0.00000000000E+00 -0.00000000000E+00 -0.10850434606E+03  0.10850434606E+03  0.00000000000E+00 0. -1.
         25    1    1    2    0    0  0.18732642252E+02 -0.84033437087E+01  0.28838198530E+03  0.31497729682E+03  0.12500000000E+03 0.  0.
         25    1    1    2    0    0 -0.74665014759E+02 -0.66006333129E+02  0.41797010741E+02  0.16523828415E+03  0.12500000000E+03 0.  0.
         25    1    1    2    0    0  0.55932372507E+02  0.74409676837E+02  0.14785981803E+03  0.21483192521E+03  0.12500000000E+03 0.  0.
</event>
<event>
 5    0  0.5749909E-005  0.2669436E+03  0.7546771E-02  0.1103042E+00
         21   -1    0    0  502  501  0.00000000000E+00  0.00000000000E+00  0.20741153673E+03  0.20741153673E+03  0.00000000000E+00 0.  1.
         21   -1    0    0  501  502 -0.00000000000E+00 -0.00000000000E+00 -0.34356283704E+03  0.34356283704E+03  0.00000000000E+00 0.  1.
         25    1    1    2    0    0  0.80333032726E+02  0.98955255202E+02 -0.14016229134E+03  0.22697137835E+03  0.12500000000E+03 0.  0.
         25    1    1    2    0    0 -0.39495152418E+02 -0.13185065209E+03 -0.17510367289E+02  0.18675137076E+03  0.12500000000E+03 0.  0.
         25    1    1    2    0    0 -0.40837880309E+02  0.32895396883E+02  0.21521358321E+02  0.13725162465E+03  0.12500000000E+03 0.  0.
</event>
<event>
 5    0  0.5749909E-005  0.2601784E+03  0.7546771E-02  0.1107036E+00
         21   -1    0    0  502  501  0.00000000000E+00  0.00000000000E+00  0.15478236069E+04  0.15478236069E+04  0.00000000000E+00 0. -1.
         21   -1    0    0  501  502 -0.00000000000E+00 -0.00000000000E+00 -0.43734176093E+02  0.43734176093E+02  0.00000000000E+00 0. -1.
         25    1    1    2    0    0 -0.21067083954E+01 -0.23207679144E+02  0.20538085891E+03  0.24155606347E+03  0.12500000000E+03 0.  0.
         25    1    1    2    0    0 -0.49924581381E+02 -0.40609475448E+01  0.19090042367E+03  0.23361705177E+03  0.12500000000E+03 0.  0.
         25    1    1    2    0    0  0.52031289777E+02  0.27268626689E+02  0.11078081482E+04  0.11163846677E+04  0.12500000000E+03 0.  0.
</event>
<event>
 5    0  0.5749909E-005  0.2794546E+03  0.7546771E-02  0.1095987E+00
         21   -1    0    0  502  501  0.00000000000E+00  0.00000000000E+00  0.20478377722E+04  0.20478377722E+04  0.00000000000E+00 0. -1.
         21   -1    0    0  501  502 -0.00000000000E+00 -0.00000000000E+00 -0.38135290503E+02  0.38135290503E+02  0.00000000000E+00 0. -1.
         25    1    1    2    0    0  0.91455946498E+02 -0.10361041797E+03  0.81793026646E+03  0.83888868728E+03  0.12500000000E+03 0.  0.
         25    1    1    2    0    0 -0.11508856915E+03  0.11083803680E+03  0.97288424998E+03  0.99381045125E+03  0.12500000000E+03 0.  0.
         25    1    1    2    0    0  0.23632622648E+02 -0.72276188321E+01  0.21888796521E+03  0.25327392412E+03  0.12500000000E+03 0.  0.
</event>
<event>
 5    0  0.5749909E-005  0.3479926E+03  0.7546771E-02  0.1063442E+00
         21   -1    0    0  502  501  0.00000000000E+00  0.00000000000E+00  0.93235073725E+03  0.93235073725E+03  0.00000000000E+00 0.  1.
         21   -1    0    0  501  502 -0.00000000000E+00 -0.00000000000E+00 -0.12988550470E+03  0.12988550470E+03  0.00000000000E+00 0.  1.
         25    1    1    2    0    0  0.10393657213E+03 -0.14106994965E+03  0.21864823233E+02  0.21634835848E+03  0.12500000000E+03 0.  0.
         25    1    1    2    0    0 -0.70756553623E+02  0.12080548517E+03  0.36927009192E+03  0.41422923112E+03  0.12500000000E+03 0.  0.
         25    1    1    2    0    0 -0.33180018511E+02  0.20264464481E+02  0.41133031739E+03  0.43165865236E+03  0.12500000000E+03 0.  0.
</event>
<event>
 5    0  0.5749909E-005  0.2259451E+03  0.7546771E-02  0.1129527E+00
         21   -1    0    0  502  501  0.00000000000E+00  0.00000000000E+00  0.84122170433E+02  0.84122170433E+02  0.00000000000E+00 0. -1.
         21   -1    0    0  501  502 -0.00000000000E+00 -0.00000000000E+00 -0.60686970472E+03  0.60686970472E+03  0.00000000000E+00 0. -1.
         25    1    1    2    0    0 -0.13237259467E+02 -0.43164508175E+02 -0.26068523895E+03  0.29260928490E+03  0.12500000000E+03 0.  0.
         25    1    1    2    0    0  0.10303614537E+02 -0.17980813516E+02 -0.21842929425E+03  0.25251897100E+03  0.12500000000E+03 0.  0.
         25    1    1    2    0    0  0.29336449309E+01  0.61145321692E+02 -0.43633001084E+02  0.14586361925E+03  0.12500000000E+03 0.  0.
</event>
<event>
 5    0  0.5749909E-005  0.2580870E+03  0.7546771E-02  0.1108298E+00
         21   -1    0    0  502  501  0.00000000000E+00  0.00000000000E+00  0.11990914739E+03  0.11990914739E+03  0.00000000000E+00 0. -1.
         21   -1    0    0  501  502 -0.00000000000E+00 -0.00000000000E+00 -0.55549493643E+03  0.55549493643E+03  0.00000000000E+00 0. -1.
         25    1    1    2    0    0 -0.18006509646E+02  0.10093931163E+02 -0.33896308173E+03  0.36186612526E+03  0.12500000000E+03 0.  0.
         25    1    1    2    0    0  0.87495544153E+02 -0.17220205753E+02 -0.34097345361E+02  0.15728838067E+03  0.12500000000E+03 0.  0.
         25    1    1    2    0    0 -0.69489034507E+02  0.71262745900E+01 -0.62525361947E+02  0.15624957790E+03  0.12500000000E+03 0.  0.
</event>
<event>
 5    0  0.5749909E-005  0.4801473E+03  0.7546771E-02  0.1019095E+00
         21   -1    0    0  502  501  0.00000000000E+00  0.00000000000E+00  0.20796730084E+03  0.20796730084E+03  0.00000000000E+00 0.  1.
         21   -1    0    0  501  502 -0.00000000000E+00 -0.00000000000E+00 -0.11085466209E+04  0.11085466209E+04  0.00000000000E+00 0.  1.
         25    1    1    2    0    0  0.14091480526E+03 -0.23719922732E+03 -0.65357597523E+03  0.72035200505E+03  0.12500000000E+03 0.  0.
         25    1    1    2    0    0 -0.15004315175E+03  0.16936512432E+03  0.53137555263E+02  0.26390546130E+03  0.12500000000E+03 0.  0.
         25    1    1    2    0    0  0.91283464952E+01  0.67834103002E+02 -0.30014090010E+03  0.33225645540E+03  0.12500000000E+03 0.  0.
</event>
<event>
 5    0  0.5749909E-005  0.2591211E+03  0.7546771E-02  0.1107672E+00
         21   -1    0    0  502  501  0.00000000000E+00  0.00000000000E+00  0.99513550952E+02  0.99513550952E+02  0.00000000000E+00 0.  1.
         21   -1    0    0  501  502 -0.00000000000E+00 -0.00000000000E+00 -0.67471976671E+03  0.67471976671E+03  0.00000000000E+00 0.  1.
         25    1    1    2    0    0 -0.67723984897E+02  0.48655012834E+01 -0.22747032987E+03  0.26828708915E+03  0.12500000000E+03 0.  0.
         25    1    1    2    0    0  0.84538004668E+01 -0.13029479870E+03 -0.17318946945E+03  0.25033536234E+03  0.12500000000E+03 0.  0.
         25    1    1    2    0    0  0.59270184430E+02  0.12542929742E+03 -0.17454641644E+03  0.25561086617E+03  0.12500000000E+03 0.  0.
</event>
<event>
 5    0  0.6258896E-005  0.3229286E+03  0.7546771E-02  0.1074309E+00
         21   -1    0    0  502  501  0.00000000000E+00  0.00000000000E+00  0.54412278112E+03  0.54412278112E+03  0.00000000000E+00 0. -1.
         21   -1    0    0  501  502 -0.00000000000E+00 -0.00000000000E+00 -0.19165322900E+03  0.19165322900E+03  0.00000000000E+00 0. -1.
         25    1    1    2    0    0 -0.13620688632E+03 -0.21494248499E+02  0.14030812733E+03  0.23307871888E+03  0.12500000000E+03 0.  0.
         25    1    1    2    0    0  0.18368933417E+03 -0.92935906163E+02  0.19311126686E+02  0.24161285925E+03  0.12500000000E+03 0.  0.
         25    1    1    2    0    0 -0.47482447849E+02  0.11443015466E+03  0.19285029809E+03  0.26108443198E+03  0.12500000000E+03 0.  0.
</event>
<event>
 5    0  0.5749909E-005  0.3094805E+03  0.7546771E-02  0.1080595E+00
         21   -1    0    0  502  501  0.00000000000E+00  0.00000000000E+00  0.28614275729E+03  0.28614275729E+03  0.00000000000E+00 0.  1.
         21   -1    0    0  501  502 -0.00000000000E+00 -0.00000000000E+00 -0.33472161616E+03  0.33472161616E+03  0.00000000000E+00 0.  1.
         25    1    1    2    0    0  0.97294469273E+01 -0.43979218705E+02  0.34260721919E+02  0.13721381447E+03  0.12500000000E+03 0.  0.
         25    1    1    2    0    0  0.54831890242E+02  0.20113018172E+03  0.29188969068E+02  0.24482010151E+03  0.12500000000E+03 0.  0.
         25    1    1    2    0    0 -0.64561337169E+02 -0.15715096301E+03 -0.11202854985E+03  0.23883045747E+03  0.12500000000E+03 0.  0.
</event>
<event>
 5    0  0.5749909E-005  0.3395801E+03  0.7546771E-02  0.1066975E+00
         21   -1    0    0  502  501  0.00000000000E+00  0.00000000000E+00  0.19505058109E+03  0.19505058109E+03  0.00000000000E+00 0. -1.
         21   -1    0    0  501  502 -0.00000000000E+00 -0.00000000000E+00 -0.59120385564E+03  0.59120385564E+03  0.00000000000E+00 0. -1.
         25    1    1    2    0    0  0.17117565504E+03 -0.19380091970E+03 -0.13656846331E+03  0.31801862606E+03  0.12500000000E+03 0.  0.
         25    1    1    2    0    0 -0.20647662538E+02  0.13521456789E+03 -0.13002689519E+03  0.22636540992E+03  0.12500000000E+03 0.  0.
         25    1    1    2    0    0 -0.15052799250E+03  0.58586351810E+02 -0.12955791606E+03  0.24187040075E+03  0.12500000000E+03 0.  0.
</event>
<event>
 5    0  0.5749909E-005  0.3375313E+03  0.7546771E-02  0.1067852E+00
         21   -1    0    0  502  501  0.00000000000E+00  0.00000000000E+00  0.14981280182E+03  0.14981280182E+03  0.00000000000E+00 0. -1.
         21   -1    0    0  501  502 -0.00000000000E+00 -0.00000000000E+00 -0.76046468724E+03  0.76046468724E+03  0.00000000000E+00 0. -1.
         25    1    1    2    0    0  0.11307978708E+03 -0.10428184108E+03  0.19915481761E+02  0.19920684486E+03  0.12500000000E+03 0.  0.
         25    1    1    2    0    0 -0.80809847671E+02  0.12366740895E+03 -0.31679757851E+03  0.37122710739E+03  0.12500000000E+03 0.  0.
         25    1    1    2    0    0 -0.32269939407E+02 -0.19385567871E+02 -0.31376978867E+03  0.33984353681E+03  0.12500000000E+03 0.  0.
</event>
<event>
 5    0  0.5790307E-005  0.2541104E+03  0.7546771E-02  0.1110734E+00
         21   -1    0    0  502  501  0.00000000000E+00  0.00000000000E+00  0.58331142283E+03  0.58331142283E+03  0.00000000000E+00 0.  1.
         21   -1    0    0  501  502 -0.00000000000E+00 -0.00000000000E+00 -0.11069917026E+03  0.11069917026E+03  0.00000000000E+00 0.  1.
         25    1    1    2    0    0  0.50525624535E+02 -0.45598549734E+02  0.12188679707E+03  0.18738585265E+03  0.12500000000E+03 0.  0.
         25    1    1    2    0    0 -0.35300240158E+02 -0.17750587141E+02  0.26864406827E+01  0.13112363350E+03  0.12500000000E+03 0.  0.
         25    1    1    2    0    0 -0.15225384377E+02  0.63349136875E+02  0.34803901483E+03  0.37550110694E+03  0.12500000000E+03 0.  0.
</event>
<event>
 5    0  0.5749909E-005  0.4448784E+03  0.7546771E-02  0.1029260E+00
         21   -1    0    0  502  501  0.00000000000E+00  0.00000000000E+00  0.60555924670E+03  0.60555924670E+03  0.00000000000E+00 0. -1.
         21   -1    0    0  501  502 -0.00000000000E+00 -0.00000000000E+00 -0.32683305784E+03  0.32683305784E+03  0.00000000000E+00 0. -1.
         25    1    1    2    0    0 -0.74900371311E+02 -0.93617412226E+02  0.81653057806E+02  0.19148500553E+03  0.12500000000E+03 0.  0.
         25    1    1    2    0    0  0.21406875711E+03 -0.13265734794E+03 -0.12273352747E+03  0.30677666714E+03  0.12500000000E+03 0.  0.
         25    1    1    2    0    0 -0.13916838580E+03  0.22627476017E+03  0.31980665853E+03  0.43413063188E+03  0.12500000000E+03 0.  0.
</event>
<event>
 5    0  0.5749909E-005  0.2655498E+03  0.7546771E-02  0.1103854E+00
         21   -1    0    0  502  501  0.00000000000E+00  0.00000000000E+00  0.20152068192E+03  0.20152068192E+03  0.00000000000E+00 0. -1.
         21   -1    0    0  501  502 -0.00000000000E+00 -0.00000000000E+00 -0.34992283591E+03  0.34992283591E+03  0.00000000000E+00 0. -1.
         25    1    1    2    0    0  0.91048498877E+02  0.87021665697E+02 -0.22206168858E+02  0.17883152234E+03  0.12500000000E+03 0.  0.
         25    1    1    2    0    0  0.63156365847E+02 -0.24710236496E+02 -0.59125900355E+02  0.15401361767E+03  0.12500000000E+03 0.  0.
         25    1    1    2    0    0 -0.15420486472E+03 -0.62311429202E+02 -0.67070084775E+02  0.21859837782E+03  0.12500000000E+03 0.  0.
</event>
<event>
 5    0  0.5749909E-005  0.2677571E+03  0.7546771E-02  0.1102570E+00
         21   -1    0    0  502  501  0.00000000000E+00  0.00000000000E+00  0.82749084138E+02  0.82749084138E+02  0.00000000000E+00 0.  1.
         21   -1    0    0  501  502 -0.00000000000E+00 -0.00000000000E+00 -0.86640099314E+03  0.86640099314E+03  0.00000000000E+00 0.  1.
         25    1    1    2    0    0  0.11788533976E+03 -0.41771355030E+02 -0.93649491428E+02  0.20009254528E+03  0.12500000000E+03 0.  0.
         25    1    1    2    0    0 -0.97427503805E+02  0.72056923897E+01 -0.33845691742E+03  0.37379422875E+03  0.12500000000E+03 0.  0.
         25    1    1    2    0    0 -0.20457835950E+02  0.34565662640E+02 -0.35154550016E+03  0.37526330325E+03  0.12500000000E+03 0.  0.
</event>
<event>
 5    0  0.5749909E-005  0.2410791E+03  0.7546771E-02  0.1119076E+00
         21   -1    0    0  502  501  0.00000000000E+00  0.00000000000E+00  0.17743976754E+03  0.17743976754E+03  0.00000000000E+00 0.  1.
         21   -1    0    0  501  502 -0.00000000000E+00 -0.00000000000E+00 -0.32754279209E+03  0.32754279209E+03  0.00000000000E+00 0.  1.
         25    1    1    2    0    0  0.73261500490E+02 -0.66518045240E+02 -0.62651623453E+02  0.17129542819E+03  0.12500000000E+03 0.  0.
         25    1    1    2    0    0  0.44421679706E+02  0.33689633526E+01 -0.69724072208E+02  0.14990357496E+03  0.12500000000E+03 0.  0.
         25    1    1    2    0    0 -0.11768318020E+03  0.63149081887E+02 -0.17727328889E+02  0.18378355648E+03  0.12500000000E+03 0.  0.
</event>
<event>
 5    0  0.5749909E-005  0.2488534E+03  0.7546771E-02  0.1114032E+00
         21   -1    0    0  502  501  0.00000000000E+00  0.00000000000E+00  0.12891748404E+03  0.12891748404E+03  0.00000000000E+00 0.  1.
         21   -1    0    0  501  502 -0.00000000000E+00 -0.00000000000E+00 -0.48036929784E+03  0.48036929784E+03  0.00000000000E+00 0.  1.
         25    1    1    2    0    0  0.81130384083E+02  0.77942996503E+00  0.59808095565E+01  0.14914260563E+03  0.12500000000E+03 0.  0.
         25    1    1    2    0    0 -0.21162066208E+02 -0.54320697949E+02 -0.13792138130E+03  0.19505352776E+03  0.12500000000E+03 0.  0.
         25    1    1    2    0    0 -0.59968317875E+02  0.53541267984E+02 -0.21951124205E+03  0.26509064848E+03  0.12500000000E+03 0.  0.
</event>
<event>
 5    0  0.5749909E-005  0.2141757E+03  0.7546771E-02  0.1138301E+00
         21   -1    0    0  502  501  0.00000000000E+00  0.00000000000E+00  0.17888132514E+03  0.17888132514E+03  0.00000000000E+00 0. -1.
         21   -1    0    0  501  502 -0.00000000000E+00 -0.00000000000E+00 -0.25643391711E+03  0.25643391711E+03  0.00000000000E+00 0. -1.
         25    1    1    2    0    0  0.11396036344E+02  0.14490582209E+02  0.49497548169E+02  0.13570134079E+03  0.12500000000E+03 0.  0.
         25    1    1    2    0    0 -0.11801718755E+02 -0.58884843868E+02 -0.63409380671E+02  0.15248755674E+03  0.12500000000E+03 0.  0.
         25    1    1    2    0    0  0.40568241078E+00  0.44394261659E+02 -0.63640759468E+02  0.14712634472E+03  0.12500000000E+03 0.  0.
</event>
<event>
 5    0  0.5749909E-005  0.3940609E+03  0.7546771E-02  0.1045856E+00
         21   -1    0    0  502  501  0.00000000000E+00  0.00000000000E+00  0.79791853936E+02  0.79791853936E+02  0.00000000000E+00 0. -1.
         21   -1    0    0  501  502 -0.00000000000E+00 -0.00000000000E+00 -0.19461138417E+04  0.19461138417E+04  0.00000000000E+00 0. -1.
         25    1    1    2    0    0  0.23386781583E+03  0.43321304863E+02 -0.13862878875E+04  0.14120871070E+04  0.12500000000E+03 0.  0.
         25    1    1    2    0    0 -0.14606371004E+03 -0.41515161172E+02 -0.38923538354E+03  0.43610468904E+03  0.12500000000E+03 0.  0.
         25    1    1    2    0    0 -0.87804105793E+02 -0.18061436912E+01 -0.90798716707E+02  0.17771389958E+03  0.12500000000E+03 0.  0.
</event>
<event>
 5    0  0.5786685E-005  0.3497816E+03  0.7546771E-02  0.1062705E+00
         21   -1    0    0  502  501  0.00000000000E+00  0.00000000000E+00  0.15257142684E+03  0.15257142684E+03  0.00000000000E+00 0. -1.
         21   -1    0    0  501  502 -0.00000000000E+00 -0.00000000000E+00 -0.80190099119E+03  0.80190099119E+03  0.00000000000E+00 0. -1.
         25    1    1    2    0    0  0.63377409400E+02 -0.16815283297E+03 -0.45876829682E+03  0.50831626123E+03  0.12500000000E+03 0.  0.
         25    1    1    2    0    0 -0.98431425742E+02  0.18494932582E+03 -0.19920845328E+03  0.31496667531E+03  0.12500000000E+03 0.  0.
         25    1    1    2    0    0  0.35054016342E+02 -0.16796492855E+02  0.86471857523E+01  0.13118948150E+03  0.12500000000E+03 0.  0.
</event>
<event>
 5    0  0.5749909E-005  0.2460570E+03  0.7546771E-02  0.1115822E+00
         21   -1    0    0  502  501  0.00000000000E+00  0.00000000000E+00  0.48304616258E+02  0.48304616258E+02  0.00000000000E+00 0.  1.
         21   -1    0    0  501  502 -0.00000000000E+00 -0.00000000000E+00 -0.12533803468E+04  0.12533803468E+04  0.00000000000E+00 0.  1.
         25    1    1    2    0    0  0.22864619898E+02  0.13496770571E+02 -0.25768865114E+03  0.28763413320E+03  0.12500000000E+03 0.  0.
         25    1    1    2    0    0  0.68806855850E+02  0.23016024755E+02 -0.18269588346E+03  0.23295258453E+03  0.12500000000E+03 0.  0.
         25    1    1    2    0    0 -0.91671475747E+02 -0.36512795326E+02 -0.76469119594E+03  0.78109824532E+03  0.12500000000E+03 0.  0.
</event>
<event>
 5    0  0.5749909E-005  0.3753877E+03  0.7546771E-02  0.1052652E+00
         21   -1    0    0  502  501  0.00000000000E+00  0.00000000000E+00  0.42249618630E+03  0.42249618630E+03  0.00000000000E+00 0.  1.
         21   -1    0    0  501  502 -0.00000000000E+00 -0.00000000000E+00 -0.33353180672E+03  0.33353180672E+03  0.00000000000E+00 0.  1.
         25    1    1    2    0    0  0.15002125635E+03 -0.89112635532E+02 -0.17303038192E+03  0.27570265185E+03  0.12500000000E+03 0.  0.
         25    1    1    2    0    0  0.36296414479E+01  0.10649018614E+03  0.22420263568E+03  0.27793012771E+03  0.12500000000E+03 0.  0.
         25    1    1    2    0    0 -0.15365089780E+03 -0.17377550613E+02  0.37792125826E+02  0.20239521346E+03  0.12500000000E+03 0.  0.
</event>
<event>
 5    0  0.5749909E-005  0.3720590E+03  0.7546771E-02  0.1053908E+00
         21   -1    0    0  502  501  0.00000000000E+00  0.00000000000E+00  0.52749206951E+03  0.52749206951E+03  0.00000000000E+00 0.  1.
         21   -1    0    0  501  502 -0.00000000000E+00 -0.00000000000E+00 -0.26242657313E+03  0.26242657313E+03  0.00000000000E+00 0.  1.
         25    1    1    2    0    0  0.17979399813E+03 -0.78082791961E+02  0.36711115296E+03  0.43453239556E+03  0.12500000000E+03 0.  0.
         25    1    1    2    0    0 -0.93198143342E+02  0.13246733178E+01  0.17105028726E+01  0.15593451992E+03  0.12500000000E+03 0.  0.
         25    1    1    2    0    0 -0.86595854790E+02  0.76758118643E+02 -0.10375615946E+03  0.19945172717E+03  0.12500000000E+03 0.  0.
</event>
<event>
 5    0  0.5749909E-005  0.4476231E+03  0.7546771E-02  0.1028433E+00
         21   -1    0    0  502  501  0.00000000000E+00  0.00000000000E+00  0.99741079335E+02  0.99741079335E+02  0.00000000000E+00 0.  1.
         21   -1    0    0  501  502 -0.00000000000E+00 -0.00000000000E+00 -0.20088654475E+04  0.20088654475E+04  0.00000000000E+00 0.  1.
         25    1    1    2    0    0  0.25285055189E+03 -0.28656016728E+02 -0.19078308922E+03  0.34172760500E+03  0.12500000000E+03 0.  0.
         25    1    1    2    0    0 -0.14193683680E+03  0.11513881590E+03 -0.84818780818E+03  0.87661312477E+03  0.12500000000E+03 0.  0.
         25    1    1    2    0    0 -0.11091371509E+03 -0.86482799175E+02 -0.87015347078E+03  0.89026579709E+03  0.12500000000E+03 0.  0.
</event>
<event>
 5    0  0.6050491E-005  0.3230062E+03  0.7546771E-02  0.1074274E+00
         21   -1    0    0  502  501  0.00000000000E+00  0.00000000000E+00  0.24772282879E+03  0.24772282879E+03  0.00000000000E+00 0. -1.
         21   -1    0    0  501  502 -0.00000000000E+00 -0.00000000000E+00 -0.42116824725E+03  0.42116824725E+03  0.00000000000E+00 0. -1.
         25    1    1    2    0    0 -0.30660704718E+02  0.29993123093E+02  0.12672696343E+03  0.18309666711E+03  0.12500000000E+03 0.  0.
         25    1    1    2    0    0 -0.80442980527E+02  0.73049199845E+02 -0.21573269888E+03  0.27197951408E+03  0.12500000000E+03 0.  0.
         25    1    1    2    0    0  0.11110368524E+03 -0.10304232294E+03 -0.84439683017E+02  0.21381489485E+03  0.12500000000E+03 0.  0.
</event>
<event>
 5    0  0.5749909E-005  0.3543689E+03  0.7546771E-02  0.1060836E+00
         21   -1    0    0  502  501  0.00000000000E+00  0.00000000000E+00  0.93065954878E+03  0.93065954878E+03  0.00000000000E+00 0.  1.
         21   -1    0    0  501  502 -0.00000000000E+00 -0.00000000000E+00 -0.13493365462E+03  0.13493365462E+03  0.00000000000E+00 0.  1.
         25    1    1    2    0    0  0.15305979831E+02 -0.49143745871E+02  0.56268352733E+02  0.14642577743E+03  0.12500000000E+03 0.  0.
         25    1    1    2    0    0 -0.11200105959E+03  0.24331153929E+03  0.40460297832E+03  0.50107216303E+03  0.12500000000E+03 0.  0.
         25    1    1    2    0    0  0.96695079755E+02 -0.19416779342E+03  0.33485456311E+03  0.41809526294E+03  0.12500000000E+03 0.  0.
</event>
<event>
 5    0  0.5749909E-005  0.3405552E+03  0.7546771E-02  0.1066560E+00
         21   -1    0    0  502  501  0.00000000000E+00  0.00000000000E+00  0.15161570818E+04  0.15161570818E+04  0.00000000000E+00 0. -1.
         21   -1    0    0  501  502 -0.00000000000E+00 -0.00000000000E+00 -0.76494592490E+02  0.76494592490E+02  0.00000000000E+00 0. -1.
         25    1    1    2    0    0  0.72463537901E+02  0.19955967899E+03  0.53492774081E+03  0.58893778762E+03  0.12500000000E+03 0.  0.
         25    1    1    2    0    0  0.68640131720E+02 -0.17638955573E+03  0.63110748686E+03  0.67063134659E+03  0.12500000000E+03 0.  0.
         25    1    1    2    0    0 -0.14110366962E+03 -0.23170123254E+02  0.27362726164E+03  0.33308254008E+03  0.12500000000E+03 0.  0.
</event>
<event>
 5    0  0.5749909E-005  0.2410224E+03  0.7546771E-02  0.1119114E+00
         21   -1    0    0  502  501  0.00000000000E+00  0.00000000000E+00  0.10750799912E+03  0.10750799912E+03  0.00000000000E+00 0. -1.
         21   -1    0    0  501  502 -0.00000000000E+00 -0.00000000000E+00 -0.54034851817E+03  0.54034851817E+03  0.00000000000E+00 0. -1.
         25    1    1    2    0    0 -0.10483054029E+02 -0.32371811618E+02 -0.68690567074E+02  0.14663295201E+03  0.12500000000E+03 0.  0.
         25    1    1    2    0    0 -0.71624064397E+02 -0.88274769055E+00 -0.51399251721E+02  0.15296296585E+03  0.12500000000E+03 0.  0.
         25    1    1    2    0    0  0.82107118425E+02  0.33254559308E+02 -0.31275070025E+03  0.34826059944E+03  0.12500000000E+03 0.  0.
</event>
<event>
 5    0  0.5749909E-005  0.2432535E+03  0.7546771E-02  0.1117644E+00
         21   -1    0    0  502  501  0.00000000000E+00  0.00000000000E+00  0.63835027014E+03  0.63835027014E+03  0.00000000000E+00 0.  1.
         21   -1    0    0  501  502 -0.00000000000E+00 -0.00000000000E+00 -0.92695583605E+02  0.92695583605E+02  0.00000000000E+00 0.  1.
         25    1    1    2    0    0 -0.51680492419E+02 -0.34677087872E+02  0.21571040828E+03  0.25696177529E+03  0.12500000000E+03 0.  0.
         25    1    1    2    0    0  0.66854901789E+02 -0.36098688114E+02  0.42403881537E+02  0.15230161636E+03  0.12500000000E+03 0.  0.
         25    1    1    2    0    0 -0.15174409369E+02  0.70775775986E+02  0.28754039673E+03  0.32178246210E+03  0.12500000000E+03 0.  0.
</event>
<event>
 5    0  0.5749909E-005  0.3942506E+03  0.7546771E-02  0.1045789E+00
         21   -1    0    0  502  501  0.00000000000E+00  0.00000000000E+00  0.28139879173E+03  0.28139879173E+03  0.00000000000E+00 0. -1.
         21   -1    0    0  501  502 -0.00000000000E+00 -0.00000000000E+00 -0.55236038699E+03  0.55236038699E+03  0.00000000000E+00 0. -1.
         25    1    1    2    0    0 -0.10697151633E+03 -0.99656417180E+00  0.76517154345E+02  0.18144909301E+03  0.12500000000E+03 0.  0.
         25    1    1    2    0    0  0.35967478502E+02  0.12921423713E+03  0.67042396364E+02  0.19521696006E+03  0.12500000000E+03 0.  0.
         25    1    1    2    0    0  0.71004037832E+02 -0.12821767296E+03 -0.41452114598E+03  0.45709312564E+03  0.12500000000E+03 0.  0.
</event>
<event>
 5    0  0.5749909E-005  0.2678317E+03  0.7546771E-02  0.1102527E+00
         21   -1    0    0  502  501  0.00000000000E+00  0.00000000000E+00  0.24671347442E+03  0.24671347442E+03  0.00000000000E+00 0.  1.
         21   -1    0    0  501  502 -0.00000000000E+00 -0.00000000000E+00 -0.29075770738E+03  0.29075770738E+03  0.00000000000E+00 0.  1.
         25    1    1    2    0    0 -0.12101799663E+03  0.52272836482E+02 -0.37102374813E+02  0.18541680387E+03  0.12500000000E+03 0.  0.
         25    1    1    2    0    0 -0.19332326658E+02  0.35956743572E+02  0.43290704849E+02  0.13844028095E+03  0.12500000000E+03 0.  0.
         25    1    1    2    0    0  0.14035032329E+03 -0.88229580055E+02 -0.50232563004E+02  0.21361409698E+03  0.12500000000E+03 0.  0.
</event>
<event>
 5    0  0.5749909E-005  0.2645151E+03  0.7546771E-02  0.1104460E+00
         21   -1    0    0  502  501  0.00000000000E+00  0.00000000000E+00  0.95925948881E+02  0.95925948881E+02  0.00000000000E+00 0. -1.
         21   -1    0    0  501  502 -0.00000000000E+00 -0.00000000000E+00 -0.72939848213E+03  0.72939848213E+03  0.00000000000E+00 0. -1.
         25    1    1    2    0    0 -0.61444168471E+02 -0.23932405273E+01 -0.23111783586E+03  0.26985471553E+03  0.12500000000E+03 0.  0.
         25    1    1    2    0    0 -0.20622177263E+02  0.11299529410E+03 -0.29598087306E+03  0.34120798335E+03  0.12500000000E+03 0.  0.
         25    1    1    2    0    0  0.82066345734E+02 -0.11060205357E+03 -0.10637382433E+03  0.21426173214E+03  0.12500000000E+03 0.  0.
</event>
<event>
 5    0  0.5749909E-005  0.2544858E+03  0.7546771E-02  0.1110502E+00
         21   -1    0    0  502  501  0.00000000000E+00  0.00000000000E+00  0.17993134992E+03  0.17993134992E+03  0.00000000000E+00 0.  1.
         21   -1    0    0  501  502 -0.00000000000E+00 -0.00000000000E+00 -0.35993170304E+03  0.35993170304E+03  0.00000000000E+00 0.  1.
         25    1    1    2    0    0  0.45172406235E+02 -0.16970481727E+02 -0.97703209441E+02  0.16582961337E+03  0.12500000000E+03 0.  0.
         25    1    1    2    0    0  0.72337930647E+02  0.98237226095E+02 -0.47787871747E+02  0.18108564131E+03  0.12500000000E+03 0.  0.
         25    1    1    2    0    0 -0.11751033688E+03 -0.81266744367E+02 -0.34509271933E+02  0.19294779829E+03  0.12500000000E+03 0.  0.
</event>
<event>
 5    0  0.5749909E-005  0.4886646E+03  0.7546771E-02  0.1016781E+00
         21   -1    0    0  502  501  0.00000000000E+00  0.00000000000E+00  0.38450747411E+03  0.38450747411E+03  0.00000000000E+00 0. -1.
         21   -1    0    0  501  502 -0.00000000000E+00 -0.00000000000E+00 -0.62103637214E+03  0.62103637214E+03  0.00000000000E+00 0. -1.
         25    1    1    2    0    0  0.73143748769E+02 -0.63239958105E+01  0.27082111603E+03  0.30717922748E+03  0.12500000000E+03 0.  0.
         25    1    1    2    0    0  0.96227608761E+02  0.45756481668E+02 -0.44645526430E+03  0.47571074334E+03  0.12500000000E+03 0.  0.
         25    1    1    2    0    0 -0.16937135753E+03 -0.39432485858E+02 -0.60894749758E+02  0.22265387542E+03  0.12500000000E+03 0.  0.
</event>
<event>
 5    0  0.6150902E-005  0.4425429E+03  0.7546771E-02  0.1029969E+00
         21   -1    0    0  502  501  0.00000000000E+00  0.00000000000E+00  0.47248073674E+03  0.47248073674E+03  0.00000000000E+00 0. -1.
         21   -1    0    0  501  502 -0.00000000000E+00 -0.00000000000E+00 -0.41450208391E+03  0.41450208391E+03  0.00000000000E+00 0. -1.
         25    1    1    2    0    0 -0.23584084719E+03  0.17357977249E+03  0.34088612720E+02  0.32021535900E+03  0.12500000000E+03 0.  0.
         25    1    1    2    0    0  0.13624758218E+03 -0.36617009888E+01 -0.17917009021E+03  0.25749511244E+03  0.12500000000E+03 0.  0.
         25    1    1    2    0    0  0.99593265003E+02 -0.16991807151E+03  0.20306013033E+03  0.30927234921E+03  0.12500000000E+03 0.  0.
</event>
<event>
 5    0  0.7907355E-005  0.3578701E+03  0.7546771E-02  0.1059430E+00
         21   -1    0    0  502  501  0.00000000000E+00  0.00000000000E+00  0.72952680213E+03  0.72952680213E+03  0.00000000000E+00 0. -1.
         21   -1    0    0  501  502 -0.00000000000E+00 -0.00000000000E+00 -0.17555356372E+03  0.17555356372E+03  0.00000000000E+00 0. -1.
         25    1    1    2    0    0 -0.17156504936E+03  0.78335059263E+02  0.21547882162E+03  0.31245330890E+03  0.12500000000E+03 0.  0.
         25    1    1    2    0    0 -0.93310522638E+01 -0.83066140876E+02 -0.39348447893E+02  0.15543600821E+03  0.12500000000E+03 0.  0.
         25    1    1    2    0    0  0.18089610162E+03  0.47310816135E+01  0.37784286468E+03  0.43719104875E+03  0.12500000000E+03 0.  0.
</event>
<event>
 5    0  0.5749909E-005  0.2268404E+03  0.7546771E-02  0.1128884E+00
         21   -1    0    0  502  501  0.00000000000E+00  0.00000000000E+00  0.86433062479E+03  0.86433062479E+03  0.00000000000E+00 0.  1.
         21   -1    0    0  501  502 -0.00000000000E+00 -0.00000000000E+00 -0.59533440279E+02  0.59533440279E+02  0.00000000000E+00 0.  1.
         25    1    1    2    0    0  0.48344544596E+02 -0.42744983660E+02  0.15251178737E+03  0.20748294847E+03  0.12500000000E+03 0.  0.
         25    1    1    2    0    0 -0.63614966470E+02 -0.30779400260E+02  0.24760575188E+03  0.28623040335E+03  0.12500000000E+03 0.  0.
         25    1    1    2    0    0  0.15270421874E+02  0.73524383920E+02  0.40467964526E+03  0.43015071324E+03  0.12500000000E+03 0.  0.
</event>
<event>
 5    0  0.5856196E-005  0.3031348E+03  0.7546771E-02  0.1083684E+00
         21   -1    0    0  502  501  0.00000000000E+00  0.00000000000E+00  0.54468200548E+03  0.54468200548E+03  0.00000000000E+00 0.  1.
         21   -1    0    0  501  502 -0.00000000000E+00 -0.00000000000E+00 -0.16870518313E+03  0.16870518313E+03  0.00000000000E+00 0.  1.
         25    1    1    2    0    0  0.15448604190E+02 -0.23588337035E+02 -0.42785828154E+02  0.13509513724E+03  0.12500000000E+03 0.  0.
         25    1    1    2    0    0  0.11083355286E+02  0.32841443221E+02 -0.10670112961E+02  0.13015472511E+03  0.12500000000E+03 0.  0.
         25    1    1    2    0    0 -0.26531959476E+02 -0.92531061866E+01  0.42943276346E+03  0.44813732626E+03  0.12500000000E+03 0.  0.
</event>
<event>
 5    0  0.5749909E-005  0.3589655E+03  0.7546771E-02  0.1058994E+00
         21   -1    0    0  502  501  0.00000000000E+00  0.00000000000E+00  0.86494019958E+03  0.86494019958E+03  0.00000000000E+00 0. -1.
         21   -1    0    0  501  502 -0.00000000000E+00 -0.00000000000E+00 -0.14897700305E+03  0.14897700305E+03  0.00000000000E+00 0. -1.
         25    1    1    2    0    0 -0.65759027802E+02  0.14974010729E+03  0.19809563839E+03  0.28568029581E+03  0.12500000000E+03 0.  0.
         25    1    1    2    0    0 -0.13673844254E+03 -0.17090974877E+03  0.16205616775E+03  0.29965771373E+03  0.12500000000E+03 0.  0.
         25    1    1    2    0    0  0.20249747035E+03  0.21169641479E+02  0.35581139039E+03  0.42857919308E+03  0.12500000000E+03 0.  0.
</event>
<event>
 5    0  0.5749909E-005  0.3312797E+03  0.7546771E-02  0.1070572E+00
         21   -1    0    0  502  501  0.00000000000E+00  0.00000000000E+00  0.36559699171E+03  0.36559699171E+03  0.00000000000E+00 0.  1.
         21   -1    0    0  501  502 -0.00000000000E+00 -0.00000000000E+00 -0.30018362736E+03  0.30018362736E+03  0.00000000000E+00 0.  1.
         25    1    1    2    0    0  0.18979655176E+03  0.11795875865E+03  0.22709477889E+02  0.25705586978E+03  0.12500000000E+03 0.  0.
         25    1    1    2    0    0 -0.56355663123E+02  0.61497188827E+02  0.13997943072E+02  0.15092649671E+03  0.12500000000E+03 0.  0.
         25    1    1    2    0    0 -0.13344088864E+03 -0.17945594748E+03  0.28705943395E+02  0.25779825258E+03  0.12500000000E+03 0.  0.
</event>
<event>
 5    0  0.6941571E-005  0.7031652E+03  0.7546771E-02  0.9711835E-01
         21   -1    0    0  502  501  0.00000000000E+00  0.00000000000E+00  0.47122989960E+03  0.47122989960E+03  0.00000000000E+00 0.  1.
         21   -1    0    0  501  502 -0.00000000000E+00 -0.00000000000E+00 -0.10492570160E+04  0.10492570160E+04  0.00000000000E+00 0.  1.
         25    1    1    2    0    0 -0.32594073213E+03  0.22516904033E+03 -0.23910038549E+03  0.47930413301E+03  0.12500000000E+03 0.  0.
         25    1    1    2    0    0  0.29727511794E+03  0.29892281839E+03 -0.20553831803E+03  0.48538474150E+03  0.12500000000E+03 0.  0.
         25    1    1    2    0    0  0.28665614184E+02 -0.52409185872E+03 -0.13338841290E+03  0.55579804111E+03  0.12500000000E+03 0.  0.
</event>
<event>
 5    0  0.5749909E-005  0.2586529E+03  0.7546771E-02  0.1107955E+00
         21   -1    0    0  502  501  0.00000000000E+00  0.00000000000E+00  0.64260544714E+03  0.64260544714E+03  0.00000000000E+00 0.  1.
         21   -1    0    0  501  502 -0.00000000000E+00 -0.00000000000E+00 -0.10410947500E+03  0.10410947500E+03  0.00000000000E+00 0.  1.
         25    1    1    2    0    0 -0.28581588980E+01 -0.30989267575E+02  0.33691658808E+03  0.36070249666E+03  0.12500000000E+03 0.  0.
         25    1    1    2    0    0  0.39287101265E+02 -0.65634464359E+01 -0.13415009874E+02  0.13187690338E+03  0.12500000000E+03 0.  0.
         25    1    1    2    0    0 -0.36428942367E+02  0.37552714011E+02  0.21499439394E+03  0.25413552211E+03  0.12500000000E+03 0.  0.
</event>
<event>
 5    0  0.5749909E-005  0.2910089E+03  0.7546771E-02  0.1089824E+00
         21   -1    0    0  502  501  0.00000000000E+00  0.00000000000E+00  0.99713953402E+03  0.99713953402E+03  0.00000000000E+00 0. -1.
         21   -1    0    0  501  502 -0.00000000000E+00 -0.00000000000E+00 -0.84929127372E+02  0.84929127372E+02  0.00000000000E+00 0. -1.
         25    1    1    2    0    0  0.95697840756E+02 -0.37070436774E+02  0.12219394373E+03  0.20270336428E+03  0.12500000000E+03 0.  0.
         25    1    1    2    0    0 -0.11551128354E+03 -0.11149082691E+02  0.69061893155E+03  0.71136957152E+03  0.12500000000E+03 0.  0.
         25    1    1    2    0    0  0.19813442788E+02  0.48219519464E+02  0.99397531366E+02  0.16799572558E+03  0.12500000000E+03 0.  0.
</event>
<event>
 5    0  0.5749909E-005  0.5468693E+03  0.7546771E-02  0.1002221E+00
         21   -1    0    0  502  501  0.00000000000E+00  0.00000000000E+00  0.46113945247E+03  0.46113945247E+03  0.00000000000E+00 0. -1.
         21   -1    0    0  501  502 -0.00000000000E+00 -0.00000000000E+00 -0.64853716000E+03  0.64853716000E+03  0.00000000000E+00 0. -1.
         25    1    1    2    0    0  0.16733201130E+03  0.23832363435E+03  0.72508652653E+01  0.31697907146E+03  0.12500000000E+03 0.  0.
         25    1    1    2    0    0 -0.77563316076E+02 -0.37207625976E+03  0.12004568756E+03  0.41772332731E+03  0.12500000000E+03 0.  0.
         25    1    1    2    0    0 -0.89768695222E+02  0.13375262541E+03 -0.31469426035E+03  0.37497421371E+03  0.12500000000E+03 0.  0.
</event>
<event>
 5    0  0.5749909E-005  0.3767141E+03  0.7546771E-02  0.1052155E+00
         21   -1    0    0  502  501  0.00000000000E+00  0.00000000000E+00  0.15367825427E+04  0.15367825427E+04  0.00000000000E+00 0.  1.
         21   -1    0    0  501  502 -0.00000000000E+00 -0.00000000000E+00 -0.92344553617E+02  0.92344553617E+02  0.00000000000E+00 0.  1.
         25    1    1    2    0    0 -0.47922267655E+02 -0.10030667526E+03  0.28203793627E+03  0.32791518771E+03  0.12500000000E+03 0.  0.
         25    1    1    2    0    0  0.84631175403E+01 -0.19967509047E+03  0.32010438892E+03  0.39753438332E+03  0.12500000000E+03 0.  0.
         25    1    1    2    0    0  0.39459150115E+02  0.29998176572E+03  0.84229566388E+03  0.90367752527E+03  0.12500000000E+03 0.  0.
</event>
<event>
 5    0  0.5749909E-005  0.5992603E+03  0.7546771E-02  0.9906942E-01
         21   -1    0    0  502  501  0.00000000000E+00  0.00000000000E+00  0.11234565208E+04  0.11234565208E+04  0.00000000000E+00 0. -1.
         21   -1    0    0  501  502 -0.00000000000E+00 -0.00000000000E+00 -0.31965002008E+03  0.31965002008E+03  0.00000000000E+00 0. -1.
         25    1    1    2    0    0 -0.32275579643E+03  0.74309460259E+02  0.28430888919E+03  0.45403716201E+03  0.12500000000E+03 0.  0.
         25    1    1    2    0    0  0.50755476931E+03 -0.22186090654E+03  0.29526519474E+03  0.64003174994E+03  0.12500000000E+03 0.  0.
         25    1    1    2    0    0 -0.18479897288E+03  0.14755144628E+03  0.22423241682E+03  0.34903762897E+03  0.12500000000E+03 0.  0.
</event>
<event>
 5    0  0.5749909E-005  0.3110494E+03  0.7546771E-02  0.1079844E+00
         21   -1    0    0  502  501  0.00000000000E+00  0.00000000000E+00  0.66085222390E+03  0.66085222390E+03  0.00000000000E+00 0.  1.
         21   -1    0    0  501  502 -0.00000000000E+00 -0.00000000000E+00 -0.14640445050E+03  0.14640445050E+03  0.00000000000E+00 0.  1.
         25    1    1    2    0    0  0.46130049738E+02 -0.41692985894E+02  0.49432049513E+02  0.14810406504E+03  0.12500000000E+03 0.  0.
         25    1    1    2    0    0  0.14013747502E+03 -0.51905494094E+02  0.95791265906E+02  0.21710287618E+03  0.12500000000E+03 0.  0.
         25    1    1    2    0    0 -0.18626752476E+03  0.93598479988E+02  0.36922445798E+03  0.44204973318E+03  0.12500000000E+03 0.  0.
</event>
<event>
 5    0  0.5749909E-005  0.2823895E+03  0.7546771E-02  0.1094391E+00
         21   -1    0    0  502  501  0.00000000000E+00  0.00000000000E+00  0.65753293524E+03  0.65753293524E+03  0.00000000000E+00 0. -1.
         21   -1    0    0  501  502 -0.00000000000E+00 -0.00000000000E+00 -0.12127734993E+03  0.12127734993E+03  0.00000000000E+00 0. -1.
         25    1    1    2    0    0 -0.10200995421E+03  0.12709894760E+03  0.24627704828E+03  0.32068295519E+03  0.12500000000E+03 0.  0.
         25    1    1    2    0    0 -0.25612964699E+02  0.26131219025E+01  0.66169530471E+02  0.14375764025E+03  0.12500000000E+03 0.  0.
         25    1    1    2    0    0  0.12762291891E+03 -0.12971206950E+03  0.22380900656E+03  0.31436968973E+03  0.12500000000E+03 0.  0.
</event>
<event>
 5    0  0.5749909E-005  0.2658425E+03  0.7546771E-02  0.1103683E+00
         21   -1    0    0  502  501  0.00000000000E+00  0.00000000000E+00  0.35173326464E+03  0.35173326464E+03  0.00000000000E+00 0. -1.
         21   -1    0    0  501  502 -0.00000000000E+00 -0.00000000000E+00 -0.20092562857E+03  0.20092562857E+03  0.00000000000E+00 0. -1.
         25    1    1    2    0    0  0.24009446243E+02  0.93747729192E+02 -0.55701184862E+02  0.16760880715E+03  0.12500000000E+03 0.  0.
         25    1    1    2    0    0  0.60627356055E+02 -0.31055404563E+02  0.31930649554E+02  0.14589270316E+03  0.12500000000E+03 0.  0.
         25    1    1    2    0    0 -0.84636802299E+02 -0.62692324629E+02  0.17457817138E+03  0.23915738289E+03  0.12500000000E+03 0.  0.
</event>
<event>
 5    0  0.5749909E-005  0.3632023E+03  0.7546771E-02  0.1057323E+00
         21   -1    0    0  502  501  0.00000000000E+00  0.00000000000E+00  0.50918256900E+03  0.50918256900E+03  0.00000000000E+00 0.  1.
         21   -1    0    0  501  502 -0.00000000000E+00 -0.00000000000E+00 -0.25907388118E+03  0.25907388118E+03  0.00000000000E+00 0.  1.
         25    1    1    2    0    0  0.88259984399E+02  0.14666532786E+03 -0.50806255288E+02  0.21796059006E+03  0.12500000000E+03 0.  0.
         25    1    1    2    0    0 -0.12755314415E+03 -0.43385222040E+02  0.33304541607E+03  0.38038970969E+03  0.12500000000E+03 0.  0.
         25    1    1    2    0    0  0.39293159752E+02 -0.10328010582E+03 -0.32130472961E+02  0.16990615043E+03  0.12500000000E+03 0.  0.
</event>
<event>
 5    0  0.5749909E-005  0.2418492E+03  0.7546771E-02  0.1118567E+00
         21   -1    0    0  502  501  0.00000000000E+00  0.00000000000E+00  0.26577177886E+04  0.26577177886E+04  0.00000000000E+00 0. -1.
         21   -1    0    0  501  502 -0.00000000000E+00 -0.00000000000E+00 -0.22007996087E+02  0.22007996087E+02  0.00000000000E+00 0. -1.
         25    1    1    2    0    0 -0.95733352143E+02  0.20001522436E+02  0.46553705403E+03  0.49184823298E+03  0.12500000000E+03 0.  0.
         25    1    1    2    0    0  0.68995133746E+02 -0.25810441164E+02  0.95038074460E+03  0.96139225452E+03  0.12500000000E+03 0.  0.
         25    1    1    2    0    0  0.26738218397E+02  0.58089187276E+01  0.12197919939E+04  0.12264852972E+04  0.12500000000E+03 0.  0.
</event>
<event>
 5    0  0.5749909E-005  0.3070826E+03  0.7546771E-02  0.1081753E+00
         21   -1    0    0  502  501  0.00000000000E+00  0.00000000000E+00  0.17513779877E+03  0.17513779877E+03  0.00000000000E+00 0. -1.
         21   -1    0    0  501  502 -0.00000000000E+00 -0.00000000000E+00 -0.53843146022E+03  0.53843146022E+03  0.00000000000E+00 0. -1.
         25    1    1    2    0    0  0.47271421005E+02  0.18729739628E+02  0.63646287641E+02  0.14920201179E+03  0.12500000000E+03 0.  0.
         25    1    1    2    0    0  0.86482998859E+02  0.10184907315E+02 -0.82546194914E+02  0.17326833445E+03  0.12500000000E+03 0.  0.
         25    1    1    2    0    0 -0.13375441986E+03 -0.28914646942E+02 -0.34439375418E+03  0.39109891276E+03  0.12500000000E+03 0.  0.
</event>
<event>
 5    0  0.5749909E-005  0.2417715E+03  0.7546771E-02  0.1118618E+00
         21   -1    0    0  502  501  0.00000000000E+00  0.00000000000E+00  0.35158898715E+03  0.35158898715E+03  0.00000000000E+00 0.  1.
         21   -1    0    0  501  502 -0.00000000000E+00 -0.00000000000E+00 -0.16625510294E+03  0.16625510294E+03  0.00000000000E+00 0.  1.
         25    1    1    2    0    0 -0.38115539468E+02  0.56536051419E+02  0.35064208547E+02  0.14664112036E+03  0.12500000000E+03 0.  0.
         25    1    1    2    0    0  0.43062632475E+02 -0.77264691056E+02 -0.24705621958E+02  0.15511154230E+03  0.12500000000E+03 0.  0.
         25    1    1    2    0    0 -0.49470930065E+01  0.20728639638E+02  0.17497529762E+03  0.21609142743E+03  0.12500000000E+03 0.  0.
</event>
<event>
 5    0  0.5749909E-005  0.3045689E+03  0.7546771E-02  0.1082979E+00
         21   -1    0    0  502  501  0.00000000000E+00  0.00000000000E+00  0.24120506894E+03  0.24120506894E+03  0.00000000000E+00 0.  1.
         21   -1    0    0  501  502 -0.00000000000E+00 -0.00000000000E+00 -0.38457822588E+03  0.38457822588E+03  0.00000000000E+00 0.  1.
         25    1    1    2    0    0 -0.65353458297E+02  0.39580672973E+02 -0.13500017458E+03  0.19921784890E+03  0.12500000000E+03 0.  0.
         25    1    1    2    0    0 -0.42170809733E+02 -0.10909420656E+03  0.11763830278E+03  0.20771060007E+03  0.12500000000E+03 0.  0.
         25    1    1    2    0    0  0.10752426803E+03  0.69513533584E+02 -0.12601128514E+03  0.21885484585E+03  0.12500000000E+03 0.  0.
</event>
<event>
 5    0  0.5749909E-005  0.3063159E+03  0.7546771E-02  0.1082125E+00
         21   -1    0    0  502  501  0.00000000000E+00  0.00000000000E+00  0.57234789962E+02  0.57234789962E+02  0.00000000000E+00 0. -1.
         21   -1    0    0  501  502 -0.00000000000E+00 -0.00000000000E+00 -0.16393779657E+04  0.16393779657E+04  0.00000000000E+00 0. -1.
         25    1    1    2    0    0  0.16734486374E+03 -0.67773006449E+02 -0.92123337813E+03  0.94704457171E+03  0.12500000000E+03 0.  0.
         25    1    1    2    0    0 -0.16969076644E+03  0.18834826998E+02 -0.32492003716E+03  0.38774700189E+03  0.12500000000E+03 0.  0.
         25    1    1    2    0    0  0.23459026988E+01  0.48938179450E+02 -0.33598976047E+03  0.36182118209E+03  0.12500000000E+03 0.  0.
</event>
<event>
 5    0  0.5749909E-005  0.3793713E+03  0.7546771E-02  0.1051166E+00
         21   -1    0    0  502  501  0.00000000000E+00  0.00000000000E+00  0.13041929216E+03  0.13041929216E+03  0.00000000000E+00 0.  1.
         21   -1    0    0  501  502 -0.00000000000E+00 -0.00000000000E+00 -0.11035377990E+04  0.11035377990E+04  0.00000000000E+00 0.  1.
         25    1    1    2    0    0  0.10510722125E+03 -0.11501478495E+03 -0.47189013354E+03  0.51242680145E+03  0.12500000000E+03 0.  0.
         25    1    1    2    0    0 -0.12595912116E+03 -0.96494314862E+02 -0.51201311157E+02  0.20838288622E+03  0.12500000000E+03 0.  0.
         25    1    1    2    0    0  0.20851899911E+02  0.21150909981E+03 -0.45002706213E+03  0.51314740346E+03  0.12500000000E+03 0.  0.
</event>
<event>
 5    0  0.5749909E-005  0.2831674E+03  0.7546771E-02  0.1093971E+00
         21   -1    0    0  502  501  0.00000000000E+00  0.00000000000E+00  0.65119960291E+02  0.65119960291E+02  0.00000000000E+00 0.  1.
         21   -1    0    0  501  502 -0.00000000000E+00 -0.00000000000E+00 -0.12313245182E+04  0.12313245182E+04  0.00000000000E+00 0.  1.
         25    1    1    2    0    0 -0.76845744108E+02 -0.15988521175E+02 -0.37744601667E+03  0.40527940572E+03  0.12500000000E+03 0.  0.
         25    1    1    2    0    0 -0.10789123049E+02 -0.98040086246E+01 -0.70300388270E+03  0.71417923720E+03  0.12500000000E+03 0.  0.
         25    1    1    2    0    0  0.87634867158E+02  0.25792529800E+02 -0.85754658556E+02  0.17698583559E+03  0.12500000000E+03 0.  0.
</event>
<event>
 5    0  0.5749909E-005  0.3757660E+03  0.7546771E-02  0.1052510E+00
         21   -1    0    0  502  501  0.00000000000E+00  0.00000000000E+00  0.27205232581E+03  0.27205232581E+03  0.00000000000E+00 0. -1.
         21   -1    0    0  501  502 -0.00000000000E+00 -0.00000000000E+00 -0.51901807753E+03  0.51901807753E+03  0.00000000000E+00 0. -1.
         25    1    1    2    0    0 -0.30545573553E+01 -0.68154307885E+01 -0.12633454975E+03  0.17787973150E+03  0.12500000000E+03 0.  0.
         25    1    1    2    0    0  0.13468669713E+03 -0.23383611629E+03 -0.32700979265E+02  0.29918922058E+03  0.12500000000E+03 0.  0.
         25    1    1    2    0    0 -0.13163213978E+03  0.24065154708E+03 -0.87930222699E+02  0.31400145127E+03  0.12500000000E+03 0.  0.
</event>
<event>
 5    0  0.5749909E-005  0.2779437E+03  0.7546771E-02  0.1096817E+00
         21   -1    0    0  502  501  0.00000000000E+00  0.00000000000E+00  0.37987976518E+03  0.37987976518E+03  0.00000000000E+00 0.  1.
         21   -1    0    0  501  502 -0.00000000000E+00 -0.00000000000E+00 -0.20336095755E+03  0.20336095755E+03  0.00000000000E+00 0.  1.
         25    1    1    2    0    0  0.79820361718E+02 -0.41169517376E+02 -0.57054596772E+02  0.16415372770E+03  0.12500000000E+03 0.  0.
         25    1    1    2    0    0 -0.85818377674E+01 -0.77747475897E+02  0.45999805746E+02  0.15446455929E+03  0.12500000000E+03 0.  0.
         25    1    1    2    0    0 -0.71238523951E+02  0.11891699327E+03  0.18757359866E+03  0.26462243574E+03  0.12500000000E+03 0.  0.
</event>
<event>
 5    0  0.7176513E-005  0.2726072E+03  0.7546771E-02  0.1099797E+00
         21   -1    0    0  502  501  0.00000000000E+00  0.00000000000E+00  0.28927181063E+03  0.28927181063E+03  0.00000000000E+00 0.  1.
         21   -1    0    0  501  502 -0.00000000000E+00 -0.00000000000E+00 -0.25690261056E+03  0.25690261056E+03  0.00000000000E+00 0.  1.
         25    1    1    2    0    0  0.60784023251E+02 -0.49342607512E+02 -0.50535255724E+02  0.15591087990E+03  0.12500000000E+03 0.  0.
         25    1    1    2    0    0 -0.56933572581E+02  0.32853901401E+02  0.18163311278E+03  0.23007911287E+03  0.12500000000E+03 0.  0.
         25    1    1    2    0    0 -0.38504506696E+01  0.16488706111E+02 -0.98728656980E+02  0.16018442842E+03  0.12500000000E+03 0.  0.
</event>
<event>
 5    0  0.6533357E-005  0.3014912E+03  0.7546771E-02  0.1084498E+00
         21   -1    0    0  502  501  0.00000000000E+00  0.00000000000E+00  0.42687651252E+03  0.42687651252E+03  0.00000000000E+00 0.  1.
         21   -1    0    0  501  502 -0.00000000000E+00 -0.00000000000E+00 -0.21293501716E+03  0.21293501716E+03  0.00000000000E+00 0.  1.
         25    1    1    2    0    0 -0.29282753205E+02 -0.10206851788E+03  0.66186051415E+02  0.17686451136E+03  0.12500000000E+03 0.  0.
         25    1    1    2    0    0  0.11185262518E+03 -0.43714101694E+02 -0.44481586586E+02  0.17895682158E+03  0.12500000000E+03 0.  0.
         25    1    1    2    0    0 -0.82569871971E+02  0.14578261958E+03  0.19223703054E+03  0.28399019673E+03  0.12500000000E+03 0.  0.
</event>
<event>
 5    0  0.5749909E-005  0.5557284E+03  0.7546771E-02  0.1000177E+00
         21   -1    0    0  502  501  0.00000000000E+00  0.00000000000E+00  0.95329979646E+03  0.95329979646E+03  0.00000000000E+00 0. -1.
         21   -1    0    0  501  502 -0.00000000000E+00 -0.00000000000E+00 -0.32396322216E+03  0.32396322216E+03  0.00000000000E+00 0. -1.
         25    1    1    2    0    0 -0.82312276102E+02 -0.10073517550E+03  0.13767401496E+02  0.18093487150E+03  0.12500000000E+03 0.  0.
         25    1    1    2    0    0 -0.37980094300E+03  0.13655119061E+03  0.34352526764E+03  0.54454530892E+03  0.12500000000E+03 0.  0.
         25    1    1    2    0    0  0.46211321910E+03 -0.35816015112E+02  0.27204390516E+03  0.55178283820E+03  0.12500000000E+03 0.  0.
</event>
<event>
 5    0  0.5749909E-005  0.2941986E+03  0.7546771E-02  0.1088177E+00
         21   -1    0    0  502  501  0.00000000000E+00  0.00000000000E+00  0.91079621614E+03  0.91079621614E+03  0.00000000000E+00 0. -1.
         21   -1    0    0  501  502 -0.00000000000E+00 -0.00000000000E+00 -0.95029855605E+02  0.95029855605E+02  0.00000000000E+00 0. -1.
         25    1    1    2    0    0  0.94392585216E+02  0.42542369301E+02  0.10044765965E+03  0.19087835304E+03  0.12500000000E+03 0.  0.
         25    1    1    2    0    0 -0.18213804971E+03 -0.37360594138E+02  0.31579185095E+03  0.38719449411E+03  0.12500000000E+03 0.  0.
         25    1    1    2    0    0  0.87745464492E+02 -0.51817751630E+01  0.39952684993E+03  0.42775322459E+03  0.12500000000E+03 0.  0.
</event>
<event>
 5    0  0.5749909E-005  0.2743100E+03  0.7546771E-02  0.1098838E+00
         21   -1    0    0  502  501  0.00000000000E+00  0.00000000000E+00  0.37744874020E+03  0.37744874020E+03  0.00000000000E+00 0. -1.
         21   -1    0    0  501  502 -0.00000000000E+00 -0.00000000000E+00 -0.19935415863E+03  0.19935415863E+03  0.00000000000E+00 0. -1.
         25    1    1    2    0    0 -0.79942070064E+02 -0.72089061625E+02 -0.66049696359E+02  0.17769392157E+03  0.12500000000E+03 0.  0.
         25    1    1    2    0    0  0.19828703357E+02  0.51537617073E+02  0.21676278355E+03  0.25624286874E+03  0.12500000000E+03 0.  0.
         25    1    1    2    0    0  0.60113366707E+02  0.20551444552E+02  0.27381494376E+02  0.14286610852E+03  0.12500000000E+03 0.  0.
</event>
<event>
 5    0  0.5749909E-005  0.3419526E+03  0.7546771E-02  0.1065967E+00
         21   -1    0    0  502  501  0.00000000000E+00  0.00000000000E+00  0.53145422587E+02  0.53145422587E+02  0.00000000000E+00 0.  1.
         21   -1    0    0  501  502 -0.00000000000E+00 -0.00000000000E+00 -0.22002189291E+04  0.22002189291E+04  0.00000000000E+00 0.  1.
         25    1    1    2    0    0 -0.19370477698E+03  0.14527790759E+02 -0.55662974645E+03  0.60265601462E+03  0.12500000000E+03 0.  0.
         25    1    1    2    0    0  0.20788713325E+03 -0.95953593510E+02 -0.12758700181E+04  0.13022647409E+04  0.12500000000E+03 0.  0.
         25    1    1    2    0    0 -0.14182356272E+02  0.81425802751E+02 -0.31457374195E+03  0.34844359617E+03  0.12500000000E+03 0.  0.
</event>
<event>
 5    0  0.5749909E-005  0.2204768E+03  0.7546771E-02  0.1133528E+00
         21   -1    0    0  502  501  0.00000000000E+00  0.00000000000E+00  0.54943214350E+02  0.54943214350E+02  0.00000000000E+00 0.  1.
         21   -1    0    0  501  502 -0.00000000000E+00 -0.00000000000E+00 -0.88473180969E+03  0.88473180969E+03  0.00000000000E+00 0.  1.
         25    1    1    2    0    0 -0.23324509150E+02 -0.47230228630E+02 -0.48724656637E+03  0.50577558627E+03  0.12500000000E+03 0.  0.
         25    1    1    2    0    0  0.21893148063E+02  0.54615375772E+02 -0.14732358154E+03  0.20196877699E+03  0.12500000000E+03 0.  0.
         25    1    1    2    0    0  0.14313610867E+01 -0.73851471425E+01 -0.19521844743E+03  0.23193066078E+03  0.12500000000E+03 0.  0.
</event>
<event>
 5    0  0.5749909E-005  0.2806355E+03  0.7546771E-02  0.1095342E+00
         21   -1    0    0  502  501  0.00000000000E+00  0.00000000000E+00  0.30144657118E+03  0.30144657118E+03  0.00000000000E+00 0. -1.
         21   -1    0    0  501  502 -0.00000000000E+00 -0.00000000000E+00 -0.26126117130E+03  0.26126117130E+03  0.00000000000E+00 0. -1.
         25    1    1    2    0    0 -0.19660629727E+02  0.48871911629E+02  0.74058481771E+02  0.15454663642E+03  0.12500000000E+03 0.  0.
         25    1    1    2    0    0 -0.66314235669E+02 -0.96265244153E+02  0.10184937014E+03  0.19915538979E+03  0.12500000000E+03 0.  0.
         25    1    1    2    0    0  0.85974865396E+02  0.47393332524E+02 -0.13572245204E+03  0.20900571627E+03  0.12500000000E+03 0.  0.
</event>
<event>
 5    0  0.5749909E-005  0.2454985E+03  0.7546771E-02  0.1116183E+00
         21   -1    0    0  502  501  0.00000000000E+00  0.00000000000E+00  0.24834556654E+03  0.24834556654E+03  0.00000000000E+00 0.  1.
         21   -1    0    0  501  502 -0.00000000000E+00 -0.00000000000E+00 -0.24268416773E+03  0.24268416773E+03  0.00000000000E+00 0.  1.
         25    1    1    2    0    0  0.13608814930E+03 -0.30559126634E+01 -0.14450227790E+02  0.18537295398E+03  0.12500000000E+03 0.  0.
         25    1    1    2    0    0 -0.24819908657E+02 -0.28181785385E+02 -0.16402123712E+02  0.13154569759E+03  0.12500000000E+03 0.  0.
         25    1    1    2    0    0 -0.11126824065E+03  0.31237698048E+02  0.36513750314E+02  0.17411108270E+03  0.12500000000E+03 0.  0.
</event>
<event>
 5    0  0.5749909E-005  0.2706044E+03  0.7546771E-02  0.1100934E+00
         21   -1    0    0  502  501  0.00000000000E+00  0.00000000000E+00  0.86168940650E+02  0.86168940650E+02  0.00000000000E+00 0.  1.
         21   -1    0    0  501  502 -0.00000000000E+00 -0.00000000000E+00 -0.84980417349E+03  0.84980417349E+03  0.00000000000E+00 0.  1.
         25    1    1    2    0    0  0.13127952895E+03 -0.21447088920E+02 -0.22407761422E+03  0.28901569082E+03  0.12500000000E+03 0.  0.
         25    1    1    2    0    0 -0.68141418363E+02  0.24153226590E+02 -0.76979139142E+02  0.16363807355E+03  0.12500000000E+03 0.  0.
         25    1    1    2    0    0 -0.63138110588E+02 -0.27061376697E+01 -0.46257847948E+03  0.48331934978E+03  0.12500000000E+03 0.  0.
</event>
<event>
 5    0  0.5749909E-005  0.2620000E+03  0.7546771E-02  0.1105947E+00
         21   -1    0    0  502  501  0.00000000000E+00  0.00000000000E+00  0.10047655922E+04  0.10047655922E+04  0.00000000000E+00 0. -1.
         21   -1    0    0  501  502 -0.00000000000E+00 -0.00000000000E+00 -0.68318441456E+02  0.68318441456E+02  0.00000000000E+00 0. -1.
         25    1    1    2    0    0  0.93565166943E+02  0.34587799084E+02  0.14270004120E+03  0.21433398720E+03  0.12500000000E+03 0.  0.
         25    1    1    2    0    0 -0.91574056784E+02  0.60120077348E+02  0.33564630766E+03  0.37454462407E+03  0.12500000000E+03 0.  0.
         25    1    1    2    0    0 -0.19911101587E+01 -0.94707876432E+02  0.45810080186E+03  0.48420542236E+03  0.12500000000E+03 0.  0.
</event>
<event>
 5    0  0.5749909E-005  0.2783094E+03  0.7546771E-02  0.1096616E+00
         21   -1    0    0  502  501  0.00000000000E+00  0.00000000000E+00  0.28220255739E+03  0.28220255739E+03  0.00000000000E+00 0.  1.
         21   -1    0    0  501  502 -0.00000000000E+00 -0.00000000000E+00 -0.27447003371E+03  0.27447003371E+03  0.00000000000E+00 0.  1.
         25    1    1    2    0    0 -0.68462374682E+02 -0.11528736499E+03 -0.51655401167E+02  0.19045092214E+03  0.12500000000E+03 0.  0.
         25    1    1    2    0    0  0.14576823127E+03  0.47349145648E+02  0.15065651856E+02  0.19834891658E+03  0.12500000000E+03 0.  0.
         25    1    1    2    0    0 -0.77305856592E+02  0.67938219339E+02  0.44322272991E+02  0.16787275239E+03  0.12500000000E+03 0.  0.
</event>
<event>
 5    0  0.5749909E-005  0.4617835E+03  0.7546771E-02  0.1024265E+00
         21   -1    0    0  502  501  0.00000000000E+00  0.00000000000E+00  0.15645746610E+03  0.15645746610E+03  0.00000000000E+00 0. -1.
         21   -1    0    0  501  502 -0.00000000000E+00 -0.00000000000E+00 -0.13629516217E+04  0.13629516217E+04  0.00000000000E+00 0. -1.
         25    1    1    2    0    0 -0.20794845650E+03  0.26163369855E+03 -0.47398910993E+03  0.59328359922E+03  0.12500000000E+03 0.  0.
         25    1    1    2    0    0  0.25792061063E+03 -0.73037944895E+02 -0.23662517909E+03  0.37877969608E+03  0.12500000000E+03 0.  0.
         25    1    1    2    0    0 -0.49972154125E+02 -0.18859575365E+03 -0.49587986658E+03  0.54734579250E+03  0.12500000000E+03 0.  0.
</event>
<event>
 5    0  0.5749909E-005  0.3118373E+03  0.7546771E-02  0.1079469E+00
         21   -1    0    0  502  501  0.00000000000E+00  0.00000000000E+00  0.15667095765E+03  0.15667095765E+03  0.00000000000E+00 0.  1.
         21   -1    0    0  501  502 -0.00000000000E+00 -0.00000000000E+00 -0.62067974091E+03  0.62067974091E+03  0.00000000000E+00 0.  1.
         25    1    1    2    0    0  0.86078041026E+02  0.26725264823E+02 -0.32279440433E+03  0.35769385848E+03  0.12500000000E+03 0.  0.
         25    1    1    2    0    0 -0.81726313084E+02 -0.10232490839E+03 -0.19298642941E+03  0.26460978641E+03  0.12500000000E+03 0.  0.
         25    1    1    2    0    0 -0.43517279424E+01  0.75599643565E+02  0.51772050475E+02  0.15504705368E+03  0.12500000000E+03 0.  0.
</event>
<event>
 5    0  0.5749909E-005  0.4332689E+03  0.7546771E-02  0.1032832E+00
         21   -1    0    0  502  501  0.00000000000E+00  0.00000000000E+00  0.73693389339E+03  0.73693389339E+03  0.00000000000E+00 0. -1.
         21   -1    0    0  501  502 -0.00000000000E+00 -0.00000000000E+00 -0.25473371258E+03  0.25473371258E+03  0.00000000000E+00 0. -1.
         25    1    1    2    0    0  0.12062931770E+03  0.25003036048E+03  0.25109099952E+03  0.39463692616E+03  0.12500000000E+03 0.  0.
         25    1    1    2    0    0 -0.91216930724E+02 -0.35268595877E+03  0.14581523145E+03  0.41181912982E+03  0.12500000000E+03 0.  0.
         25    1    1    2    0    0 -0.29412386973E+02  0.10265559829E+03  0.85293949841E+02  0.18521154998E+03  0.12500000000E+03 0.  0.
</event>
<event>
 5    0  0.5749909E-005  0.3057946E+03  0.7546771E-02  0.1082379E+00
         21   -1    0    0  502  501  0.00000000000E+00  0.00000000000E+00  0.21340276584E+04  0.21340276584E+04  0.00000000000E+00 0.  1.
         21   -1    0    0  501  502 -0.00000000000E+00 -0.00000000000E+00 -0.43818704029E+02  0.43818704029E+02  0.00000000000E+00 0.  1.
         25    1    1    2    0    0 -0.30603711118E+02 -0.10007856057E+03  0.21090264600E+03  0.26656562327E+03  0.12500000000E+03 0.  0.
         25    1    1    2    0    0  0.71520008760E+02  0.13345373189E+03  0.81287251450E+03  0.83624860839E+03  0.12500000000E+03 0.  0.
         25    1    1    2    0    0 -0.40916297642E+02 -0.33375171325E+02  0.10664337939E+04  0.10750321308E+04  0.12500000000E+03 0.  0.
</event>
<event>
 5    0  0.5749909E-005  0.2501951E+03  0.7546771E-02  0.1113182E+00
         21   -1    0    0  502  501  0.00000000000E+00  0.00000000000E+00  0.15055503514E+04  0.15055503514E+04  0.00000000000E+00 0. -1.
         21   -1    0    0  501  502 -0.00000000000E+00 -0.00000000000E+00 -0.41577894038E+02  0.41577894038E+02  0.00000000000E+00 0. -1.
         25    1    1    2    0    0 -0.81912383830E+02 -0.10809732981E+03  0.84479118737E+03  0.86469174946E+03  0.12500000000E+03 0.  0.
         25    1    1    2    0    0  0.31919275478E+02  0.65148801806E+02  0.28319478992E+03  0.31794259791E+03  0.12500000000E+03 0.  0.
         25    1    1    2    0    0  0.49993108352E+02  0.42948528006E+02  0.33598648012E+03  0.36449389812E+03  0.12500000000E+03 0.  0.
</event>
<event>
 5    0  0.5749909E-005  0.3355123E+03  0.7546771E-02  0.1068724E+00
         21   -1    0    0  502  501  0.00000000000E+00  0.00000000000E+00  0.11932311277E+03  0.11932311277E+03  0.00000000000E+00 0. -1.
         21   -1    0    0  501  502 -0.00000000000E+00 -0.00000000000E+00 -0.94339203310E+03  0.94339203310E+03  0.00000000000E+00 0. -1.
         25    1    1    2    0    0  0.77010288076E+02  0.86144542906E+01 -0.16611702684E+03  0.22186631087E+03  0.12500000000E+03 0.  0.
         25    1    1    2    0    0  0.17117320861E+03 -0.78410203312E+02 -0.20636929605E+03  0.30604201294E+03  0.12500000000E+03 0.  0.
         25    1    1    2    0    0 -0.24818349669E+03  0.69795749021E+02 -0.45158259743E+03  0.53480682205E+03  0.12500000000E+03 0.  0.
</event>
<event>
 5    0  0.5749909E-005  0.3780609E+03  0.7546771E-02  0.1051653E+00
         21   -1    0    0  502  501  0.00000000000E+00  0.00000000000E+00  0.59461225479E+03  0.59461225479E+03  0.00000000000E+00 0. -1.
         21   -1    0    0  501  502 -0.00000000000E+00 -0.00000000000E+00 -0.24037525061E+03  0.24037525061E+03  0.00000000000E+00 0. -1.
         25    1    1    2    0    0  0.33389436928E+02  0.26998336832E+02 -0.88134172997E+02  0.15885967751E+03  0.12500000000E+03 0.  0.
         25    1    1    2    0    0 -0.22165128357E+03  0.58093176538E+02  0.16694252375E+03  0.30983691662E+03  0.12500000000E+03 0.  0.
         25    1    1    2    0    0  0.18826184664E+03 -0.85091513370E+02  0.27542865343E+03  0.36629091127E+03  0.12500000000E+03 0.  0.
</event>
<event>
 5    0  0.5919134E-005  0.3352381E+03  0.7546771E-02  0.1068842E+00
         21   -1    0    0  502  501  0.00000000000E+00  0.00000000000E+00  0.52959719434E+03  0.52959719434E+03  0.00000000000E+00 0. -1.
         21   -1    0    0  501  502 -0.00000000000E+00 -0.00000000000E+00 -0.21220762960E+03  0.21220762960E+03  0.00000000000E+00 0. -1.
         25    1    1    2    0    0  0.13863628278E+03  0.44456357302E+02  0.12269073378E+03  0.22775952837E+03  0.12500000000E+03 0.  0.
         25    1    1    2    0    0 -0.96040667322E+02  0.13073156925E+03  0.21101617360E+03  0.29405335995E+03  0.12500000000E+03 0.  0.
         25    1    1    2    0    0 -0.42595615461E+02 -0.17518792655E+03 -0.16317342631E+02  0.21999193562E+03  0.12500000000E+03 0.  0.
</event>
<event>
 5    0  0.5749909E-005  0.3885667E+03  0.7546771E-02  0.1047812E+00
         21   -1    0    0  502  501  0.00000000000E+00  0.00000000000E+00  0.61284067004E+03  0.61284067004E+03  0.00000000000E+00 0. -1.
         21   -1    0    0  501  502 -0.00000000000E+00 -0.00000000000E+00 -0.24636761189E+03  0.24636761189E+03  0.00000000000E+00 0. -1.
         25    1    1    2    0    0 -0.50063053274E+02  0.95065170293E+02  0.25875310321E+03  0.30679286877E+03  0.12500000000E+03 0.  0.
         25    1    1    2    0    0 -0.12627054679E+03  0.13663428533E+03  0.29802513500E+02  0.22611140778E+03  0.12500000000E+03 0.  0.
         25    1    1    2    0    0  0.17633360007E+03 -0.23169945563E+03  0.77917441445E+02  0.32630400539E+03  0.12500000000E+03 0.  0.
</event>
<event>
 5    0  0.6087952E-005  0.2879512E+03  0.7546771E-02  0.1091424E+00
         21   -1    0    0  502  501  0.00000000000E+00  0.00000000000E+00  0.78382855582E+02  0.78382855582E+02  0.00000000000E+00 0.  1.
         21   -1    0    0  501  502 -0.00000000000E+00 -0.00000000000E+00 -0.10578323011E+04  0.10578323011E+04  0.00000000000E+00 0.  1.
         25    1    1    2    0    0 -0.14090560604E+03  0.12830195758E+03 -0.31136773977E+03  0.38586351408E+03  0.12500000000E+03 0.  0.
         25    1    1    2    0    0  0.11257555517E+03 -0.22824659440E+02 -0.40680945214E+03  0.44080965399E+03  0.12500000000E+03 0.  0.
         25    1    1    2    0    0  0.28330050865E+02 -0.10547729814E+03 -0.26127225359E+03  0.30954198859E+03  0.12500000000E+03 0.  0.
</event>
<event>
 5    0  0.5749909E-005  0.3830332E+03  0.7546771E-02  0.1049818E+00
         21   -1    0    0  502  501  0.00000000000E+00  0.00000000000E+00  0.57613322415E+03  0.57613322415E+03  0.00000000000E+00 0. -1.
         21   -1    0    0  501  502 -0.00000000000E+00 -0.00000000000E+00 -0.25465366163E+03  0.25465366163E+03  0.00000000000E+00 0. -1.
         25    1    1    2    0    0  0.10615126046E+03 -0.18108168910E+03  0.81001286542E+02  0.25738080085E+03  0.12500000000E+03 0.  0.
         25    1    1    2    0    0 -0.80147214879E+02 -0.43112891691E+02  0.27261584511E+03  0.31341138539E+03  0.12500000000E+03 0.  0.
         25    1    1    2    0    0 -0.26004045584E+02  0.22419458079E+03 -0.32137569134E+02  0.25999469955E+03  0.12500000000E+03 0.  0.
</event>
<event>
 5    0  0.5749909E-005  0.2118010E+03  0.7546771E-02  0.1140148E+00
         21   -1    0    0  502  501  0.00000000000E+00  0.00000000000E+00  0.61940833412E+03  0.61940833412E+03  0.00000000000E+00 0.  1.
         21   -1    0    0  501  502 -0.00000000000E+00 -0.00000000000E+00 -0.72423417200E+02  0.72423417200E+02  0.00000000000E+00 0.  1.
         25    1    1    2    0    0 -0.46789758171E+02 -0.23694474907E+02  0.17691747922E+03  0.22288002168E+03  0.12500000000E+03 0.  0.
         25    1    1    2    0    0  0.83779589274E+02 -0.11504356879E+02  0.16699766512E+03  0.22508796050E+03  0.12500000000E+03 0.  0.
         25    1    1    2    0    0 -0.36989831103E+02  0.35198831786E+02  0.20306977259E+03  0.24386376915E+03  0.12500000000E+03 0.  0.
</event>
<event>
 5    0  0.5749909E-005  0.2988290E+03  0.7546771E-02  0.1085827E+00
         21   -1    0    0  502  501  0.00000000000E+00  0.00000000000E+00  0.34462510483E+03  0.34462510483E+03  0.00000000000E+00 0. -1.
         21   -1    0    0  501  502 -0.00000000000E+00 -0.00000000000E+00 -0.25911852492E+03  0.25911852492E+03  0.00000000000E+00 0. -1.
         25    1    1    2    0    0  0.83684187175E+02  0.89770731952E+02  0.40248063182E+02  0.17974074131E+03  0.12500000000E+03 0.  0.
         25    1    1    2    0    0  0.81005046086E+02  0.17471544939E+02 -0.68402711862E+02  0.16483629262E+03  0.12500000000E+03 0.  0.
         25    1    1    2    0    0 -0.16468923326E+03 -0.10724227689E+03  0.11366122859E+03  0.25916659582E+03  0.12500000000E+03 0.  0.
</event>
<event>
 5    0  0.5749909E-005  0.4182507E+03  0.7546771E-02  0.1037637E+00
         21   -1    0    0  502  501  0.00000000000E+00  0.00000000000E+00  0.97837962236E+03  0.97837962236E+03  0.00000000000E+00 0. -1.
         21   -1    0    0  501  502 -0.00000000000E+00 -0.00000000000E+00 -0.17879933018E+03  0.17879933018E+03  0.00000000000E+00 0. -1.
         25    1    1    2    0    0  0.11975240758E+03  0.13154501561E+03  0.33357610987E+03  0.39817427256E+03  0.12500000000E+03 0.  0.
         25    1    1    2    0    0 -0.21080482835E+03 -0.21471142319E+03  0.48296384974E+03  0.58259655943E+03  0.12500000000E+03 0.  0.
         25    1    1    2    0    0  0.91052420770E+02  0.83166407579E+02 -0.16959667431E+02  0.17640812055E+03  0.12500000000E+03 0.  0.
</event>
<event>
 5    0  0.6025893E-005  0.3497675E+03  0.7546771E-02  0.1062711E+00
         21   -1    0    0  502  501  0.00000000000E+00  0.00000000000E+00  0.16919735747E+04  0.16919735747E+04  0.00000000000E+00 0. -1.
         21   -1    0    0  501  502 -0.00000000000E+00 -0.00000000000E+00 -0.72304489281E+02  0.72304489281E+02  0.00000000000E+00 0. -1.
         25    1    1    2    0    0 -0.15443577528E+01 -0.83367732658E+02  0.11567918353E+03  0.18962921028E+03  0.12500000000E+03 0.  0.
         25    1    1    2    0    0 -0.13358555106E+03 -0.98377920525E+02  0.67112686048E+03  0.70253795453E+03  0.12500000000E+03 0.  0.
         25    1    1    2    0    0  0.13512990882E+03  0.18174565318E+03  0.83286304144E+03  0.87211089920E+03  0.12500000000E+03 0.  0.
</event>
<event>
 5    0  0.5749909E-005  0.2561324E+03  0.7546771E-02  0.1109489E+00
         21   -1    0    0  502  501  0.00000000000E+00  0.00000000000E+00  0.28388795307E+03  0.28388795307E+03  0.00000000000E+00 0. -1.
         21   -1    0    0  501  502 -0.00000000000E+00 -0.00000000000E+00 -0.23109050848E+03  0.23109050848E+03  0.00000000000E+00 0. -1.
         25    1    1    2    0    0  0.13817414884E+03  0.31472032403E+01 -0.89703722439E+01  0.18656759599E+03  0.12500000000E+03 0.  0.
         25    1    1    2    0    0 -0.47176739152E+02  0.53447192423E+02 -0.18775125084E+02  0.14511978644E+03  0.12500000000E+03 0.  0.
         25    1    1    2    0    0 -0.90997409687E+02 -0.56594395663E+02  0.80542941923E+02  0.18329107912E+03  0.12500000000E+03 0.  0.
</event>
<event>
 5    0  0.5749909E-005  0.3336350E+03  0.7546771E-02  0.1069540E+00
         21   -1    0    0  502  501  0.00000000000E+00  0.00000000000E+00  0.12821389050E+04  0.12821389050E+04  0.00000000000E+00 0. -1.
         21   -1    0    0  501  502 -0.00000000000E+00 -0.00000000000E+00 -0.86817663932E+02  0.86817663932E+02  0.00000000000E+00 0. -1.
         25    1    1    2    0    0  0.13581719649E+03 -0.10481941324E+03  0.30235761526E+03  0.36943003094E+03  0.12500000000E+03 0.  0.
         25    1    1    2    0    0 -0.19346124886E+03  0.17882141136E+03  0.54590383451E+03  0.61890253554E+03  0.12500000000E+03 0.  0.
         25    1    1    2    0    0  0.57644052376E+02 -0.74001998122E+02  0.34705979130E+03  0.38062400244E+03  0.12500000000E+03 0.  0.
</event>
<event>
 5    0  0.5749909E-005  0.3886538E+03  0.7546771E-02  0.1047781E+00
         21   -1    0    0  502  501  0.00000000000E+00  0.00000000000E+00  0.48055967461E+03  0.48055967461E+03  0.00000000000E+00 0.  1.
         21   -1    0    0  501  502 -0.00000000000E+00 -0.00000000000E+00 -0.31432468826E+03  0.31432468826E+03  0.00000000000E+00 0.  1.
         25    1    1    2    0    0 -0.59789635722E+02 -0.17414119942E+03  0.18675930555E+01  0.22254987257E+03  0.12500000000E+03 0.  0.
         25    1    1    2    0    0 -0.58247090035E+02 -0.30672795174E+02 -0.11753836019E+03  0.18377652184E+03  0.12500000000E+03 0.  0.
         25    1    1    2    0    0  0.11803672576E+03  0.20481399459E+03  0.28190575349E+03  0.38855796847E+03  0.12500000000E+03 0.  0.
</event>
<event>
 5    0  0.5749909E-005  0.4019292E+03  0.7546771E-02  0.1043114E+00
         21   -1    0    0  502  501  0.00000000000E+00  0.00000000000E+00  0.10406213071E+04  0.10406213071E+04  0.00000000000E+00 0.  1.
         21   -1    0    0  501  502 -0.00000000000E+00 -0.00000000000E+00 -0.15524096916E+03  0.15524096916E+03  0.00000000000E+00 0.  1.
         25    1    1    2    0    0  0.20760532173E+03  0.68107212610E+02  0.29474551615E+03  0.38760609039E+03  0.12500000000E+03 0.  0.
         25    1    1    2    0    0 -0.10035245244E+03  0.18754495569E+03  0.28783650114E+03  0.37910232986E+03  0.12500000000E+03 0.  0.
         25    1    1    2    0    0 -0.10725286929E+03 -0.25565216830E+03  0.30279832060E+03  0.42915385596E+03  0.12500000000E+03 0.  0.
</event>
<event>
 5    0  0.6374786E-005  0.4206172E+03  0.7546771E-02  0.1036866E+00
         21   -1    0    0  502  501  0.00000000000E+00  0.00000000000E+00  0.49696867750E+03  0.49696867750E+03  0.00000000000E+00 0.  1.
         21   -1    0    0  501  502 -0.00000000000E+00 -0.00000000000E+00 -0.35599586538E+03  0.35599586538E+03  0.00000000000E+00 0.  1.
         25    1    1    2    0    0  0.18758847125E+03  0.27062698925E+03  0.13190130080E+03  0.37610019278E+03  0.12500000000E+03 0.  0.
         25    1    1    2    0    0 -0.83696548441E+02 -0.11246986144E+03  0.12153931365E+03  0.22372167243E+03  0.12500000000E+03 0.  0.
         25    1    1    2    0    0 -0.10389192281E+03 -0.15815712780E+03 -0.11246780233E+03  0.25314267768E+03  0.12500000000E+03 0.  0.
</event>
<event>
 5    0  0.5749909E-005  0.3416783E+03  0.7546771E-02  0.1066083E+00
         21   -1    0    0  502  501  0.00000000000E+00  0.00000000000E+00  0.95043726028E+03  0.95043726028E+03  0.00000000000E+00 0.  1.
         21   -1    0    0  501  502 -0.00000000000E+00 -0.00000000000E+00 -0.12283192610E+03  0.12283192610E+03  0.00000000000E+00 0.  1.
         25    1    1    2    0    0  0.62650337025E+02  0.36377129610E+02  0.68194667585E+02  0.15976192592E+03  0.12500000000E+03 0.  0.
         25    1    1    2    0    0 -0.19444902915E+03  0.12664477406E+03  0.38631498963E+03  0.46766825309E+03  0.12500000000E+03 0.  0.
         25    1    1    2    0    0  0.13179869213E+03 -0.16302190367E+03  0.37309567695E+03  0.44583900736E+03  0.12500000000E+03 0.  0.
</event>
<event>
 5    0  0.5749909E-005  0.3131943E+03  0.7546771E-02  0.1078825E+00
         21   -1    0    0  502  501  0.00000000000E+00  0.00000000000E+00  0.13104746693E+04  0.13104746693E+04  0.00000000000E+00 0. -1.
         21   -1    0    0  501  502 -0.00000000000E+00 -0.00000000000E+00 -0.74851269466E+02  0.74851269466E+02  0.00000000000E+00 0. -1.
         25    1    1    2    0    0 -0.18232458852E+03  0.41592155788E+02  0.83676612195E+03  0.86647256497E+03  0.12500000000E+03 0.  0.
         25    1    1    2    0    0  0.97320907837E+02  0.23069121881E+02  0.14261750869E+03  0.21440218579E+03  0.12500000000E+03 0.  0.
         25    1    1    2    0    0  0.85003680687E+02 -0.64661277669E+02  0.25623976918E+03  0.30445118800E+03  0.12500000000E+03 0.  0.
</event>
<event>
 5    0  0.5749909E-005  0.2910189E+03  0.7546771E-02  0.1089818E+00
         21   -1    0    0  502  501  0.00000000000E+00  0.00000000000E+00  0.37556066400E+03  0.37556066400E+03  0.00000000000E+00 0. -1.
         21   -1    0    0  501  502 -0.00000000000E+00 -0.00000000000E+00 -0.22550820037E+03  0.22550820037E+03  0.00000000000E+00 0. -1.
         25    1    1    2    0    0  0.38672253703E+02 -0.10578887258E+03  0.93425694824E+02  0.19245827917E+03  0.12500000000E+03 0.  0.
         25    1    1    2    0    0  0.35229594171E+02  0.77299735370E+01 -0.10731937271E+03  0.16865148844E+03  0.12500000000E+03 0.  0.
         25    1    1    2    0    0 -0.73901847874E+02  0.98058899039E+02  0.16394614151E+03  0.23995909675E+03  0.12500000000E+03 0.  0.
</event>
<event>
 5    0  0.5749909E-005  0.2116647E+03  0.7546771E-02  0.1140254E+00
         21   -1    0    0  502  501  0.00000000000E+00  0.00000000000E+00  0.53037833007E+03  0.53037833007E+03  0.00000000000E+00 0. -1.
         21   -1    0    0  501  502 -0.00000000000E+00 -0.00000000000E+00 -0.84471673083E+02  0.84471673083E+02  0.00000000000E+00 0. -1.
         25    1    1    2    0    0 -0.60780846556E+02  0.67317302665E+01  0.93739472526E+02  0.16778473175E+03  0.12500000000E+03 0.  0.
         25    1    1    2    0    0  0.19426476686E+02 -0.13579715334E+02  0.24913164352E+03  0.27973804258E+03  0.12500000000E+03 0.  0.
         25    1    1    2    0    0  0.41354369870E+02  0.68479850675E+01  0.10303554095E+03  0.16732722882E+03  0.12500000000E+03 0.  0.
</event>
<event>
 5    0  0.5752502E-005  0.2832243E+03  0.7546771E-02  0.1093941E+00
         21   -1    0    0  502  501  0.00000000000E+00  0.00000000000E+00  0.40562283232E+03  0.40562283232E+03  0.00000000000E+00 0. -1.
         21   -1    0    0  501  502 -0.00000000000E+00 -0.00000000000E+00 -0.19776006769E+03  0.19776006769E+03  0.00000000000E+00 0. -1.
         25    1    1    2    0    0  0.17713163568E+02  0.41999290663E+02 -0.49147914094E+02  0.14183869021E+03  0.12500000000E+03 0.  0.
         25    1    1    2    0    0  0.13332356399E+03 -0.28909698069E+02  0.10207913895E+03  0.21131988540E+03  0.12500000000E+03 0.  0.
         25    1    1    2    0    0 -0.15103672756E+03 -0.13089592594E+02  0.15493153977E+03  0.25022432440E+03  0.12500000000E+03 0.  0.
</event>
<event>
 5    0  0.5749909E-005  0.3710004E+03  0.7546771E-02  0.1054311E+00
         21   -1    0    0  502  501  0.00000000000E+00  0.00000000000E+00  0.28421155452E+03  0.28421155452E+03  0.00000000000E+00 0. -1.
         21   -1    0    0  501  502 -0.00000000000E+00 -0.00000000000E+00 -0.48429173675E+03  0.48429173675E+03  0.00000000000E+00 0. -1.
         25    1    1    2    0    0  0.23157110024E+03  0.21069513500E+03 -0.50778193286E+02  0.34091206974E+03  0.12500000000E+03 0.  0.
         25    1    1    2    0    0 -0.11768935845E+03 -0.10462206563E+03 -0.76689963359E+02  0.21518111485E+03  0.12500000000E+03 0.  0.
         25    1    1    2    0    0 -0.11388174179E+03 -0.10607306936E+03 -0.72612025587E+02  0.21241010667E+03  0.12500000000E+03 0.  0.
</event>
<event>
 5    0  0.5749909E-005  0.2847962E+03  0.7546771E-02  0.1093098E+00
         21   -1    0    0  502  501  0.00000000000E+00  0.00000000000E+00  0.17596180378E+03  0.17596180378E+03  0.00000000000E+00 0.  1.
         21   -1    0    0  501  502 -0.00000000000E+00 -0.00000000000E+00 -0.46094575998E+03  0.46094575998E+03  0.00000000000E+00 0.  1.
         25    1    1    2    0    0  0.15441036087E+02 -0.35674639500E+02 -0.41341628781E+02  0.13727795078E+03  0.12500000000E+03 0.  0.
         25    1    1    2    0    0 -0.92936883975E+02 -0.99847534865E+02 -0.23548050557E+03  0.29947097209E+03  0.12500000000E+03 0.  0.
         25    1    1    2    0    0  0.77495847887E+02  0.13552217437E+03 -0.81618218482E+01  0.20015864088E+03  0.12500000000E+03 0.  0.
</event>
<event>
 5    0  0.5749909E-005  0.3609815E+03  0.7546771E-02  0.1058196E+00
         21   -1    0    0  502  501  0.00000000000E+00  0.00000000000E+00  0.24489566486E+03  0.24489566486E+03  0.00000000000E+00 0. -1.
         21   -1    0    0  501  502 -0.00000000000E+00 -0.00000000000E+00 -0.53209464355E+03  0.53209464355E+03  0.00000000000E+00 0. -1.
         25    1    1    2    0    0 -0.12294210279E+03 -0.76700474973E+02  0.13240594454E+03  0.23271024397E+03  0.12500000000E+03 0.  0.
         25    1    1    2    0    0 -0.42989343904E+01  0.87637213478E+02 -0.27433379481E+03  0.31397896904E+03  0.12500000000E+03 0.  0.
         25    1    1    2    0    0  0.12724103718E+03 -0.10936738505E+02 -0.14527112841E+03  0.23030109540E+03  0.12500000000E+03 0.  0.
</event>
<event>
 5    0  0.5749909E-005  0.2583559E+03  0.7546771E-02  0.1108135E+00
         21   -1    0    0  502  501  0.00000000000E+00  0.00000000000E+00  0.80309873240E+03  0.80309873240E+03  0.00000000000E+00 0.  1.
         21   -1    0    0  501  502 -0.00000000000E+00 -0.00000000000E+00 -0.83112764210E+02  0.83112764210E+02  0.00000000000E+00 0.  1.
         25    1    1    2    0    0  0.10021117030E+03 -0.14258435522E+02  0.89909224778E+02  0.18426679119E+03  0.12500000000E+03 0.  0.
         25    1    1    2    0    0 -0.43416117891E+01 -0.54972711621E+02  0.25547441344E+03  0.28971196824E+03  0.12500000000E+03 0.  0.
         25    1    1    2    0    0 -0.95869558512E+02  0.69231147143E+02  0.37460232997E+03  0.41223273718E+03  0.12500000000E+03 0.  0.
</event>
<event>
 5    0  0.5749909E-005  0.3366682E+03  0.7546771E-02  0.1068224E+00
         21   -1    0    0  502  501  0.00000000000E+00  0.00000000000E+00  0.28030627645E+03  0.28030627645E+03  0.00000000000E+00 0.  1.
         21   -1    0    0  501  502 -0.00000000000E+00 -0.00000000000E+00 -0.40436305121E+03  0.40436305121E+03  0.00000000000E+00 0.  1.
         25    1    1    2    0    0 -0.83964021673E+02 -0.14961492387E+03 -0.16383495342E+03  0.26814450273E+03  0.12500000000E+03 0.  0.
         25    1    1    2    0    0 -0.34195882386E+01  0.15765220479E+03  0.12959587115E+03  0.23934494162E+03  0.12500000000E+03 0.  0.
         25    1    1    2    0    0  0.87383609912E+02 -0.80372809221E+01 -0.89817692499E+02  0.17717988332E+03  0.12500000000E+03 0.  0.
</event>
<event>
 5    0  0.5749909E-005  0.2880595E+03  0.7546771E-02  0.1091367E+00
         21   -1    0    0  502  501  0.00000000000E+00  0.00000000000E+00  0.85588991818E+03  0.85588991818E+03  0.00000000000E+00 0. -1.
         21   -1    0    0  501  502 -0.00000000000E+00 -0.00000000000E+00 -0.96949701874E+02  0.96949701874E+02  0.00000000000E+00 0. -1.
         25    1    1    2    0    0 -0.45138014082E+02 -0.20240830836E+02  0.29060408704E+03  0.32019192206E+03  0.12500000000E+03 0.  0.
         25    1    1    2    0    0  0.15387460188E+03 -0.98469705213E+02  0.25239240933E+03  0.33570910657E+03  0.12500000000E+03 0.  0.
         25    1    1    2    0    0 -0.10873658780E+03  0.11871053605E+03  0.21594371995E+03  0.29693859143E+03  0.12500000000E+03 0.  0.
</event>
<event>
 5    0  0.5749909E-005  0.2738917E+03  0.7546771E-02  0.1099073E+00
         21   -1    0    0  502  501  0.00000000000E+00  0.00000000000E+00  0.29567003692E+03  0.29567003692E+03  0.00000000000E+00 0.  1.
         21   -1    0    0  501  502 -0.00000000000E+00 -0.00000000000E+00 -0.25371743573E+03  0.25371743573E+03  0.00000000000E+00 0.  1.
         25    1    1    2    0    0  0.23883338689E+02 -0.12580366383E+03 -0.94318186215E+01  0.17919524241E+03  0.12500000000E+03 0.  0.
         25    1    1    2    0    0 -0.10071071759E+02  0.18434919177E+03  0.60955537927E+02  0.23114200959E+03  0.12500000000E+03 0.  0.
         25    1    1    2    0    0 -0.13812266930E+02 -0.58545527933E+02 -0.95711181155E+01  0.13905022064E+03  0.12500000000E+03 0.  0.
</event>
<event>
 5    0  0.5749909E-005  0.3998637E+03  0.7546771E-02  0.1043827E+00
         21   -1    0    0  502  501  0.00000000000E+00  0.00000000000E+00  0.61330990309E+03  0.61330990309E+03  0.00000000000E+00 0.  1.
         21   -1    0    0  501  502 -0.00000000000E+00 -0.00000000000E+00 -0.26070179371E+03  0.26070179371E+03  0.00000000000E+00 0.  1.
         25    1    1    2    0    0  0.75877225168E+02  0.50756715792E+02 -0.15479578053E+03  0.21890712909E+03  0.12500000000E+03 0.  0.
         25    1    1    2    0    0 -0.16326659229E+02 -0.17837334165E+03  0.20933264808E+03  0.30253721484E+03  0.12500000000E+03 0.  0.
         25    1    1    2    0    0 -0.59550565939E+02  0.12761662586E+03  0.29807124183E+03  0.35256735287E+03  0.12500000000E+03 0.  0.
</event>
<event>
 5    0  0.5757642E-005  0.2892260E+03  0.7546771E-02  0.1090754E+00
         21   -1    0    0  502  501  0.00000000000E+00  0.00000000000E+00  0.71202411687E+03  0.71202411687E+03  0.00000000000E+00 0. -1.
         21   -1    0    0  501  502 -0.00000000000E+00 -0.00000000000E+00 -0.11748431990E+03  0.11748431990E+03  0.00000000000E+00 0. -1.
         25    1    1    2    0    0  0.13504162499E+03  0.29246707331E+02  0.10090278721E+03  0.21189144116E+03  0.12500000000E+03 0.  0.
         25    1    1    2    0    0 -0.10668382953E+03 -0.64907563251E+02  0.10204452161E+03  0.20404047550E+03  0.12500000000E+03 0.  0.
         25    1    1    2    0    0 -0.28357795459E+02  0.35660855920E+02  0.39159248815E+03  0.41357652011E+03  0.12500000000E+03 0.  0.
</event>
<event>
 5    0  0.5749909E-005  0.2411430E+03  0.7546771E-02  0.1119034E+00
         21   -1    0    0  502  501  0.00000000000E+00  0.00000000000E+00  0.19960858415E+03  0.19960858415E+03  0.00000000000E+00 0.  1.
         21   -1    0    0  501  502 -0.00000000000E+00 -0.00000000000E+00 -0.29131997499E+03  0.29131997499E+03  0.00000000000E+00 0.  1.
         25    1    1    2    0    0  0.20223676045E+02  0.11142883046E+03  0.41449233572E+02  0.17369058781E+03  0.12500000000E+03 0.  0.
         25    1    1    2    0    0  0.66855692987E+01 -0.13306540181E+02 -0.70741777920E+02  0.14439930745E+03  0.12500000000E+03 0.  0.
         25    1    1    2    0    0 -0.26909245344E+02 -0.98122290275E+02 -0.62418846491E+02  0.17283866388E+03  0.12500000000E+03 0.  0.
</event>
<event>
 5    0  0.5749909E-005  0.5017402E+03  0.7546771E-02  0.1013326E+00
         21   -1    0    0  502  501  0.00000000000E+00  0.00000000000E+00  0.43044474300E+03  0.43044474300E+03  0.00000000000E+00 0. -1.
         21   -1    0    0  501  502 -0.00000000000E+00 -0.00000000000E+00 -0.58484448480E+03  0.58484448480E+03  0.00000000000E+00 0. -1.
         25    1    1    2    0    0  0.38835289257E+03 -0.14381074675E+03 -0.54940615481E+02  0.43605386282E+03  0.12500000000E+03 0.  0.
         25    1    1    2    0    0 -0.32798866725E+03  0.21385867816E+03 -0.10292977641E+03  0.42371174039E+03  0.12500000000E+03 0.  0.
         25    1    1    2    0    0 -0.60364225318E+02 -0.70047931419E+02  0.34706500865E+01  0.15552362459E+03  0.12500000000E+03 0.  0.
</event>
<event>
 5    0  0.5749909E-005  0.2777423E+03  0.7546771E-02  0.1096928E+00
         21   -1    0    0  502  501  0.00000000000E+00  0.00000000000E+00  0.26130650292E+03  0.26130650292E+03  0.00000000000E+00 0.  1.
         21   -1    0    0  501  502 -0.00000000000E+00 -0.00000000000E+00 -0.29521189067E+03  0.29521189067E+03  0.00000000000E+00 0.  1.
         25    1    1    2    0    0  0.13463356329E+02  0.88332364005E+01 -0.15387861833E+03  0.19890429158E+03  0.12500000000E+03 0.  0.
         25    1    1    2    0    0  0.84716505899E+02  0.53906284595E+02  0.90794734042E+02  0.18425921312E+03  0.12500000000E+03 0.  0.
         25    1    1    2    0    0 -0.98179862227E+02 -0.62739520996E+02  0.29178496542E+02  0.17335488889E+03  0.12500000000E+03 0.  0.
</event>
<event>
 5    0  0.5749909E-005  0.4018407E+03  0.7546771E-02  0.1043144E+00
         21   -1    0    0  502  501  0.00000000000E+00  0.00000000000E+00  0.52597399519E+03  0.52597399519E+03  0.00000000000E+00 0. -1.
         21   -1    0    0  501  502 -0.00000000000E+00 -0.00000000000E+00 -0.30700362890E+03  0.30700362890E+03  0.00000000000E+00 0. -1.
         25    1    1    2    0    0  0.20344684310E+03  0.11587879143E+03 -0.16657820250E+03  0.31335572409E+03  0.12500000000E+03 0.  0.
         25    1    1    2    0    0 -0.11791919412E+03 -0.89617489686E+02  0.19699272330E+03  0.27634645616E+03  0.12500000000E+03 0.  0.
         25    1    1    2    0    0 -0.85527648979E+02 -0.26261301748E+02  0.18855584549E+03  0.24327544384E+03  0.12500000000E+03 0.  0.
</event>
<event>
 5    0  0.5749909E-005  0.3445979E+03  0.7546771E-02  0.1064854E+00
         21   -1    0    0  502  501  0.00000000000E+00  0.00000000000E+00  0.28874673971E+03  0.28874673971E+03  0.00000000000E+00 0.  1.
         21   -1    0    0  501  502 -0.00000000000E+00 -0.00000000000E+00 -0.41125208529E+03  0.41125208529E+03  0.00000000000E+00 0.  1.
         25    1    1    2    0    0 -0.67310854498E+02  0.62908042103E+02  0.65305119150E+02  0.16845750646E+03  0.12500000000E+03 0.  0.
         25    1    1    2    0    0  0.31994436968E+01  0.16821848813E+03 -0.15154924399E+03  0.25865009094E+03  0.12500000000E+03 0.  0.
         25    1    1    2    0    0  0.64111410801E+02 -0.23112653023E+03 -0.36261220741E+02  0.27289122760E+03  0.12500000000E+03 0.  0.
</event>
<event>
 5    0  0.5749909E-005  0.2680244E+03  0.7546771E-02  0.1102416E+00
         21   -1    0    0  502  501  0.00000000000E+00  0.00000000000E+00  0.16484169406E+03  0.16484169406E+03  0.00000000000E+00 0. -1.
         21   -1    0    0  501  502 -0.00000000000E+00 -0.00000000000E+00 -0.43579429406E+03  0.43579429406E+03  0.00000000000E+00 0. -1.
         25    1    1    2    0    0 -0.13680658082E+03  0.76194065448E+02 -0.54520415305E+02  0.20765127461E+03  0.12500000000E+03 0.  0.
         25    1    1    2    0    0  0.13789592151E+03 -0.70854111195E+02 -0.10351000254E+03  0.22444355831E+03  0.12500000000E+03 0.  0.
         25    1    1    2    0    0 -0.10893406901E+01 -0.53399542529E+01 -0.11292218215E+03  0.16854115520E+03  0.12500000000E+03 0.  0.
</event>
<event>
 5    0  0.5749909E-005  0.8348655E+03  0.7546771E-02  0.9510878E-01
         21   -1    0    0  502  501  0.00000000000E+00  0.00000000000E+00  0.87684268268E+03  0.87684268268E+03  0.00000000000E+00 0.  1.
         21   -1    0    0  501  502 -0.00000000000E+00 -0.00000000000E+00 -0.79489790828E+03  0.79489790828E+03  0.00000000000E+00 0.  1.
         25    1    1    2    0    0 -0.52251616172E+02  0.12875971711E+03 -0.37404472126E+02  0.19061319650E+03  0.12500000000E+03 0.  0.
         25    1    1    2    0    0  0.51424501326E+03 -0.10895484740E+03  0.59662570030E+03  0.80492628152E+03  0.12500000000E+03 0.  0.
         25    1    1    2    0    0 -0.46199339709E+03 -0.19804869712E+02 -0.47727645377E+03  0.67620111294E+03  0.12500000000E+03 0.  0.
</event>
<event>
 5    0  0.5749909E-005  0.2304606E+03  0.7546771E-02  0.1126316E+00
         21   -1    0    0  502  501  0.00000000000E+00  0.00000000000E+00  0.30656974140E+03  0.30656974140E+03  0.00000000000E+00 0.  1.
         21   -1    0    0  501  502 -0.00000000000E+00 -0.00000000000E+00 -0.17324630553E+03  0.17324630553E+03  0.00000000000E+00 0.  1.
         25    1    1    2    0    0  0.10256330767E+03 -0.51971220104E+02  0.49170727558E+02  0.17681346173E+03  0.12500000000E+03 0.  0.
         25    1    1    2    0    0 -0.47422771888E+02  0.67192580074E+02  0.68776373705E+02  0.16467832793E+03  0.12500000000E+03 0.  0.
         25    1    1    2    0    0 -0.55140535780E+02 -0.15221359970E+02  0.15376334602E+02  0.13832425728E+03  0.12500000000E+03 0.  0.
</event>
<event>
 5    0  0.5749909E-005  0.3666118E+03  0.7546771E-02  0.1055996E+00
         21   -1    0    0  502  501  0.00000000000E+00  0.00000000000E+00  0.13506119232E+03  0.13506119232E+03  0.00000000000E+00 0. -1.
         21   -1    0    0  501  502 -0.00000000000E+00 -0.00000000000E+00 -0.99513564864E+03  0.99513564864E+03  0.00000000000E+00 0. -1.
         25    1    1    2    0    0 -0.12630062763E+03 -0.93998195953E+02 -0.52481528015E+03  0.56199963315E+03  0.12500000000E+03 0.  0.
         25    1    1    2    0    0 -0.11222757999E+03  0.79447912576E+02 -0.10411397875E+03  0.21300638745E+03  0.12500000000E+03 0.  0.
         25    1    1    2    0    0  0.23852820763E+03  0.14550283377E+02 -0.23114519742E+03  0.35519082037E+03  0.12500000000E+03 0.  0.
</event>
<event>
 5    0  0.5749909E-005  0.4779862E+03  0.7546771E-02  0.1019690E+00
         21   -1    0    0  502  501  0.00000000000E+00  0.00000000000E+00  0.19714086986E+03  0.19714086986E+03  0.00000000000E+00 0.  1.
         21   -1    0    0  501  502 -0.00000000000E+00 -0.00000000000E+00 -0.11589216925E+04  0.11589216925E+04  0.00000000000E+00 0.  1.
         25    1    1    2    0    0 -0.46951509496E+02 -0.49591490783E+02 -0.45122688574E+03  0.47317487530E+03  0.12500000000E+03 0.  0.
         25    1    1    2    0    0  0.14635289244E+03 -0.14105142549E+03  0.72184147142E+02  0.24929946822E+03  0.12500000000E+03 0.  0.
         25    1    1    2    0    0 -0.99401382945E+02  0.19064291627E+03 -0.58273808404E+03  0.63358821884E+03  0.12500000000E+03 0.  0.
</event>
<event>
 5    0  0.5749909E-005  0.2946625E+03  0.7546771E-02  0.1087940E+00
         21   -1    0    0  502  501  0.00000000000E+00  0.00000000000E+00  0.20184074685E+03  0.20184074685E+03  0.00000000000E+00 0. -1.
         21   -1    0    0  501  502 -0.00000000000E+00 -0.00000000000E+00 -0.43017090680E+03  0.43017090680E+03  0.00000000000E+00 0. -1.
         25    1    1    2    0    0 -0.49992619122E+02 -0.10508778973E+03  0.54442094835E+02  0.17925302566E+03  0.12500000000E+03 0.  0.
         25    1    1    2    0    0 -0.78607787473E+02  0.89055490718E+02 -0.15620223969E+03  0.23266758339E+03  0.12500000000E+03 0.  0.
         25    1    1    2    0    0  0.12860040659E+03  0.16032299015E+02 -0.12657001510E+03  0.22009104460E+03  0.12500000000E+03 0.  0.
</event>
<event>
 5    0  0.5749909E-005  0.2766787E+03  0.7546771E-02  0.1097517E+00
         21   -1    0    0  502  501  0.00000000000E+00  0.00000000000E+00  0.13463245926E+03  0.13463245926E+03  0.00000000000E+00 0. -1.
         21   -1    0    0  501  502 -0.00000000000E+00 -0.00000000000E+00 -0.56859301921E+03  0.56859301921E+03  0.00000000000E+00 0.  1.
         25    1    1    2    0    0  0.18228862651E+03  0.61192635666E+01 -0.11240614029E+03  0.24804582060E+03  0.12500000000E+03 0.  0.
         25    1    1    2    0    0 -0.54344105515E+02  0.27097299521E+02 -0.15941511690E+03  0.21148457377E+03  0.12500000000E+03 0.  0.
         25    1    1    2    0    0 -0.12794452099E+03 -0.33216563088E+02 -0.16213930276E+03  0.24369508410E+03  0.12500000000E+03 0.  0.
</event>
<event>
 5    0  0.5749909E-005  0.2810833E+03  0.7546771E-02  0.1095099E+00
         21   -1    0    0  502  501  0.00000000000E+00  0.00000000000E+00  0.71930189677E+02  0.71930189677E+02  0.00000000000E+00 0.  1.
         21   -1    0    0  501  502 -0.00000000000E+00 -0.00000000000E+00 -0.10983959608E+04  0.10983959608E+04  0.00000000000E+00 0.  1.
         25    1    1    2    0    0 -0.99243102574E+02 -0.69940179721E+01 -0.39866783966E+03  0.42948708488E+03  0.12500000000E+03 0.  0.
         25    1    1    2    0    0  0.16150057510E+03 -0.74868118316E+02 -0.45351699303E+03  0.50298144485E+03  0.12500000000E+03 0.  0.
         25    1    1    2    0    0 -0.62257472529E+02  0.81862136288E+02 -0.17428093841E+03  0.23785762072E+03  0.12500000000E+03 0.  0.
</event>
<event>
 5    0  0.5749909E-005  0.4485576E+03  0.7546771E-02  0.1028153E+00
         21   -1    0    0  502  501  0.00000000000E+00  0.00000000000E+00  0.58024316593E+03  0.58024316593E+03  0.00000000000E+00 0. -1.
         21   -1    0    0  501  502 -0.00000000000E+00 -0.00000000000E+00 -0.34675795789E+03  0.34675795789E+03  0.00000000000E+00 0. -1.
         25    1    1    2    0    0 -0.10476511824E+03 -0.26832200278E+03  0.11756416235E+03  0.33528906848E+03  0.12500000000E+03 0.  0.
         25    1    1    2    0    0  0.26620637050E+03  0.19165546674E+03  0.12709229191E+03  0.37332974739E+03  0.12500000000E+03 0.  0.
         25    1    1    2    0    0 -0.16144125226E+03  0.76666536044E+02 -0.11171246222E+02  0.21838230794E+03  0.12500000000E+03 0.  0.
</event>
<event>
 5    0  0.5749909E-005  0.2404399E+03  0.7546771E-02  0.1119500E+00
         21   -1    0    0  502  501  0.00000000000E+00  0.00000000000E+00  0.15508937707E+04  0.15508937707E+04  0.00000000000E+00 0.  1.
         21   -1    0    0  501  502 -0.00000000000E+00 -0.00000000000E+00 -0.37276136631E+02  0.37276136631E+02  0.00000000000E+00 0.  1.
         25    1    1    2    0    0 -0.89085716694E+02 -0.25780983821E+02  0.60184995445E+03  0.62165045783E+03  0.12500000000E+03 0.  0.
         25    1    1    2    0    0  0.97332863624E+01 -0.21888645303E+02  0.64736171552E+03  0.65975453039E+03  0.12500000000E+03 0.  0.
         25    1    1    2    0    0  0.79352430332E+02  0.47669629124E+02  0.26440596406E+03  0.30676491907E+03  0.12500000000E+03 0.  0.
</event>
<event>
 5    0  0.5749909E-005  0.2659267E+03  0.7546771E-02  0.1103634E+00
         21   -1    0    0  502  501  0.00000000000E+00  0.00000000000E+00  0.10948220507E+03  0.10948220507E+03  0.00000000000E+00 0.  1.
         21   -1    0    0  501  502 -0.00000000000E+00 -0.00000000000E+00 -0.64592217942E+03  0.64592217942E+03  0.00000000000E+00 0.  1.
         25    1    1    2    0    0  0.35911409511E+02 -0.14147766738E+02 -0.45843332429E+02  0.13862322953E+03  0.12500000000E+03 0.  0.
         25    1    1    2    0    0 -0.12912338845E+03 -0.42859383135E+02 -0.15039158364E+03  0.23822763189E+03  0.12500000000E+03 0.  0.
         25    1    1    2    0    0  0.93211978936E+02  0.57007149873E+02 -0.34020505827E+03  0.37855352307E+03  0.12500000000E+03 0.  0.
</event>
<event>
 5    0  0.5749909E-005  0.5522024E+03  0.7546771E-02  0.1000985E+00
         21   -1    0    0  502  501  0.00000000000E+00  0.00000000000E+00  0.92859954543E+03  0.92859954543E+03  0.00000000000E+00 0.  1.
         21   -1    0    0  501  502 -0.00000000000E+00 -0.00000000000E+00 -0.32837352828E+03  0.32837352828E+03  0.00000000000E+00 0.  1.
         25    1    1    2    0    0  0.41932558676E+03  0.47626872624E+02 -0.70677744597E+01  0.44020134046E+03  0.12500000000E+03 0.  0.
         25    1    1    2    0    0 -0.29890050872E+03 -0.12944245317E+03  0.44495067173E+03  0.56542281796E+03  0.12500000000E+03 0.  0.
         25    1    1    2    0    0 -0.12042507804E+03  0.81815580551E+02  0.16234311989E+03  0.25134891529E+03  0.12500000000E+03 0.  0.
</event>
<event>
 5    0  0.5749909E-005  0.4913636E+03  0.7546771E-02  0.1016058E+00
         21   -1    0    0  502  501  0.00000000000E+00  0.00000000000E+00  0.15505717245E+04  0.15505717245E+04  0.00000000000E+00 0. -1.
         21   -1    0    0  501  502 -0.00000000000E+00 -0.00000000000E+00 -0.15570915994E+03  0.15570915994E+03  0.00000000000E+00 0. -1.
         25    1    1    2    0    0  0.37082063633E+03 -0.79400467233E+02  0.95474107202E+03  0.10348757863E+04  0.12500000000E+03 0.  0.
         25    1    1    2    0    0 -0.33126510635E+03  0.94299994896E+02  0.37488360146E+03  0.52420585114E+03  0.12500000000E+03 0.  0.
         25    1    1    2    0    0 -0.39555529979E+02 -0.14899527663E+02  0.65237891076E+02  0.14719924697E+03  0.12500000000E+03 0.  0.
</event>
<event>
 5    0  0.5749909E-005  0.2497854E+03  0.7546771E-02  0.1113441E+00
         21   -1    0    0  502  501  0.00000000000E+00  0.00000000000E+00  0.12872421102E+03  0.12872421102E+03  0.00000000000E+00 0.  1.
         21   -1    0    0  501  502 -0.00000000000E+00 -0.00000000000E+00 -0.48470099251E+03  0.48470099251E+03  0.00000000000E+00 0.  1.
         25    1    1    2    0    0 -0.87881876660E+01 -0.29833010788E+02 -0.25766309102E+03  0.28806684858E+03  0.12500000000E+03 0.  0.
         25    1    1    2    0    0 -0.75233507657E+02 -0.10596157978E+02 -0.84185416294E+02  0.16877364591E+03  0.12500000000E+03 0.  0.
         25    1    1    2    0    0  0.84021695323E+02  0.40429168766E+02 -0.14128274180E+02  0.15658470903E+03  0.12500000000E+03 0.  0.
</event>
<event>
 5    0  0.5749909E-005  0.3582544E+03  0.7546771E-02  0.1059277E+00
         21   -1    0    0  502  501  0.00000000000E+00  0.00000000000E+00  0.75981301456E+02  0.75981301456E+02  0.00000000000E+00 0.  1.
         21   -1    0    0  501  502 -0.00000000000E+00 -0.00000000000E+00 -0.16891813154E+04  0.16891813154E+04  0.00000000000E+00 0.  1.
         25    1    1    2    0    0 -0.83550557197E+02 -0.75257214462E+02 -0.22334090995E+03  0.27955411997E+03  0.12500000000E+03 0.  0.
         25    1    1    2    0    0  0.22291877253E+03  0.15490946923E+03 -0.10270482326E+04  0.10696461073E+04  0.12500000000E+03 0.  0.
         25    1    1    2    0    0 -0.13936821533E+03 -0.79652254768E+02 -0.36281087141E+03  0.41596238958E+03  0.12500000000E+03 0.  0.
</event>
<event>
 5    0  0.6146624E-005  0.2932392E+03  0.7546771E-02  0.1088670E+00
         21   -1    0    0  502  501  0.00000000000E+00  0.00000000000E+00  0.11735701448E+03  0.11735701448E+03  0.00000000000E+00 0. -1.
         21   -1    0    0  501  502 -0.00000000000E+00 -0.00000000000E+00 -0.73271489642E+03  0.73271489642E+03  0.00000000000E+00 0. -1.
         25    1    1    2    0    0  0.83506181012E+02  0.11781748384E+03 -0.24664146338E+03  0.31194751677E+03  0.12500000000E+03 0.  0.
         25    1    1    2    0    0 -0.13651224924E+03 -0.89806387735E+02 -0.85487487811E+02  0.22278665140E+03  0.12500000000E+03 0.  0.
         25    1    1    2    0    0  0.53006068226E+02 -0.28011096100E+02 -0.28322893075E+03  0.31533774272E+03  0.12500000000E+03 0.  0.
</event>
<event>
 5    0  0.5749909E-005  0.2265835E+03  0.7546771E-02  0.1129068E+00
         21   -1    0    0  502  501  0.00000000000E+00  0.00000000000E+00  0.26796330047E+02  0.26796330047E+02  0.00000000000E+00 0. -1.
         21   -1    0    0  501  502 -0.00000000000E+00 -0.00000000000E+00 -0.19159374756E+04  0.19159374756E+04  0.00000000000E+00 0. -1.
         25    1    1    2    0    0 -0.33872745249E+02 -0.33464983793E+02 -0.27056249825E+03  0.30182169152E+03  0.12500000000E+03 0.  0.
         25    1    1    2    0    0 -0.13446591663E+02  0.96025054204E+01 -0.97866466451E+03  0.98675353786E+03  0.12500000000E+03 0.  0.
         25    1    1    2    0    0  0.47319336912E+02  0.23862478373E+02 -0.63991398276E+03  0.65415857623E+03  0.12500000000E+03 0.  0.
</event>
<event>
 5    0  0.5749909E-005  0.4353845E+03  0.7546771E-02  0.1032172E+00
         21   -1    0    0  502  501  0.00000000000E+00  0.00000000000E+00  0.11204867584E+04  0.11204867584E+04  0.00000000000E+00 0. -1.
         21   -1    0    0  501  502 -0.00000000000E+00 -0.00000000000E+00 -0.16917613930E+03  0.16917613930E+03  0.00000000000E+00 0. -1.
         25    1    1    2    0    0  0.14526600713E+03 -0.62155288198E+02  0.49918136598E+02  0.20756279301E+03  0.12500000000E+03 0.  0.
         25    1    1    2    0    0  0.12311343257E+03  0.12679179193E+03  0.12805163017E+03  0.25150605513E+03  0.12500000000E+03 0.  0.
         25    1    1    2    0    0 -0.26837943971E+03 -0.64636503732E+02  0.77334085235E+03  0.83059404957E+03  0.12500000000E+03 0.  0.
</event>
<event>
 5    0  0.5749909E-005  0.3479423E+03  0.7546771E-02  0.1063463E+00
         21   -1    0    0  502  501  0.00000000000E+00  0.00000000000E+00  0.24810145486E+03  0.24810145486E+03  0.00000000000E+00 0. -1.
         21   -1    0    0  501  502 -0.00000000000E+00 -0.00000000000E+00 -0.48796095810E+03  0.48796095810E+03  0.00000000000E+00 0. -1.
         25    1    1    2    0    0  0.12987250516E+03  0.79438988363E+02  0.52454934634E+02  0.20384783697E+03  0.12500000000E+03 0.  0.
         25    1    1    2    0    0 -0.31042795081E+02 -0.19384676108E+03 -0.22791829262E+03  0.32574832313E+03  0.12500000000E+03 0.  0.
         25    1    1    2    0    0 -0.98829710077E+02  0.11440777272E+03 -0.64396145245E+02  0.20646625287E+03  0.12500000000E+03 0.  0.
</event>
<event>
 5    0  0.5749909E-005  0.2357668E+03  0.7546771E-02  0.1122645E+00
         21   -1    0    0  502  501  0.00000000000E+00  0.00000000000E+00  0.57191255492E+02  0.57191255492E+02  0.00000000000E+00 0. -1.
         21   -1    0    0  501  502 -0.00000000000E+00 -0.00000000000E+00 -0.97193125024E+03  0.97193125024E+03  0.00000000000E+00 0. -1.
         25    1    1    2    0    0  0.62533634575E+02 -0.92574047130E+02 -0.20467550970E+03  0.26457035723E+03  0.12500000000E+03 0.  0.
         25    1    1    2    0    0 -0.19633907623E+02  0.11396977909E+02 -0.35667380425E+03  0.37862459517E+03  0.12500000000E+03 0.  0.
         25    1    1    2    0    0 -0.42899726953E+02  0.81177069221E+02 -0.35339068080E+03  0.38592755333E+03  0.12500000000E+03 0.  0.
</event>
<event>
 5    0  0.5749909E-005  0.2488140E+03  0.7546771E-02  0.1114057E+00
         21   -1    0    0  502  501  0.00000000000E+00  0.00000000000E+00  0.19220075855E+04  0.19220075855E+04  0.00000000000E+00 0. -1.
         21   -1    0    0  501  502 -0.00000000000E+00 -0.00000000000E+00 -0.32210269898E+02  0.32210269898E+02  0.00000000000E+00 0. -1.
         25    1    1    2    0    0 -0.32215828184E+02 -0.10076132106E+03  0.10176094933E+04  0.10307011130E+04  0.12500000000E+03 0.  0.
         25    1    1    2    0    0  0.11862395913E+02 -0.13584571057E+02  0.46906988483E+03  0.48577444752E+03  0.12500000000E+03 0.  0.
         25    1    1    2    0    0  0.20353432271E+02  0.11434589211E+03  0.40311793747E+03  0.43774229492E+03  0.12500000000E+03 0.  0.
</event>
<event>
 5    0  0.5749909E-005  0.3077710E+03  0.7546771E-02  0.1081419E+00
         21   -1    0    0  502  501  0.00000000000E+00  0.00000000000E+00  0.86633326954E+02  0.86633326954E+02  0.00000000000E+00 0.  1.
         21   -1    0    0  501  502 -0.00000000000E+00 -0.00000000000E+00 -0.10933784286E+04  0.10933784286E+04  0.00000000000E+00 0.  1.
         25    1    1    2    0    0 -0.10883315346E+03  0.12165526907E+02 -0.34743410220E+03  0.38513388673E+03  0.12500000000E+03 0.  0.
         25    1    1    2    0    0  0.20427080245E+03  0.80444556747E+02 -0.30266004176E+03  0.39424102821E+03  0.12500000000E+03 0.  0.
         25    1    1    2    0    0 -0.95437648992E+02 -0.92610083655E+02 -0.35665095770E+03  0.40063684063E+03  0.12500000000E+03 0.  0.
</event>
<event>
 5    0  0.5749909E-005  0.3927685E+03  0.7546771E-02  0.1046313E+00
         21   -1    0    0  502  501  0.00000000000E+00  0.00000000000E+00  0.23289709723E+03  0.23289709723E+03  0.00000000000E+00 0.  1.
         21   -1    0    0  501  502 -0.00000000000E+00 -0.00000000000E+00 -0.66238317349E+03  0.66238317349E+03  0.00000000000E+00 0.  1.
         25    1    1    2    0    0 -0.23584495654E+03  0.48988131051E+02 -0.20355530522E+02  0.27214339626E+03  0.12500000000E+03 0.  0.
         25    1    1    2    0    0 -0.58818857856E+02 -0.57618546742E+02 -0.13729953363E+03  0.20311503367E+03  0.12500000000E+03 0.  0.
         25    1    1    2    0    0  0.29466381439E+03  0.86304156915E+01 -0.27183101210E+03  0.42002184078E+03  0.12500000000E+03 0.  0.
</event>
<event>
 5    0  0.5749909E-005  0.4579351E+03  0.7546771E-02  0.1025382E+00
         21   -1    0    0  502  501  0.00000000000E+00  0.00000000000E+00  0.56189889640E+03  0.56189889640E+03  0.00000000000E+00 0. -1.
         21   -1    0    0  501  502 -0.00000000000E+00 -0.00000000000E+00 -0.37320691646E+03  0.37320691646E+03  0.00000000000E+00 0. -1.
         25    1    1    2    0    0 -0.83172039723E+02  0.70817065511E+02  0.39728729251E+03  0.43057500827E+03  0.12500000000E+03 0.  0.
         25    1    1    2    0    0  0.17398080023E+03 -0.50413088381E+02  0.27338038741E+02  0.22177278167E+03  0.12500000000E+03 0.  0.
         25    1    1    2    0    0 -0.90808760509E+02 -0.20403977130E+02 -0.23593335130E+03  0.28275802292E+03  0.12500000000E+03 0.  0.
</event>
<event>
 5    0  0.5749909E-005  0.2060041E+03  0.7546771E-02  0.1144770E+00
         21   -1    0    0  502  501  0.00000000000E+00  0.00000000000E+00  0.72987458733E+03  0.72987458733E+03  0.00000000000E+00 0.  1.
         21   -1    0    0  501  502 -0.00000000000E+00 -0.00000000000E+00 -0.58143833141E+02  0.58143833141E+02  0.00000000000E+00 0.  1.
         25    1    1    2    0    0 -0.19638642780E+02  0.15553556310E+02  0.14046559398E+03  0.18969231006E+03  0.12500000000E+03 0.  0.
         25    1    1    2    0    0  0.10661314711E+02  0.47815752524E+02  0.24095519698E+03  0.27583403846E+03  0.12500000000E+03 0.  0.
         25    1    1    2    0    0  0.89773280687E+01 -0.63369308835E+02  0.29030996323E+03  0.32249207195E+03  0.12500000000E+03 0.  0.
</event>
<event>
 5    0  0.6101251E-005  0.2603669E+03  0.7546771E-02  0.1106923E+00
         21   -1    0    0  502  501  0.00000000000E+00  0.00000000000E+00  0.30665068389E+03  0.30665068389E+03  0.00000000000E+00 0.  1.
         21   -1    0    0  501  502 -0.00000000000E+00 -0.00000000000E+00 -0.22106880537E+03  0.22106880537E+03  0.00000000000E+00 0.  1.
         25    1    1    2    0    0  0.90562093269E+02 -0.24873104292E+01  0.11156410818E+03  0.19047107309E+03  0.12500000000E+03 0.  0.
         25    1    1    2    0    0 -0.53080216184E+02  0.18202457891E+02  0.88356004526E+02  0.16303564751E+03  0.12500000000E+03 0.  0.
         25    1    1    2    0    0 -0.37481877084E+02 -0.15715147462E+02 -0.11433823419E+03  0.17421276867E+03  0.12500000000E+03 0.  0.
</event>
<event>
 5    0  0.5749909E-005  0.2903289E+03  0.7546771E-02  0.1090178E+00
         21   -1    0    0  502  501  0.00000000000E+00  0.00000000000E+00  0.78341312711E+03  0.78341312711E+03  0.00000000000E+00 0.  1.
         21   -1    0    0  501  502 -0.00000000000E+00 -0.00000000000E+00 -0.10759439451E+03  0.10759439451E+03  0.00000000000E+00 0.  1.
         25    1    1    2    0    0 -0.25638673943E+02 -0.96519312383E+02  0.24585476475E+02  0.16187268120E+03  0.12500000000E+03 0.  0.
         25    1    1    2    0    0 -0.59279365701E+02  0.98661841963E+02  0.41799279561E+03  0.45121079269E+03  0.12500000000E+03 0.  0.
         25    1    1    2    0    0  0.84918039645E+02 -0.21425295797E+01  0.23324046051E+03  0.27792404773E+03  0.12500000000E+03 0.  0.
</event>
<event>
 5    0  0.5749909E-005  0.2807379E+03  0.7546771E-02  0.1095287E+00
         21   -1    0    0  502  501  0.00000000000E+00  0.00000000000E+00  0.29083907021E+03  0.29083907021E+03  0.00000000000E+00 0.  1.
         21   -1    0    0  501  502 -0.00000000000E+00 -0.00000000000E+00 -0.27098753020E+03  0.27098753020E+03  0.00000000000E+00 0.  1.
         25    1    1    2    0    0 -0.89819687071E+02  0.39445722475E+02  0.15338015738E+03  0.22084839570E+03  0.12500000000E+03 0.  0.
         25    1    1    2    0    0 -0.28109792198E+01  0.12807472344E+02  0.56151734511E+01  0.12581122019E+03  0.12500000000E+03 0.  0.
         25    1    1    2    0    0  0.92630666291E+02 -0.52253194819E+02 -0.13914379081E+03  0.21516698452E+03  0.12500000000E+03 0.  0.
</event>
<event>
 5    0  0.5749909E-005  0.2873314E+03  0.7546771E-02  0.1091751E+00
         21   -1    0    0  502  501  0.00000000000E+00  0.00000000000E+00  0.14614887246E+04  0.14614887246E+04  0.00000000000E+00 0. -1.
         21   -1    0    0  501  502 -0.00000000000E+00 -0.00000000000E+00 -0.56489894573E+02  0.56489894573E+02  0.00000000000E+00 0. -1.
         25    1    1    2    0    0 -0.48736520774E+02  0.49231752844E+02  0.88095732422E+03  0.89247398900E+03  0.12500000000E+03 0.  0.
         25    1    1    2    0    0 -0.79757322135E+02 -0.41706125530E+02  0.17561093800E+03  0.23359116612E+03  0.12500000000E+03 0.  0.
         25    1    1    2    0    0  0.12849384291E+03 -0.75256273144E+01  0.34843056783E+03  0.39191346408E+03  0.12500000000E+03 0.  0.
</event>
<event>
 5    0  0.5749909E-005  0.4714127E+03  0.7546771E-02  0.1021522E+00
         21   -1    0    0  502  501  0.00000000000E+00  0.00000000000E+00  0.10026172382E+04  0.10026172382E+04  0.00000000000E+00 0. -1.
         21   -1    0    0  501  502 -0.00000000000E+00 -0.00000000000E+00 -0.22164985203E+03  0.22164985203E+03  0.00000000000E+00 0. -1.
         25    1    1    2    0    0 -0.90889486654E+02  0.46634877096E+02 -0.23355247858E+02  0.16311400353E+03  0.12500000000E+03 0.  0.
         25    1    1    2    0    0  0.29802366037E+03  0.10779959595E+03  0.65337942001E+03  0.73686397763E+03  0.12500000000E+03 0.  0.
         25    1    1    2    0    0 -0.20713417372E+03 -0.15443447305E+03  0.15094321398E+03  0.32428910903E+03  0.12500000000E+03 0.  0.
</event>
<event>
 5    0  0.5749909E-005  0.3841206E+03  0.7546771E-02  0.1049421E+00
         21   -1    0    0  502  501  0.00000000000E+00  0.00000000000E+00  0.69646621353E+03  0.69646621353E+03  0.00000000000E+00 0. -1.
         21   -1    0    0  501  502 -0.00000000000E+00 -0.00000000000E+00 -0.21185326280E+03  0.21185326280E+03  0.00000000000E+00 0. -1.
         25    1    1    2    0    0 -0.12703667112E+03  0.68612464187E+02 -0.71630960047E+02  0.20396563556E+03  0.12500000000E+03 0.  0.
         25    1    1    2    0    0  0.32645428529E+02 -0.97860825752E+02  0.51479973534E+03  0.53970939655E+03  0.12500000000E+03 0.  0.
         25    1    1    2    0    0  0.94391242594E+02  0.29248361566E+02  0.41444175442E+02  0.16464444421E+03  0.12500000000E+03 0.  0.
</event>
<event>
 5    0  0.5749909E-005  0.3181760E+03  0.7546771E-02  0.1076492E+00
         21   -1    0    0  502  501  0.00000000000E+00  0.00000000000E+00  0.97177079258E+03  0.97177079258E+03  0.00000000000E+00 0.  1.
         21   -1    0    0  501  502 -0.00000000000E+00 -0.00000000000E+00 -0.10417677275E+03  0.10417677275E+03  0.00000000000E+00 0.  1.
         25    1    1    2    0    0 -0.82126119992E+02  0.13327551899E+03  0.37833369450E+03  0.42809864277E+03  0.12500000000E+03 0.  0.
         25    1    1    2    0    0  0.15499221904E+03 -0.10268250637E+03  0.43685510389E+03  0.49095179689E+03  0.12500000000E+03 0.  0.
         25    1    1    2    0    0 -0.72866099043E+02 -0.30593012617E+02  0.52405221441E+02  0.15689712567E+03  0.12500000000E+03 0.  0.
</event>
<event>
 5    0  0.5749909E-005  0.2357170E+03  0.7546771E-02  0.1122679E+00
         21   -1    0    0  502  501  0.00000000000E+00  0.00000000000E+00  0.14968493606E+03  0.14968493606E+03  0.00000000000E+00 0. -1.
         21   -1    0    0  501  502 -0.00000000000E+00 -0.00000000000E+00 -0.37119630352E+03  0.37119630352E+03  0.00000000000E+00 0.  1.
         25    1    1    2    0    0  0.53186798819E+01 -0.16277946380E+02 -0.11708444249E+03  0.17212503179E+03  0.12500000000E+03 0.  0.
         25    1    1    2    0    0 -0.92895472904E+02 -0.10929883629E+02  0.94303812651E+01  0.15640640439E+03  0.12500000000E+03 0.  0.
         25    1    1    2    0    0  0.87576793022E+02  0.27207830009E+02 -0.11385730623E+03  0.19234980341E+03  0.12500000000E+03 0.  0.
</event>
<event>
 5    0  0.5749909E-005  0.3810188E+03  0.7546771E-02  0.1050558E+00
         21   -1    0    0  502  501  0.00000000000E+00  0.00000000000E+00  0.45916525753E+02  0.45916525753E+02  0.00000000000E+00 0. -1.
         21   -1    0    0  501  502 -0.00000000000E+00 -0.00000000000E+00 -0.31617224485E+04  0.31617224485E+04  0.00000000000E+00 0. -1.
         25    1    1    2    0    0  0.14688684410E+01  0.13602843351E+03 -0.31691044527E+03  0.36682846484E+03  0.12500000000E+03 0.  0.
         25    1    1    2    0    0 -0.18520218896E+03 -0.44319870836E+02 -0.17473149768E+04  0.17621006582E+04  0.12500000000E+03 0.  0.
         25    1    1    2    0    0  0.18373332052E+03 -0.91708562669E+02 -0.10515805007E+04  0.10787098512E+04  0.12500000000E+03 0.  0.
</event>
<event>
 5    0  0.5749909E-005  0.2588767E+03  0.7546771E-02  0.1107820E+00
         21   -1    0    0  502  501  0.00000000000E+00  0.00000000000E+00  0.34644684126E+02  0.34644684126E+02  0.00000000000E+00 0. -1.
         21   -1    0    0  501  502 -0.00000000000E+00 -0.00000000000E+00 -0.19344128534E+04  0.19344128534E+04  0.00000000000E+00 0. -1.
         25    1    1    2    0    0 -0.60082555584E+02  0.60580894578E+02 -0.70993587602E+03  0.72588835666E+03  0.12500000000E+03 0.  0.
         25    1    1    2    0    0 -0.68784635690E+01 -0.14751035329E+03 -0.60933465281E+03  0.63931239367E+03  0.12500000000E+03 0.  0.
         25    1    1    2    0    0  0.66961019153E+02  0.86929458709E+02 -0.58049764041E+03  0.60385678716E+03  0.12500000000E+03 0.  0.
</event>
<event>
 5    0  0.5749909E-005  0.3564563E+03  0.7546771E-02  0.1059996E+00
         21   -1    0    0  502  501  0.00000000000E+00  0.00000000000E+00  0.15743009488E+03  0.15743009488E+03  0.00000000000E+00 0.  1.
         21   -1    0    0  501  502 -0.00000000000E+00 -0.00000000000E+00 -0.80709530092E+03  0.80709530092E+03  0.00000000000E+00 0.  1.
         25    1    1    2    0    0 -0.56463764283E+02  0.14321794413E+03 -0.11958502108E+03  0.23157096852E+03  0.12500000000E+03 0.  0.
         25    1    1    2    0    0  0.53227944621E+02 -0.27069770547E+03 -0.43667494926E+03  0.53143247280E+03  0.12500000000E+03 0.  0.
         25    1    1    2    0    0  0.32358196619E+01  0.12747976134E+03 -0.93405235697E+02  0.20152195448E+03  0.12500000000E+03 0.  0.
</event>
<event>
 5    0  0.5749909E-005  0.2651708E+03  0.7546771E-02  0.1104076E+00
         21   -1    0    0  502  501  0.00000000000E+00  0.00000000000E+00  0.13957212699E+03  0.13957212699E+03  0.00000000000E+00 0. -1.
         21   -1    0    0  501  502 -0.00000000000E+00 -0.00000000000E+00 -0.50379383737E+03  0.50379383737E+03  0.00000000000E+00 0. -1.
         25    1    1    2    0    0  0.29872386988E+02 -0.29721065538E+02 -0.20569890850E+03  0.24436190824E+03  0.12500000000E+03 0.  0.
         25    1    1    2    0    0 -0.95108213754E+02  0.37517656992E+02  0.29190709500E+02  0.16410437054E+03  0.12500000000E+03 0.  0.
         25    1    1    2    0    0  0.65235826765E+02 -0.77965914539E+01 -0.18771351138E+03  0.23489968559E+03  0.12500000000E+03 0.  0.
</event>
<event>
 5    0  0.5749909E-005  0.2992180E+03  0.7546771E-02  0.1085632E+00
         21   -1    0    0  502  501  0.00000000000E+00  0.00000000000E+00  0.27369330597E+03  0.27369330597E+03  0.00000000000E+00 0. -1.
         21   -1    0    0  501  502 -0.00000000000E+00 -0.00000000000E+00 -0.32712323395E+03  0.32712323395E+03  0.00000000000E+00 0. -1.
         25    1    1    2    0    0  0.12565454376E+02 -0.15984711223E+03  0.85369487499E+02  0.22050383065E+03  0.12500000000E+03 0.  0.
         25    1    1    2    0    0  0.62717811596E+02  0.10013840433E+03 -0.26927987161E+01  0.17202754163E+03  0.12500000000E+03 0.  0.
         25    1    1    2    0    0 -0.75283265972E+02  0.59708707901E+02 -0.13610661677E+03  0.20828516765E+03  0.12500000000E+03 0.  0.
</event>
<event>
 5    0  0.5749909E-005  0.2468404E+03  0.7546771E-02  0.1115318E+00
         21   -1    0    0  502  501  0.00000000000E+00  0.00000000000E+00  0.84564309142E+03  0.84564309142E+03  0.00000000000E+00 0. -1.
         21   -1    0    0  501  502 -0.00000000000E+00 -0.00000000000E+00 -0.72051896776E+02  0.72051896776E+02  0.00000000000E+00 0. -1.
         25    1    1    2    0    0 -0.82438075758E+02  0.39872907935E+02  0.10922543577E+03  0.18958133068E+03  0.12500000000E+03 0.  0.
         25    1    1    2    0    0  0.10802032214E+03 -0.37142939674E+02  0.40786293366E+03  0.44161653118E+03  0.12500000000E+03 0.  0.
         25    1    1    2    0    0 -0.25582246378E+02 -0.27299682610E+01  0.25650282522E+03  0.28649712634E+03  0.12500000000E+03 0.  0.
</event>
<event>
 5    0  0.5749909E-005  0.2574401E+03  0.7546771E-02  0.1108691E+00
         21   -1    0    0  502  501  0.00000000000E+00  0.00000000000E+00  0.40650827089E+02  0.40650827089E+02  0.00000000000E+00 0.  1.
         21   -1    0    0  501  502 -0.00000000000E+00 -0.00000000000E+00 -0.16303579847E+04  0.16303579847E+04  0.00000000000E+00 0.  1.
         25    1    1    2    0    0 -0.93576209092E+02  0.54226828266E+02 -0.84121665720E+03  0.85730246714E+03  0.12500000000E+03 0.  0.
         25    1    1    2    0    0  0.10405082234E+03  0.24925708947E+02 -0.31239337260E+03  0.35307574802E+03  0.12500000000E+03 0.  0.
         25    1    1    2    0    0 -0.10474613244E+02 -0.79152537212E+02 -0.43609712785E+03  0.46063059667E+03  0.12500000000E+03 0.  0.
</event>
<event>
 5    0  0.5749909E-005  0.3947585E+03  0.7546771E-02  0.1045610E+00
         21   -1    0    0  502  501  0.00000000000E+00  0.00000000000E+00  0.49482851786E+03  0.49482851786E+03  0.00000000000E+00 0. -1.
         21   -1    0    0  501  502 -0.00000000000E+00 -0.00000000000E+00 -0.31492581926E+03  0.31492581926E+03  0.00000000000E+00 0. -1.
         25    1    1    2    0    0  0.11876255611E+03  0.15945733902E+01  0.71310571828E+02  0.18659390411E+03  0.12500000000E+03 0.  0.
         25    1    1    2    0    0 -0.24809846526E+02 -0.10323207100E+03  0.30873514628E+03  0.34959230472E+03  0.12500000000E+03 0.  0.
         25    1    1    2    0    0 -0.93952709584E+02  0.10163749761E+03 -0.20014301950E+03  0.27356812829E+03  0.12500000000E+03 0.  0.
</event>
<event>
 5    0  0.5749909E-005  0.7371198E+03  0.7546771E-02  0.9655777E-01
         21   -1    0    0  502  501  0.00000000000E+00  0.00000000000E+00  0.19218055411E+03  0.19218055411E+03  0.00000000000E+00 0. -1.
         21   -1    0    0  501  502 -0.00000000000E+00 -0.00000000000E+00 -0.28272659317E+04  0.28272659317E+04  0.00000000000E+00 0. -1.
         25    1    1    2    0    0 -0.18018803847E+02 -0.36617871542E+03 -0.17819023160E+04  0.18235164910E+04  0.12500000000E+03 0.  0.
         25    1    1    2    0    0  0.19137594372E+03  0.39554359433E+03 -0.18343271489E+03  0.49229264441E+03  0.12500000000E+03 0.  0.
         25    1    1    2    0    0 -0.17335713988E+03 -0.29364878910E+02 -0.66975034661E+03  0.70363735037E+03  0.12500000000E+03 0.  0.
</event>
<event>
 5    0  0.5749909E-005  0.3414006E+03  0.7546771E-02  0.1066201E+00
         21   -1    0    0  502  501  0.00000000000E+00  0.00000000000E+00  0.96263210918E+03  0.96263210918E+03  0.00000000000E+00 0. -1.
         21   -1    0    0  501  502 -0.00000000000E+00 -0.00000000000E+00 -0.12107881197E+03  0.12107881197E+03  0.00000000000E+00 0. -1.
         25    1    1    2    0    0  0.10691163997E+03  0.41945097780E+02  0.23388843875E+03  0.28899531444E+03  0.12500000000E+03 0.  0.
         25    1    1    2    0    0 -0.27339273099E+03 -0.27338564071E+02  0.38994864486E+03  0.49312871349E+03  0.12500000000E+03 0.  0.
         25    1    1    2    0    0  0.16648109101E+03 -0.14606533709E+02  0.21771621360E+03  0.30158689321E+03  0.12500000000E+03 0.  0.
</event>
<event>
 5    0  0.5749909E-005  0.3156895E+03  0.7546771E-02  0.1077650E+00
         21   -1    0    0  502  501  0.00000000000E+00  0.00000000000E+00  0.80615008803E+02  0.80615008803E+02  0.00000000000E+00 0. -1.
         21   -1    0    0  501  502 -0.00000000000E+00 -0.00000000000E+00 -0.12362442348E+04  0.12362442348E+04  0.00000000000E+00 0. -1.
         25    1    1    2    0    0  0.14993427057E+03  0.13992799761E+03 -0.56904104637E+03  0.61765106854E+03  0.12500000000E+03 0.  0.
         25    1    1    2    0    0 -0.15713551147E+03 -0.69091826955E+02 -0.22170434537E+03  0.30699033580E+03  0.12500000000E+03 0.  0.
         25    1    1    2    0    0  0.72012408988E+01 -0.70836170657E+02 -0.36488383429E+03  0.39221783931E+03  0.12500000000E+03 0.  0.
</event>
<event>
 5    0  0.5749909E-005  0.3266938E+03  0.7546771E-02  0.1072609E+00
         21   -1    0    0  502  501  0.00000000000E+00  0.00000000000E+00  0.56688698886E+03  0.56688698886E+03  0.00000000000E+00 0.  1.
         21   -1    0    0  501  502 -0.00000000000E+00 -0.00000000000E+00 -0.18827185835E+03  0.18827185835E+03  0.00000000000E+00 0.  1.
         25    1    1    2    0    0  0.63188238601E+02 -0.92693083237E+02  0.10647160637E+03  0.19886167087E+03  0.12500000000E+03 0.  0.
         25    1    1    2    0    0  0.23257244338E+02  0.23879328108E+03  0.18733212909E+03  0.32906147920E+03  0.12500000000E+03 0.  0.
         25    1    1    2    0    0 -0.86445482939E+02 -0.14610019784E+03  0.84811395048E+02  0.22723569715E+03  0.12500000000E+03 0.  0.
</event>
<event>
 5    0  0.5749909E-005  0.3149301E+03  0.7546771E-02  0.1078007E+00
         21   -1    0    0  502  501  0.00000000000E+00  0.00000000000E+00  0.28825691486E+03  0.28825691486E+03  0.00000000000E+00 0. -1.
         21   -1    0    0  501  502 -0.00000000000E+00 -0.00000000000E+00 -0.34407138013E+03  0.34407138013E+03  0.00000000000E+00 0. -1.
         25    1    1    2    0    0 -0.44186360367E+02 -0.65410022260E+02 -0.16240655364E+03  0.21961738119E+03  0.12500000000E+03 0.  0.
         25    1    1    2    0    0  0.88409219934E+02 -0.13735478017E+02 -0.77729509650E+02  0.17225484085E+03  0.12500000000E+03 0.  0.
         25    1    1    2    0    0 -0.44222859568E+02  0.79145500277E+02  0.18432159803E+03  0.24045607296E+03  0.12500000000E+03 0.  0.
</event>
<event>
 5    0  0.5749909E-005  0.2703461E+03  0.7546771E-02  0.1101082E+00
         21   -1    0    0  502  501  0.00000000000E+00  0.00000000000E+00  0.16893852353E+03  0.16893852353E+03  0.00000000000E+00 0.  1.
         21   -1    0    0  501  502 -0.00000000000E+00 -0.00000000000E+00 -0.43262502229E+03  0.43262502229E+03  0.00000000000E+00 0.  1.
         25    1    1    2    0    0 -0.71386186699E+02  0.57370895188E+02 -0.11124794819E+03  0.19075773442E+03  0.12500000000E+03 0.  0.
         25    1    1    2    0    0 -0.68123163528E+01 -0.10896969829E+03  0.32081273302E+02  0.16904144727E+03  0.12500000000E+03 0.  0.
         25    1    1    2    0    0  0.78198503052E+02  0.51598803104E+02 -0.18451982387E+03  0.24176436413E+03  0.12500000000E+03 0.  0.
</event>
<event>
 5    0  0.5749909E-005  0.4852564E+03  0.7546771E-02  0.1017700E+00
         21   -1    0    0  502  501  0.00000000000E+00  0.00000000000E+00  0.14525024597E+03  0.14525024597E+03  0.00000000000E+00 0.  1.
         21   -1    0    0  501  502 -0.00000000000E+00 -0.00000000000E+00 -0.16211588850E+04  0.16211588850E+04  0.00000000000E+00 0.  1.
         25    1    1    2    0    0 -0.13080086675E+03  0.25706529244E+03 -0.29969340326E+03  0.43431850902E+03  0.12500000000E+03 0.  0.
         25    1    1    2    0    0  0.30274671024E+03 -0.91710362981E+02 -0.80100324164E+03  0.87022844952E+03  0.12500000000E+03 0.  0.
         25    1    1    2    0    0 -0.17194584349E+03 -0.16535492946E+03 -0.37521199413E+03  0.46186217244E+03  0.12500000000E+03 0.  0.
</event>
<event>
 5    0  0.5749909E-005  0.2859207E+03  0.7546771E-02  0.1092498E+00
         21   -1    0    0  502  501  0.00000000000E+00  0.00000000000E+00  0.18734364788E+04  0.18734364788E+04  0.00000000000E+00 0. -1.
         21   -1    0    0  501  502 -0.00000000000E+00 -0.00000000000E+00 -0.43636727642E+02  0.43636727642E+02  0.00000000000E+00 0. -1.
         25    1    1    2    0    0  0.64932842715E+02  0.55464763043E+02  0.56488594080E+03  0.58481940812E+03  0.12500000000E+03 0.  0.
         25    1    1    2    0    0 -0.96881678460E+02  0.10034651260E+03  0.85332309563E+03  0.87363653069E+03  0.12500000000E+03 0.  0.
         25    1    1    2    0    0  0.31948835744E+02 -0.15581127564E+03  0.41159071471E+03  0.45861726762E+03  0.12500000000E+03 0.  0.
</event>
<event>
 5    0  0.5749909E-005  0.4145596E+03  0.7546771E-02  0.1038852E+00
         21   -1    0    0  502  501  0.00000000000E+00  0.00000000000E+00  0.16100011374E+04  0.16100011374E+04  0.00000000000E+00 0.  1.
         21   -1    0    0  501  502 -0.00000000000E+00 -0.00000000000E+00 -0.10674507467E+03  0.10674507467E+03  0.00000000000E+00 0.  1.
         25    1    1    2    0    0  0.31951626887E+03  0.98934114618E+02  0.76860569563E+03  0.84750122151E+03  0.12500000000E+03 0.  0.
         25    1    1    2    0    0 -0.92968678582E+02 -0.45722573568E+02  0.12524179263E+03  0.20504691061E+03  0.12500000000E+03 0.  0.
         25    1    1    2    0    0 -0.22654759029E+03 -0.53211541049E+02  0.60940857443E+03  0.66419807991E+03  0.12500000000E+03 0.  0.
</event>
<event>
 5    0  0.5749909E-005  0.2886016E+03  0.7546771E-02  0.1091082E+00
         21   -1    0    0  502  501  0.00000000000E+00  0.00000000000E+00  0.42224172393E+03  0.42224172393E+03  0.00000000000E+00 0.  1.
         21   -1    0    0  501  502 -0.00000000000E+00 -0.00000000000E+00 -0.19725878830E+03  0.19725878830E+03  0.00000000000E+00 0.  1.
         25    1    1    2    0    0  0.54576667261E+02 -0.41790307247E+02 -0.35338415030E+02  0.14696545841E+03  0.12500000000E+03 0.  0.
         25    1    1    2    0    0 -0.12177809992E+03  0.99344679432E+02  0.40863313151E+02  0.20492457469E+03  0.12500000000E+03 0.  0.
         25    1    1    2    0    0  0.67201432657E+02 -0.57554372185E+02  0.21945803751E+03  0.26761047912E+03  0.12500000000E+03 0.  0.
</event>
<event>
 5    0  0.5749909E-005  0.2989611E+03  0.7546771E-02  0.1085761E+00
         21   -1    0    0  502  501  0.00000000000E+00  0.00000000000E+00  0.81295769650E+03  0.81295769650E+03  0.00000000000E+00 0.  1.
         21   -1    0    0  501  502 -0.00000000000E+00 -0.00000000000E+00 -0.10994147049E+03  0.10994147049E+03  0.00000000000E+00 0. -1.
         25    1    1    2    0    0 -0.14848084594E+03 -0.40032786066E+02  0.15362097808E+03  0.25074606772E+03  0.12500000000E+03 0.  0.
         25    1    1    2    0    0 -0.19907246416E+02  0.58363708825E+01  0.37951440462E+03  0.40010816663E+03  0.12500000000E+03 0.  0.
         25    1    1    2    0    0  0.16838809236E+03  0.34196415183E+02  0.16988084331E+03  0.27204493265E+03  0.12500000000E+03 0.  0.
</event>
<event>
 5    0  0.5749909E-005  0.2400900E+03  0.7546771E-02  0.1119733E+00
         21   -1    0    0  502  501  0.00000000000E+00  0.00000000000E+00  0.16390722796E+03  0.16390722796E+03  0.00000000000E+00 0. -1.
         21   -1    0    0  501  502 -0.00000000000E+00 -0.00000000000E+00 -0.35168186449E+03  0.35168186449E+03  0.00000000000E+00 0. -1.
         25    1    1    2    0    0  0.10644397073E+03  0.86545536937E+02 -0.10344491749E+03  0.21247658653E+03  0.12500000000E+03 0.  0.
         25    1    1    2    0    0 -0.70090095774E+02 -0.33090221125E+02 -0.20194911960E+02  0.14846015873E+03  0.12500000000E+03 0.  0.
         25    1    1    2    0    0 -0.36353874955E+02 -0.53455315811E+02 -0.64134807084E+02  0.15465234719E+03  0.12500000000E+03 0.  0.
</event>
<event>
 5    0  0.5932273E-005  0.3294806E+03  0.7546771E-02  0.1071367E+00
         21   -1    0    0  502  501  0.00000000000E+00  0.00000000000E+00  0.15994425072E+03  0.15994425072E+03  0.00000000000E+00 0. -1.
         21   -1    0    0  501  502 -0.00000000000E+00 -0.00000000000E+00 -0.67872049938E+03  0.67872049938E+03  0.00000000000E+00 0. -1.
         25    1    1    2    0    0 -0.14225133614E+03  0.17280237256E+03 -0.28139040754E+03  0.38065951196E+03  0.12500000000E+03 0.  0.
         25    1    1    2    0    0  0.25861540343E+02 -0.53016737107E+02  0.48701575141E+01  0.13830514132E+03  0.12500000000E+03 0.  0.
         25    1    1    2    0    0  0.11638979579E+03 -0.11978563545E+03 -0.24225599864E+03  0.31970009681E+03  0.12500000000E+03 0.  0.
</event>
<event>
 5    0  0.5749909E-005  0.2889208E+03  0.7546771E-02  0.1090914E+00
         21   -1    0    0  502  501  0.00000000000E+00  0.00000000000E+00  0.64080547190E+02  0.64080547190E+02  0.00000000000E+00 0. -1.
         21   -1    0    0  501  502 -0.00000000000E+00 -0.00000000000E+00 -0.13026607601E+04  0.13026607601E+04  0.00000000000E+00 0. -1.
         25    1    1    2    0    0  0.57270545900E+02 -0.97830249927E+02 -0.48305249682E+03  0.51167898913E+03  0.12500000000E+03 0.  0.
         25    1    1    2    0    0 -0.16569122361E+03  0.82949528985E+02 -0.52776632613E+03  0.57314614274E+03  0.12500000000E+03 0.  0.
         25    1    1    2    0    0  0.10842067771E+03  0.14880720942E+02 -0.22776138997E+03  0.28191617543E+03  0.12500000000E+03 0.  0.
</event>
<event>
 5    0  0.5749909E-005  0.2671598E+03  0.7546771E-02  0.1102916E+00
         21   -1    0    0  502  501  0.00000000000E+00  0.00000000000E+00  0.10665631954E+03  0.10665631954E+03  0.00000000000E+00 0.  1.
         21   -1    0    0  501  502 -0.00000000000E+00 -0.00000000000E+00 -0.66919935048E+03  0.66919935048E+03  0.00000000000E+00 0.  1.
         25    1    1    2    0    0 -0.97127858335E+02 -0.14108888900E+03 -0.30277712312E+03  0.36964696908E+03  0.12500000000E+03 0.  0.
         25    1    1    2    0    0  0.68590709879E+02  0.10394448653E+03 -0.12294779178E+03  0.21505883210E+03  0.12500000000E+03 0.  0.
         25    1    1    2    0    0  0.28537148456E+02  0.37144402473E+02 -0.13681811604E+03  0.19114986883E+03  0.12500000000E+03 0.  0.
</event>
<event>
 5    0  0.5749909E-005  0.3217285E+03  0.7546771E-02  0.1074857E+00
         21   -1    0    0  502  501  0.00000000000E+00  0.00000000000E+00  0.14717373372E+03  0.14717373372E+03  0.00000000000E+00 0. -1.
         21   -1    0    0  501  502 -0.00000000000E+00 -0.00000000000E+00 -0.70331331380E+03  0.70331331380E+03  0.00000000000E+00 0. -1.
         25    1    1    2    0    0  0.12623430944E+03 -0.57515154609E+02 -0.26171790187E+03  0.32150327222E+03  0.12500000000E+03 0.  0.
         25    1    1    2    0    0 -0.95473525872E+02  0.18866815412E+03 -0.11172131666E+03  0.26984721440E+03  0.12500000000E+03 0.  0.
         25    1    1    2    0    0 -0.30760783566E+02 -0.13115299951E+03 -0.18270036156E+03  0.25913656091E+03  0.12500000000E+03 0.  0.
</event>
<event>
 5    0  0.5749909E-005  0.2863706E+03  0.7546771E-02  0.1092259E+00
         21   -1    0    0  502  501  0.00000000000E+00  0.00000000000E+00  0.89635882794E+03  0.89635882794E+03  0.00000000000E+00 0. -1.
         21   -1    0    0  501  502 -0.00000000000E+00 -0.00000000000E+00 -0.91490252450E+02  0.91490252450E+02  0.00000000000E+00 0. -1.
         25    1    1    2    0    0  0.12310193810E+02  0.16536494537E+03  0.32133061882E+03  0.38259047639E+03  0.12500000000E+03 0.  0.
         25    1    1    2    0    0 -0.16966739089E+00  0.30032657108E+02  0.21193816040E+03  0.24788056220E+03  0.12500000000E+03 0.  0.
         25    1    1    2    0    0 -0.12140526419E+02 -0.19539760248E+03  0.27159979626E+03  0.35737804181E+03  0.12500000000E+03 0.  0.
</event>
<event>
 5    0  0.5749909E-005  0.3764248E+03  0.7546771E-02  0.1052263E+00
         21   -1    0    0  502  501  0.00000000000E+00  0.00000000000E+00  0.26052465617E+04  0.26052465617E+04  0.00000000000E+00 0. -1.
         21   -1    0    0  501  502 -0.00000000000E+00 -0.00000000000E+00 -0.54388572376E+02  0.54388572376E+02  0.00000000000E+00 0. -1.
         25    1    1    2    0    0 -0.17015678928E+03  0.17737366650E+03  0.53358728498E+03  0.60062895468E+03  0.12500000000E+03 0.  0.
         25    1    1    2    0    0  0.62493208034E+02 -0.94009303193E+02  0.15052358577E+04  0.15146297030E+04  0.12500000000E+03 0.  0.
         25    1    1    2    0    0  0.10766358125E+03 -0.83364363306E+02  0.51203484670E+03  0.54437647638E+03  0.12500000000E+03 0.  0.
</event>
<event>
 5    0  0.5749909E-005  0.2774434E+03  0.7546771E-02  0.1097094E+00
         21   -1    0    0  502  501  0.00000000000E+00  0.00000000000E+00  0.35056264402E+02  0.35056264402E+02  0.00000000000E+00 0.  1.
         21   -1    0    0  501  502 -0.00000000000E+00 -0.00000000000E+00 -0.21957517170E+04  0.21957517170E+04  0.00000000000E+00 0.  1.
         25    1    1    2    0    0  0.92305444458E+02  0.14353216224E+03 -0.67378472887E+03  0.70621005198E+03  0.12500000000E+03 0.  0.
         25    1    1    2    0    0  0.13009344924E+02 -0.44478356168E+02 -0.82290648628E+03  0.83363520342E+03  0.12500000000E+03 0.  0.
         25    1    1    2    0    0 -0.10531478938E+03 -0.99053806068E+02 -0.66400423746E+03  0.69096272600E+03  0.12500000000E+03 0.  0.
</event>
<event>
 5    0  0.5749909E-005  0.3370018E+03  0.7546771E-02  0.1068080E+00
         21   -1    0    0  502  501  0.00000000000E+00  0.00000000000E+00  0.20221179567E+04  0.20221179567E+04  0.00000000000E+00 0. -1.
         21   -1    0    0  501  502 -0.00000000000E+00 -0.00000000000E+00 -0.56164000565E+02  0.56164000565E+02  0.00000000000E+00 0. -1.
         25    1    1    2    0    0  0.45410509059E+02  0.15038542335E+02  0.21005551855E+03  0.24907146155E+03  0.12500000000E+03 0.  0.
         25    1    1    2    0    0 -0.12201544178E+03 -0.14665354876E+02  0.16195206634E+04  0.16289797481E+04  0.12500000000E+03 0.  0.
         25    1    1    2    0    0  0.76604932723E+02 -0.37318745851E+00  0.13637777423E+03  0.20023074762E+03  0.12500000000E+03 0.  0.
</event>
<event>
 5    0  0.5749909E-005  0.2297039E+03  0.7546771E-02  0.1126848E+00
         21   -1    0    0  502  501  0.00000000000E+00  0.00000000000E+00  0.38840724214E+03  0.38840724214E+03  0.00000000000E+00 0. -1.
         21   -1    0    0  501  502 -0.00000000000E+00 -0.00000000000E+00 -0.13584682516E+03  0.13584682516E+03  0.00000000000E+00 0. -1.
         25    1    1    2    0    0  0.82488076413E+02 -0.77311811272E+02  0.57225904926E+02  0.17799214339E+03  0.12500000000E+03 0.  0.
         25    1    1    2    0    0 -0.49439663245E+02  0.80284198938E+02  0.10786691079E+03  0.19013180519E+03  0.12500000000E+03 0.  0.
         25    1    1    2    0    0 -0.33048413168E+02 -0.29723876659E+01  0.87467601267E+02  0.15613011872E+03  0.12500000000E+03 0.  0.
</event>
<event>
 5    0  0.5749909E-005  0.3494513E+03  0.7546771E-02  0.1062840E+00
         21   -1    0    0  502  501  0.00000000000E+00  0.00000000000E+00  0.10874073736E+03  0.10874073736E+03  0.00000000000E+00 0. -1.
         21   -1    0    0  501  502 -0.00000000000E+00 -0.00000000000E+00 -0.11230030381E+04  0.11230030381E+04  0.00000000000E+00 0. -1.
         25    1    1    2    0    0 -0.46028887039E+02  0.64696300012E+02 -0.40934946322E+03  0.43531167308E+03  0.12500000000E+03 0.  0.
         25    1    1    2    0    0  0.74351710544E+02 -0.24356970809E+03 -0.24631349318E+03  0.37569897056E+03  0.12500000000E+03 0.  0.
         25    1    1    2    0    0 -0.28322823505E+02  0.17887340807E+03 -0.35859934433E+03  0.42073313181E+03  0.12500000000E+03 0.  0.
</event>
<event>
 5    0  0.5749909E-005  0.4721237E+03  0.7546771E-02  0.1021323E+00
         21   -1    0    0  502  501  0.00000000000E+00  0.00000000000E+00  0.30146790232E+03  0.30146790232E+03  0.00000000000E+00 0.  1.
         21   -1    0    0  501  502 -0.00000000000E+00 -0.00000000000E+00 -0.73938479365E+03  0.73938479365E+03  0.00000000000E+00 0.  1.
         25    1    1    2    0    0 -0.24336004338E+03 -0.99305515182E+02 -0.55386222619E+03  0.62567888063E+03  0.12500000000E+03 0.  0.
         25    1    1    2    0    0  0.23314380282E+02  0.66087607070E+02  0.46353252617E+02  0.15061459479E+03  0.12500000000E+03 0.  0.
         25    1    1    2    0    0  0.22004566310E+03  0.33217908112E+02  0.69592082243E+02  0.26455922056E+03  0.12500000000E+03 0.  0.
</event>
<event>
 5    0  0.5749909E-005  0.3458336E+03  0.7546771E-02  0.1064338E+00
         21   -1    0    0  502  501  0.00000000000E+00  0.00000000000E+00  0.11873871851E+03  0.11873871851E+03  0.00000000000E+00 0. -1.
         21   -1    0    0  501  502 -0.00000000000E+00 -0.00000000000E+00 -0.10072609311E+04  0.10072609311E+04  0.00000000000E+00 0. -1.
         25    1    1    2    0    0  0.15041581986E+03 -0.37840202625E+01 -0.11453871228E+03  0.22667896745E+03  0.12500000000E+03 0.  0.
         25    1    1    2    0    0 -0.19659363884E+03  0.29233287515E+02 -0.71284120183E+03  0.75051397252E+03  0.12500000000E+03 0.  0.
         25    1    1    2    0    0  0.46177818983E+02 -0.25449267252E+02 -0.61142298496E+02  0.14880670964E+03  0.12500000000E+03 0.  0.
</event>
<event>
 5    0  0.5749909E-005  0.3226303E+03  0.7546771E-02  0.1074445E+00
         21   -1    0    0  502  501  0.00000000000E+00  0.00000000000E+00  0.19058374017E+03  0.19058374017E+03  0.00000000000E+00 0.  1.
         21   -1    0    0  501  502 -0.00000000000E+00 -0.00000000000E+00 -0.54616590587E+03  0.54616590587E+03  0.00000000000E+00 0.  1.
         25    1    1    2    0    0 -0.34450537705E+02  0.27662340337E+02  0.30630937993E+02  0.13607093365E+03  0.12500000000E+03 0.  0.
         25    1    1    2    0    0  0.49037915930E+02  0.10162403089E+03 -0.38503738523E+03  0.42025105459E+03  0.12500000000E+03 0.  0.
         25    1    1    2    0    0 -0.14587378226E+02 -0.12928637122E+03 -0.11757184555E+01  0.18042765781E+03  0.12500000000E+03 0.  0.
</event>
<event>
 5    0  0.5749909E-005  0.2245056E+03  0.7546771E-02  0.1130568E+00
         21   -1    0    0  502  501  0.00000000000E+00  0.00000000000E+00  0.59429061273E+02  0.59429061273E+02  0.00000000000E+00 0.  1.
         21   -1    0    0  501  502 -0.00000000000E+00 -0.00000000000E+00 -0.84811618762E+03  0.84811618762E+03  0.00000000000E+00 0.  1.
         25    1    1    2    0    0 -0.55186761743E+02 -0.22531328223E+02 -0.25580972449E+03  0.29088976360E+03  0.12500000000E+03 0.  0.
         25    1    1    2    0    0 -0.51516262300E+02  0.73033207402E+01 -0.31862317357E+03  0.34619790657E+03  0.12500000000E+03 0.  0.
         25    1    1    2    0    0  0.10670302404E+03  0.15228007483E+02 -0.21425422829E+03  0.27045757873E+03  0.12500000000E+03 0.  0.
</event>
<event>
 5    0  0.5749909E-005  0.2421517E+03  0.7546771E-02  0.1118368E+00
         21   -1    0    0  502  501  0.00000000000E+00  0.00000000000E+00  0.13897849411E+03  0.13897849411E+03  0.00000000000E+00 0. -1.
         21   -1    0    0  501  502 -0.00000000000E+00 -0.00000000000E+00 -0.42191731967E+03  0.42191731967E+03  0.00000000000E+00 0. -1.
         25    1    1    2    0    0 -0.86274697860E+02 -0.65944029444E+02 -0.67629116238E+02  0.17885926275E+03  0.12500000000E+03 0.  0.
         25    1    1    2    0    0  0.11324602251E+03  0.61820078064E+02 -0.16700137641E+03  0.24527707473E+03  0.12500000000E+03 0.  0.
         25    1    1    2    0    0 -0.26971324653E+02  0.41239513803E+01 -0.48308332911E+02  0.13675947630E+03  0.12500000000E+03 0.  0.
</event>
<event>
 5    0  0.5749909E-005  0.3054524E+03  0.7546771E-02  0.1082546E+00
         21   -1    0    0  502  501  0.00000000000E+00  0.00000000000E+00  0.98140365509E+03  0.98140365509E+03  0.00000000000E+00 0. -1.
         21   -1    0    0  501  502 -0.00000000000E+00 -0.00000000000E+00 -0.95069093593E+02  0.95069093593E+02  0.00000000000E+00 0. -1.
         25    1    1    2    0    0 -0.79025295375E+01 -0.68224839879E+02  0.39438450983E+03  0.41938195043E+03  0.12500000000E+03 0.  0.
         25    1    1    2    0    0  0.24855027729E+01  0.20343299131E+03  0.19803210941E+03  0.31021424215E+03  0.12500000000E+03 0.  0.
         25    1    1    2    0    0  0.54170267646E+01 -0.13520815143E+03  0.29391794226E+03  0.34687655610E+03  0.12500000000E+03 0.  0.
</event>
<event>
 5    0  0.5749909E-005  0.3702141E+03  0.7546771E-02  0.1054611E+00
         21   -1    0    0  502  501  0.00000000000E+00  0.00000000000E+00  0.57448647711E+03  0.57448647711E+03  0.00000000000E+00 0.  1.
         21   -1    0    0  501  502 -0.00000000000E+00 -0.00000000000E+00 -0.23857563586E+03  0.23857563586E+03  0.00000000000E+00 0.  1.
         25    1    1    2    0    0  0.23877695976E+03 -0.98116937625E+02  0.26198280825E+03  0.38846024478E+03  0.12500000000E+03 0.  0.
         25    1    1    2    0    0 -0.19622320947E+03 -0.15426926452E+02 -0.54158958022E+01  0.23322922184E+03  0.12500000000E+03 0.  0.
         25    1    1    2    0    0 -0.42553750290E+02  0.11354386408E+03  0.79343928799E+02  0.19137264635E+03  0.12500000000E+03 0.  0.
</event>
<event>
 5    0  0.5749909E-005  0.5054074E+03  0.7546771E-02  0.1012377E+00
         21   -1    0    0  502  501  0.00000000000E+00  0.00000000000E+00  0.43447237176E+03  0.43447237176E+03  0.00000000000E+00 0.  1.
         21   -1    0    0  501  502 -0.00000000000E+00 -0.00000000000E+00 -0.58792370692E+03  0.58792370692E+03  0.00000000000E+00 0.  1.
         25    1    1    2    0    0 -0.24057478865E+03  0.87536714744E+02  0.18938602932E+03  0.34209790041E+03  0.12500000000E+03 0.  0.
         25    1    1    2    0    0  0.14784629472E+03 -0.10516668568E+03  0.76051245567E+02  0.23308228288E+03  0.12500000000E+03 0.  0.
         25    1    1    2    0    0  0.92728493927E+02  0.17629970939E+02 -0.41888861005E+03  0.44721589539E+03  0.12500000000E+03 0.  0.
</event>
<event>
 5    0  0.8468925E-005  0.2625507E+03  0.7546771E-02  0.1105620E+00
         21   -1    0    0  502  501  0.00000000000E+00  0.00000000000E+00  0.47891480987E+03  0.47891480987E+03  0.00000000000E+00 0. -1.
         21   -1    0    0  501  502 -0.00000000000E+00 -0.00000000000E+00 -0.14393558720E+03  0.14393558720E+03  0.00000000000E+00 0. -1.
         25    1    1    2    0    0 -0.73733470925E+02  0.69875992403E+02  0.13244951917E+03  0.20853573837E+03  0.12500000000E+03 0.  0.
         25    1    1    2    0    0 -0.65078642549E+01  0.70389818930E+02  0.14026087772E+03  0.20073662527E+03  0.12500000000E+03 0.  0.
         25    1    1    2    0    0  0.80241335180E+02 -0.14026581133E+03  0.62268825777E+02  0.21357803343E+03  0.12500000000E+03 0.  0.
</event>
<event>
 5    0  0.5749909E-005  0.4521251E+03  0.7546771E-02  0.1027090E+00
         21   -1    0    0  502  501  0.00000000000E+00  0.00000000000E+00  0.56904666784E+03  0.56904666784E+03  0.00000000000E+00 0. -1.
         21   -1    0    0  501  502 -0.00000000000E+00 -0.00000000000E+00 -0.35922731684E+03  0.35922731684E+03  0.00000000000E+00 0. -1.
         25    1    1    2    0    0 -0.39757155138E+02  0.22867350051E+03  0.36154869051E+03  0.44745352477E+03  0.12500000000E+03 0.  0.
         25    1    1    2    0    0 -0.10374659199E+03 -0.19899782334E+03 -0.12721164470E+03  0.28665535333E+03  0.12500000000E+03 0.  0.
         25    1    1    2    0    0  0.14350374713E+03 -0.29675677172E+02 -0.24517694810E+02  0.19416510658E+03  0.12500000000E+03 0.  0.
</event>
<event>
 5    0  0.5749909E-005  0.3727210E+03  0.7546771E-02  0.1053657E+00
         21   -1    0    0  502  501  0.00000000000E+00  0.00000000000E+00  0.68890287572E+03  0.68890287572E+03  0.00000000000E+00 0.  1.
         21   -1    0    0  501  502 -0.00000000000E+00 -0.00000000000E+00 -0.20165539386E+03  0.20165539386E+03  0.00000000000E+00 0.  1.
         25    1    1    2    0    0  0.19703632865E+03  0.18588150100E+03  0.28279236963E+03  0.41106176123E+03  0.12500000000E+03 0.  0.
         25    1    1    2    0    0  0.11212446740E+02 -0.33199649648E+02  0.46770767066E+01  0.12990308212E+03  0.12500000000E+03 0.  0.
         25    1    1    2    0    0 -0.20824877539E+03 -0.15268185135E+03  0.19977803553E+03  0.34959342623E+03  0.12500000000E+03 0.  0.
</event>
<event>
 5    0  0.5749909E-005  0.2561081E+03  0.7546771E-02  0.1109504E+00
         21   -1    0    0  502  501  0.00000000000E+00  0.00000000000E+00  0.71040851527E+02  0.71040851527E+02  0.00000000000E+00 0. -1.
         21   -1    0    0  501  502 -0.00000000000E+00 -0.00000000000E+00 -0.92329099881E+03  0.92329099881E+03  0.00000000000E+00 0. -1.
         25    1    1    2    0    0  0.42887122367E+02 -0.45520990072E+02 -0.17542822038E+03  0.22430231008E+03  0.12500000000E+03 0.  0.
         25    1    1    2    0    0 -0.13336669173E+03  0.19580615818E+02 -0.50606784905E+03  0.53842338621E+03  0.12500000000E+03 0.  0.
         25    1    1    2    0    0  0.90479569362E+02  0.25940374254E+02 -0.17075407786E+03  0.23160615405E+03  0.12500000000E+03 0.  0.
</event>
<event>
 5    0  0.5749909E-005  0.2325793E+03  0.7546771E-02  0.1124837E+00
         21   -1    0    0  502  501  0.00000000000E+00  0.00000000000E+00  0.40706541196E+02  0.40706541196E+02  0.00000000000E+00 0.  1.
         21   -1    0    0  501  502 -0.00000000000E+00 -0.00000000000E+00 -0.13288562164E+04  0.13288562164E+04  0.00000000000E+00 0.  1.
         25    1    1    2    0    0 -0.75651925441E+02 -0.48906458188E+02 -0.59409444736E+03  0.61374935264E+03  0.12500000000E+03 0.  0.
         25    1    1    2    0    0  0.59608213256E+02 -0.21541277554E+02 -0.45936325754E+03  0.48026739230E+03  0.12500000000E+03 0.  0.
         25    1    1    2    0    0  0.16043712185E+02  0.70447735742E+02 -0.23469197033E+03  0.27554601269E+03  0.12500000000E+03 0.  0.
</event>
<event>
 5    0  0.5749909E-005  0.2677249E+03  0.7546771E-02  0.1102589E+00
         21   -1    0    0  502  501  0.00000000000E+00  0.00000000000E+00  0.16660705588E+03  0.16660705588E+03  0.00000000000E+00 0.  1.
         21   -1    0    0  501  502 -0.00000000000E+00 -0.00000000000E+00 -0.43021361055E+03  0.43021361055E+03  0.00000000000E+00 0.  1.
         25    1    1    2    0    0  0.12453852608E+03  0.44618035200E+02 -0.42223343068E+02  0.18683796253E+03  0.12500000000E+03 0.  0.
         25    1    1    2    0    0  0.16362072907E+02 -0.84614285826E+02 -0.84811510115E+02  0.17391172198E+03  0.12500000000E+03 0.  0.
         25    1    1    2    0    0 -0.14090059898E+03  0.39996250626E+02 -0.13657170148E+03  0.23607098192E+03  0.12500000000E+03 0.  0.
</event>
<event>
 5    0  0.5749909E-005  0.2163233E+03  0.7546771E-02  0.1136654E+00
         21   -1    0    0  502  501  0.00000000000E+00  0.00000000000E+00  0.28038773290E+03  0.28038773290E+03  0.00000000000E+00 0.  1.
         21   -1    0    0  501  502 -0.00000000000E+00 -0.00000000000E+00 -0.16689662915E+03  0.16689662915E+03  0.00000000000E+00 0.  1.
         25    1    1    2    0    0 -0.11814723703E+02  0.72411593184E+02  0.54781423972E+02  0.15494847833E+03  0.12500000000E+03 0.  0.
         25    1    1    2    0    0  0.36719750203E+02 -0.20818351431E+02  0.78337429562E+02  0.15343890211E+03  0.12500000000E+03 0.  0.
         25    1    1    2    0    0 -0.24905026501E+02 -0.51593241753E+02 -0.19627749777E+02  0.13889698161E+03  0.12500000000E+03 0.  0.
</event>
<event>
 5    0  0.5749909E-005  0.2942128E+03  0.7546771E-02  0.1088170E+00
         21   -1    0    0  502  501  0.00000000000E+00  0.00000000000E+00  0.35229159732E+03  0.35229159732E+03  0.00000000000E+00 0. -1.
         21   -1    0    0  501  502 -0.00000000000E+00 -0.00000000000E+00 -0.24570893705E+03  0.24570893705E+03  0.00000000000E+00 0. -1.
         25    1    1    2    0    0 -0.51544886356E+02 -0.49375644857E+02 -0.11871951282E+03  0.18658550946E+03  0.12500000000E+03 0.  0.
         25    1    1    2    0    0  0.11569867570E+03  0.20215285436E+02  0.38377675952E+02  0.17576315694E+03  0.12500000000E+03 0.  0.
         25    1    1    2    0    0 -0.64153789349E+02  0.29160359421E+02  0.18692449714E+03  0.23565186797E+03  0.12500000000E+03 0.  0.
</event>
<event>
 5    0  0.5749909E-005  0.4568337E+03  0.7546771E-02  0.1025704E+00
         21   -1    0    0  502  501  0.00000000000E+00  0.00000000000E+00  0.21018414036E+03  0.21018414036E+03  0.00000000000E+00 0.  1.
         21   -1    0    0  501  502 -0.00000000000E+00 -0.00000000000E+00 -0.99292463548E+03  0.99292463548E+03  0.00000000000E+00 0.  1.
         25    1    1    2    0    0  0.75594471171E+02  0.16505740722E+03  0.58119757056E+02  0.22795038475E+03  0.12500000000E+03 0.  0.
         25    1    1    2    0    0 -0.22497666213E+03 -0.52017922059E+02 -0.52783888110E+03  0.58954155673E+03  0.12500000000E+03 0.  0.
         25    1    1    2    0    0  0.14938219096E+03 -0.11303948516E+03 -0.31302137109E+03  0.38561683435E+03  0.12500000000E+03 0.  0.
</event>
<event>
 5    0  0.5749909E-005  0.3079757E+03  0.7546771E-02  0.1081320E+00
         21   -1    0    0  502  501  0.00000000000E+00  0.00000000000E+00  0.62198980762E+02  0.62198980762E+02  0.00000000000E+00 0. -1.
         21   -1    0    0  501  502 -0.00000000000E+00 -0.00000000000E+00 -0.15249290303E+04  0.15249290303E+04  0.00000000000E+00 0. -1.
         25    1    1    2    0    0 -0.11446564101E+03  0.19322771949E+03 -0.54307799193E+03  0.60083112425E+03  0.12500000000E+03 0.  0.
         25    1    1    2    0    0  0.20664245172E+02 -0.91558249183E+02 -0.28779227969E+03  0.32750468741E+03  0.12500000000E+03 0.  0.
         25    1    1    2    0    0  0.93801395838E+02 -0.10166947030E+03 -0.63185977794E+03  0.65879219943E+03  0.12500000000E+03 0.  0.
</event>
<event>
 5    0  0.5749909E-005  0.2345018E+03  0.7546771E-02  0.1123511E+00
         21   -1    0    0  502  501  0.00000000000E+00  0.00000000000E+00  0.40705046632E+03  0.40705046632E+03  0.00000000000E+00 0. -1.
         21   -1    0    0  501  502 -0.00000000000E+00 -0.00000000000E+00 -0.13509653717E+03  0.13509653717E+03  0.00000000000E+00 0. -1.
         25    1    1    2    0    0 -0.60899349492E+02 -0.34511535129E+02  0.15142323738E+03  0.20845568748E+03  0.12500000000E+03 0.  0.
         25    1    1    2    0    0 -0.32315980591E+02 -0.41621068083E+02  0.71662760665E+02  0.15341834042E+03  0.12500000000E+03 0.  0.
         25    1    1    2    0    0  0.93215330082E+02  0.76132603213E+02  0.48867931102E+02  0.18027297558E+03  0.12500000000E+03 0.  0.
</event>
<event>
 5    0  0.5749909E-005  0.2925419E+03  0.7546771E-02  0.1089029E+00
         21   -1    0    0  502  501  0.00000000000E+00  0.00000000000E+00  0.19597336318E+03  0.19597336318E+03  0.00000000000E+00 0. -1.
         21   -1    0    0  501  502 -0.00000000000E+00 -0.00000000000E+00 -0.43669584560E+03  0.43669584560E+03  0.00000000000E+00 0. -1.
         25    1    1    2    0    0  0.10758257620E+03 -0.73058066610E+02 -0.22895070596E+03  0.29147026874E+03  0.12500000000E+03 0.  0.
         25    1    1    2    0    0 -0.82401290377E+02  0.42428572909E+02 -0.98324291187E+02  0.18407287332E+03  0.12500000000E+03 0.  0.
         25    1    1    2    0    0 -0.25181285820E+02  0.30629493701E+02  0.86552514730E+02  0.15712606673E+03  0.12500000000E+03 0.  0.
</event>
<event>
 5    0  0.5749909E-005  0.3142319E+03  0.7546771E-02  0.1078335E+00
         21   -1    0    0  502  501  0.00000000000E+00  0.00000000000E+00  0.72967983657E+03  0.72967983657E+03  0.00000000000E+00 0.  1.
         21   -1    0    0  501  502 -0.00000000000E+00 -0.00000000000E+00 -0.13532189893E+03  0.13532189893E+03  0.00000000000E+00 0.  1.
         25    1    1    2    0    0  0.70731523894E+02 -0.15375199664E+03  0.36600355552E+02  0.21355844860E+03  0.12500000000E+03 0.  0.
         25    1    1    2    0    0  0.55356580576E+01  0.80398777132E+02  0.38815786158E+03  0.41567551333E+03  0.12500000000E+03 0.  0.
         25    1    1    2    0    0 -0.76267181951E+02  0.73353219510E+02  0.16959972051E+03  0.23576777356E+03  0.12500000000E+03 0.  0.
</event>
<event>
 5    0  0.5749909E-005  0.3774832E+03  0.7546771E-02  0.1051868E+00
         21   -1    0    0  502  501  0.00000000000E+00  0.00000000000E+00  0.15236656611E+03  0.15236656611E+03  0.00000000000E+00 0.  1.
         21   -1    0    0  501  502 -0.00000000000E+00 -0.00000000000E+00 -0.93520247799E+03  0.93520247799E+03  0.00000000000E+00 0.  1.
         25    1    1    2    0    0 -0.79380893375E+02 -0.85138862926E+02 -0.50651524785E+03  0.53453966037E+03  0.12500000000E+03 0.  0.
         25    1    1    2    0    0  0.12623053503E+03 -0.53867533436E+02  0.33034414437E+02  0.18855272915E+03  0.12500000000E+03 0.  0.
         25    1    1    2    0    0 -0.46849641660E+02  0.13900639636E+03 -0.30935507848E+03  0.36447665458E+03  0.12500000000E+03 0.  0.
</event>
<event>
 5    0  0.6118541E-005  0.2794107E+03  0.7546771E-02  0.1096011E+00
         21   -1    0    0  502  501  0.00000000000E+00  0.00000000000E+00  0.46069438830E+03  0.46069438830E+03  0.00000000000E+00 0.  1.
         21   -1    0    0  501  502 -0.00000000000E+00 -0.00000000000E+00 -0.16946232508E+03  0.16946232508E+03  0.00000000000E+00 0.  1.
         25    1    1    2    0    0 -0.94934241784E+02 -0.19943052207E+02  0.45756194227E+02  0.16470842390E+03  0.12500000000E+03 0.  0.
         25    1    1    2    0    0  0.10112885756E+03  0.90404856550E+02  0.40173411290E+01  0.18450263670E+03  0.12500000000E+03 0.  0.
         25    1    1    2    0    0 -0.61946157766E+01 -0.70461804343E+02  0.24145852786E+03  0.28094565277E+03  0.12500000000E+03 0.  0.
</event>
<event>
 5    0  0.5749909E-005  0.2956762E+03  0.7546771E-02  0.1087422E+00
         21   -1    0    0  502  501  0.00000000000E+00  0.00000000000E+00  0.65370345678E+03  0.65370345678E+03  0.00000000000E+00 0. -1.
         21   -1    0    0  501  502 -0.00000000000E+00 -0.00000000000E+00 -0.13373715914E+03  0.13373715914E+03  0.00000000000E+00 0. -1.
         25    1    1    2    0    0 -0.16032409812E+01  0.17349526106E+03  0.30925076853E+03  0.37598432658E+03  0.12500000000E+03 0.  0.
         25    1    1    2    0    0 -0.19829102852E+02 -0.10230664262E+03  0.21043009510E+03  0.26601817112E+03  0.12500000000E+03 0.  0.
         25    1    1    2    0    0  0.21432343833E+02 -0.71188618440E+02  0.28543400670E+00  0.14543811822E+03  0.12500000000E+03 0.  0.
</event>
<event>
 5    0  0.5749909E-005  0.3931976E+03  0.7546771E-02  0.1046161E+00
         21   -1    0    0  502  501  0.00000000000E+00  0.00000000000E+00  0.66908472414E+03  0.66908472414E+03  0.00000000000E+00 0. -1.
         21   -1    0    0  501  502 -0.00000000000E+00 -0.00000000000E+00 -0.23106842290E+03  0.23106842290E+03  0.00000000000E+00 0. -1.
         25    1    1    2    0    0  0.33664310357E+02  0.26936428709E+03  0.25394015058E+03  0.39217471237E+03  0.12500000000E+03 0.  0.
         25    1    1    2    0    0  0.81213903921E+02 -0.96938305769E+01  0.11899441606E+03  0.19098256359E+03  0.12500000000E+03 0.  0.
         25    1    1    2    0    0 -0.11487821428E+03 -0.25967045651E+03  0.65081734594E+02  0.31699587107E+03  0.12500000000E+03 0.  0.
</event>
<event>
 5    0  0.5749909E-005  0.2226997E+03  0.7546771E-02  0.1131886E+00
         21   -1    0    0  502  501  0.00000000000E+00  0.00000000000E+00  0.27128070639E+03  0.27128070639E+03  0.00000000000E+00 0. -1.
         21   -1    0    0  501  502 -0.00000000000E+00 -0.00000000000E+00 -0.18281866606E+03  0.18281866606E+03  0.00000000000E+00 0. -1.
         25    1    1    2    0    0  0.20044180593E+02  0.10408133162E+03  0.43023855360E+02  0.16944245305E+03  0.12500000000E+03 0.  0.
         25    1    1    2    0    0 -0.89025704777E+01 -0.81733874623E+02  0.86156327054E+00  0.14961759360E+03  0.12500000000E+03 0.  0.
         25    1    1    2    0    0 -0.11141610115E+02 -0.22347456995E+02  0.44576621696E+02  0.13503932580E+03  0.12500000000E+03 0.  0.
</event>
<event>
 5    0  0.5749909E-005  0.4379269E+03  0.7546771E-02  0.1031385E+00
         21   -1    0    0  502  501  0.00000000000E+00  0.00000000000E+00  0.66051729243E+02  0.66051729243E+02  0.00000000000E+00 0. -1.
         21   -1    0    0  501  502 -0.00000000000E+00 -0.00000000000E+00 -0.29034808472E+04  0.29034808472E+04  0.00000000000E+00 0. -1.
         25    1    1    2    0    0 -0.34810152303E+02  0.30332372572E+03 -0.13412053558E+04  0.13811856630E+04  0.12500000000E+03 0.  0.
         25    1    1    2    0    0  0.15664099004E+03 -0.25912200381E+03 -0.11781681286E+04  0.12228596616E+04  0.12500000000E+03 0.  0.
         25    1    1    2    0    0 -0.12183083773E+03 -0.44201721909E+02 -0.31805563357E+03  0.36548725188E+03  0.12500000000E+03 0.  0.
</event>
<event>
 5    0  0.5749909E-005  0.4500375E+03  0.7546771E-02  0.1027711E+00
         21   -1    0    0  502  501  0.00000000000E+00  0.00000000000E+00  0.17172601215E+04  0.17172601215E+04  0.00000000000E+00 0. -1.
         21   -1    0    0  501  502 -0.00000000000E+00 -0.00000000000E+00 -0.11794004861E+03  0.11794004861E+03  0.00000000000E+00 0. -1.
         25    1    1    2    0    0 -0.77159050606E+02 -0.12467387971E+03  0.10157649530E+04  0.10338764602E+04  0.12500000000E+03 0.  0.
         25    1    1    2    0    0 -0.79018446974E+02  0.26450539626E+03  0.35745937377E+03  0.46862482170E+03  0.12500000000E+03 0.  0.
         25    1    1    2    0    0  0.15617749758E+03 -0.13983151655E+03  0.22609574618E+03  0.33269888820E+03  0.12500000000E+03 0.  0.
</event>
<event>
 5    0  0.5749909E-005  0.3843456E+03  0.7546771E-02  0.1049339E+00
         21   -1    0    0  502  501  0.00000000000E+00  0.00000000000E+00  0.46508228114E+03  0.46508228114E+03  0.00000000000E+00 0. -1.
         21   -1    0    0  501  502 -0.00000000000E+00 -0.00000000000E+00 -0.31762446417E+03  0.31762446417E+03  0.00000000000E+00 0. -1.
         25    1    1    2    0    0  0.29364823058E+02 -0.12926214258E+03  0.32804822623E+03  0.37524876158E+03  0.12500000000E+03 0.  0.
         25    1    1    2    0    0  0.34606702479E+02 -0.48048535931E+02 -0.81355790189E+02  0.16046822196E+03  0.12500000000E+03 0.  0.
         25    1    1    2    0    0 -0.63971525536E+02  0.17731067851E+03 -0.99234619075E+02  0.24698976176E+03  0.12500000000E+03 0.  0.
</event>
<event>
 5    0  0.5749909E-005  0.2907019E+03  0.7546771E-02  0.1089983E+00
         21   -1    0    0  502  501  0.00000000000E+00  0.00000000000E+00  0.21837718935E+03  0.21837718935E+03  0.00000000000E+00 0. -1.
         21   -1    0    0  501  502 -0.00000000000E+00 -0.00000000000E+00 -0.38698000493E+03  0.38698000493E+03  0.00000000000E+00 0. -1.
         25    1    1    2    0    0  0.83248065331E+02 -0.13629931708E+03 -0.34956575052E+02  0.20580259075E+03  0.12500000000E+03 0.  0.
         25    1    1    2    0    0 -0.48647545700E+02  0.19279810283E+03 -0.77067191455E+02  0.24718827674E+03  0.12500000000E+03 0.  0.
         25    1    1    2    0    0 -0.34600519631E+02 -0.56498785745E+02 -0.56579049068E+02  0.15236632680E+03  0.12500000000E+03 0.  0.
</event>
<event>
 5    0  0.5749909E-005  0.2593007E+03  0.7546771E-02  0.1107564E+00
         21   -1    0    0  502  501  0.00000000000E+00  0.00000000000E+00  0.59539560101E+03  0.59539560101E+03  0.00000000000E+00 0.  1.
         21   -1    0    0  501  502 -0.00000000000E+00 -0.00000000000E+00 -0.11292798990E+03  0.11292798990E+03  0.00000000000E+00 0.  1.
         25    1    1    2    0    0  0.54966041279E+02  0.99407188872E+02  0.28094013093E+03  0.32780392319E+03  0.12500000000E+03 0.  0.
         25    1    1    2    0    0  0.19256513784E+02 -0.85494397256E+02  0.17475915320E+03  0.23204712218E+03  0.12500000000E+03 0.  0.
         25    1    1    2    0    0 -0.74222555062E+02 -0.13912791616E+02  0.26768326987E+02  0.14847254554E+03  0.12500000000E+03 0.  0.
</event>
<event>
 5    0  0.5749909E-005  0.3504919E+03  0.7546771E-02  0.1062413E+00
         21   -1    0    0  502  501  0.00000000000E+00  0.00000000000E+00  0.40517077534E+03  0.40517077534E+03  0.00000000000E+00 0. -1.
         21   -1    0    0  501  502 -0.00000000000E+00 -0.00000000000E+00 -0.30319206330E+03  0.30319206330E+03  0.00000000000E+00 0. -1.
         25    1    1    2    0    0 -0.10511601556E+03 -0.58882068529E+02 -0.48809987731E+02  0.18034380950E+03  0.12500000000E+03 0.  0.
         25    1    1    2    0    0  0.77421912533E+02 -0.11388229547E+03 -0.88793392869E+02  0.20608880702E+03  0.12500000000E+03 0.  0.
         25    1    1    2    0    0  0.27694103027E+02  0.17276436400E+03  0.23958209264E+03  0.32193022213E+03  0.12500000000E+03 0.  0.
</event>
<event>
 5    0  0.5749909E-005  0.3200127E+03  0.7546771E-02  0.1075643E+00
         21   -1    0    0  502  501  0.00000000000E+00  0.00000000000E+00  0.55944120859E+03  0.55944120859E+03  0.00000000000E+00 0. -1.
         21   -1    0    0  501  502 -0.00000000000E+00 -0.00000000000E+00 -0.18305428657E+03  0.18305428657E+03  0.00000000000E+00 0. -1.
         25    1    1    2    0    0 -0.24210800254E+03 -0.21728214001E+02  0.10516519115E+03  0.29287047923E+03  0.12500000000E+03 0.  0.
         25    1    1    2    0    0  0.15750512644E+03 -0.17684532512E+02  0.16737520861E+03  0.26222141027E+03  0.12500000000E+03 0.  0.
         25    1    1    2    0    0  0.84602876098E+02  0.39412746513E+02  0.10384652226E+03  0.18740360567E+03  0.12500000000E+03 0.  0.
</event>
<event>
 5    0  0.5749909E-005  0.5382707E+03  0.7546771E-02  0.1004246E+00
         21   -1    0    0  502  501  0.00000000000E+00  0.00000000000E+00  0.52710327884E+03  0.52710327884E+03  0.00000000000E+00 0.  1.
         21   -1    0    0  501  502 -0.00000000000E+00 -0.00000000000E+00 -0.54967469411E+03  0.54967469411E+03  0.00000000000E+00 0.  1.
         25    1    1    2    0    0 -0.70334541765E+02  0.60514248541E+01 -0.22640140904E+03  0.26807865548E+03  0.12500000000E+03 0.  0.
         25    1    1    2    0    0 -0.17977681698E+03  0.19638017620E+03  0.32918936060E+03  0.44144706666E+03  0.12500000000E+03 0.  0.
         25    1    1    2    0    0  0.25011135875E+03 -0.20243160105E+03 -0.12535936683E+03  0.36725225082E+03  0.12500000000E+03 0.  0.
</event>
<event>
 5    0  0.5749909E-005  0.2717888E+03  0.7546771E-02  0.1100260E+00
         21   -1    0    0  502  501  0.00000000000E+00  0.00000000000E+00  0.61122983676E+02  0.61122983676E+02  0.00000000000E+00 0. -1.
         21   -1    0    0  501  502 -0.00000000000E+00 -0.00000000000E+00 -0.12085333831E+04  0.12085333831E+04  0.00000000000E+00 0. -1.
         25    1    1    2    0    0 -0.99960777911E+02  0.13233161902E+03 -0.58257253306E+03  0.61848166568E+03  0.12500000000E+03 0.  0.
         25    1    1    2    0    0  0.24077116213E+01 -0.68481073052E+02 -0.34050528682E+03  0.36913995285E+03  0.12500000000E+03 0.  0.
         25    1    1    2    0    0  0.97553066289E+02 -0.63850545965E+02 -0.22433257950E+03  0.28203474819E+03  0.12500000000E+03 0.  0.
</event>
<event>
 5    0  0.5749909E-005  0.3327845E+03  0.7546771E-02  0.1069911E+00
         21   -1    0    0  502  501  0.00000000000E+00  0.00000000000E+00  0.15921027362E+03  0.15921027362E+03  0.00000000000E+00 0. -1.
         21   -1    0    0  501  502 -0.00000000000E+00 -0.00000000000E+00 -0.69559297982E+03  0.69559297982E+03  0.00000000000E+00 0. -1.
         25    1    1    2    0    0 -0.20575862301E+03 -0.11082548369E+03 -0.37701373477E+03  0.46085057772E+03  0.12500000000E+03 0.  0.
         25    1    1    2    0    0  0.62337547281E+02  0.95082544128E+02 -0.84178543156E+02  0.18877946691E+03  0.12500000000E+03 0.  0.
         25    1    1    2    0    0  0.14342107572E+03  0.15742939559E+02 -0.75190428274E+02  0.20517320881E+03  0.12500000000E+03 0.  0.
</event>
<event>
 5    0  0.5749909E-005  0.2363335E+03  0.7546771E-02  0.1122260E+00
         21   -1    0    0  502  501  0.00000000000E+00  0.00000000000E+00  0.28614535059E+03  0.28614535059E+03  0.00000000000E+00 0.  1.
         21   -1    0    0  501  502 -0.00000000000E+00 -0.00000000000E+00 -0.19519289372E+03  0.19519289372E+03  0.00000000000E+00 0.  1.
         25    1    1    2    0    0  0.16599291706E+02 -0.21012936367E+02  0.22474144864E+02  0.12979663773E+03  0.12500000000E+03 0.  0.
         25    1    1    2    0    0  0.41131787347E+02  0.11414508261E+03  0.62939063599E+02  0.18522216266E+03  0.12500000000E+03 0.  0.
         25    1    1    2    0    0 -0.57731079052E+02 -0.93132146239E+02  0.55392484109E+01  0.16631944392E+03  0.12500000000E+03 0.  0.
</event>
<event>
 5    0  0.5749909E-005  0.3104046E+03  0.7546771E-02  0.1080152E+00
         21   -1    0    0  502  501  0.00000000000E+00  0.00000000000E+00  0.73942654288E+02  0.73942654288E+02  0.00000000000E+00 0.  1.
         21   -1    0    0  501  502 -0.00000000000E+00 -0.00000000000E+00 -0.13030504142E+04  0.13030504142E+04  0.00000000000E+00 0.  1.
         25    1    1    2    0    0 -0.83327322841E+02 -0.43853201889E+01 -0.99959969101E+02  0.18049839109E+03  0.12500000000E+03 0.  0.
         25    1    1    2    0    0  0.23347699236E+01  0.22168231981E+02 -0.96817159099E+03  0.97646203780E+03  0.12500000000E+03 0.  0.
         25    1    1    2    0    0  0.80992552918E+02 -0.17782911792E+02 -0.16097619983E+03  0.22003263961E+03  0.12500000000E+03 0.  0.
</event>
<event>
 5    0  0.5749909E-005  0.2790393E+03  0.7546771E-02  0.1096215E+00
         21   -1    0    0  502  501  0.00000000000E+00  0.00000000000E+00  0.95428521101E+02  0.95428521101E+02  0.00000000000E+00 0. -1.
         21   -1    0    0  501  502 -0.00000000000E+00 -0.00000000000E+00 -0.81592922198E+03  0.81592922198E+03  0.00000000000E+00 0. -1.
         25    1    1    2    0    0  0.54325215606E+02 -0.99741070398E+02 -0.73583308075E+02  0.18422544179E+03  0.12500000000E+03 0.  0.
         25    1    1    2    0    0  0.14118606426E+02 -0.36049995572E+02 -0.31707460278E+03  0.34301638584E+03  0.12500000000E+03 0.  0.
         25    1    1    2    0    0 -0.68443822032E+02  0.13579106597E+03 -0.32984279002E+03  0.38411591545E+03  0.12500000000E+03 0.  0.
</event>
<event>
 5    0  0.5749909E-005  0.2429824E+03  0.7546771E-02  0.1117822E+00
         21   -1    0    0  502  501  0.00000000000E+00  0.00000000000E+00  0.52271636165E+02  0.52271636165E+02  0.00000000000E+00 0.  1.
         21   -1    0    0  501  502 -0.00000000000E+00 -0.00000000000E+00 -0.11294926207E+04  0.11294926207E+04  0.00000000000E+00 0.  1.
         25    1    1    2    0    0 -0.74189575653E+02 -0.20969339212E+02 -0.29140517962E+03  0.32632159756E+03  0.12500000000E+03 0.  0.
         25    1    1    2    0    0  0.12031827137E+03  0.79318482857E+02 -0.40134942128E+03  0.44438076703E+03  0.12500000000E+03 0.  0.
         25    1    1    2    0    0 -0.46128695715E+02 -0.58349143645E+02 -0.38446638361E+03  0.41106189225E+03  0.12500000000E+03 0.  0.
</event>
<event>
 5    0  0.5749909E-005  0.2157005E+03  0.7546771E-02  0.1137130E+00
         21   -1    0    0  502  501  0.00000000000E+00  0.00000000000E+00  0.43833066597E+02  0.43833066597E+02  0.00000000000E+00 0. -1.
         21   -1    0    0  501  502 -0.00000000000E+00 -0.00000000000E+00 -0.10614520801E+04  0.10614520801E+04  0.00000000000E+00 0. -1.
         25    1    1    2    0    0 -0.52802372397E+02 -0.55088886473E+02 -0.39795410142E+03  0.42404639225E+03  0.12500000000E+03 0.  0.
         25    1    1    2    0    0  0.58769151290E+02 -0.15079386023E+02 -0.32712144758E+03  0.35540771305E+03  0.12500000000E+03 0.  0.
         25    1    1    2    0    0 -0.59667788926E+01  0.70168272496E+02 -0.29254346449E+03  0.32583104139E+03  0.12500000000E+03 0.  0.
</event>
<event>
 5    0  0.5749909E-005  0.3546273E+03  0.7546771E-02  0.1060732E+00
         21   -1    0    0  502  501  0.00000000000E+00  0.00000000000E+00  0.68098155597E+03  0.68098155597E+03  0.00000000000E+00 0.  1.
         21   -1    0    0  501  502 -0.00000000000E+00 -0.00000000000E+00 -0.18467533508E+03  0.18467533508E+03  0.00000000000E+00 0.  1.
         25    1    1    2    0    0  0.10425773250E+03  0.61764421464E+02  0.35445203495E+02  0.17766789523E+03  0.12500000000E+03 0.  0.
         25    1    1    2    0    0  0.43790078965E+02  0.34500577622E+01 -0.46952835997E+02  0.14056686211E+03  0.12500000000E+03 0.  0.
         25    1    1    2    0    0 -0.14804781146E+03 -0.65214479226E+02  0.50781385339E+03  0.54742213371E+03  0.12500000000E+03 0.  0.
</event>
<event>
 5    0  0.5749909E-005  0.3264972E+03  0.7546771E-02  0.1072697E+00
         21   -1    0    0  502  501  0.00000000000E+00  0.00000000000E+00  0.68775081186E+03  0.68775081186E+03  0.00000000000E+00 0. -1.
         21   -1    0    0  501  502 -0.00000000000E+00 -0.00000000000E+00 -0.15499865688E+03  0.15499865688E+03  0.00000000000E+00 0. -1.
         25    1    1    2    0    0  0.10476471877E+03  0.37591250137E+02  0.36995791915E+03  0.40605739783E+03  0.12500000000E+03 0.  0.
         25    1    1    2    0    0 -0.18232589438E+03 -0.24885955149E+01  0.17918029622E+03  0.28456897832E+03  0.12500000000E+03 0.  0.
         25    1    1    2    0    0  0.77561175612E+02 -0.35102654622E+02 -0.16386060394E+02  0.15212309259E+03  0.12500000000E+03 0.  0.
</event>
<event>
 5    0  0.5749909E-005  0.3994487E+03  0.7546771E-02  0.1043971E+00
         21   -1    0    0  502  501  0.00000000000E+00  0.00000000000E+00  0.68528551637E+03  0.68528551637E+03  0.00000000000E+00 0.  1.
         21   -1    0    0  501  502 -0.00000000000E+00 -0.00000000000E+00 -0.23283621083E+03  0.23283621083E+03  0.00000000000E+00 0.  1.
         25    1    1    2    0    0  0.17749756986E+03 -0.54280185516E+02  0.92626430069E+02  0.24219079544E+03  0.12500000000E+03 0.  0.
         25    1    1    2    0    0  0.92818740904E+02  0.15796444106E+02 -0.53192652035E+02  0.16528552429E+03  0.12500000000E+03 0.  0.
         25    1    1    2    0    0 -0.27031631077E+03  0.38483741410E+02  0.41301552750E+03  0.51064540748E+03  0.12500000000E+03 0.  0.
</event>
<event>
 5    0  0.5749909E-005  0.5133272E+03  0.7546771E-02  0.1010358E+00
         21   -1    0    0  502  501  0.00000000000E+00  0.00000000000E+00  0.21646881203E+04  0.21646881203E+04  0.00000000000E+00 0.  1.
         21   -1    0    0  501  502 -0.00000000000E+00 -0.00000000000E+00 -0.12172875631E+03  0.12172875631E+03  0.00000000000E+00 0.  1.
         25    1    1    2    0    0  0.16476942443E+03 -0.43748754380E+03  0.94448974173E+03  0.10612399288E+04  0.12500000000E+03 0.  0.
         25    1    1    2    0    0 -0.20480707545E+02  0.19827208958E+03  0.43614131965E+03  0.49555578051E+03  0.12500000000E+03 0.  0.
         25    1    1    2    0    0 -0.14428871689E+03  0.23921545422E+03  0.66232830260E+03  0.72962116731E+03  0.12500000000E+03 0.  0.
</event>
<event>
 5    0  0.5749909E-005  0.3171684E+03  0.7546771E-02  0.1076960E+00
         21   -1    0    0  502  501  0.00000000000E+00  0.00000000000E+00  0.20986728880E+03  0.20986728880E+03  0.00000000000E+00 0.  1.
         21   -1    0    0  501  502 -0.00000000000E+00 -0.00000000000E+00 -0.47933042465E+03  0.47933042465E+03  0.00000000000E+00 0.  1.
         25    1    1    2    0    0 -0.54212272929E+01 -0.13379288788E+01  0.18540587694E+02  0.12649084216E+03  0.12500000000E+03 0.  0.
         25    1    1    2    0    0 -0.18695762935E+03 -0.62117568952E+02 -0.80168535774E+02  0.24670577957E+03  0.12500000000E+03 0.  0.
         25    1    1    2    0    0  0.19237885665E+03  0.63455497831E+02 -0.20783518777E+03  0.31600109172E+03  0.12500000000E+03 0.  0.
</event>
<event>
 5    0  0.5749909E-005  0.3348826E+03  0.7546771E-02  0.1068997E+00
         21   -1    0    0  502  501  0.00000000000E+00  0.00000000000E+00  0.15216977003E+03  0.15216977003E+03  0.00000000000E+00 0.  1.
         21   -1    0    0  501  502 -0.00000000000E+00 -0.00000000000E+00 -0.73698174997E+03  0.73698174997E+03  0.00000000000E+00 0.  1.
         25    1    1    2    0    0 -0.21190136012E+03  0.11069755427E+03 -0.36091344171E+03  0.45059920922E+03  0.12500000000E+03 0.  0.
         25    1    1    2    0    0  0.79988004019E+02  0.19831817653E+02 -0.60462364115E+02  0.16146850855E+03  0.12500000000E+03 0.  0.
         25    1    1    2    0    0  0.13191335610E+03 -0.13052937192E+03 -0.16343617412E+03  0.27708380224E+03  0.12500000000E+03 0.  0.
</event>
<event>
 5    0  0.5749909E-005  0.3169860E+03  0.7546771E-02  0.1077045E+00
         21   -1    0    0  502  501  0.00000000000E+00  0.00000000000E+00  0.12235460102E+03  0.12235460102E+03  0.00000000000E+00 0.  1.
         21   -1    0    0  501  502 -0.00000000000E+00 -0.00000000000E+00 -0.82122046827E+03  0.82122046827E+03  0.00000000000E+00 0.  1.
         25    1    1    2    0    0 -0.94785930669E+01  0.14003960808E+03 -0.55544933916E+03  0.58638716215E+03  0.12500000000E+03 0.  0.
         25    1    1    2    0    0  0.45678127359E+02 -0.96559128885E+01 -0.18730451515E+02  0.13474256116E+03  0.12500000000E+03 0.  0.
         25    1    1    2    0    0 -0.36199534292E+02 -0.13038369519E+03 -0.12468607658E+03  0.22244534598E+03  0.12500000000E+03 0.  0.
</event>
<event>
 5    0  0.5749909E-005  0.5773375E+03  0.7546771E-02  0.9953572E-01
         21   -1    0    0  502  501  0.00000000000E+00  0.00000000000E+00  0.17142150695E+04  0.17142150695E+04  0.00000000000E+00 0.  1.
         21   -1    0    0  501  502 -0.00000000000E+00 -0.00000000000E+00 -0.19444387163E+03  0.19444387163E+03  0.00000000000E+00 0.  1.
         25    1    1    2    0    0  0.26361020025E+03 -0.56374489772E+02  0.76498341929E+03  0.82066622482E+03  0.12500000000E+03 0.  0.
         25    1    1    2    0    0 -0.15513929688E+03  0.12166231354E+03  0.85327933774E+03  0.88463582800E+03  0.12500000000E+03 0.  0.
         25    1    1    2    0    0 -0.10847090337E+03 -0.65287823767E+02 -0.98491559142E+02  0.20335688833E+03  0.12500000000E+03 0.  0.
</event>
<event>
 5    0  0.5749909E-005  0.2095841E+03  0.7546771E-02  0.1141896E+00
         21   -1    0    0  502  501  0.00000000000E+00  0.00000000000E+00  0.53356987200E+02  0.53356987200E+02  0.00000000000E+00 0.  1.
         21   -1    0    0  501  502 -0.00000000000E+00 -0.00000000000E+00 -0.82323803482E+03  0.82323803482E+03  0.00000000000E+00 0.  1.
         25    1    1    2    0    0 -0.18318369554E+02  0.24838912922E+02 -0.35058659111E+03  0.37348158204E+03  0.12500000000E+03 0.  0.
         25    1    1    2    0    0 -0.98681620652E+01  0.39178370744E+02 -0.24026975521E+03  0.27383732512E+03  0.12500000000E+03 0.  0.
         25    1    1    2    0    0  0.28186531619E+02 -0.64017283665E+02 -0.17902470130E+03  0.22927611487E+03  0.12500000000E+03 0.  0.
</event>
<event>
 5    0  0.5749909E-005  0.3578426E+03  0.7546771E-02  0.1059441E+00
         21   -1    0    0  502  501  0.00000000000E+00  0.00000000000E+00  0.10003872201E+03  0.10003872201E+03  0.00000000000E+00 0. -1.
         21   -1    0    0  501  502 -0.00000000000E+00 -0.00000000000E+00 -0.12800176304E+04  0.12800176304E+04  0.00000000000E+00 0. -1.
         25    1    1    2    0    0 -0.40441784451E+02 -0.12004052238E+03 -0.24907296360E+03  0.30611698114E+03  0.12500000000E+03 0.  0.
         25    1    1    2    0    0 -0.31788748082E+01 -0.12678216398E+03 -0.11669560138E+03  0.21290064756E+03  0.12500000000E+03 0.  0.
         25    1    1    2    0    0  0.43620659259E+02  0.24682268636E+03 -0.81421034339E+03  0.86103872369E+03  0.12500000000E+03 0.  0.
</event>
<event>
 5    0  0.5749909E-005  0.2732600E+03  0.7546771E-02  0.1099428E+00
         21   -1    0    0  502  501  0.00000000000E+00  0.00000000000E+00  0.21385617298E+04  0.21385617298E+04  0.00000000000E+00 0.  1.
         21   -1    0    0  501  502 -0.00000000000E+00 -0.00000000000E+00 -0.34916482638E+02  0.34916482638E+02  0.00000000000E+00 0.  1.
         25    1    1    2    0    0 -0.24880610241E+02 -0.13174279022E+03  0.76790651714E+03  0.78948123893E+03  0.12500000000E+03 0.  0.
         25    1    1    2    0    0 -0.75003319494E+01  0.15437251570E+03  0.50041448866E+03  0.53844850176E+03  0.12500000000E+03 0.  0.
         25    1    1    2    0    0  0.32380942190E+02 -0.22629725475E+02  0.83532424138E+03  0.84554847178E+03  0.12500000000E+03 0.  0.
</event>
<event>
 5    0  0.5749909E-005  0.3320113E+03  0.7546771E-02  0.1070250E+00
         21   -1    0    0  502  501  0.00000000000E+00  0.00000000000E+00  0.31636354427E+03  0.31636354427E+03  0.00000000000E+00 0.  1.
         21   -1    0    0  501  502 -0.00000000000E+00 -0.00000000000E+00 -0.34843307195E+03  0.34843307195E+03  0.00000000000E+00 0.  1.
         25    1    1    2    0    0 -0.54292951926E+02  0.39339862737E+02  0.13107539039E+03  0.19313494607E+03  0.12500000000E+03 0.  0.
         25    1    1    2    0    0  0.21568837930E+02 -0.15184832941E+01 -0.27095561186E+03  0.29918132322E+03  0.12500000000E+03 0.  0.
         25    1    1    2    0    0  0.32724113996E+02 -0.37821379443E+02  0.10781069380E+03  0.17248034693E+03  0.12500000000E+03 0.  0.
</event>
<event>
 5    0  0.5749909E-005  0.2679412E+03  0.7546771E-02  0.1102464E+00
         21   -1    0    0  502  501  0.00000000000E+00  0.00000000000E+00  0.35817861356E+03  0.35817861356E+03  0.00000000000E+00 0.  1.
         21   -1    0    0  501  502 -0.00000000000E+00 -0.00000000000E+00 -0.20043772906E+03  0.20043772906E+03  0.00000000000E+00 0.  1.
         25    1    1    2    0    0 -0.13510795944E+03  0.66432276940E+00  0.11877992915E+03  0.21906225964E+03  0.12500000000E+03 0.  0.
         25    1    1    2    0    0  0.78707045129E+02  0.77785369953E+02 -0.25576685054E+02  0.16889206479E+03  0.12500000000E+03 0.  0.
         25    1    1    2    0    0  0.56400914311E+02 -0.78449692723E+02  0.64537640405E+02  0.17066201819E+03  0.12500000000E+03 0.  0.
</event>
<event>
 5    0  0.5749909E-005  0.2537078E+03  0.7546771E-02  0.1110984E+00
         21   -1    0    0  502  501  0.00000000000E+00  0.00000000000E+00  0.23216369330E+03  0.23216369330E+03  0.00000000000E+00 0. -1.
         21   -1    0    0  501  502 -0.00000000000E+00 -0.00000000000E+00 -0.27725103561E+03  0.27725103561E+03  0.00000000000E+00 0. -1.
         25    1    1    2    0    0 -0.51067020910E+02  0.21829597025E+02  0.12150308455E+03  0.18295456126E+03  0.12500000000E+03 0.  0.
         25    1    1    2    0    0  0.49278182750E+02 -0.63480093067E+02 -0.79768709033E+02  0.16865974164E+03  0.12500000000E+03 0.  0.
         25    1    1    2    0    0  0.17888381603E+01  0.41650496042E+02 -0.86821717828E+02  0.15780042601E+03  0.12500000000E+03 0.  0.
</event>
<event>
 5    0  0.5749909E-005  0.2385233E+03  0.7546771E-02  0.1120781E+00
         21   -1    0    0  502  501  0.00000000000E+00  0.00000000000E+00  0.21960307455E+03  0.21960307455E+03  0.00000000000E+00 0. -1.
         21   -1    0    0  501  502 -0.00000000000E+00 -0.00000000000E+00 -0.25907352937E+03  0.25907352937E+03  0.00000000000E+00 0. -1.
         25    1    1    2    0    0 -0.86083766147E+02 -0.72108044166E+02 -0.54159681305E-01  0.16803269849E+03  0.12500000000E+03 0.  0.
         25    1    1    2    0    0  0.92697971572E+02  0.70916938124E+01  0.21009891821E+02  0.15719294389E+03  0.12500000000E+03 0.  0.
         25    1    1    2    0    0 -0.66142054250E+01  0.65016350354E+02 -0.60426186960E+02  0.15345096154E+03  0.12500000000E+03 0.  0.
</event>
<event>
 5    0  0.5749909E-005  0.3652339E+03  0.7546771E-02  0.1056530E+00
         21   -1    0    0  502  501  0.00000000000E+00  0.00000000000E+00  0.65690844580E+03  0.65690844580E+03  0.00000000000E+00 0. -1.
         21   -1    0    0  501  502 -0.00000000000E+00 -0.00000000000E+00 -0.20306605374E+03  0.20306605374E+03  0.00000000000E+00 0. -1.
         25    1    1    2    0    0 -0.15286173866E+03  0.97637405812E+02  0.10315539179E+03  0.24324022903E+03  0.12500000000E+03 0.  0.
         25    1    1    2    0    0 -0.22415302105E+02  0.11816843307E+03  0.33229259189E+02  0.17662221833E+03  0.12500000000E+03 0.  0.
         25    1    1    2    0    0  0.17527704077E+03 -0.21580583888E+03  0.31745774108E+03  0.44011205219E+03  0.12500000000E+03 0.  0.
</event>
<event>
 5    0  0.7606244E-005  0.2938507E+03  0.7546771E-02  0.1088356E+00
         21   -1    0    0  502  501  0.00000000000E+00  0.00000000000E+00  0.57853193857E+03  0.57853193857E+03  0.00000000000E+00 0. -1.
         21   -1    0    0  501  502 -0.00000000000E+00 -0.00000000000E+00 -0.14925405438E+03  0.14925405438E+03  0.00000000000E+00 0. -1.
         25    1    1    2    0    0 -0.49333896356E+02 -0.12706630004E+03  0.98760812615E+02  0.20966252894E+03  0.12500000000E+03 0.  0.
         25    1    1    2    0    0  0.62002083402E+02  0.51670423229E+01 -0.49634932717E+01  0.13971611553E+03  0.12500000000E+03 0.  0.
         25    1    1    2    0    0 -0.12668187046E+02  0.12189925771E+03  0.33548056485E+03  0.37840734848E+03  0.12500000000E+03 0.  0.
</event>
<event>
 5    0  0.5749909E-005  0.3236294E+03  0.7546771E-02  0.1073991E+00
         21   -1    0    0  502  501  0.00000000000E+00  0.00000000000E+00  0.30861740259E+03  0.30861740259E+03  0.00000000000E+00 0. -1.
         21   -1    0    0  501  502 -0.00000000000E+00 -0.00000000000E+00 -0.33937158580E+03  0.33937158580E+03  0.00000000000E+00 0. -1.
         25    1    1    2    0    0  0.77965162594E+01  0.67844180498E+02  0.15655070581E+02  0.14329584686E+03  0.12500000000E+03 0.  0.
         25    1    1    2    0    0 -0.80145374004E+01  0.17515153792E+03 -0.79279862850E+02  0.22946152335E+03  0.12500000000E+03 0.  0.
         25    1    1    2    0    0  0.21802114105E+00 -0.24299571842E+03  0.32870609053E+02  0.27523161817E+03  0.12500000000E+03 0.  0.
</event>
<event>
 5    0  0.5749909E-005  0.2780096E+03  0.7546771E-02  0.1096781E+00
         21   -1    0    0  502  501  0.00000000000E+00  0.00000000000E+00  0.50354472262E+03  0.50354472262E+03  0.00000000000E+00 0.  1.
         21   -1    0    0  501  502 -0.00000000000E+00 -0.00000000000E+00 -0.15349052834E+03  0.15349052834E+03  0.00000000000E+00 0.  1.
         25    1    1    2    0    0  0.54122604359E+02  0.12608629014E+03  0.12222743065E+03  0.22224210598E+03  0.12500000000E+03 0.  0.
         25    1    1    2    0    0  0.90299713731E+02 -0.61800333170E+02  0.12901071418E+03  0.21033802284E+03  0.12500000000E+03 0.  0.
         25    1    1    2    0    0 -0.14442231809E+03 -0.64285956972E+02  0.98816049455E+02  0.22445512214E+03  0.12500000000E+03 0.  0.
</event>
<event>
 5    0  0.5749909E-005  0.2773394E+03  0.7546771E-02  0.1097151E+00
         21   -1    0    0  502  501  0.00000000000E+00  0.00000000000E+00  0.31029939236E+03  0.31029939236E+03  0.00000000000E+00 0. -1.
         21   -1    0    0  501  502 -0.00000000000E+00 -0.00000000000E+00 -0.24788038289E+03  0.24788038289E+03  0.00000000000E+00 0. -1.
         25    1    1    2    0    0  0.10989586571E+03 -0.54272271925E+01  0.12487205990E+03  0.20814559193E+03  0.12500000000E+03 0.  0.
         25    1    1    2    0    0 -0.82172467154E+01  0.85831439269E+02  0.17778425997E+02  0.15289091386E+03  0.12500000000E+03 0.  0.
         25    1    1    2    0    0 -0.10167861900E+03 -0.80404212076E+02 -0.80231476435E+02  0.19714326946E+03  0.12500000000E+03 0.  0.
</event>
<event>
 5    0  0.5749909E-005  0.4578983E+03  0.7546771E-02  0.1025393E+00
         21   -1    0    0  502  501  0.00000000000E+00  0.00000000000E+00  0.15231909608E+03  0.15231909608E+03  0.00000000000E+00 0.  1.
         21   -1    0    0  501  502 -0.00000000000E+00 -0.00000000000E+00 -0.13765236372E+04  0.13765236372E+04  0.00000000000E+00 0.  1.
         25    1    1    2    0    0  0.12415372043E+03 -0.24519224909E+03 -0.59366410219E+03  0.66602961762E+03  0.12500000000E+03 0.  0.
         25    1    1    2    0    0  0.14116295262E+03  0.74038400456E+02 -0.83834518306E+02  0.21923022236E+03  0.12500000000E+03 0.  0.
         25    1    1    2    0    0 -0.26531667305E+03  0.17115384864E+03 -0.54670592063E+03  0.64358289331E+03  0.12500000000E+03 0.  0.
</event>
<event>
 5    0  0.5749909E-005  0.3535886E+03  0.7546771E-02  0.1061152E+00
         21   -1    0    0  502  501  0.00000000000E+00  0.00000000000E+00  0.84384399389E+03  0.84384399389E+03  0.00000000000E+00 0. -1.
         21   -1    0    0  501  502 -0.00000000000E+00 -0.00000000000E+00 -0.14816111123E+03  0.14816111123E+03  0.00000000000E+00 0. -1.
         25    1    1    2    0    0  0.63253485099E+02 -0.15464423868E+03  0.41682248499E+02  0.21278687407E+03  0.12500000000E+03 0.  0.
         25    1    1    2    0    0 -0.12374554037E+03  0.17897749759E+03  0.54834919277E+03  0.60304041375E+03  0.12500000000E+03 0.  0.
         25    1    1    2    0    0  0.60492055267E+02 -0.24333258908E+02  0.10565144139E+03  0.17617781730E+03  0.12500000000E+03 0.  0.
</event>
<event>
 5    0  0.5749909E-005  0.2567462E+03  0.7546771E-02  0.1109114E+00
         21   -1    0    0  502  501  0.00000000000E+00  0.00000000000E+00  0.31967681900E+03  0.31967681900E+03  0.00000000000E+00 0.  1.
         21   -1    0    0  501  502 -0.00000000000E+00 -0.00000000000E+00 -0.20620397533E+03  0.20620397533E+03  0.00000000000E+00 0.  1.
         25    1    1    2    0    0 -0.13930832936E+02 -0.50109435696E+02  0.20709145502E+03  0.24742048095E+03  0.12500000000E+03 0.  0.
         25    1    1    2    0    0 -0.36176719424E+01  0.17028995438E+02 -0.17557094852E+02  0.12742184199E+03  0.12500000000E+03 0.  0.
         25    1    1    2    0    0  0.17548504878E+02  0.33080440259E+02 -0.76061516495E+02  0.15103847140E+03  0.12500000000E+03 0.  0.
</event>
<event>
 5    0  0.5749909E-005  0.4134600E+03  0.7546771E-02  0.1039216E+00
         21   -1    0    0  502  501  0.00000000000E+00  0.00000000000E+00  0.11120878486E+03  0.11120878486E+03  0.00000000000E+00 0. -1.
         21   -1    0    0  501  502 -0.00000000000E+00 -0.00000000000E+00 -0.15371914354E+04  0.15371914354E+04  0.00000000000E+00 0. -1.
         25    1    1    2    0    0  0.25923742643E+03  0.10154394436E+03 -0.85384090230E+03  0.90674390118E+03  0.12500000000E+03 0.  0.
         25    1    1    2    0    0 -0.10826983979E+03  0.25215625860E+02 -0.58071698060E+02  0.17707486584E+03  0.12500000000E+03 0.  0.
         25    1    1    2    0    0 -0.15096758664E+03 -0.12675957022E+03 -0.51407005020E+03  0.56458145326E+03  0.12500000000E+03 0.  0.
</event>
<event>
 5    0  0.5749909E-005  0.4587435E+03  0.7546771E-02  0.1025146E+00
         21   -1    0    0  502  501  0.00000000000E+00  0.00000000000E+00  0.59166527310E+03  0.59166527310E+03  0.00000000000E+00 0.  1.
         21   -1    0    0  501  502 -0.00000000000E+00 -0.00000000000E+00 -0.35568356386E+03  0.35568356386E+03  0.00000000000E+00 0.  1.
         25    1    1    2    0    0  0.17459810985E+03 -0.69834704213E+02 -0.22196301224E+03  0.31662906481E+03  0.12500000000E+03 0.  0.
         25    1    1    2    0    0  0.34029870925E+02 -0.73834258372E+02  0.18848469969E+03  0.24033520724E+03  0.12500000000E+03 0.  0.
         25    1    1    2    0    0 -0.20862798077E+03  0.14366896258E+03  0.26946002180E+03  0.39038456491E+03  0.12500000000E+03 0.  0.
</event>
<event>
 5    0  0.5749909E-005  0.2648295E+03  0.7546771E-02  0.1104276E+00
         21   -1    0    0  502  501  0.00000000000E+00  0.00000000000E+00  0.88151535317E+02  0.88151535317E+02  0.00000000000E+00 0.  1.
         21   -1    0    0  501  502 -0.00000000000E+00 -0.00000000000E+00 -0.79561482676E+03  0.79561482676E+03  0.00000000000E+00 0.  1.
         25    1    1    2    0    0  0.91289735772E+02 -0.10129090953E+03 -0.21039452171E+03  0.28015088609E+03  0.12500000000E+03 0.  0.
         25    1    1    2    0    0 -0.52633062075E+01  0.59469023867E+02 -0.85039115609E+02  0.16254512720E+03  0.12500000000E+03 0.  0.
         25    1    1    2    0    0 -0.86026429565E+02  0.41821885667E+02 -0.41202965412E+03  0.44107034879E+03  0.12500000000E+03 0.  0.
</event>
<event>
 5    0  0.5749909E-005  0.2444048E+03  0.7546771E-02  0.1116893E+00
         21   -1    0    0  502  501  0.00000000000E+00  0.00000000000E+00  0.34068642783E+03  0.34068642783E+03  0.00000000000E+00 0. -1.
         21   -1    0    0  501  502 -0.00000000000E+00 -0.00000000000E+00 -0.17533337020E+03  0.17533337020E+03  0.00000000000E+00 0. -1.
         25    1    1    2    0    0 -0.37972905113E+02  0.68164837186E+02 -0.43119585499E+02  0.15353398713E+03  0.12500000000E+03 0.  0.
         25    1    1    2    0    0  0.75275347837E+02 -0.53866715795E+02  0.66518474303E+02  0.16916769339E+03  0.12500000000E+03 0.  0.
         25    1    1    2    0    0 -0.37302442723E+02 -0.14298121391E+02  0.14195416882E+03  0.19331811750E+03  0.12500000000E+03 0.  0.
</event>
<event>
 5    0  0.5749909E-005  0.3490438E+03  0.7546771E-02  0.1063008E+00
         21   -1    0    0  502  501  0.00000000000E+00  0.00000000000E+00  0.18360304530E+03  0.18360304530E+03  0.00000000000E+00 0. -1.
         21   -1    0    0  501  502 -0.00000000000E+00 -0.00000000000E+00 -0.66355955457E+03  0.66355955457E+03  0.00000000000E+00 0. -1.
         25    1    1    2    0    0  0.41490701205E+02  0.48536163821E+01 -0.39005352604E+03  0.41171809416E+03  0.12500000000E+03 0.  0.
         25    1    1    2    0    0 -0.70567100652E+02 -0.88235647819E+01 -0.21337181249E+03  0.25731323587E+03  0.12500000000E+03 0.  0.
         25    1    1    2    0    0  0.29076399447E+02  0.39699483998E+01  0.12346882926E+03  0.17813126984E+03  0.12500000000E+03 0.  0.
</event>
<event>
 5    0  0.5749909E-005  0.2537738E+03  0.7546771E-02  0.1110943E+00
         21   -1    0    0  502  501  0.00000000000E+00  0.00000000000E+00  0.60440006888E+02  0.60440006888E+02  0.00000000000E+00 0. -1.
         21   -1    0    0  501  502 -0.00000000000E+00 -0.00000000000E+00 -0.10655383498E+04  0.10655383498E+04  0.00000000000E+00 0. -1.
         25    1    1    2    0    0 -0.10020042433E+03 -0.24841349544E+01 -0.31538397899E+03  0.35374899316E+03  0.12500000000E+03 0.  0.
         25    1    1    2    0    0 -0.35120825453E+02 -0.19618632671E+01 -0.45867925524E+03  0.47670638812E+03  0.12500000000E+03 0.  0.
         25    1    1    2    0    0  0.13532124979E+03  0.44459982215E+01 -0.23103510867E+03  0.29552297538E+03  0.12500000000E+03 0.  0.
</event>
<event>
 5    0  0.5799323E-005  0.4549642E+03  0.7546771E-02  0.1026252E+00
         21   -1    0    0  502  501  0.00000000000E+00  0.00000000000E+00  0.42812679951E+03  0.42812679951E+03  0.00000000000E+00 0.  1.
         21   -1    0    0  501  502 -0.00000000000E+00 -0.00000000000E+00 -0.48348381796E+03  0.48348381796E+03  0.00000000000E+00 0.  1.
         25    1    1    2    0    0 -0.22979030017E+03 -0.87890646606E+02  0.35462392587E+02  0.27822819610E+03  0.12500000000E+03 0.  0.
         25    1    1    2    0    0  0.22196746584E+03 -0.18871092708E+03 -0.90700203396E+02  0.32974671611E+03  0.12500000000E+03 0.  0.
         25    1    1    2    0    0  0.78228343341E+01  0.27660157368E+03 -0.11920764510E+00  0.30363570526E+03  0.12500000000E+03 0.  0.
</event>
<event>
 5    0  0.5749909E-005  0.2758840E+03  0.7546771E-02  0.1097958E+00
         21   -1    0    0  502  501  0.00000000000E+00  0.00000000000E+00  0.20486915736E+03  0.20486915736E+03  0.00000000000E+00 0. -1.
         21   -1    0    0  501  502 -0.00000000000E+00 -0.00000000000E+00 -0.37151516031E+03  0.37151516031E+03  0.00000000000E+00 0. -1.
         25    1    1    2    0    0  0.56603401948E+02  0.57562762519E+02 -0.78968540767E+02  0.16845903707E+03  0.12500000000E+03 0.  0.
         25    1    1    2    0    0 -0.14037381389E+03  0.14036840122E+02  0.46318971941E+02  0.19409350239E+03  0.12500000000E+03 0.  0.
         25    1    1    2    0    0  0.83770411941E+02 -0.71599602640E+02 -0.13399643412E+03  0.21383177821E+03  0.12500000000E+03 0.  0.
</event>
<event>
 5    0  0.5749909E-005  0.2642479E+03  0.7546771E-02  0.1104618E+00
         21   -1    0    0  502  501  0.00000000000E+00  0.00000000000E+00  0.96747321289E+03  0.96747321289E+03  0.00000000000E+00 0.  1.
         21   -1    0    0  501  502 -0.00000000000E+00 -0.00000000000E+00 -0.72174568395E+02  0.72174568395E+02  0.00000000000E+00 0.  1.
         25    1    1    2    0    0  0.52553309908E+02 -0.60421465314E+02  0.44262790583E+03  0.46685872260E+03  0.12500000000E+03 0.  0.
         25    1    1    2    0    0 -0.51519997087E+02 -0.57550262045E+02  0.33115387758E+03  0.36229026126E+03  0.12500000000E+03 0.  0.
         25    1    1    2    0    0 -0.10333128214E+01  0.11797172736E+03  0.12151686108E+03  0.21049879743E+03  0.12500000000E+03 0.  0.
</event>
<event>
 5    0  0.5749909E-005  0.2166558E+03  0.7546771E-02  0.1136401E+00
         21   -1    0    0  502  501  0.00000000000E+00  0.00000000000E+00  0.16739609874E+03  0.16739609874E+03  0.00000000000E+00 0. -1.
         21   -1    0    0  501  502 -0.00000000000E+00 -0.00000000000E+00 -0.28041116265E+03  0.28041116265E+03  0.00000000000E+00 0. -1.
         25    1    1    2    0    0  0.64582432389E+02 -0.13793990026E+02  0.61326235172E+01  0.14150538437E+03  0.12500000000E+03 0.  0.
         25    1    1    2    0    0  0.56777136735E+01  0.47367276389E+02 -0.70316722005E+02  0.15114673896E+03  0.12500000000E+03 0.  0.
         25    1    1    2    0    0 -0.70260146063E+02 -0.33573286363E+02 -0.48830965429E+02  0.15515513806E+03  0.12500000000E+03 0.  0.
</event>
<event>
 5    0  0.5749909E-005  0.3259084E+03  0.7546771E-02  0.1072962E+00
         21   -1    0    0  502  501  0.00000000000E+00  0.00000000000E+00  0.14441434361E+04  0.14441434361E+04  0.00000000000E+00 0.  1.
         21   -1    0    0  501  502 -0.00000000000E+00 -0.00000000000E+00 -0.73549669240E+02  0.73549669240E+02  0.00000000000E+00 0.  1.
         25    1    1    2    0    0 -0.15756817015E+03 -0.15851243378E+03  0.66822280094E+03  0.71561206782E+03  0.12500000000E+03 0.  0.
         25    1    1    2    0    0  0.70042804618E+02  0.12784169206E+02  0.13714291816E+03  0.19875263385E+03  0.12500000000E+03 0.  0.
         25    1    1    2    0    0  0.87525365529E+02  0.14572826457E+03  0.56522804775E+03  0.60332840367E+03  0.12500000000E+03 0.  0.
</event>
<event>
 5    0  0.5749909E-005  0.2550952E+03  0.7546771E-02  0.1110126E+00
         21   -1    0    0  502  501  0.00000000000E+00  0.00000000000E+00  0.11963610999E+04  0.11963610999E+04  0.00000000000E+00 0. -1.
         21   -1    0    0  501  502 -0.00000000000E+00 -0.00000000000E+00 -0.54392900615E+02  0.54392900615E+02  0.00000000000E+00 0. -1.
         25    1    1    2    0    0  0.39786916246E+02 -0.11479594789E+02  0.81440388392E+03  0.82498088823E+03  0.12500000000E+03 0.  0.
         25    1    1    2    0    0 -0.20117922871E+02  0.38472200914E+02  0.10748463796E+03  0.17047811725E+03  0.12500000000E+03 0.  0.
         25    1    1    2    0    0 -0.19668993374E+02 -0.26992606126E+02  0.22007967744E+03  0.25529499507E+03  0.12500000000E+03 0.  0.
</event>
<event>
 5    0  0.5749909E-005  0.3841433E+03  0.7546771E-02  0.1049413E+00
         21   -1    0    0  502  501  0.00000000000E+00  0.00000000000E+00  0.62161341022E+03  0.62161341022E+03  0.00000000000E+00 0.  1.
         21   -1    0    0  501  502 -0.00000000000E+00 -0.00000000000E+00 -0.23739199186E+03  0.23739199186E+03  0.00000000000E+00 0.  1.
         25    1    1    2    0    0  0.16834726708E+02 -0.16610310958E+03 -0.86831455146E+02  0.22591669402E+03  0.12500000000E+03 0.  0.
         25    1    1    2    0    0  0.31435315733E+02 -0.55778752458E+02  0.73538665449E+02  0.15853196402E+03  0.12500000000E+03 0.  0.
         25    1    1    2    0    0 -0.48270042441E+02  0.22188186204E+03  0.39751420806E+03  0.47455674404E+03  0.12500000000E+03 0.  0.
</event>
<event>
 5    0  0.5749909E-005  0.3119612E+03  0.7546771E-02  0.1079410E+00
         21   -1    0    0  502  501  0.00000000000E+00  0.00000000000E+00  0.22630336577E+03  0.22630336577E+03  0.00000000000E+00 0. -1.
         21   -1    0    0  501  502 -0.00000000000E+00 -0.00000000000E+00 -0.43004132396E+03  0.43004132396E+03  0.00000000000E+00 0. -1.
         25    1    1    2    0    0 -0.66824696459E+02 -0.18593357131E+02  0.10583523544E+03  0.17786891253E+03  0.12500000000E+03 0.  0.
         25    1    1    2    0    0 -0.24516855891E+02 -0.66329925488E+02 -0.25671124425E+03  0.29415369819E+03  0.12500000000E+03 0.  0.
         25    1    1    2    0    0  0.91341552349E+02  0.84923282619E+02 -0.52861949376E+02  0.18432207900E+03  0.12500000000E+03 0.  0.
</event>
<event>
 5    0  0.5749909E-005  0.3230982E+03  0.7546771E-02  0.1074232E+00
         21   -1    0    0  502  501  0.00000000000E+00  0.00000000000E+00  0.59105607597E+03  0.59105607597E+03  0.00000000000E+00 0. -1.
         21   -1    0    0  501  502 -0.00000000000E+00 -0.00000000000E+00 -0.17662021422E+03  0.17662021422E+03  0.00000000000E+00 0. -1.
         25    1    1    2    0    0  0.20934309950E+02  0.12894734042E+03  0.28488198101E+03  0.33741429288E+03  0.12500000000E+03 0.  0.
         25    1    1    2    0    0 -0.18915413357E+02  0.90184066966E+02  0.73577398523E+02  0.17184176550E+03  0.12500000000E+03 0.  0.
         25    1    1    2    0    0 -0.20188965923E+01 -0.21913140739E+03  0.55976482215E+02  0.25842023181E+03  0.12500000000E+03 0.  0.
</event>
<event>
 5    0  0.5749909E-005  0.2936422E+03  0.7546771E-02  0.1088463E+00
         21   -1    0    0  502  501  0.00000000000E+00  0.00000000000E+00  0.45417804875E+02  0.45417804875E+02  0.00000000000E+00 0. -1.
         21   -1    0    0  501  502 -0.00000000000E+00 -0.00000000000E+00 -0.18985009418E+04  0.18985009418E+04  0.00000000000E+00 0. -1.
         25    1    1    2    0    0 -0.18812573771E+02 -0.10562290881E+03 -0.46943090433E+03  0.49749420673E+03  0.12500000000E+03 0.  0.
         25    1    1    2    0    0  0.79978836830E+02  0.11535958389E+03 -0.30131505145E+03  0.35513407069E+03  0.12500000000E+03 0.  0.
         25    1    1    2    0    0 -0.61166263060E+02 -0.97366750815E+01 -0.10823371811E+04  0.10912904692E+04  0.12500000000E+03 0.  0.
</event>
<event>
 5    0  0.5749909E-005  0.3045984E+03  0.7546771E-02  0.1082964E+00
         21   -1    0    0  502  501  0.00000000000E+00  0.00000000000E+00  0.32627152339E+03  0.32627152339E+03  0.00000000000E+00 0.  1.
         21   -1    0    0  501  502 -0.00000000000E+00 -0.00000000000E+00 -0.28436499454E+03  0.28436499454E+03  0.00000000000E+00 0.  1.
         25    1    1    2    0    0 -0.60041984480E+02  0.15289318947E+03  0.10361480189E+03  0.23095972475E+03  0.12500000000E+03 0.  0.
         25    1    1    2    0    0  0.43062265069E+02 -0.39679942982E+02  0.79298623707E+02  0.15919211120E+03  0.12500000000E+03 0.  0.
         25    1    1    2    0    0  0.16979719411E+02 -0.11321324649E+03 -0.14100689675E+03  0.22048468197E+03  0.12500000000E+03 0.  0.
</event>
<event>
 5    0  0.5749909E-005  0.2478082E+03  0.7546771E-02  0.1114698E+00
         21   -1    0    0  502  501  0.00000000000E+00  0.00000000000E+00  0.35005047227E+02  0.35005047227E+02  0.00000000000E+00 0.  1.
         21   -1    0    0  501  502 -0.00000000000E+00 -0.00000000000E+00 -0.17542870392E+04  0.17542870392E+04  0.00000000000E+00 0.  1.
         25    1    1    2    0    0 -0.93493854292E+02  0.42703599142E+01 -0.96512698863E+03  0.97767808656E+03  0.12500000000E+03 0.  0.
         25    1    1    2    0    0 -0.16732297262E+02  0.51066465261E+01 -0.41223220759E+03  0.43112230351E+03  0.12500000000E+03 0.  0.
         25    1    1    2    0    0  0.11022615155E+03 -0.93770064403E+01 -0.34192279573E+03  0.38049169633E+03  0.12500000000E+03 0.  0.
</event>
<event>
 5    0  0.5749909E-005  0.3147613E+03  0.7546771E-02  0.1078086E+00
         21   -1    0    0  502  501  0.00000000000E+00  0.00000000000E+00  0.82557469555E+02  0.82557469555E+02  0.00000000000E+00 0. -1.
         21   -1    0    0  501  502 -0.00000000000E+00 -0.00000000000E+00 -0.12000691607E+04  0.12000691607E+04  0.00000000000E+00 0. -1.
         25    1    1    2    0    0  0.73782513480E+02  0.13162655686E+03 -0.19731874057E+03  0.27808109455E+03  0.12500000000E+03 0.  0.
         25    1    1    2    0    0 -0.13604053391E+03 -0.12347323751E+03 -0.76026329441E+03  0.79207193112E+03  0.12500000000E+03 0.  0.
         25    1    1    2    0    0  0.62258020428E+02 -0.81533193485E+01 -0.15992965617E+03  0.21247360459E+03  0.12500000000E+03 0.  0.
</event>
<event>
 5    0  0.5749909E-005  0.6996829E+03  0.7546771E-02  0.9717775E-01
         21   -1    0    0  502  501  0.00000000000E+00  0.00000000000E+00  0.32112891475E+03  0.32112891475E+03  0.00000000000E+00 0. -1.
         21   -1    0    0  501  502 -0.00000000000E+00 -0.00000000000E+00 -0.15244849616E+04  0.15244849616E+04  0.00000000000E+00 0. -1.
         25    1    1    2    0    0  0.28830323075E+03  0.90859296299E+02  0.15632420268E+03  0.36254161268E+03  0.12500000000E+03 0.  0.
         25    1    1    2    0    0 -0.23567770190E+03  0.11030896359E+03 -0.40058814243E+03  0.49376908214E+03  0.12500000000E+03 0.  0.
         25    1    1    2    0    0 -0.52625528844E+02 -0.20116825989E+03 -0.95909210709E+03  0.98930318151E+03  0.12500000000E+03 0.  0.
</event>
<event>
 5    0  0.5749909E-005  0.3342021E+03  0.7546771E-02  0.1069293E+00
         21   -1    0    0  502  501  0.00000000000E+00  0.00000000000E+00  0.16138567466E+03  0.16138567466E+03  0.00000000000E+00 0.  1.
         21   -1    0    0  501  502 -0.00000000000E+00 -0.00000000000E+00 -0.69207533656E+03  0.69207533656E+03  0.00000000000E+00 0.  1.
         25    1    1    2    0    0 -0.12171207702E+03 -0.13056550193E+03 -0.19156611730E+03  0.29014437317E+03  0.12500000000E+03 0.  0.
         25    1    1    2    0    0 -0.65981537248E+02  0.12618138840E+03 -0.48768346288E+02  0.19564932312E+03  0.12500000000E+03 0.  0.
         25    1    1    2    0    0  0.18769361427E+03  0.43841135316E+01 -0.29035519830E+03  0.36766731493E+03  0.12500000000E+03 0.  0.
</event>
<event>
 5    0  0.5749909E-005  0.3818186E+03  0.7546771E-02  0.1050264E+00
         21   -1    0    0  502  501  0.00000000000E+00  0.00000000000E+00  0.29491672434E+03  0.29491672434E+03  0.00000000000E+00 0. -1.
         21   -1    0    0  501  502 -0.00000000000E+00 -0.00000000000E+00 -0.49432744509E+03  0.49432744509E+03  0.00000000000E+00 0. -1.
         25    1    1    2    0    0 -0.15735682803E+03 -0.17436381284E+03 -0.16087555303E+03  0.31091776102E+03  0.12500000000E+03 0.  0.
         25    1    1    2    0    0  0.16092521805E+03  0.17166250020E+03  0.10638450883E+03  0.28689301751E+03  0.12500000000E+03 0.  0.
         25    1    1    2    0    0 -0.35683900241E+01  0.27013126441E+01 -0.14491967656E+03  0.19143339090E+03  0.12500000000E+03 0.  0.
</event>
<event>
 5    0  0.5749909E-005  0.2316216E+03  0.7546771E-02  0.1125504E+00
         21   -1    0    0  502  501  0.00000000000E+00  0.00000000000E+00  0.82041806104E+02  0.82041806104E+02  0.00000000000E+00 0.  1.
         21   -1    0    0  501  502 -0.00000000000E+00 -0.00000000000E+00 -0.65391725024E+03  0.65391725024E+03  0.00000000000E+00 0.  1.
         25    1    1    2    0    0 -0.76246889809E+01 -0.29274059364E+02 -0.77583498875E+02  0.15019755568E+03  0.12500000000E+03 0.  0.
         25    1    1    2    0    0 -0.87656797648E+02  0.28144931644E+02 -0.21356747316E+03  0.26403014400E+03  0.12500000000E+03 0.  0.
         25    1    1    2    0    0  0.95281486629E+02  0.11291277203E+01 -0.28072447210E+03  0.32173135666E+03  0.12500000000E+03 0.  0.
</event>
<event>
 5    0  0.5749909E-005  0.3257361E+03  0.7546771E-02  0.1073039E+00
         21   -1    0    0  502  501  0.00000000000E+00  0.00000000000E+00  0.12352677954E+04  0.12352677954E+04  0.00000000000E+00 0. -1.
         21   -1    0    0  501  502 -0.00000000000E+00 -0.00000000000E+00 -0.85895562867E+02  0.85895562867E+02  0.00000000000E+00 0. -1.
         25    1    1    2    0    0 -0.67998892481E+02 -0.14674501665E+03  0.54090787425E+03  0.57824240394E+03  0.12500000000E+03 0.  0.
         25    1    1    2    0    0  0.15657621983E+03  0.65452175957E+01  0.40648889503E+03  0.45322971468E+03  0.12500000000E+03 0.  0.
         25    1    1    2    0    0 -0.88577327348E+02  0.14019979905E+03  0.20197546328E+03  0.28969123967E+03  0.12500000000E+03 0.  0.
</event>
<event>
 5    0  0.5749909E-005  0.5296981E+03  0.7546771E-02  0.1006305E+00
         21   -1    0    0  502  501  0.00000000000E+00  0.00000000000E+00  0.26213925624E+03  0.26213925624E+03  0.00000000000E+00 0. -1.
         21   -1    0    0  501  502 -0.00000000000E+00 -0.00000000000E+00 -0.10703472875E+04  0.10703472875E+04  0.00000000000E+00 0. -1.
         25    1    1    2    0    0 -0.45875592951E+02  0.27883278709E+03 -0.72314642997E+02  0.31734319084E+03  0.12500000000E+03 0.  0.
         25    1    1    2    0    0  0.16227974746E+03 -0.22938729731E+03 -0.77437500835E+03  0.83320759848E+03  0.12500000000E+03 0.  0.
         25    1    1    2    0    0 -0.11640415451E+03 -0.49445489778E+02  0.38481620104E+02  0.18193575441E+03  0.12500000000E+03 0.  0.
</event>
<event>
 5    0  0.5749909E-005  0.6185182E+03  0.7546771E-02  0.9867714E-01
         21   -1    0    0  502  501  0.00000000000E+00  0.00000000000E+00  0.20535489357E+03  0.20535489357E+03  0.00000000000E+00 0.  1.
         21   -1    0    0  501  502 -0.00000000000E+00 -0.00000000000E+00 -0.18629444097E+04  0.18629444097E+04  0.00000000000E+00 0.  1.
         25    1    1    2    0    0  0.13455528716E+03  0.28856122275E+03 -0.50809260421E+03  0.61249963186E+03  0.12500000000E+03 0.  0.
         25    1    1    2    0    0 -0.42901345504E+03 -0.20275922279E+03 -0.38857330051E+03  0.62592176580E+03  0.12500000000E+03 0.  0.
         25    1    1    2    0    0  0.29445816788E+03 -0.85801999960E+02 -0.76092361140E+03  0.82987790561E+03  0.12500000000E+03 0.  0.
</event>
<event>
 5    0  0.5749909E-005  0.2493147E+03  0.7546771E-02  0.1113739E+00
         21   -1    0    0  502  501  0.00000000000E+00  0.00000000000E+00  0.14771970864E+03  0.14771970864E+03  0.00000000000E+00 0.  1.
         21   -1    0    0  501  502 -0.00000000000E+00 -0.00000000000E+00 -0.42078203955E+03  0.42078203955E+03  0.00000000000E+00 0.  1.
         25    1    1    2    0    0  0.10035628923E+03  0.30797262615E+01 -0.17406830748E+03  0.23665511863E+03  0.12500000000E+03 0.  0.
         25    1    1    2    0    0  0.29774456714E+02  0.23964124973E+02 -0.66002701922E+02  0.14643139766E+03  0.12500000000E+03 0.  0.
         25    1    1    2    0    0 -0.13013074595E+03 -0.27043851235E+02 -0.32991321505E+02  0.18541523191E+03  0.12500000000E+03 0.  0.
</event>
<event>
 5    0  0.5749909E-005  0.2857819E+03  0.7546771E-02  0.1092572E+00
         21   -1    0    0  502  501  0.00000000000E+00  0.00000000000E+00  0.15720233516E+03  0.15720233516E+03  0.00000000000E+00 0.  1.
         21   -1    0    0  501  502 -0.00000000000E+00 -0.00000000000E+00 -0.51952993584E+03  0.51952993584E+03  0.00000000000E+00 0.  1.
         25    1    1    2    0    0  0.15446998925E+02 -0.19007713418E+02 -0.14050218996E+03  0.18964642978E+03  0.12500000000E+03 0.  0.
         25    1    1    2    0    0  0.74767912247E+02 -0.11884161521E+03 -0.58620871260E+01  0.18807693711E+03  0.12500000000E+03 0.  0.
         25    1    1    2    0    0 -0.90214911173E+02  0.13784932863E+03 -0.21596332360E+03  0.29900890411E+03  0.12500000000E+03 0.  0.
</event>
<event>
 5    0  0.5749909E-005  0.3263757E+03  0.7546771E-02  0.1072752E+00
         21   -1    0    0  502  501  0.00000000000E+00  0.00000000000E+00  0.68214923838E+03  0.68214923838E+03  0.00000000000E+00 0. -1.
         21   -1    0    0  501  502 -0.00000000000E+00 -0.00000000000E+00 -0.15615510908E+03  0.15615510908E+03  0.00000000000E+00 0. -1.
         25    1    1    2    0    0 -0.21435060953E+03  0.50989141770E+02  0.25126158926E+03  0.35679610791E+03  0.12500000000E+03 0.  0.
         25    1    1    2    0    0  0.17539885474E+03  0.59501133057E+02  0.14156518784E+03  0.26452002852E+03  0.12500000000E+03 0.  0.
         25    1    1    2    0    0  0.38951754788E+02 -0.11049027483E+03  0.13316735221E+03  0.21698821103E+03  0.12500000000E+03 0.  0.
</event>
<event>
 5    0  0.5749909E-005  0.2361024E+03  0.7546771E-02  0.1122417E+00
         21   -1    0    0  502  501  0.00000000000E+00  0.00000000000E+00  0.32724812520E+03  0.32724812520E+03  0.00000000000E+00 0.  1.
         21   -1    0    0  501  502 -0.00000000000E+00 -0.00000000000E+00 -0.17034277840E+03  0.17034277840E+03  0.00000000000E+00 0.  1.
         25    1    1    2    0    0  0.66221555910E+02  0.42439936573E+02  0.54091495038E+02  0.15728106218E+03  0.12500000000E+03 0.  0.
         25    1    1    2    0    0 -0.48046890395E+02 -0.70693278837E+02 -0.30529163660E+02  0.15447677231E+03  0.12500000000E+03 0.  0.
         25    1    1    2    0    0 -0.18174665516E+02  0.28253342264E+02  0.13334301542E+03  0.18583306912E+03  0.12500000000E+03 0.  0.
</event>
<event>
 5    0  0.5749909E-005  0.2604730E+03  0.7546771E-02  0.1106859E+00
         21   -1    0    0  502  501  0.00000000000E+00  0.00000000000E+00  0.16407792702E+04  0.16407792702E+04  0.00000000000E+00 0.  1.
         21   -1    0    0  501  502 -0.00000000000E+00 -0.00000000000E+00 -0.41349961850E+02  0.41349961850E+02  0.00000000000E+00 0.  1.
         25    1    1    2    0    0 -0.21431642903E+02  0.86667032200E+02  0.64521363528E+03  0.66324665468E+03  0.12500000000E+03 0.  0.
         25    1    1    2    0    0 -0.75831634080E+02 -0.81273974092E+02  0.69679403151E+03  0.71659110931E+03  0.12500000000E+03 0.  0.
         25    1    1    2    0    0  0.97263276982E+02 -0.53930581081E+01  0.25742164160E+03  0.30229146810E+03  0.12500000000E+03 0.  0.
</event>
<event>
 5    0  0.5749909E-005  0.3193319E+03  0.7546771E-02  0.1075957E+00
         21   -1    0    0  502  501  0.00000000000E+00  0.00000000000E+00  0.80690161049E+02  0.80690161049E+02  0.00000000000E+00 0.  1.
         21   -1    0    0  501  502 -0.00000000000E+00 -0.00000000000E+00 -0.12637584527E+04  0.12637584527E+04  0.00000000000E+00 0.  1.
         25    1    1    2    0    0 -0.12116798898E+02 -0.98960847960E+02 -0.77782656360E+02  0.17780665869E+03  0.12500000000E+03 0.  0.
         25    1    1    2    0    0  0.10399457209E+03 -0.10267731238E+02 -0.70621637718E+03  0.72476676850E+03  0.12500000000E+03 0.  0.
         25    1    1    2    0    0 -0.91877773190E+02  0.10922857920E+03 -0.39906925807E+03  0.44187518652E+03  0.12500000000E+03 0.  0.
</event>
<event>
 5    0  0.5749909E-005  0.2565961E+03  0.7546771E-02  0.1109206E+00
         21   -1    0    0  502  501  0.00000000000E+00  0.00000000000E+00  0.22034304230E+03  0.22034304230E+03  0.00000000000E+00 0.  1.
         21   -1    0    0  501  502 -0.00000000000E+00 -0.00000000000E+00 -0.29881383311E+03  0.29881383311E+03  0.00000000000E+00 0.  1.
         25    1    1    2    0    0 -0.65378766649E+02 -0.59358368575E+02  0.54424747543E+02  0.16243414725E+03  0.12500000000E+03 0.  0.
         25    1    1    2    0    0  0.21857500314E+02  0.12010795196E+03 -0.27324653542E+02  0.17684826020E+03  0.12500000000E+03 0.  0.
         25    1    1    2    0    0  0.43521266335E+02 -0.60749583383E+02 -0.10557088481E+03  0.17987446796E+03  0.12500000000E+03 0.  0.
</event>
<event>
 5    0  0.5749909E-005  0.2938525E+03  0.7546771E-02  0.1088355E+00
         21   -1    0    0  502  501  0.00000000000E+00  0.00000000000E+00  0.66089376984E+02  0.66089376984E+02  0.00000000000E+00 0. -1.
         21   -1    0    0  501  502 -0.00000000000E+00 -0.00000000000E+00 -0.13065530429E+04  0.13065530429E+04  0.00000000000E+00 0. -1.
         25    1    1    2    0    0 -0.72636786335E+02 -0.18572605568E+03 -0.73860456636E+03  0.77519802369E+03  0.12500000000E+03 0.  0.
         25    1    1    2    0    0  0.29124505686E+02  0.12206686677E+03 -0.26498540257E+03  0.31873314916E+03  0.12500000000E+03 0.  0.
         25    1    1    2    0    0  0.43512280649E+02  0.63659188910E+02 -0.23687369698E+03  0.27871124703E+03  0.12500000000E+03 0.  0.
</event>
<event>
 5    0  0.5749909E-005  0.2740228E+03  0.7546771E-02  0.1098999E+00
         21   -1    0    0  502  501  0.00000000000E+00  0.00000000000E+00  0.91156362877E+02  0.91156362877E+02  0.00000000000E+00 0.  1.
         21   -1    0    0  501  502 -0.00000000000E+00 -0.00000000000E+00 -0.82373305699E+03  0.82373305699E+03  0.00000000000E+00 0.  1.
         25    1    1    2    0    0 -0.36272979593E+02  0.12963471915E+03 -0.19262582472E+03  0.26617775603E+03  0.12500000000E+03 0.  0.
         25    1    1    2    0    0 -0.87935690153E+02 -0.26696885255E+02 -0.21954654232E+03  0.26883283566E+03  0.12500000000E+03 0.  0.
         25    1    1    2    0    0  0.12420866975E+03 -0.10293783389E+03 -0.32040432707E+03  0.37987882817E+03  0.12500000000E+03 0.  0.
</event>
<event>
 5    0  0.5749909E-005  0.7666043E+03  0.7546771E-02  0.9609655E-01
         21   -1    0    0  502  501  0.00000000000E+00  0.00000000000E+00  0.13206320906E+04  0.13206320906E+04  0.00000000000E+00 0. -1.
         21   -1    0    0  501  502 -0.00000000000E+00 -0.00000000000E+00 -0.44500066042E+03  0.44500066042E+03  0.00000000000E+00 0. -1.
         25    1    1    2    0    0  0.49892990227E+02 -0.29161979443E+03 -0.11713732645E+03  0.34187361440E+03  0.12500000000E+03 0.  0.
         25    1    1    2    0    0  0.27961064149E+03  0.50292993686E+03  0.72188906171E+03  0.93159511036E+03  0.12500000000E+03 0.  0.
         25    1    1    2    0    0 -0.32950363172E+03 -0.21131014243E+03  0.27087969487E+03  0.49216402622E+03  0.12500000000E+03 0.  0.
</event>
<event>
 5    0  0.5749909E-005  0.1930209E+03  0.7546771E-02  0.1155765E+00
         21   -1    0    0  502  501  0.00000000000E+00  0.00000000000E+00  0.11503804317E+04  0.11503804317E+04  0.00000000000E+00 0. -1.
         21   -1    0    0  501  502 -0.00000000000E+00 -0.00000000000E+00 -0.32386721457E+02  0.32386721457E+02  0.00000000000E+00 0. -1.
         25    1    1    2    0    0  0.11064120283E+02 -0.16258255299E+02  0.41697682337E+03  0.43575384893E+03  0.12500000000E+03 0.  0.
         25    1    1    2    0    0  0.57522256362E+01  0.39168684657E+01  0.26738307409E+03  0.29524081403E+03  0.12500000000E+03 0.  0.
         25    1    1    2    0    0 -0.16816345919E+02  0.12341386833E+02  0.43363381282E+03  0.45177249024E+03  0.12500000000E+03 0.  0.
</event>
<event>
 5    0  0.5749909E-005  0.4101464E+03  0.7546771E-02  0.1040322E+00
         21   -1    0    0  502  501  0.00000000000E+00  0.00000000000E+00  0.53758975699E+03  0.53758975699E+03  0.00000000000E+00 0. -1.
         21   -1    0    0  501  502 -0.00000000000E+00 -0.00000000000E+00 -0.31291535950E+03  0.31291535950E+03  0.00000000000E+00 0. -1.
         25    1    1    2    0    0 -0.27466349346E+02 -0.70430770620E+02  0.29737770435E+03  0.33132067976E+03  0.12500000000E+03 0.  0.
         25    1    1    2    0    0 -0.59543041083E+02 -0.10053613541E+03  0.12880907547E+03  0.21417204810E+03  0.12500000000E+03 0.  0.
         25    1    1    2    0    0  0.87009390429E+02  0.17096690603E+03 -0.20151238232E+03  0.30501238862E+03  0.12500000000E+03 0.  0.
</event>
<event>
 5    0  0.5749909E-005  0.2290555E+03  0.7546771E-02  0.1127306E+00
         21   -1    0    0  502  501  0.00000000000E+00  0.00000000000E+00  0.75021801333E+02  0.75021801333E+02  0.00000000000E+00 0. -1.
         21   -1    0    0  501  502 -0.00000000000E+00 -0.00000000000E+00 -0.69934930522E+03  0.69934930522E+03  0.00000000000E+00 0. -1.
         25    1    1    2    0    0  0.25336100684E+02 -0.21895811903E+02 -0.12079950686E+03  0.17702786626E+03  0.12500000000E+03 0.  0.
         25    1    1    2    0    0  0.43701923763E+02 -0.46559411454E+02 -0.34861948768E+03  0.37581668953E+03  0.12500000000E+03 0.  0.
         25    1    1    2    0    0 -0.69038024447E+02  0.68455223357E+02 -0.15490850935E+03  0.22152655076E+03  0.12500000000E+03 0.  0.
</event>
<event>
 5    0  0.5749909E-005  0.2921514E+03  0.7546771E-02  0.1089231E+00
         21   -1    0    0  502  501  0.00000000000E+00  0.00000000000E+00  0.31126627282E+03  0.31126627282E+03  0.00000000000E+00 0. -1.
         21   -1    0    0  501  502 -0.00000000000E+00 -0.00000000000E+00 -0.27421038157E+03  0.27421038157E+03  0.00000000000E+00 0. -1.
         25    1    1    2    0    0  0.14572814486E+03  0.94576210886E+00  0.64259119780E+02  0.20246437006E+03  0.12500000000E+03 0.  0.
         25    1    1    2    0    0  0.30643191564E+02  0.71444056194E+02  0.24558217153E+02  0.14923593530E+03  0.12500000000E+03 0.  0.
         25    1    1    2    0    0 -0.17637133642E+03 -0.72389818303E+02 -0.51761445684E+02  0.23377634903E+03  0.12500000000E+03 0.  0.
</event>
<event>
 5    0  0.5749909E-005  0.2210829E+03  0.7546771E-02  0.1133078E+00
         21   -1    0    0  502  501  0.00000000000E+00  0.00000000000E+00  0.12384373004E+04  0.12384373004E+04  0.00000000000E+00 0.  1.
         21   -1    0    0  501  502 -0.00000000000E+00 -0.00000000000E+00 -0.39467183252E+02  0.39467183252E+02  0.00000000000E+00 0.  1.
         25    1    1    2    0    0  0.70445133216E+01 -0.55471951190E+01  0.48775119409E+03  0.50359370914E+03  0.12500000000E+03 0.  0.
         25    1    1    2    0    0 -0.10356492725E+02 -0.12149588950E+02  0.13606516340E+03  0.18545511086E+03  0.12500000000E+03 0.  0.
         25    1    1    2    0    0  0.33119794038E+01  0.17696784069E+02  0.57515375968E+03  0.58885566368E+03  0.12500000000E+03 0.  0.
</event>
<event>
 5    0  0.5749909E-005  0.2123029E+03  0.7546771E-02  0.1139755E+00
         21   -1    0    0  502  501  0.00000000000E+00  0.00000000000E+00  0.46026386578E+03  0.46026386578E+03  0.00000000000E+00 0. -1.
         21   -1    0    0  501  502 -0.00000000000E+00 -0.00000000000E+00 -0.97927551206E+02  0.97927551206E+02  0.00000000000E+00 0. -1.
         25    1    1    2    0    0 -0.51520562414E+02 -0.19067541992E+02  0.10568837547E+03  0.17266433395E+03  0.12500000000E+03 0.  0.
         25    1    1    2    0    0  0.40795755595E+02 -0.51567662753E+02  0.10191201351E+03  0.17416824054E+03  0.12500000000E+03 0.  0.
         25    1    1    2    0    0  0.10724806819E+02  0.70635204744E+02  0.15473592560E+03  0.21135884250E+03  0.12500000000E+03 0.  0.
</event>
<event>
 5    0  0.5749909E-005  0.2681753E+03  0.7546771E-02  0.1102329E+00
         21   -1    0    0  502  501  0.00000000000E+00  0.00000000000E+00  0.12922208154E+04  0.12922208154E+04  0.00000000000E+00 0. -1.
         21   -1    0    0  501  502 -0.00000000000E+00 -0.00000000000E+00 -0.55654554307E+02  0.55654554307E+02  0.00000000000E+00 0. -1.
         25    1    1    2    0    0 -0.10483685658E+03  0.72908410950E+02  0.29905348171E+03  0.34837391953E+03  0.12500000000E+03 0.  0.
         25    1    1    2    0    0  0.15672850674E+03 -0.62265151720E+02  0.60272292810E+03  0.63823248272E+03  0.12500000000E+03 0.  0.
         25    1    1    2    0    0 -0.51891650158E+02 -0.10643259230E+02  0.33478985128E+03  0.36126896745E+03  0.12500000000E+03 0.  0.
</event>
<event>
 5    0  0.5749909E-005  0.5783201E+03  0.7546771E-02  0.9951435E-01
         21   -1    0    0  502  501  0.00000000000E+00  0.00000000000E+00  0.61313480046E+03  0.61313480046E+03  0.00000000000E+00 0.  1.
         21   -1    0    0  501  502 -0.00000000000E+00 -0.00000000000E+00 -0.54548215417E+03  0.54548215417E+03  0.00000000000E+00 0.  1.
         25    1    1    2    0    0  0.29536706596E+01  0.11267634222E+03  0.12438178313E+03  0.20928571437E+03  0.12500000000E+03 0.  0.
         25    1    1    2    0    0 -0.16962100696E+03 -0.31172575349E+03 -0.36720963128E+03  0.52574912715E+03  0.12500000000E+03 0.  0.
         25    1    1    2    0    0  0.16666733630E+03  0.19904941127E+03  0.31048049445E+03  0.42358211311E+03  0.12500000000E+03 0.  0.
</event>
<event>
 5    0  0.5749909E-005  0.3909159E+03  0.7546771E-02  0.1046971E+00
         21   -1    0    0  502  501  0.00000000000E+00  0.00000000000E+00  0.52485917036E+03  0.52485917036E+03  0.00000000000E+00 0.  1.
         21   -1    0    0  501  502 -0.00000000000E+00 -0.00000000000E+00 -0.29115481573E+03  0.29115481573E+03  0.00000000000E+00 0.  1.
         25    1    1    2    0    0  0.20509105986E+03 -0.56057525041E+02  0.28126110869E+02  0.24823550725E+03  0.12500000000E+03 0.  0.
         25    1    1    2    0    0 -0.77505056897E+02 -0.47512175129E+02 -0.11066966625E+03  0.19009791072E+03  0.12500000000E+03 0.  0.
         25    1    1    2    0    0 -0.12758600296E+03  0.10356970017E+03  0.31624791002E+03  0.37768056812E+03  0.12500000000E+03 0.  0.
</event>
<event>
 5    0  0.5749909E-005  0.3690885E+03  0.7546771E-02  0.1055042E+00
         21   -1    0    0  502  501  0.00000000000E+00  0.00000000000E+00  0.14587372843E+04  0.14587372843E+04  0.00000000000E+00 0.  1.
         21   -1    0    0  501  502 -0.00000000000E+00 -0.00000000000E+00 -0.93386477917E+02  0.93386477917E+02  0.00000000000E+00 0.  1.
         25    1    1    2    0    0 -0.11281996970E+03 -0.20285158859E+03  0.33220005153E+03  0.42409785050E+03  0.12500000000E+03 0.  0.
         25    1    1    2    0    0 -0.36010847775E+02  0.17350595707E+03  0.30783882456E+03  0.37655124512E+03  0.12500000000E+03 0.  0.
         25    1    1    2    0    0  0.14883081748E+03  0.29345631515E+02  0.72531193032E+03  0.75147466663E+03  0.12500000000E+03 0.  0.
</event>
<event>
 5    0  0.5749909E-005  0.2411369E+03  0.7546771E-02  0.1119038E+00
         21   -1    0    0  502  501  0.00000000000E+00  0.00000000000E+00  0.11567464215E+04  0.11567464215E+04  0.00000000000E+00 0. -1.
         21   -1    0    0  501  502 -0.00000000000E+00 -0.00000000000E+00 -0.50267730824E+02  0.50267730824E+02  0.00000000000E+00 0. -1.
         25    1    1    2    0    0  0.35272361105E+02 -0.55311482090E+02  0.34602558818E+03  0.37371407143E+03  0.12500000000E+03 0.  0.
         25    1    1    2    0    0 -0.70799270029E+02  0.10255781802E+02  0.62080746205E+03  0.63729476903E+03  0.12500000000E+03 0.  0.
         25    1    1    2    0    0  0.35526908923E+02  0.45055700288E+02  0.13964564047E+03  0.19600531189E+03  0.12500000000E+03 0.  0.
</event>
<event>
 5    0  0.5749909E-005  0.2882198E+03  0.7546771E-02  0.1091282E+00
         21   -1    0    0  502  501  0.00000000000E+00  0.00000000000E+00  0.13816415884E+03  0.13816415884E+03  0.00000000000E+00 0.  1.
         21   -1    0    0  501  502 -0.00000000000E+00 -0.00000000000E+00 -0.60124622073E+03  0.60124622073E+03  0.00000000000E+00 0.  1.
         25    1    1    2    0    0 -0.17315271741E+02  0.90767946415E+02 -0.22838358485E+03  0.27626563406E+03  0.12500000000E+03 0.  0.
         25    1    1    2    0    0  0.71745713971E+02  0.59915660268E+02 -0.20518613012E+03  0.25780551160E+03  0.12500000000E+03 0.  0.
         25    1    1    2    0    0 -0.54430442230E+02 -0.15068360668E+03 -0.29512346919E+02  0.20533923392E+03  0.12500000000E+03 0.  0.
</event>
<event>
 5    0  0.5749909E-005  0.2516124E+03  0.7546771E-02  0.1112290E+00
         21   -1    0    0  502  501  0.00000000000E+00  0.00000000000E+00  0.79364385366E+03  0.79364385366E+03  0.00000000000E+00 0. -1.
         21   -1    0    0  501  502 -0.00000000000E+00 -0.00000000000E+00 -0.79769783633E+02  0.79769783633E+02  0.00000000000E+00 0. -1.
         25    1    1    2    0    0  0.70121944936E+01  0.99566425133E+01  0.19072299588E+03  0.22836060685E+03  0.12500000000E+03 0.  0.
         25    1    1    2    0    0  0.39365486824E+02  0.38228660487E+02  0.41068128647E+02  0.14255757863E+03  0.12500000000E+03 0.  0.
         25    1    1    2    0    0 -0.46377681318E+02 -0.48185303000E+02  0.48208294550E+03  0.50249545181E+03  0.12500000000E+03 0.  0.
</event>
<event>
 5    0  0.5749909E-005  0.2561042E+03  0.7546771E-02  0.1109507E+00
         21   -1    0    0  502  501  0.00000000000E+00  0.00000000000E+00  0.34158925757E+02  0.34158925757E+02  0.00000000000E+00 0.  1.
         21   -1    0    0  501  502 -0.00000000000E+00 -0.00000000000E+00 -0.19201235496E+04  0.19201235496E+04  0.00000000000E+00 0.  1.
         25    1    1    2    0    0 -0.14349211543E+03 -0.31196904647E+02 -0.54537601825E+03  0.57846627847E+03  0.12500000000E+03 0.  0.
         25    1    1    2    0    0  0.68240979974E+02  0.68447205133E+02 -0.73419237625E+03  0.75100286056E+03  0.12500000000E+03 0.  0.
         25    1    1    2    0    0  0.75251135457E+02 -0.37250300486E+02 -0.60639622933E+03  0.62481333630E+03  0.12500000000E+03 0.  0.
</event>
<event>
 5    0  0.5801307E-005  0.3215519E+03  0.7546771E-02  0.1074937E+00
         21   -1    0    0  502  501  0.00000000000E+00  0.00000000000E+00  0.24947002579E+03  0.24947002579E+03  0.00000000000E+00 0.  1.
         21   -1    0    0  501  502 -0.00000000000E+00 -0.00000000000E+00 -0.41446116066E+03  0.41446116066E+03  0.00000000000E+00 0.  1.
         25    1    1    2    0    0 -0.93783159272E+02 -0.17493372164E+03 -0.97501370692E+02  0.25402481221E+03  0.12500000000E+03 0.  0.
         25    1    1    2    0    0  0.59770337535E+02  0.43973834129E+02  0.87069096532E+02  0.16944680259E+03  0.12500000000E+03 0.  0.
         25    1    1    2    0    0  0.34012821737E+02  0.13095988751E+03 -0.15455886070E+03  0.24045957166E+03  0.12500000000E+03 0.  0.
</event>
<event>
 5    0  0.5749909E-005  0.2271077E+03  0.7546771E-02  0.1128692E+00
         21   -1    0    0  502  501  0.00000000000E+00  0.00000000000E+00  0.39096278694E+03  0.39096278694E+03  0.00000000000E+00 0.  1.
         21   -1    0    0  501  502 -0.00000000000E+00 -0.00000000000E+00 -0.13192533406E+03  0.13192533406E+03  0.00000000000E+00 0.  1.
         25    1    1    2    0    0 -0.38613092324E+02  0.43230047864E+02  0.62107408244E+02  0.15113615747E+03  0.12500000000E+03 0.  0.
         25    1    1    2    0    0  0.54954050383E+02 -0.10707607788E+03  0.11864388291E+03  0.21020610139E+03  0.12500000000E+03 0.  0.
         25    1    1    2    0    0 -0.16340958059E+02  0.63846030016E+02  0.78286161724E+02  0.16154586215E+03  0.12500000000E+03 0.  0.
</event>
<event>
 5    0  0.5749909E-005  0.3364363E+03  0.7546771E-02  0.1068324E+00
         21   -1    0    0  502  501  0.00000000000E+00  0.00000000000E+00  0.15147240644E+04  0.15147240644E+04  0.00000000000E+00 0. -1.
         21   -1    0    0  501  502 -0.00000000000E+00 -0.00000000000E+00 -0.74726075452E+02  0.74726075452E+02  0.00000000000E+00 0. -1.
         25    1    1    2    0    0 -0.43966306335E+01 -0.10919925572E+02  0.14411694657E+02  0.12637749831E+03  0.12500000000E+03 0.  0.
         25    1    1    2    0    0 -0.63251288054E+02  0.87311526726E+02  0.81315467288E+03  0.82974065235E+03  0.12500000000E+03 0.  0.
         25    1    1    2    0    0  0.67647918687E+02 -0.76391601154E+02  0.61243162141E+03  0.63333198919E+03  0.12500000000E+03 0.  0.
</event>
<event>
 5    0  0.5749909E-005  0.8226806E+03  0.7546771E-02  0.9527756E-01
         21   -1    0    0  502  501  0.00000000000E+00  0.00000000000E+00  0.53353744435E+03  0.53353744435E+03  0.00000000000E+00 0. -1.
         21   -1    0    0  501  502 -0.00000000000E+00 -0.00000000000E+00 -0.12685208386E+04  0.12685208386E+04  0.00000000000E+00 0. -1.
         25    1    1    2    0    0 -0.21068717626E+03 -0.10922111331E+03  0.51825533031E+02  0.27318349824E+03  0.12500000000E+03 0.  0.
         25    1    1    2    0    0 -0.70168831404E+02  0.51334178744E+03  0.65286987589E+02  0.53696447404E+03  0.12500000000E+03 0.  0.
         25    1    1    2    0    0  0.28085600767E+03 -0.40412067413E+03 -0.85209591484E+03  0.99191031066E+03  0.12500000000E+03 0.  0.
</event>
<event>
 5    0  0.5749909E-005  0.3300561E+03  0.7546771E-02  0.1071112E+00
         21   -1    0    0  502  501  0.00000000000E+00  0.00000000000E+00  0.40748540326E+03  0.40748540326E+03  0.00000000000E+00 0. -1.
         21   -1    0    0  501  502 -0.00000000000E+00 -0.00000000000E+00 -0.26733968969E+03  0.26733968969E+03  0.00000000000E+00 0. -1.
         25    1    1    2    0    0 -0.11351388139E+03  0.67111887382E+02 -0.36213772622E+01  0.18173475471E+03  0.12500000000E+03 0.  0.
         25    1    1    2    0    0  0.15399163992E+03 -0.30958401978E+02  0.24977195651E+03  0.32044169217E+03  0.12500000000E+03 0.  0.
         25    1    1    2    0    0 -0.40477758535E+02 -0.36153485404E+02 -0.10600486568E+03  0.17264864607E+03  0.12500000000E+03 0.  0.
</event>
<event>
 5    0  0.5749909E-005  0.2538901E+03  0.7546771E-02  0.1110871E+00
         21   -1    0    0  502  501  0.00000000000E+00  0.00000000000E+00  0.19527001527E+03  0.19527001527E+03  0.00000000000E+00 0.  1.
         21   -1    0    0  501  502 -0.00000000000E+00 -0.00000000000E+00 -0.33010806044E+03  0.33010806044E+03  0.00000000000E+00 0.  1.
         25    1    1    2    0    0  0.27915149753E+02  0.12773307599E+03 -0.12133171419E+03  0.21781042022E+03  0.12500000000E+03 0.  0.
         25    1    1    2    0    0 -0.14853768528E+02  0.26521528003E+01 -0.11848632971E+02  0.12646366457E+03  0.12500000000E+03 0.  0.
         25    1    1    2    0    0 -0.13061381225E+02 -0.13038522879E+03 -0.16576979997E+01  0.18110399092E+03  0.12500000000E+03 0.  0.
</event>
<event>
 5    0  0.5749909E-005  0.2092154E+03  0.7546771E-02  0.1142189E+00
         21   -1    0    0  502  501  0.00000000000E+00  0.00000000000E+00  0.29194421405E+03  0.29194421405E+03  0.00000000000E+00 0.  1.
         21   -1    0    0  501  502 -0.00000000000E+00 -0.00000000000E+00 -0.14992960059E+03  0.14992960059E+03  0.00000000000E+00 0.  1.
         25    1    1    2    0    0 -0.34607752432E+02  0.32349011571E+02 -0.18413670439E+02  0.13493783138E+03  0.12500000000E+03 0.  0.
         25    1    1    2    0    0  0.24573518784E+02 -0.13249003378E+02  0.45963503439E+02  0.13607732201E+03  0.12500000000E+03 0.  0.
         25    1    1    2    0    0  0.10034233648E+02 -0.19100008193E+02  0.11446478046E+03  0.17085866125E+03  0.12500000000E+03 0.  0.
</event>
<event>
 5    0  0.5749909E-005  0.3445372E+03  0.7546771E-02  0.1064880E+00
         21   -1    0    0  502  501  0.00000000000E+00  0.00000000000E+00  0.12734612671E+04  0.12734612671E+04  0.00000000000E+00 0. -1.
         21   -1    0    0  501  502 -0.00000000000E+00 -0.00000000000E+00 -0.93215134735E+02  0.93215134735E+02  0.00000000000E+00 0. -1.
         25    1    1    2    0    0 -0.73367473182E+02  0.35486028017E+02  0.95129507724E+02  0.17696515913E+03  0.12500000000E+03 0.  0.
         25    1    1    2    0    0  0.57577331809E+02  0.15307297378E+03  0.24737093358E+03  0.32181339813E+03  0.12500000000E+03 0.  0.
         25    1    1    2    0    0  0.15790141373E+02 -0.18855900179E+03  0.83774569109E+03  0.86789784460E+03  0.12500000000E+03 0.  0.
</event>
<event>
 5    0  0.5749909E-005  0.4185055E+03  0.7546771E-02  0.1037554E+00
         21   -1    0    0  502  501  0.00000000000E+00  0.00000000000E+00  0.59942124955E+02  0.59942124955E+02  0.00000000000E+00 0. -1.
         21   -1    0    0  501  502 -0.00000000000E+00 -0.00000000000E+00 -0.29219327489E+04  0.29219327489E+04  0.00000000000E+00 0. -1.
         25    1    1    2    0    0  0.13180437615E+03 -0.13664400241E+03 -0.41207755241E+03  0.47061330853E+03  0.12500000000E+03 0.  0.
         25    1    1    2    0    0  0.78028984814E+02  0.11602474885E+03 -0.34992808825E+03  0.39702006469E+03  0.12500000000E+03 0.  0.
         25    1    1    2    0    0 -0.20983336097E+03  0.20619253558E+02 -0.20999849833E+04  0.21142415006E+04  0.12500000000E+03 0.  0.
</event>
<event>
 5    0  0.5749909E-005  0.2947554E+03  0.7546771E-02  0.1087892E+00
         21   -1    0    0  502  501  0.00000000000E+00  0.00000000000E+00  0.50212678566E+03  0.50212678566E+03  0.00000000000E+00 0.  1.
         21   -1    0    0  501  502 -0.00000000000E+00 -0.00000000000E+00 -0.17302551881E+03  0.17302551881E+03  0.00000000000E+00 0.  1.
         25    1    1    2    0    0 -0.48832622726E+02 -0.16710653547E+02  0.34017619727E+03  0.36607200954E+03  0.12500000000E+03 0.  0.
         25    1    1    2    0    0 -0.12980083534E+02  0.51287994849E+02 -0.71270554559E+02  0.15330829375E+03  0.12500000000E+03 0.  0.
         25    1    1    2    0    0  0.61812706261E+02 -0.34577341302E+02  0.60195624137E+02  0.15577200118E+03  0.12500000000E+03 0.  0.
</event>
<event>
 5    0  0.5749909E-005  0.3694040E+03  0.7546771E-02  0.1054921E+00
         21   -1    0    0  502  501  0.00000000000E+00  0.00000000000E+00  0.36436020976E+03  0.36436020976E+03  0.00000000000E+00 0.  1.
         21   -1    0    0  501  502 -0.00000000000E+00 -0.00000000000E+00 -0.37451751969E+03  0.37451751969E+03  0.00000000000E+00 0.  1.
         25    1    1    2    0    0 -0.14660335272E+03  0.69379491297E+02  0.16200726834E+03  0.26110804629E+03  0.12500000000E+03 0.  0.
         25    1    1    2    0    0  0.22273315126E+03  0.10177269329E+02 -0.17733675248E+03  0.31110602254E+03  0.12500000000E+03 0.  0.
         25    1    1    2    0    0 -0.76129798534E+02 -0.79556760626E+02  0.51721741975E+01  0.16666366062E+03  0.12500000000E+03 0.  0.
</event>
<event>
 5    0  0.6485299E-005  0.2891324E+03  0.7546771E-02  0.1090803E+00
         21   -1    0    0  502  501  0.00000000000E+00  0.00000000000E+00  0.12591632790E+03  0.12591632790E+03  0.00000000000E+00 0. -1.
         21   -1    0    0  501  502 -0.00000000000E+00 -0.00000000000E+00 -0.66391362283E+03  0.66391362283E+03  0.00000000000E+00 0. -1.
         25    1    1    2    0    0 -0.39197818136E+02  0.17923967231E+03 -0.91633646692E+02  0.24017713106E+03  0.12500000000E+03 0.  0.
         25    1    1    2    0    0 -0.20659582997E+02 -0.96020791905E+02 -0.21390604605E+03  0.26651005119E+03  0.12500000000E+03 0.  0.
         25    1    1    2    0    0  0.59857401134E+02 -0.83218880410E+02 -0.23245760219E+03  0.28314276848E+03  0.12500000000E+03 0.  0.
</event>
<event>
 5    0  0.7718062E-005  0.2784075E+03  0.7546771E-02  0.1096562E+00
         21   -1    0    0  502  501  0.00000000000E+00  0.00000000000E+00  0.17783688169E+03  0.17783688169E+03  0.00000000000E+00 0. -1.
         21   -1    0    0  501  502 -0.00000000000E+00 -0.00000000000E+00 -0.43585312554E+03  0.43585312554E+03  0.00000000000E+00 0. -1.
         25    1    1    2    0    0 -0.56039609029E+02  0.65438751085E+02  0.45731498043E+01  0.15188344749E+03  0.12500000000E+03 0.  0.
         25    1    1    2    0    0 -0.37356137994E+02  0.57704754511E+02 -0.21398034808E+03  0.25717291674E+03  0.12500000000E+03 0.  0.
         25    1    1    2    0    0  0.93395747022E+02 -0.12314350560E+03 -0.48609045576E+02  0.20463364299E+03  0.12500000000E+03 0.  0.
</event>
<event>
 5    0  0.5749909E-005  0.4148145E+03  0.7546771E-02  0.1038767E+00
         21   -1    0    0  502  501  0.00000000000E+00  0.00000000000E+00  0.16618958399E+04  0.16618958399E+04  0.00000000000E+00 0. -1.
         21   -1    0    0  501  502 -0.00000000000E+00 -0.00000000000E+00 -0.10353903763E+03  0.10353903763E+03  0.00000000000E+00 0.  1.
         25    1    1    2    0    0 -0.26410871498E+03 -0.15955475141E+03  0.72549562835E+03  0.79823557850E+03  0.12500000000E+03 0.  0.
         25    1    1    2    0    0  0.23300868898E+03  0.53034003104E+01  0.62210256433E+03  0.67598652039E+03  0.12500000000E+03 0.  0.
         25    1    1    2    0    0  0.31100026002E+02  0.15425135110E+03  0.21075860960E+03  0.29121277866E+03  0.12500000000E+03 0.  0.
</event>
<event>
 5    0  0.5749909E-005  0.4644808E+03  0.7546771E-02  0.1023490E+00
         21   -1    0    0  502  501  0.00000000000E+00  0.00000000000E+00  0.23189719358E+03  0.23189719358E+03  0.00000000000E+00 0. -1.
         21   -1    0    0  501  502 -0.00000000000E+00 -0.00000000000E+00 -0.93033653126E+03  0.93033653126E+03  0.00000000000E+00 0. -1.
         25    1    1    2    0    0  0.24270627212E+02  0.13678351416E+03 -0.29972729541E+02  0.18926742352E+03  0.12500000000E+03 0.  0.
         25    1    1    2    0    0  0.89449258518E+02 -0.35542801209E+03 -0.54918894222E+03  0.67198492237E+03  0.12500000000E+03 0.  0.
         25    1    1    2    0    0 -0.11371988573E+03  0.21864449793E+03 -0.11927766592E+03  0.30098137895E+03  0.12500000000E+03 0.  0.
</event>
<event>
 5    0  0.5749909E-005  0.3198284E+03  0.7546771E-02  0.1075728E+00
         21   -1    0    0  502  501  0.00000000000E+00  0.00000000000E+00  0.20708676546E+03  0.20708676546E+03  0.00000000000E+00 0.  1.
         21   -1    0    0  501  502 -0.00000000000E+00 -0.00000000000E+00 -0.49394842333E+03  0.49394842333E+03  0.00000000000E+00 0.  1.
         25    1    1    2    0    0  0.95783419981E+02  0.81624492027E+00  0.28662000051E+02  0.16006761086E+03  0.12500000000E+03 0.  0.
         25    1    1    2    0    0  0.55734246991E+02  0.17333051679E+02  0.31765806997E+02  0.14156555888E+03  0.12500000000E+03 0.  0.
         25    1    1    2    0    0 -0.15151766697E+03 -0.18149296599E+02 -0.34728946492E+03  0.39940201904E+03  0.12500000000E+03 0.  0.
</event>
<event>
 5    0  0.5749909E-005  0.2784232E+03  0.7546771E-02  0.1096553E+00
         21   -1    0    0  502  501  0.00000000000E+00  0.00000000000E+00  0.24886589751E+03  0.24886589751E+03  0.00000000000E+00 0.  1.
         21   -1    0    0  501  502 -0.00000000000E+00 -0.00000000000E+00 -0.31149100855E+03  0.31149100855E+03  0.00000000000E+00 0.  1.
         25    1    1    2    0    0  0.53380383868E+02  0.12279489607E+03 -0.92388031274E+02  0.20515506381E+03  0.12500000000E+03 0.  0.
         25    1    1    2    0    0  0.73549551582E+02 -0.85198846260E+02 -0.11204858689E+02  0.16857914699E+03  0.12500000000E+03 0.  0.
         25    1    1    2    0    0 -0.12692993545E+03 -0.37596049814E+02  0.40967778928E+02  0.18662269526E+03  0.12500000000E+03 0.  0.
</event>
<event>
 5    0  0.5749909E-005  0.2736375E+03  0.7546771E-02  0.1099216E+00
         21   -1    0    0  502  501  0.00000000000E+00  0.00000000000E+00  0.68892688810E+02  0.68892688810E+02  0.00000000000E+00 0. -1.
         21   -1    0    0  501  502 -0.00000000000E+00 -0.00000000000E+00 -0.10868712408E+04  0.10868712408E+04  0.00000000000E+00 0.  1.
         25    1    1    2    0    0 -0.16177963749E+03 -0.86619518837E+02 -0.48703602975E+03  0.53526132536E+03  0.12500000000E+03 0.  0.
         25    1    1    2    0    0  0.81470790776E+02  0.12765094375E+02 -0.30922200167E+03  0.34357485895E+03  0.12500000000E+03 0.  0.
         25    1    1    2    0    0  0.80308846711E+02  0.73854424462E+02 -0.22172052053E+03  0.27692774526E+03  0.12500000000E+03 0.  0.
</event>
<event>
 5    0  0.5749909E-005  0.2768453E+03  0.7546771E-02  0.1097425E+00
         21   -1    0    0  502  501  0.00000000000E+00  0.00000000000E+00  0.27174059447E+04  0.27174059447E+04  0.00000000000E+00 0. -1.
         21   -1    0    0  501  502 -0.00000000000E+00 -0.00000000000E+00 -0.28204592150E+02  0.28204592150E+02  0.00000000000E+00 0. -1.
         25    1    1    2    0    0  0.54155855154E+02 -0.59755144983E+02  0.42863962999E+03  0.45371848805E+03  0.12500000000E+03 0.  0.
         25    1    1    2    0    0 -0.10538557257E+03  0.88555400362E+02  0.66933682881E+03  0.69468335826E+03  0.12500000000E+03 0.  0.
         25    1    1    2    0    0  0.51229717416E+02 -0.28800255378E+02  0.15912248937E+04  0.15972086905E+04  0.12500000000E+03 0.  0.
</event>
<event>
 5    0  0.5749909E-005  0.3201862E+03  0.7546771E-02  0.1075564E+00
         21   -1    0    0  502  501  0.00000000000E+00  0.00000000000E+00  0.28907485275E+04  0.28907485275E+04  0.00000000000E+00 0.  1.
         21   -1    0    0  501  502 -0.00000000000E+00 -0.00000000000E+00 -0.35464590302E+02  0.35464590302E+02  0.00000000000E+00 0.  1.
         25    1    1    2    0    0 -0.82926383836E+02 -0.63983066079E+02  0.40409919497E+03  0.43576573667E+03  0.12500000000E+03 0.  0.
         25    1    1    2    0    0  0.51751523573E+02 -0.33195032224E+02  0.20925299673E+04  0.20971616043E+04  0.12500000000E+03 0.  0.
         25    1    1    2    0    0  0.31174860264E+02  0.97178098303E+02  0.35865477487E+03  0.39328577681E+03  0.12500000000E+03 0.  0.
</event>
<event>
 5    0  0.6158543E-005  0.2898962E+03  0.7546771E-02  0.1090403E+00
         21   -1    0    0  502  501  0.00000000000E+00  0.00000000000E+00  0.29605271000E+03  0.29605271000E+03  0.00000000000E+00 0. -1.
         21   -1    0    0  501  502 -0.00000000000E+00 -0.00000000000E+00 -0.28386776909E+03  0.28386776909E+03  0.00000000000E+00 0. -1.
         25    1    1    2    0    0 -0.41470652754E+02  0.99744325695E+02  0.15789677706E+03  0.22852819903E+03  0.12500000000E+03 0.  0.
         25    1    1    2    0    0  0.52758425206E+02 -0.11232252985E+03 -0.27033329166E+02  0.17820101860E+03  0.12500000000E+03 0.  0.
         25    1    1    2    0    0 -0.11287772452E+02  0.12578204157E+02 -0.11867850698E+03  0.17319126146E+03  0.12500000000E+03 0.  0.
</event>
<event>
 5    0  0.5749909E-005  0.3309123E+03  0.7546771E-02  0.1070734E+00
         21   -1    0    0  502  501  0.00000000000E+00  0.00000000000E+00  0.13518391549E+03  0.13518391549E+03  0.00000000000E+00 0.  1.
         21   -1    0    0  501  502 -0.00000000000E+00 -0.00000000000E+00 -0.81002938050E+03  0.81002938050E+03  0.00000000000E+00 0.  1.
         25    1    1    2    0    0 -0.57059325028E+02 -0.22118782504E+03 -0.18145241235E+03  0.31737958105E+03  0.12500000000E+03 0.  0.
         25    1    1    2    0    0 -0.75591672423E+00  0.81980407151E+02 -0.78034672959E+02  0.16862908631E+03  0.12500000000E+03 0.  0.
         25    1    1    2    0    0  0.57815241752E+02  0.13920741789E+03 -0.41535837969E+03  0.45920462863E+03  0.12500000000E+03 0.  0.
</event>
<event>
 5    0  0.5749909E-005  0.3321362E+03  0.7546771E-02  0.1070196E+00
         21   -1    0    0  502  501  0.00000000000E+00  0.00000000000E+00  0.98870963566E+02  0.98870963566E+02  0.00000000000E+00 0. -1.
         21   -1    0    0  501  502 -0.00000000000E+00 -0.00000000000E+00 -0.11157417682E+04  0.11157417682E+04  0.00000000000E+00 0. -1.
         25    1    1    2    0    0 -0.31765049688E+02 -0.14192332879E+03 -0.46712803800E+03  0.50496024945E+03  0.12500000000E+03 0.  0.
         25    1    1    2    0    0 -0.11009446959E+03 -0.33550840096E+02 -0.32838795261E+03  0.36974328733E+03  0.12500000000E+03 0.  0.
         25    1    1    2    0    0  0.14185951928E+03  0.17547416889E+03 -0.22135481407E+03  0.33990919503E+03  0.12500000000E+03 0.  0.
</event>
<event>
 5    0  0.5749909E-005  0.2559786E+03  0.7546771E-02  0.1109584E+00
         21   -1    0    0  502  501  0.00000000000E+00  0.00000000000E+00  0.47017062523E+03  0.47017062523E+03  0.00000000000E+00 0.  1.
         21   -1    0    0  501  502 -0.00000000000E+00 -0.00000000000E+00 -0.13936436952E+03  0.13936436952E+03  0.00000000000E+00 0.  1.
         25    1    1    2    0    0  0.62734565131E+02  0.67076473650E+02  0.10842671019E+03  0.18925176475E+03  0.12500000000E+03 0.  0.
         25    1    1    2    0    0 -0.82519578763E+02  0.55547183355E+02  0.17676658364E+03  0.23825699476E+03  0.12500000000E+03 0.  0.
         25    1    1    2    0    0  0.19785013632E+02 -0.12262365701E+03  0.45612961878E+02  0.18202623523E+03  0.12500000000E+03 0.  0.
</event>
<event>
 5    0  0.5749909E-005  0.2885932E+03  0.7546771E-02  0.1091086E+00
         21   -1    0    0  502  501  0.00000000000E+00  0.00000000000E+00  0.37853600998E+03  0.37853600998E+03  0.00000000000E+00 0.  1.
         21   -1    0    0  501  502 -0.00000000000E+00 -0.00000000000E+00 -0.22002142432E+03  0.22002142432E+03  0.00000000000E+00 0.  1.
         25    1    1    2    0    0  0.33568344893E+02  0.64879390944E+02  0.56139144921E+02  0.15528287974E+03  0.12500000000E+03 0.  0.
         25    1    1    2    0    0  0.13480996484E+03 -0.89589535110E+02 -0.86786972018E+01  0.20469570393E+03  0.12500000000E+03 0.  0.
         25    1    1    2    0    0 -0.16837830974E+03  0.24710144166E+02  0.11105413794E+03  0.23857885063E+03  0.12500000000E+03 0.  0.
</event>
<event>
 5    0  0.5749909E-005  0.2915364E+03  0.7546771E-02  0.1089550E+00
         21   -1    0    0  502  501  0.00000000000E+00  0.00000000000E+00  0.12365529135E+04  0.12365529135E+04  0.00000000000E+00 0.  1.
         21   -1    0    0  501  502 -0.00000000000E+00 -0.00000000000E+00 -0.68734176521E+02  0.68734176521E+02  0.00000000000E+00 0.  1.
         25    1    1    2    0    0  0.99482744428E+02  0.99875022044E+02  0.34212365663E+03  0.39057065032E+03  0.12500000000E+03 0.  0.
         25    1    1    2    0    0 -0.97386894983E+02 -0.10528040888E+03  0.19767555126E+03  0.27435159080E+03  0.12500000000E+03 0.  0.
         25    1    1    2    0    0 -0.20958494455E+01  0.54053868334E+01  0.62801952911E+03  0.64036484892E+03  0.12500000000E+03 0.  0.
</event>
<event>
 5    0  0.5749909E-005  0.2264418E+03  0.7546771E-02  0.1129170E+00
         21   -1    0    0  502  501  0.00000000000E+00  0.00000000000E+00  0.23965891072E+03  0.23965891072E+03  0.00000000000E+00 0. -1.
         21   -1    0    0  501  502 -0.00000000000E+00 -0.00000000000E+00 -0.21395363852E+03  0.21395363852E+03  0.00000000000E+00 0. -1.
         25    1    1    2    0    0 -0.45578305803E+02 -0.62353101240E+02  0.83609009525E+02  0.16905844453E+03  0.12500000000E+03 0.  0.
         25    1    1    2    0    0 -0.16645377661E+02  0.10907799639E+01 -0.27593306833E+02  0.12909163017E+03  0.12500000000E+03 0.  0.
         25    1    1    2    0    0  0.62223683464E+02  0.61262321276E+02 -0.30310430500E+02  0.15546247454E+03  0.12500000000E+03 0.  0.
</event>
<event>
 5    0  0.5749909E-005  0.2691447E+03  0.7546771E-02  0.1101770E+00
         21   -1    0    0  502  501  0.00000000000E+00  0.00000000000E+00  0.10016047654E+04  0.10016047654E+04  0.00000000000E+00 0.  1.
         21   -1    0    0  501  502 -0.00000000000E+00 -0.00000000000E+00 -0.72322814096E+02  0.72322814096E+02  0.00000000000E+00 0.  1.
         25    1    1    2    0    0 -0.28775525128E+02  0.72423982088E+02  0.56446380100E+03  0.58336750567E+03  0.12500000000E+03 0.  0.
         25    1    1    2    0    0  0.15651332743E+02  0.47228089601E+02  0.78517619038E+02  0.15577378843E+03  0.12500000000E+03 0.  0.
         25    1    1    2    0    0  0.13124192385E+02 -0.11965207169E+03  0.28630053127E+03  0.33478628540E+03  0.12500000000E+03 0.  0.
</event>
<event>
 5    0  0.5749909E-005  0.3285008E+03  0.7546771E-02  0.1071802E+00
         21   -1    0    0  502  501  0.00000000000E+00  0.00000000000E+00  0.26265221560E+03  0.26265221560E+03  0.00000000000E+00 0. -1.
         21   -1    0    0  501  502 -0.00000000000E+00 -0.00000000000E+00 -0.41085806437E+03  0.41085806437E+03  0.00000000000E+00 0. -1.
         25    1    1    2    0    0 -0.72169687308E+02  0.19513333006E+03  0.70655249840E+02  0.25278972407E+03  0.12500000000E+03 0.  0.
         25    1    1    2    0    0 -0.91145695322E+01 -0.10178498711E+03 -0.17762084279E+03  0.24003629470E+03  0.12500000000E+03 0.  0.
         25    1    1    2    0    0  0.81284256840E+02 -0.93348342953E+02 -0.41240255815E+02  0.18068426119E+03  0.12500000000E+03 0.  0.
</event>
<event>
 5    0  0.5749909E-005  0.3402608E+03  0.7546771E-02  0.1066685E+00
         21   -1    0    0  502  501  0.00000000000E+00  0.00000000000E+00  0.15693451228E+03  0.15693451228E+03  0.00000000000E+00 0.  1.
         21   -1    0    0  501  502 -0.00000000000E+00 -0.00000000000E+00 -0.73774326895E+03  0.73774326895E+03  0.00000000000E+00 0.  1.
         25    1    1    2    0    0  0.31366302470E+02  0.50836077500E+02  0.72300039977E+02  0.15627043062E+03  0.12500000000E+03 0.  0.
         25    1    1    2    0    0  0.49804805835E+02 -0.39077152015E+02 -0.51894942422E+03  0.53753236869E+03  0.12500000000E+03 0.  0.
         25    1    1    2    0    0 -0.81171108305E+02 -0.11758925485E+02 -0.13415937242E+03  0.20087498192E+03  0.12500000000E+03 0.  0.
</event>
<event>
 5    0  0.5749909E-005  0.3464256E+03  0.7546771E-02  0.1064092E+00
         21   -1    0    0  502  501  0.00000000000E+00  0.00000000000E+00  0.64834522365E+02  0.64834522365E+02  0.00000000000E+00 0. -1.
         21   -1    0    0  501  502 -0.00000000000E+00 -0.00000000000E+00 -0.18510312935E+04  0.18510312935E+04  0.00000000000E+00 0. -1.
         25    1    1    2    0    0  0.45336060709E+02 -0.13515512968E+03 -0.87828889577E+03  0.89852025682E+03  0.12500000000E+03 0.  0.
         25    1    1    2    0    0  0.28267809325E+01 -0.11798592909E+03 -0.36816509952E+03  0.40632402176E+03  0.12500000000E+03 0.  0.
         25    1    1    2    0    0 -0.48162841642E+02  0.25314105877E+03 -0.53974277582E+03  0.61102153726E+03  0.12500000000E+03 0.  0.
</event>
<event>
 5    0  0.5749909E-005  0.2454943E+03  0.7546771E-02  0.1116186E+00
         21   -1    0    0  502  501  0.00000000000E+00  0.00000000000E+00  0.40977322302E+02  0.40977322302E+02  0.00000000000E+00 0.  1.
         21   -1    0    0  501  502 -0.00000000000E+00 -0.00000000000E+00 -0.14707515329E+04  0.14707515329E+04  0.00000000000E+00 0.  1.
         25    1    1    2    0    0  0.74022097557E+02  0.88488588896E+02 -0.46843182770E+03  0.49836018951E+03  0.12500000000E+03 0.  0.
         25    1    1    2    0    0 -0.87885827102E+02 -0.41900408392E+02 -0.72035388257E+03  0.73757323634E+03  0.12500000000E+03 0.  0.
         25    1    1    2    0    0  0.13863729545E+02 -0.46588180503E+02 -0.24098850033E+03  0.27579542935E+03  0.12500000000E+03 0.  0.
</event>
<event>
 5    0  0.5749909E-005  0.3762965E+03  0.7546771E-02  0.1052311E+00
         21   -1    0    0  502  501  0.00000000000E+00  0.00000000000E+00  0.86417349611E+03  0.86417349611E+03  0.00000000000E+00 0. -1.
         21   -1    0    0  501  502 -0.00000000000E+00 -0.00000000000E+00 -0.16385490200E+03  0.16385490200E+03  0.00000000000E+00 0. -1.
         25    1    1    2    0    0 -0.80482657092E+02 -0.21323433675E+03  0.33524440477E+03  0.42421710407E+03  0.12500000000E+03 0.  0.
         25    1    1    2    0    0 -0.40355465253E+02  0.59609142625E+02  0.34137164290E+03  0.37059602270E+03  0.12500000000E+03 0.  0.
         25    1    1    2    0    0  0.12083812235E+03  0.15362519412E+03  0.23702546446E+02  0.23321527135E+03  0.12500000000E+03 0.  0.
</event>
<event>
 5    0  0.5749909E-005  0.2936467E+03  0.7546771E-02  0.1088460E+00
         21   -1    0    0  502  501  0.00000000000E+00  0.00000000000E+00  0.12845968441E+03  0.12845968441E+03  0.00000000000E+00 0. -1.
         21   -1    0    0  501  502 -0.00000000000E+00 -0.00000000000E+00 -0.67124871765E+03  0.67124871765E+03  0.00000000000E+00 0. -1.
         25    1    1    2    0    0  0.69333442950E+02  0.13557798596E+03 -0.36222370549E+03  0.41233424477E+03  0.12500000000E+03 0.  0.
         25    1    1    2    0    0 -0.73497191366E+02 -0.47630203404E+02 -0.17797270404E+03  0.23445630041E+03  0.12500000000E+03 0.  0.
         25    1    1    2    0    0  0.41637484168E+01 -0.87947782559E+02 -0.25926237003E+01  0.15291785689E+03  0.12500000000E+03 0.  0.
</event>
<event>
 5    0  0.5749909E-005  0.2818318E+03  0.7546771E-02  0.1094693E+00
         21   -1    0    0  502  501  0.00000000000E+00  0.00000000000E+00  0.26238293755E+03  0.26238293755E+03  0.00000000000E+00 0. -1.
         21   -1    0    0  501  502 -0.00000000000E+00 -0.00000000000E+00 -0.30272232099E+03  0.30272232099E+03  0.00000000000E+00 0. -1.
         25    1    1    2    0    0 -0.12942129833E+03 -0.21677520893E+02  0.31055690466E+02  0.18387289981E+03  0.12500000000E+03 0.  0.
         25    1    1    2    0    0  0.40025098062E+02  0.62393720831E+02  0.76382670401E+02  0.16417763919E+03  0.12500000000E+03 0.  0.
         25    1    1    2    0    0  0.89396200272E+02 -0.40716199938E+02 -0.14777774431E+03  0.21705471954E+03  0.12500000000E+03 0.  0.
</event>
<event>
 5    0  0.5749909E-005  0.3101329E+03  0.7546771E-02  0.1080282E+00
         21   -1    0    0  502  501  0.00000000000E+00  0.00000000000E+00  0.77986326381E+03  0.77986326381E+03  0.00000000000E+00 0.  1.
         21   -1    0    0  501  502 -0.00000000000E+00 -0.00000000000E+00 -0.12333244046E+03  0.12333244046E+03  0.00000000000E+00 0.  1.
         25    1    1    2    0    0  0.47348945533E+02  0.20470222504E+03  0.16394563719E+03  0.29436048569E+03  0.12500000000E+03 0.  0.
         25    1    1    2    0    0 -0.90802943208E+02 -0.12585412589E+03  0.32481427192E+03  0.38106921516E+03  0.12500000000E+03 0.  0.
         25    1    1    2    0    0  0.43453997675E+02 -0.78848099148E+02  0.16777091424E+03  0.22776600343E+03  0.12500000000E+03 0.  0.
</event>
<event>
 5    0  0.5749909E-005  0.2987144E+03  0.7546771E-02  0.1085885E+00
         21   -1    0    0  502  501  0.00000000000E+00  0.00000000000E+00  0.24769127973E+04  0.24769127973E+04  0.00000000000E+00 0. -1.
         21   -1    0    0  501  502 -0.00000000000E+00 -0.00000000000E+00 -0.36024794687E+02  0.36024794687E+02  0.00000000000E+00 0. -1.
         25    1    1    2    0    0 -0.32420021982E+02 -0.71614065340E+02  0.30615062199E+03  0.33990121436E+03  0.12500000000E+03 0.  0.
         25    1    1    2    0    0 -0.11000198457E+03 -0.56484822281E+02  0.10250239864E+04  0.10399952617E+04  0.12500000000E+03 0.  0.
         25    1    1    2    0    0  0.14242200655E+03  0.12809888762E+03  0.11097133943E+04  0.11330411159E+04  0.12500000000E+03 0.  0.
</event>
<event>
 5    0  0.5749909E-005  0.3189956E+03  0.7546771E-02  0.1076112E+00
         21   -1    0    0  502  501  0.00000000000E+00  0.00000000000E+00  0.61022418119E+03  0.61022418119E+03  0.00000000000E+00 0. -1.
         21   -1    0    0  501  502 -0.00000000000E+00 -0.00000000000E+00 -0.16675547444E+03  0.16675547444E+03  0.00000000000E+00 0. -1.
         25    1    1    2    0    0 -0.85499300102E+02 -0.76098224685E+02  0.19282263882E+03  0.25672288593E+03  0.12500000000E+03 0.  0.
         25    1    1    2    0    0  0.13878581254E+03 -0.11075103155E+03  0.16921018767E+03  0.27528962996E+03  0.12500000000E+03 0.  0.
         25    1    1    2    0    0 -0.53286512433E+02  0.18684925624E+03  0.81435880255E+02  0.24496713975E+03  0.12500000000E+03 0.  0.
</event>
<event>
 5    0  0.5749909E-005  0.2313837E+03  0.7546771E-02  0.1125670E+00
         21   -1    0    0  502  501  0.00000000000E+00  0.00000000000E+00  0.77726314668E+02  0.77726314668E+02  0.00000000000E+00 0.  1.
         21   -1    0    0  501  502 -0.00000000000E+00 -0.00000000000E+00 -0.68880666251E+03  0.68880666251E+03  0.00000000000E+00 0.  1.
         25    1    1    2    0    0  0.10189019061E+03 -0.23130362332E+02 -0.27792827217E+03  0.32215795672E+03  0.12500000000E+03 0.  0.
         25    1    1    2    0    0 -0.67496987888E+02  0.66983323360E+02 -0.17087427973E+03  0.23208969916E+03  0.12500000000E+03 0.  0.
         25    1    1    2    0    0 -0.34393202725E+02 -0.43852961028E+02 -0.16227779594E+03  0.21228532130E+03  0.12500000000E+03 0.  0.
</event>
<event>
 5    0  0.5749909E-005  0.4000872E+03  0.7546771E-02  0.1043749E+00
         21   -1    0    0  502  501  0.00000000000E+00  0.00000000000E+00  0.21769588536E+03  0.21769588536E+03  0.00000000000E+00 0.  1.
         21   -1    0    0  501  502 -0.00000000000E+00 -0.00000000000E+00 -0.73529085356E+03  0.73529085356E+03  0.00000000000E+00 0.  1.
         25    1    1    2    0    0 -0.13125517529E+03 -0.13988498854E+03 -0.24042616671E+03  0.33200221791E+03  0.12500000000E+03 0.  0.
         25    1    1    2    0    0  0.13387060068E+03  0.71780959444E+02 -0.39165959160E+03  0.43828766759E+03  0.12500000000E+03 0.  0.
         25    1    1    2    0    0 -0.26154253846E+01  0.68104029096E+02  0.11449079011E+03  0.18269685342E+03  0.12500000000E+03 0.  0.
</event>
<event>
 5    0  0.9916683E-005  0.6568938E+03  0.7546771E-02  0.9793929E-01
         21   -1    0    0  502  501  0.00000000000E+00  0.00000000000E+00  0.63267492629E+03  0.63267492629E+03  0.00000000000E+00 0. -1.
         21   -1    0    0  501  502 -0.00000000000E+00 -0.00000000000E+00 -0.68203976451E+03  0.68203976451E+03  0.00000000000E+00 0. -1.
         25    1    1    2    0    0  0.15250767997E+03  0.48015100032E+02  0.41170677901E+03  0.45901145319E+03  0.12500000000E+03 0.  0.
         25    1    1    2    0    0  0.58323112858E+02  0.27852407061E+03 -0.22904257942E+03  0.38608644963E+03  0.12500000000E+03 0.  0.
         25    1    1    2    0    0 -0.21083079283E+03 -0.32653917064E+03 -0.23202903780E+03  0.46961678798E+03  0.12500000000E+03 0.  0.
</event>
<event>
 5    0  0.5749909E-005  0.3476436E+03  0.7546771E-02  0.1063586E+00
         21   -1    0    0  502  501  0.00000000000E+00  0.00000000000E+00  0.20758421525E+03  0.20758421525E+03  0.00000000000E+00 0. -1.
         21   -1    0    0  501  502 -0.00000000000E+00 -0.00000000000E+00 -0.58220245067E+03  0.58220245067E+03  0.00000000000E+00 0. -1.
         25    1    1    2    0    0 -0.17035366638E+03 -0.11395376952E+03 -0.22971040680E+03  0.33226149977E+03  0.12500000000E+03 0.  0.
         25    1    1    2    0    0 -0.13332705857E+02  0.14767383979E+03 -0.12756795738E+03  0.23212907564E+03  0.12500000000E+03 0.  0.
         25    1    1    2    0    0  0.18368637224E+03 -0.33720070277E+02 -0.17339871227E+02  0.22539609051E+03  0.12500000000E+03 0.  0.
</event>
<event>
 5    0  0.5749909E-005  0.2809247E+03  0.7546771E-02  0.1095185E+00
         21   -1    0    0  502  501  0.00000000000E+00  0.00000000000E+00  0.26689235390E+03  0.26689235390E+03  0.00000000000E+00 0. -1.
         21   -1    0    0  501  502 -0.00000000000E+00 -0.00000000000E+00 -0.29569479694E+03  0.29569479694E+03  0.00000000000E+00 0. -1.
         25    1    1    2    0    0  0.59314999423E+02 -0.13204252938E+03 -0.23833335823E+01  0.19126991138E+03  0.12500000000E+03 0.  0.
         25    1    1    2    0    0 -0.10655904884E+03  0.85840076051E+02  0.72232023876E+02  0.19891157538E+03  0.12500000000E+03 0.  0.
         25    1    1    2    0    0  0.47244049417E+02  0.46202453327E+02 -0.98651133329E+02  0.17240566408E+03  0.12500000000E+03 0.  0.
</event>
<event>
 5    0  0.5749909E-005  0.2307090E+03  0.7546771E-02  0.1126142E+00
         21   -1    0    0  502  501  0.00000000000E+00  0.00000000000E+00  0.29925620330E+03  0.29925620330E+03  0.00000000000E+00 0. -1.
         21   -1    0    0  501  502 -0.00000000000E+00 -0.00000000000E+00 -0.17786315110E+03  0.17786315110E+03  0.00000000000E+00 0. -1.
         25    1    1    2    0    0 -0.31978069309E+02 -0.71538941358E+02  0.59590724425E+02  0.15911150645E+03  0.12500000000E+03 0.  0.
         25    1    1    2    0    0  0.74352692229E+02  0.90722940156E+02  0.98078673656E+00  0.17142035076E+03  0.12500000000E+03 0.  0.
         25    1    1    2    0    0 -0.42374622920E+02 -0.19183998797E+02  0.60821541046E+02  0.14658749719E+03  0.12500000000E+03 0.  0.
</event>
<event>
 5    0  0.5749909E-005  0.3847586E+03  0.7546771E-02  0.1049189E+00
         21   -1    0    0  502  501  0.00000000000E+00  0.00000000000E+00  0.41615549483E+03  0.41615549483E+03  0.00000000000E+00 0.  1.
         21   -1    0    0  501  502 -0.00000000000E+00 -0.00000000000E+00 -0.35573050282E+03  0.35573050282E+03  0.00000000000E+00 0.  1.
         25    1    1    2    0    0 -0.12768950861E+02 -0.11622747726E+03  0.79028856178E+02  0.18852700784E+03  0.12500000000E+03 0.  0.
         25    1    1    2    0    0  0.19636076658E+03  0.22623480888E+03  0.44396990384E+02  0.32762147695E+03  0.12500000000E+03 0.  0.
         25    1    1    2    0    0 -0.18359181572E+03 -0.11000733162E+03 -0.63000854554E+02  0.25573751286E+03  0.12500000000E+03 0.  0.
</event>
<event>
 5    0  0.5749909E-005  0.3523065E+03  0.7546771E-02  0.1061672E+00
         21   -1    0    0  502  501  0.00000000000E+00  0.00000000000E+00  0.76770854571E+03  0.76770854571E+03  0.00000000000E+00 0.  1.
         21   -1    0    0  501  502 -0.00000000000E+00 -0.00000000000E+00 -0.16167576932E+03  0.16167576932E+03  0.00000000000E+00 0.  1.
         25    1    1    2    0    0 -0.10532261307E+03  0.23425517795E+03  0.38609553901E+03  0.48027399104E+03  0.12500000000E+03 0.  0.
         25    1    1    2    0    0 -0.17854356424E+02 -0.83121070858E+02  0.41563939700E+02  0.15678154084E+03  0.12500000000E+03 0.  0.
         25    1    1    2    0    0  0.12317696949E+03 -0.15113410709E+03  0.17837329767E+03  0.29232878316E+03  0.12500000000E+03 0.  0.
</event>
<event>
 5    0  0.5749909E-005  0.2449309E+03  0.7546771E-02  0.1116551E+00
         21   -1    0    0  502  501  0.00000000000E+00  0.00000000000E+00  0.82718640568E+02  0.82718640568E+02  0.00000000000E+00 0.  1.
         21   -1    0    0  501  502 -0.00000000000E+00 -0.00000000000E+00 -0.72524338944E+03  0.72524338944E+03  0.00000000000E+00 0.  1.
         25    1    1    2    0    0 -0.11585908844E+03  0.21278007973E+02 -0.19221634718E+03  0.25777549557E+03  0.12500000000E+03 0.  0.
         25    1    1    2    0    0  0.13457012690E+03  0.32556960604E+01 -0.22270820710E+03  0.28869302749E+03  0.12500000000E+03 0.  0.
         25    1    1    2    0    0 -0.18711038464E+02 -0.24533704034E+02 -0.22760019460E+03  0.26149350695E+03  0.12500000000E+03 0.  0.
</event>
<event>
 5    0  0.5749909E-005  0.3948392E+03  0.7546771E-02  0.1045581E+00
         21   -1    0    0  502  501  0.00000000000E+00  0.00000000000E+00  0.68733861456E+03  0.68733861456E+03  0.00000000000E+00 0. -1.
         21   -1    0    0  501  502 -0.00000000000E+00 -0.00000000000E+00 -0.22681401434E+03  0.22681401434E+03  0.00000000000E+00 0. -1.
         25    1    1    2    0    0 -0.90736776539E+02 -0.10607311417E+03 -0.13571142206E+02  0.18786655920E+03  0.12500000000E+03 0.  0.
         25    1    1    2    0    0  0.88035067456E+02 -0.34409540857E+02  0.51112690028E+03  0.53461191326E+03  0.12500000000E+03 0.  0.
         25    1    1    2    0    0  0.27017090831E+01  0.14048265503E+03 -0.37031157860E+02  0.19167415644E+03  0.12500000000E+03 0.  0.
</event>
<event>
 5    0  0.5749909E-005  0.2090370E+03  0.7546771E-02  0.1142331E+00
         21   -1    0    0  502  501  0.00000000000E+00  0.00000000000E+00  0.41165859748E+03  0.41165859748E+03  0.00000000000E+00 0.  1.
         21   -1    0    0  501  502 -0.00000000000E+00 -0.00000000000E+00 -0.10614730644E+03  0.10614730644E+03  0.00000000000E+00 0.  1.
         25    1    1    2    0    0 -0.28209293491E+02  0.59952611606E+01  0.66025302983E+02  0.14427767682E+03  0.12500000000E+03 0.  0.
         25    1    1    2    0    0 -0.27137262693E+02 -0.44036088887E+02  0.69463323313E+02  0.15207156683E+03  0.12500000000E+03 0.  0.
         25    1    1    2    0    0  0.55346556184E+02  0.38040827726E+02  0.17002266474E+03  0.22145666028E+03  0.12500000000E+03 0.  0.
</event>
<event>
 5    0  0.5749909E-005  0.2777715E+03  0.7546771E-02  0.1096912E+00
         21   -1    0    0  502  501  0.00000000000E+00  0.00000000000E+00  0.44250384264E+03  0.44250384264E+03  0.00000000000E+00 0.  1.
         21   -1    0    0  501  502 -0.00000000000E+00 -0.00000000000E+00 -0.17436454084E+03  0.17436454084E+03  0.00000000000E+00 0.  1.
         25    1    1    2    0    0  0.29825561407E+02  0.15144742623E+03 -0.47564940441E+01  0.19867941831E+03  0.12500000000E+03 0.  0.
         25    1    1    2    0    0 -0.12483168474E+02 -0.16503480230E+02  0.74034483258E+02  0.14674569522E+03  0.12500000000E+03 0.  0.
         25    1    1    2    0    0 -0.17342392933E+02 -0.13494394600E+03  0.19886131259E+03  0.27144326995E+03  0.12500000000E+03 0.  0.
</event>
<event>
 5    0  0.5749909E-005  0.3004365E+03  0.7546771E-02  0.1085023E+00
         21   -1    0    0  502  501  0.00000000000E+00  0.00000000000E+00  0.21804246941E+03  0.21804246941E+03  0.00000000000E+00 0. -1.
         21   -1    0    0  501  502 -0.00000000000E+00 -0.00000000000E+00 -0.41396561009E+03  0.41396561009E+03  0.00000000000E+00 0.  1.
         25    1    1    2    0    0  0.10974535097E+03 -0.60812167871E+02 -0.62326703829E+02  0.18775457340E+03  0.12500000000E+03 0.  0.
         25    1    1    2    0    0  0.60128859671E+02 -0.29065555127E+02 -0.15969454015E+03  0.21351260481E+03  0.12500000000E+03 0.  0.
         25    1    1    2    0    0 -0.16987421064E+03  0.89877722997E+02  0.26098103303E+02  0.23074090129E+03  0.12500000000E+03 0.  0.
</event>
<event>
 5    0  0.5749909E-005  0.2963969E+03  0.7546771E-02  0.1087056E+00
         21   -1    0    0  502  501  0.00000000000E+00  0.00000000000E+00  0.41220353186E+03  0.41220353186E+03  0.00000000000E+00 0.  1.
         21   -1    0    0  501  502 -0.00000000000E+00 -0.00000000000E+00 -0.21312560538E+03  0.21312560538E+03  0.00000000000E+00 0.  1.
         25    1    1    2    0    0  0.14544950769E+03 -0.11264138703E+03 -0.31920402537E+02  0.22469435564E+03  0.12500000000E+03 0.  0.
         25    1    1    2    0    0 -0.15955954240E+02  0.49692673664E+02  0.79172209380E+02  0.15689867122E+03  0.12500000000E+03 0.  0.
         25    1    1    2    0    0 -0.12949355345E+03  0.62948713366E+02  0.15182611964E+03  0.24373611038E+03  0.12500000000E+03 0.  0.
</event>
<event>
 5    0  0.5749909E-005  0.2315877E+03  0.7546771E-02  0.1125527E+00
         21   -1    0    0  502  501  0.00000000000E+00  0.00000000000E+00  0.99857892190E+03  0.99857892190E+03  0.00000000000E+00 0. -1.
         21   -1    0    0  501  502 -0.00000000000E+00 -0.00000000000E+00 -0.53709167965E+02  0.53709167965E+02  0.00000000000E+00 0. -1.
         25    1    1    2    0    0 -0.44579736062E+02  0.63795272987E+01  0.11030878976E+03  0.17268781177E+03  0.12500000000E+03 0.  0.
         25    1    1    2    0    0  0.58149251026E+02  0.26878774475E+02  0.53283265511E+03  0.55103488298E+03  0.12500000000E+03 0.  0.
         25    1    1    2    0    0 -0.13569514964E+02 -0.33258301773E+02  0.30172830908E+03  0.32856539512E+03  0.12500000000E+03 0.  0.
</event>
<event>
 5    0  0.5749909E-005  0.2406438E+03  0.7546771E-02  0.1119365E+00
         21   -1    0    0  502  501  0.00000000000E+00  0.00000000000E+00  0.54294786397E+02  0.54294786397E+02  0.00000000000E+00 0. -1.
         21   -1    0    0  501  502 -0.00000000000E+00 -0.00000000000E+00 -0.10665741626E+04  0.10665741626E+04  0.00000000000E+00 0. -1.
         25    1    1    2    0    0  0.34157188193E+02  0.69311492178E+02 -0.19928113110E+03  0.24760606952E+03  0.12500000000E+03 0.  0.
         25    1    1    2    0    0 -0.25245958613E+02 -0.11769727688E+03 -0.34237894425E+03  0.38384677786E+03  0.12500000000E+03 0.  0.
         25    1    1    2    0    0 -0.89112295808E+01  0.48385784704E+02 -0.47061930082E+03  0.48941610157E+03  0.12500000000E+03 0.  0.
</event>
<event>
 5    0  0.5749909E-005  0.2333322E+03  0.7546771E-02  0.1124316E+00
         21   -1    0    0  502  501  0.00000000000E+00  0.00000000000E+00  0.18703262683E+03  0.18703262683E+03  0.00000000000E+00 0.  1.
         21   -1    0    0  501  502 -0.00000000000E+00 -0.00000000000E+00 -0.29109318555E+03  0.29109318555E+03  0.00000000000E+00 0.  1.
         25    1    1    2    0    0  0.29107701623E+01  0.47769922374E+02 -0.14261949591E+03  0.19559079396E+03  0.12500000000E+03 0.  0.
         25    1    1    2    0    0  0.31009864698E+02  0.22545737031E+02  0.33962885450E+02  0.13508663722E+03  0.12500000000E+03 0.  0.
         25    1    1    2    0    0 -0.33920634860E+02 -0.70315659404E+02  0.45960517404E+01  0.14744838120E+03  0.12500000000E+03 0.  0.
</event>
<event>
 5    0  0.5749909E-005  0.2854551E+03  0.7546771E-02  0.1092746E+00
         21   -1    0    0  502  501  0.00000000000E+00  0.00000000000E+00  0.38943807133E+03  0.38943807133E+03  0.00000000000E+00 0. -1.
         21   -1    0    0  501  502 -0.00000000000E+00 -0.00000000000E+00 -0.20923643519E+03  0.20923643519E+03  0.00000000000E+00 0. -1.
         25    1    1    2    0    0  0.16813049788E+03 -0.72594303894E+02  0.15167366042E+03  0.26864045961E+03  0.12500000000E+03 0.  0.
         25    1    1    2    0    0 -0.14572249461E+03  0.59293077107E+02  0.12201229289E+02  0.20130718920E+03  0.12500000000E+03 0.  0.
         25    1    1    2    0    0 -0.22408003268E+02  0.13301226787E+02  0.16326746427E+02  0.12872685770E+03  0.12500000000E+03 0.  0.
</event>
<event>
 5    0  0.5749909E-005  0.2825200E+03  0.7546771E-02  0.1094320E+00
         21   -1    0    0  502  501  0.00000000000E+00  0.00000000000E+00  0.69349577768E+03  0.69349577768E+03  0.00000000000E+00 0.  1.
         21   -1    0    0  501  502 -0.00000000000E+00 -0.00000000000E+00 -0.11509450323E+03  0.11509450323E+03  0.00000000000E+00 0.  1.
         25    1    1    2    0    0  0.12077766675E+03  0.35216252871E+02  0.74247737745E+02  0.19226324613E+03  0.12500000000E+03 0.  0.
         25    1    1    2    0    0 -0.16099027117E+03 -0.32998594975E+02  0.39439168436E+03  0.44517027683E+03  0.12500000000E+03 0.  0.
         25    1    1    2    0    0  0.40212604425E+02 -0.22176578959E+01  0.10976185235E+03  0.17115675795E+03  0.12500000000E+03 0.  0.
</event>
<event>
 5    0  0.5749909E-005  0.5217068E+03  0.7546771E-02  0.1008263E+00
         21   -1    0    0  502  501  0.00000000000E+00  0.00000000000E+00  0.28660996547E+03  0.28660996547E+03  0.00000000000E+00 0.  1.
         21   -1    0    0  501  502 -0.00000000000E+00 -0.00000000000E+00 -0.94964581935E+03  0.94964581935E+03  0.00000000000E+00 0.  1.
         25    1    1    2    0    0  0.58678915895E+02 -0.51747229152E+02 -0.40440633188E+03  0.43045379794E+03  0.12500000000E+03 0.  0.
         25    1    1    2    0    0 -0.64871498358E+01  0.89616917642E+02  0.24143275442E+03  0.28633555481E+03  0.12500000000E+03 0.  0.
         25    1    1    2    0    0 -0.52191766059E+02 -0.37869688490E+02 -0.50006227641E+03  0.51946643207E+03  0.12500000000E+03 0.  0.
</event>
<event>
 5    0  0.5749909E-005  0.3520513E+03  0.7546771E-02  0.1061776E+00
         21   -1    0    0  502  501  0.00000000000E+00  0.00000000000E+00  0.16734875121E+04  0.16734875121E+04  0.00000000000E+00 0. -1.
         21   -1    0    0  501  502 -0.00000000000E+00 -0.00000000000E+00 -0.74060965945E+02  0.74060965945E+02  0.00000000000E+00 0. -1.
         25    1    1    2    0    0  0.20821097414E+02 -0.14768326566E+03  0.21687998878E+03  0.29138598900E+03  0.12500000000E+03 0.  0.
         25    1    1    2    0    0  0.10696351768E+03  0.13112283132E+02  0.99556850237E+03  0.10091554732E+04  0.12500000000E+03 0.  0.
         25    1    1    2    0    0 -0.12778461509E+03  0.13457098253E+03  0.38697805497E+03  0.44700701585E+03  0.12500000000E+03 0.  0.
</event>
<event>
 5    0  0.5749909E-005  0.2208437E+03  0.7546771E-02  0.1133256E+00
         21   -1    0    0  502  501  0.00000000000E+00  0.00000000000E+00  0.64741412332E+02  0.64741412332E+02  0.00000000000E+00 0.  1.
         21   -1    0    0  501  502 -0.00000000000E+00 -0.00000000000E+00 -0.75333445905E+03  0.75333445905E+03  0.00000000000E+00 0.  1.
         25    1    1    2    0    0  0.16752850169E+02  0.48667506423E+02 -0.29354545800E+03  0.32317660819E+03  0.12500000000E+03 0.  0.
         25    1    1    2    0    0 -0.24282811149E+02  0.43430114071E+02 -0.24124149690E+03  0.27622145021E+03  0.12500000000E+03 0.  0.
         25    1    1    2    0    0  0.75299609801E+01 -0.92097620494E+02 -0.15380609182E+03  0.21867781299E+03  0.12500000000E+03 0.  0.
</event>
<event>
 5    0  0.5749909E-005  0.3005678E+03  0.7546771E-02  0.1084957E+00
         21   -1    0    0  502  501  0.00000000000E+00  0.00000000000E+00  0.37673158585E+02  0.37673158585E+02  0.00000000000E+00 0.  1.
         21   -1    0    0  501  502 -0.00000000000E+00 -0.00000000000E+00 -0.23980198094E+04  0.23980198094E+04  0.00000000000E+00 0.  1.
         25    1    1    2    0    0  0.12401781133E+03 -0.93795088237E+02 -0.99735618025E+03  0.10171146869E+04  0.12500000000E+03 0.  0.
         25    1    1    2    0    0  0.20428119050E+02 -0.64836845559E+02 -0.42014617094E+03  0.44358643976E+03  0.12500000000E+03 0.  0.
         25    1    1    2    0    0 -0.14444593038E+03  0.15863193380E+03 -0.94284429961E+03  0.97499184127E+03  0.12500000000E+03 0.  0.
</event>
<event>
 5    0  0.5749909E-005  0.2613082E+03  0.7546771E-02  0.1106360E+00
         21   -1    0    0  502  501  0.00000000000E+00  0.00000000000E+00  0.19001781605E+03  0.19001781605E+03  0.00000000000E+00 0. -1.
         21   -1    0    0  501  502 -0.00000000000E+00 -0.00000000000E+00 -0.35934515218E+03  0.35934515218E+03  0.00000000000E+00 0. -1.
         25    1    1    2    0    0  0.61903126010E+02 -0.90859844746E+01 -0.32920450547E+01  0.13982270804E+03  0.12500000000E+03 0.  0.
         25    1    1    2    0    0 -0.58620962485E+01 -0.12695315436E+03 -0.53681794731E+02  0.18616713636E+03  0.12500000000E+03 0.  0.
         25    1    1    2    0    0 -0.56041029761E+02  0.13603913883E+03 -0.11235349635E+03  0.22337312383E+03  0.12500000000E+03 0.  0.
</event>
<event>
 5    0  0.5800238E-005  0.2830033E+03  0.7546771E-02  0.1094060E+00
         21   -1    0    0  502  501  0.00000000000E+00  0.00000000000E+00  0.21737250482E+03  0.21737250482E+03  0.00000000000E+00 0. -1.
         21   -1    0    0  501  502 -0.00000000000E+00 -0.00000000000E+00 -0.36844974859E+03  0.36844974859E+03  0.00000000000E+00 0. -1.
         25    1    1    2    0    0  0.66462333836E+02  0.18991782999E+03 -0.10184674787E+03  0.25784449581E+03  0.12500000000E+03 0.  0.
         25    1    1    2    0    0 -0.51144673099E+02 -0.11467709105E+03 -0.34883711134E+02  0.18057819940E+03  0.12500000000E+03 0.  0.
         25    1    1    2    0    0 -0.15317660737E+02 -0.75240738941E+02 -0.14346784767E+02  0.14739955821E+03  0.12500000000E+03 0.  0.
</event>
<event>
 5    0  0.9141067E-005  0.6537321E+03  0.7546771E-02  0.9799801E-01
         21   -1    0    0  502  501  0.00000000000E+00  0.00000000000E+00  0.95201718069E+03  0.95201718069E+03  0.00000000000E+00 0.  1.
         21   -1    0    0  501  502 -0.00000000000E+00 -0.00000000000E+00 -0.44890541559E+03  0.44890541559E+03  0.00000000000E+00 0.  1.
         25    1    1    2    0    0 -0.50103490763E+02 -0.14035641199E+03  0.56217012538E+03  0.59487018084E+03  0.12500000000E+03 0.  0.
         25    1    1    2    0    0  0.38436747524E+03 -0.34777996785E+02 -0.46411992234E+02  0.40832210093E+03  0.12500000000E+03 0.  0.
         25    1    1    2    0    0 -0.33426398448E+03  0.17513440878E+03 -0.12646368045E+02  0.39773031451E+03  0.12500000000E+03 0.  0.
</event>
<event>
 5    0  0.5749909E-005  0.2887573E+03  0.7546771E-02  0.1091000E+00
         21   -1    0    0  502  501  0.00000000000E+00  0.00000000000E+00  0.44065501221E+03  0.44065501221E+03  0.00000000000E+00 0. -1.
         21   -1    0    0  501  502 -0.00000000000E+00 -0.00000000000E+00 -0.18922011626E+03  0.18922011626E+03  0.00000000000E+00 0. -1.
         25    1    1    2    0    0  0.19354384938E+03 -0.68127911180E+02  0.13616320431E+03  0.27616308972E+03  0.12500000000E+03 0.  0.
         25    1    1    2    0    0 -0.13440462242E+03  0.58718936837E+02  0.43214939105E+02  0.19749695449E+03  0.12500000000E+03 0.  0.
         25    1    1    2    0    0 -0.59139226965E+02  0.94089743423E+01  0.72056752538E+02  0.15621508426E+03  0.12500000000E+03 0.  0.
</event>
<event>
 5    0  0.5749909E-005  0.2750996E+03  0.7546771E-02  0.1098396E+00
         21   -1    0    0  502  501  0.00000000000E+00  0.00000000000E+00  0.22575419494E+03  0.22575419494E+03  0.00000000000E+00 0.  1.
         21   -1    0    0  501  502 -0.00000000000E+00 -0.00000000000E+00 -0.33523082449E+03  0.33523082449E+03  0.00000000000E+00 0.  1.
         25    1    1    2    0    0 -0.63830897473E+02  0.79754578888E+02  0.52539028976E+02  0.16976609170E+03  0.12500000000E+03 0.  0.
         25    1    1    2    0    0 -0.11395765350E+02 -0.14693203805E+03 -0.11017244092E+03  0.22244517079E+03  0.12500000000E+03 0.  0.
         25    1    1    2    0    0  0.75226662823E+02  0.67177459158E+02 -0.51843217615E+02  0.16877375694E+03  0.12500000000E+03 0.  0.
</event>
<event>
 5    0  0.7494684E-005  0.4463689E+03  0.7546771E-02  0.1028810E+00
         21   -1    0    0  502  501  0.00000000000E+00  0.00000000000E+00  0.82988692121E+03  0.82988692121E+03  0.00000000000E+00 0.  1.
         21   -1    0    0  501  502 -0.00000000000E+00 -0.00000000000E+00 -0.24008713378E+03  0.24008713378E+03  0.00000000000E+00 0.  1.
         25    1    1    2    0    0  0.11029578830E+03  0.46857777406E+02  0.46138976554E+03  0.49281469942E+03  0.12500000000E+03 0.  0.
         25    1    1    2    0    0  0.87430735766E+02 -0.21722556882E+03  0.13461564980E+02  0.26577677671E+03  0.12500000000E+03 0.  0.
         25    1    1    2    0    0 -0.19772652406E+03  0.17036779142E+03  0.11494845691E+03  0.31138257886E+03  0.12500000000E+03 0.  0.
</event>
<event>
 5    0  0.5749909E-005  0.2248332E+03  0.7546771E-02  0.1130330E+00
         21   -1    0    0  502  501  0.00000000000E+00  0.00000000000E+00  0.58831096243E+02  0.58831096243E+02  0.00000000000E+00 0. -1.
         21   -1    0    0  501  502 -0.00000000000E+00 -0.00000000000E+00 -0.85923873324E+03  0.85923873324E+03  0.00000000000E+00 0. -1.
         25    1    1    2    0    0 -0.18537855295E+01  0.82810135072E+02 -0.34801342406E+03  0.37894498060E+03  0.12500000000E+03 0.  0.
         25    1    1    2    0    0 -0.33540612965E+02  0.12712553603E+02 -0.23316122754E+03  0.26697516695E+03  0.12500000000E+03 0.  0.
         25    1    1    2    0    0  0.35394398494E+02 -0.95522688675E+02 -0.21923298539E+03  0.27214968194E+03  0.12500000000E+03 0.  0.
</event>
<event>
 5    0  0.5749909E-005  0.2848164E+03  0.7546771E-02  0.1093087E+00
         21   -1    0    0  502  501  0.00000000000E+00  0.00000000000E+00  0.15837352030E+03  0.15837352030E+03  0.00000000000E+00 0. -1.
         21   -1    0    0  501  502 -0.00000000000E+00 -0.00000000000E+00 -0.51220910024E+03  0.51220910024E+03  0.00000000000E+00 0. -1.
         25    1    1    2    0    0  0.43484552762E+02 -0.18547989398E+02  0.33717398570E+02  0.13782886928E+03  0.12500000000E+03 0.  0.
         25    1    1    2    0    0  0.34279367475E+02  0.12774022293E+03 -0.20352582101E+03  0.27302087723E+03  0.12500000000E+03 0.  0.
         25    1    1    2    0    0 -0.77763920237E+02 -0.10919223353E+03 -0.18402715750E+03  0.25973287403E+03  0.12500000000E+03 0.  0.
</event>
<event>
 5    0  0.5749909E-005  0.3874685E+03  0.7546771E-02  0.1048207E+00
         21   -1    0    0  502  501  0.00000000000E+00  0.00000000000E+00  0.15939947393E+03  0.15939947393E+03  0.00000000000E+00 0. -1.
         21   -1    0    0  501  502 -0.00000000000E+00 -0.00000000000E+00 -0.94185924019E+03  0.94185924019E+03  0.00000000000E+00 0. -1.
         25    1    1    2    0    0  0.21460587645E+03  0.91550646423E+02 -0.47214366294E+03  0.54127797066E+03  0.12500000000E+03 0.  0.
         25    1    1    2    0    0 -0.52455979207E+02 -0.19397804942E+03 -0.14408504076E+03  0.27706427482E+03  0.12500000000E+03 0.  0.
         25    1    1    2    0    0 -0.16214989725E+03  0.10242740300E+03 -0.16623106257E+03  0.28291646863E+03  0.12500000000E+03 0.  0.
</event>
<event>
 5    0  0.5749909E-005  0.2382477E+03  0.7546771E-02  0.1120966E+00
         21   -1    0    0  502  501  0.00000000000E+00  0.00000000000E+00  0.26110976009E+03  0.26110976009E+03  0.00000000000E+00 0.  1.
         21   -1    0    0  501  502 -0.00000000000E+00 -0.00000000000E+00 -0.21738731949E+03  0.21738731949E+03  0.00000000000E+00 0.  1.
         25    1    1    2    0    0  0.15265911511E+02 -0.13652771174E+03  0.22745055662E+02  0.18712349314E+03  0.12500000000E+03 0.  0.
         25    1    1    2    0    0 -0.23257054422E+02  0.94660650017E+02  0.91307791840E+01  0.15877625884E+03  0.12500000000E+03 0.  0.
         25    1    1    2    0    0  0.79911429111E+01  0.41867061720E+02  0.11846605757E+02  0.13259732761E+03  0.12500000000E+03 0.  0.
</event>
<event>
 5    0  0.5749909E-005  0.4479068E+03  0.7546771E-02  0.1028348E+00
         21   -1    0    0  502  501  0.00000000000E+00  0.00000000000E+00  0.17965858858E+03  0.17965858858E+03  0.00000000000E+00 0. -1.
         21   -1    0    0  501  502 -0.00000000000E+00 -0.00000000000E+00 -0.11166762207E+04  0.11166762207E+04  0.00000000000E+00 0. -1.
         25    1    1    2    0    0  0.24899362543E+03  0.10495832293E+03 -0.78245363446E+03  0.83718144099E+03  0.12500000000E+03 0.  0.
         25    1    1    2    0    0 -0.25700456445E+03 -0.65578222479E+02 -0.14604580652E+03  0.32757629190E+03  0.12500000000E+03 0.  0.
         25    1    1    2    0    0  0.80109390187E+01 -0.39380100456E+02 -0.85181911493E+01  0.13157707641E+03  0.12500000000E+03 0.  0.
</event>
<event>
 5    0  0.5749909E-005  0.3638833E+03  0.7546771E-02  0.1057057E+00
         21   -1    0    0  502  501  0.00000000000E+00  0.00000000000E+00  0.38880144013E+03  0.38880144013E+03  0.00000000000E+00 0.  1.
         21   -1    0    0  501  502 -0.00000000000E+00 -0.00000000000E+00 -0.34056224761E+03  0.34056224761E+03  0.00000000000E+00 0.  1.
         25    1    1    2    0    0 -0.14639752564E+03 -0.89780602781E+02 -0.90256506959E+02  0.23079001104E+03  0.12500000000E+03 0.  0.
         25    1    1    2    0    0  0.25696439294E+03  0.10270634782E+03  0.13189688051E+03  0.33106053859E+03  0.12500000000E+03 0.  0.
         25    1    1    2    0    0 -0.11056686730E+03 -0.12925745038E+02  0.65988189619E+01  0.16751313811E+03  0.12500000000E+03 0.  0.
</event>
<event>
 5    0  0.5749909E-005  0.3615759E+03  0.7546771E-02  0.1057962E+00
         21   -1    0    0  502  501  0.00000000000E+00  0.00000000000E+00  0.82698561914E+03  0.82698561914E+03  0.00000000000E+00 0.  1.
         21   -1    0    0  501  502 -0.00000000000E+00 -0.00000000000E+00 -0.15808872441E+03  0.15808872441E+03  0.00000000000E+00 0.  1.
         25    1    1    2    0    0 -0.44927517026E+02 -0.53786000251E+02  0.64642282854E+01  0.14345104341E+03  0.12500000000E+03 0.  0.
         25    1    1    2    0    0  0.91421530837E+02 -0.66541862781E+02  0.63854389088E+03  0.66041579053E+03  0.12500000000E+03 0.  0.
         25    1    1    2    0    0 -0.46494013811E+02  0.12032786303E+03  0.23888775567E+02  0.18120750961E+03  0.12500000000E+03 0.  0.
</event>
<event>
 5    0  0.5749909E-005  0.2673566E+03  0.7546771E-02  0.1102802E+00
         21   -1    0    0  502  501  0.00000000000E+00  0.00000000000E+00  0.38485415865E+03  0.38485415865E+03  0.00000000000E+00 0.  1.
         21   -1    0    0  501  502 -0.00000000000E+00 -0.00000000000E+00 -0.18573158098E+03  0.18573158098E+03  0.00000000000E+00 0.  1.
         25    1    1    2    0    0  0.58441801201E+02 -0.13920131179E+03 -0.13994758606E+02  0.19650267836E+03  0.12500000000E+03 0.  0.
         25    1    1    2    0    0 -0.70434289909E+02  0.67717260478E+02  0.14249916372E+03  0.21325484337E+03  0.12500000000E+03 0.  0.
         25    1    1    2    0    0  0.11992488708E+02  0.71484051314E+02  0.70618172553E+02  0.16082821790E+03  0.12500000000E+03 0.  0.
</event>
<event>
 5    0  0.5749909E-005  0.3237451E+03  0.7546771E-02  0.1073939E+00
         21   -1    0    0  502  501  0.00000000000E+00  0.00000000000E+00  0.33427459203E+03  0.33427459203E+03  0.00000000000E+00 0.  1.
         21   -1    0    0  501  502 -0.00000000000E+00 -0.00000000000E+00 -0.31354722700E+03  0.31354722700E+03  0.00000000000E+00 0.  1.
         25    1    1    2    0    0  0.10191403706E+03  0.35486582593E+02 -0.91563328610E+02  0.18882428774E+03  0.12500000000E+03 0.  0.
         25    1    1    2    0    0 -0.93254868491E+02 -0.96398798148E+02 -0.97119567892E+02  0.20747628599E+03  0.12500000000E+03 0.  0.
         25    1    1    2    0    0 -0.86591685682E+01  0.60912215555E+02  0.20941026153E+03  0.25152124530E+03  0.12500000000E+03 0.  0.
</event>
<event>
 5    0  0.5749909E-005  0.2685069E+03  0.7546771E-02  0.1102137E+00
         21   -1    0    0  502  501  0.00000000000E+00  0.00000000000E+00  0.12808215193E+03  0.12808215193E+03  0.00000000000E+00 0.  1.
         21   -1    0    0  501  502 -0.00000000000E+00 -0.00000000000E+00 -0.56288846099E+03  0.56288846099E+03  0.00000000000E+00 0.  1.
         25    1    1    2    0    0  0.13950929576E+02  0.87908449126E+02 -0.19921450912E+03  0.25146360474E+03  0.12500000000E+03 0.  0.
         25    1    1    2    0    0 -0.31106554320E+02 -0.44240805125E+02  0.32488110137E+02  0.14001908391E+03  0.12500000000E+03 0.  0.
         25    1    1    2    0    0  0.17155624743E+02 -0.43667644001E+02 -0.26807991008E+03  0.29948792427E+03  0.12500000000E+03 0.  0.
</event>
<event>
 5    0  0.5749909E-005  0.2351131E+03  0.7546771E-02  0.1123092E+00
         21   -1    0    0  502  501  0.00000000000E+00  0.00000000000E+00  0.18360678402E+03  0.18360678402E+03  0.00000000000E+00 0.  1.
         21   -1    0    0  501  502 -0.00000000000E+00 -0.00000000000E+00 -0.30106821875E+03  0.30106821875E+03  0.00000000000E+00 0.  1.
         25    1    1    2    0    0 -0.77829877187E+02  0.52799313808E+02 -0.23282656231E+02  0.15815289881E+03  0.12500000000E+03 0.  0.
         25    1    1    2    0    0  0.87570443997E+02 -0.83047971434E+02 -0.13251420962E+02  0.17425885452E+03  0.12500000000E+03 0.  0.
         25    1    1    2    0    0 -0.97405668101E+01  0.30248657626E+02 -0.80927357538E+02  0.15226324943E+03  0.12500000000E+03 0.  0.
</event>
<event>
 5    0  0.5749909E-005  0.3712460E+03  0.7546771E-02  0.1054218E+00
         21   -1    0    0  502  501  0.00000000000E+00  0.00000000000E+00  0.15797674277E+04  0.15797674277E+04  0.00000000000E+00 0.  1.
         21   -1    0    0  501  502 -0.00000000000E+00 -0.00000000000E+00 -0.87242970123E+02  0.87242970123E+02  0.00000000000E+00 0.  1.
         25    1    1    2    0    0 -0.13025816274E+03  0.23965544414E+03  0.47497125024E+03  0.56180477875E+03  0.12500000000E+03 0.  0.
         25    1    1    2    0    0 -0.32218386873E+02 -0.53186047234E+02  0.48730267428E+03  0.50690795656E+03  0.12500000000E+03 0.  0.
         25    1    1    2    0    0  0.16247654961E+03 -0.18646939690E+03  0.53025053304E+03  0.59829766249E+03  0.12500000000E+03 0.  0.
</event>
<event>
 5    0  0.8234421E-005  0.2770564E+03  0.7546771E-02  0.1097308E+00
         21   -1    0    0  502  501  0.00000000000E+00  0.00000000000E+00  0.23069724821E+03  0.23069724821E+03  0.00000000000E+00 0.  1.
         21   -1    0    0  501  502 -0.00000000000E+00 -0.00000000000E+00 -0.33273142992E+03  0.33273142992E+03  0.00000000000E+00 0.  1.
         25    1    1    2    0    0  0.62060285776E+02  0.15942893703E+01 -0.10454574699E+03  0.17438128926E+03  0.12500000000E+03 0.  0.
         25    1    1    2    0    0  0.11239631058E+03  0.35755123371E+01 -0.33293584823E+02  0.17140355221E+03  0.12500000000E+03 0.  0.
         25    1    1    2    0    0 -0.17445659636E+03 -0.51698017074E+01  0.35805150096E+02  0.21764383666E+03  0.12500000000E+03 0.  0.
</event>
<event>
 5    0  0.5749909E-005  0.2838147E+03  0.7546771E-02  0.1093623E+00
         21   -1    0    0  502  501  0.00000000000E+00  0.00000000000E+00  0.51959251198E+03  0.51959251198E+03  0.00000000000E+00 0. -1.
         21   -1    0    0  501  502 -0.00000000000E+00 -0.00000000000E+00 -0.15502682538E+03  0.15502682538E+03  0.00000000000E+00 0. -1.
         25    1    1    2    0    0 -0.13735447068E+03 -0.98973348899E+02  0.11586550991E+03  0.24023278459E+03  0.12500000000E+03 0.  0.
         25    1    1    2    0    0  0.13186884467E+03  0.85532409042E+02  0.23295017465E+03  0.30756457706E+03  0.12500000000E+03 0.  0.
         25    1    1    2    0    0  0.54856260051E+01  0.13440939857E+02  0.15750002034E+02  0.12682197570E+03  0.12500000000E+03 0.  0.
</event>
<event>
 5    0  0.5749909E-005  0.2485928E+03  0.7546771E-02  0.1114197E+00
         21   -1    0    0  502  501  0.00000000000E+00  0.00000000000E+00  0.92501999037E+03  0.92501999037E+03  0.00000000000E+00 0. -1.
         21   -1    0    0  501  502 -0.00000000000E+00 -0.00000000000E+00 -0.66807620903E+02  0.66807620903E+02  0.00000000000E+00 0. -1.
         25    1    1    2    0    0  0.79191066641E+02  0.11288539917E+03  0.29662115994E+03  0.35017631403E+03  0.12500000000E+03 0.  0.
         25    1    1    2    0    0 -0.67154609269E+02 -0.62006857227E+02  0.18402470449E+03  0.24050921760E+03  0.12500000000E+03 0.  0.
         25    1    1    2    0    0 -0.12036457372E+02 -0.50878541939E+02  0.37756650503E+03  0.40114207964E+03  0.12500000000E+03 0.  0.
</event>
<event>
 5    0  0.6630887E-005  0.2771505E+03  0.7546771E-02  0.1097256E+00
         21   -1    0    0  502  501  0.00000000000E+00  0.00000000000E+00  0.21875246703E+03  0.21875246703E+03  0.00000000000E+00 0.  1.
         21   -1    0    0  501  502 -0.00000000000E+00 -0.00000000000E+00 -0.35113851709E+03  0.35113851709E+03  0.00000000000E+00 0.  1.
         25    1    1    2    0    0 -0.42818838551E+02  0.85387895449E+02  0.39202621175E+02  0.16213078403E+03  0.12500000000E+03 0.  0.
         25    1    1    2    0    0  0.11309451173E+03 -0.44475414628E+02 -0.18958290003E+03  0.25755602706E+03  0.12500000000E+03 0.  0.
         25    1    1    2    0    0 -0.70275673179E+02 -0.40912480821E+02  0.17994228797E+02  0.15020417304E+03  0.12500000000E+03 0.  0.
</event>
<event>
 5    0  0.5749909E-005  0.3095374E+03  0.7546771E-02  0.1080568E+00
         21   -1    0    0  502  501  0.00000000000E+00  0.00000000000E+00  0.76112383933E+03  0.76112383933E+03  0.00000000000E+00 0. -1.
         21   -1    0    0  501  502 -0.00000000000E+00 -0.00000000000E+00 -0.12588413536E+03  0.12588413536E+03  0.00000000000E+00 0. -1.
         25    1    1    2    0    0 -0.12712412278E+03 -0.56385776251E+02  0.20875984162E+03  0.28025982557E+03  0.12500000000E+03 0.  0.
         25    1    1    2    0    0  0.26396018011E+02  0.13775923163E+03  0.57946079688E+02  0.19661409872E+03  0.12500000000E+03 0.  0.
         25    1    1    2    0    0  0.10072810477E+03 -0.81373455379E+02  0.36853378266E+03  0.41013405040E+03  0.12500000000E+03 0.  0.
</event>
<event>
 5    0  0.6375711E-005  0.2733133E+03  0.7546771E-02  0.1099398E+00
         21   -1    0    0  502  501  0.00000000000E+00  0.00000000000E+00  0.40446300751E+03  0.40446300751E+03  0.00000000000E+00 0. -1.
         21   -1    0    0  501  502 -0.00000000000E+00 -0.00000000000E+00 -0.18468974793E+03  0.18468974793E+03  0.00000000000E+00 0. -1.
         25    1    1    2    0    0 -0.14672441818E+03 -0.71463259637E+02  0.12356065014E+01  0.20557621237E+03  0.12500000000E+03 0.  0.
         25    1    1    2    0    0  0.46612622689E+02  0.40294587338E+02  0.15513202258E+03  0.20853617142E+03  0.12500000000E+03 0.  0.
         25    1    1    2    0    0  0.10011179549E+03  0.31168672298E+02  0.63405630494E+02  0.17504037165E+03  0.12500000000E+03 0.  0.
</event>
<event>
 5    0  0.5749909E-005  0.2106236E+03  0.7546771E-02  0.1141073E+00
         21   -1    0    0  502  501  0.00000000000E+00  0.00000000000E+00  0.13954434225E+03  0.13954434225E+03  0.00000000000E+00 0.  1.
         21   -1    0    0  501  502 -0.00000000000E+00 -0.00000000000E+00 -0.31790826268E+03  0.31790826268E+03  0.00000000000E+00 0.  1.
         25    1    1    2    0    0 -0.25835884074E+02 -0.28983433081E+02 -0.92021901618E+02  0.16000175835E+03  0.12500000000E+03 0.  0.
         25    1    1    2    0    0 -0.56955111372E+00 -0.89372172451E+01  0.20062304171E+02  0.12691609153E+03  0.12500000000E+03 0.  0.
         25    1    1    2    0    0  0.26405435187E+02  0.37920650326E+02 -0.10640432299E+03  0.17053475505E+03  0.12500000000E+03 0.  0.
</event>
<event>
 5    0  0.5749909E-005  0.3067106E+03  0.7546771E-02  0.1081933E+00
         21   -1    0    0  502  501  0.00000000000E+00  0.00000000000E+00  0.12408475499E+04  0.12408475499E+04  0.00000000000E+00 0.  1.
         21   -1    0    0  501  502 -0.00000000000E+00 -0.00000000000E+00 -0.75812198604E+02  0.75812198604E+02  0.00000000000E+00 0.  1.
         25    1    1    2    0    0  0.19547596836E+02 -0.15526285759E+03  0.16851378826E+03  0.26174522024E+03  0.12500000000E+03 0.  0.
         25    1    1    2    0    0 -0.39392334799E+02  0.75819014756E+01  0.23747789448E+03  0.27134846902E+03  0.12500000000E+03 0.  0.
         25    1    1    2    0    0  0.19844737963E+02  0.14768095611E+03  0.75904366860E+03  0.78356605928E+03  0.12500000000E+03 0.  0.
</event>
<event>
 5    0  0.5749909E-005  0.2439231E+03  0.7546771E-02  0.1117207E+00
         21   -1    0    0  502  501  0.00000000000E+00  0.00000000000E+00  0.13192822266E+04  0.13192822266E+04  0.00000000000E+00 0. -1.
         21   -1    0    0  501  502 -0.00000000000E+00 -0.00000000000E+00 -0.45099115279E+02  0.45099115279E+02  0.00000000000E+00 0. -1.
         25    1    1    2    0    0 -0.19627679475E+02 -0.73305893112E+01  0.87035734904E+03  0.87953732062E+03  0.12500000000E+03 0.  0.
         25    1    1    2    0    0  0.12392357773E+02  0.30361095571E+01  0.11631129650E+03  0.17121946789E+03  0.12500000000E+03 0.  0.
         25    1    1    2    0    0  0.72353217025E+01  0.42944797541E+01  0.28751446576E+03  0.31362455334E+03  0.12500000000E+03 0.  0.
</event>
<event>
 5    0  0.5749909E-005  0.2631313E+03  0.7546771E-02  0.1105276E+00
         21   -1    0    0  502  501  0.00000000000E+00  0.00000000000E+00  0.13364472313E+03  0.13364472313E+03  0.00000000000E+00 0.  1.
         21   -1    0    0  501  502 -0.00000000000E+00 -0.00000000000E+00 -0.51807576938E+03  0.51807576938E+03  0.00000000000E+00 0.  1.
         25    1    1    2    0    0 -0.89285071664E+01  0.38988678547E+00 -0.31249132154E+03  0.33668337691E+03  0.12500000000E+03 0.  0.
         25    1    1    2    0    0  0.40738792932E+02  0.40158912910E+01  0.46853953812E+02  0.13962832671E+03  0.12500000000E+03 0.  0.
         25    1    1    2    0    0 -0.31810285765E+02 -0.44057780764E+01 -0.11879367853E+03  0.17540878889E+03  0.12500000000E+03 0.  0.
</event>
<event>
 5    0  0.5749909E-005  0.5660989E+03  0.7546771E-02  0.9978348E-01
         21   -1    0    0  502  501  0.00000000000E+00  0.00000000000E+00  0.12482737514E+03  0.12482737514E+03  0.00000000000E+00 0.  1.
         21   -1    0    0  501  502 -0.00000000000E+00 -0.00000000000E+00 -0.25672892831E+04  0.25672892831E+04  0.00000000000E+00 0.  1.
         25    1    1    2    0    0 -0.19354372994E+03 -0.30353735536E+03 -0.10387633714E+04  0.11064576102E+04  0.12500000000E+03 0.  0.
         25    1    1    2    0    0  0.18723344183E+03  0.46431920513E+03 -0.83519875555E+03  0.98174876993E+03  0.12500000000E+03 0.  0.
         25    1    1    2    0    0  0.63102881109E+01 -0.16078184976E+03 -0.56849978103E+03  0.60391027809E+03  0.12500000000E+03 0.  0.
</event>
<event>
 5    0  0.5749909E-005  0.2231822E+03  0.7546771E-02  0.1131533E+00
         21   -1    0    0  502  501  0.00000000000E+00  0.00000000000E+00  0.50225483131E+03  0.50225483131E+03  0.00000000000E+00 0.  1.
         21   -1    0    0  501  502 -0.00000000000E+00 -0.00000000000E+00 -0.99173390488E+02  0.99173390488E+02  0.00000000000E+00 0.  1.
         25    1    1    2    0    0  0.67209701489E+01 -0.75859939247E+01  0.85472968839E+02  0.15176741134E+03  0.12500000000E+03 0.  0.
         25    1    1    2    0    0  0.18288383595E+02 -0.64092654013E+01  0.23294562169E+02  0.12862029499E+03  0.12500000000E+03 0.  0.
         25    1    1    2    0    0 -0.25009353744E+02  0.13995259326E+02  0.29431390981E+03  0.32104051546E+03  0.12500000000E+03 0.  0.
</event>
<event>
 5    0  0.5749909E-005  0.3395886E+03  0.7546771E-02  0.1066971E+00
         21   -1    0    0  502  501  0.00000000000E+00  0.00000000000E+00  0.61494937424E+03  0.61494937424E+03  0.00000000000E+00 0. -1.
         21   -1    0    0  501  502 -0.00000000000E+00 -0.00000000000E+00 -0.18752831021E+03  0.18752831021E+03  0.00000000000E+00 0. -1.
         25    1    1    2    0    0 -0.25969194096E+02 -0.17349299270E+03  0.13381678770E+02  0.21582003356E+03  0.12500000000E+03 0.  0.
         25    1    1    2    0    0 -0.81524324006E+02 -0.31210176243E+02  0.16313386188E+03  0.22328893255E+03  0.12500000000E+03 0.  0.
         25    1    1    2    0    0  0.10749351810E+03  0.20470316894E+03  0.25090552338E+03  0.36336871835E+03  0.12500000000E+03 0.  0.
</event>
<event>
 5    0  0.5749909E-005  0.3034551E+03  0.7546771E-02  0.1083526E+00
         21   -1    0    0  502  501  0.00000000000E+00  0.00000000000E+00  0.22431224479E+03  0.22431224479E+03  0.00000000000E+00 0. -1.
         21   -1    0    0  501  502 -0.00000000000E+00 -0.00000000000E+00 -0.41052155095E+03  0.41052155095E+03  0.00000000000E+00 0. -1.
         25    1    1    2    0    0 -0.22660797236E+03 -0.18550208067E+02 -0.11753334975E+03  0.28484095853E+03  0.12500000000E+03 0.  0.
         25    1    1    2    0    0  0.87996287317E+02  0.29475233276E+02 -0.21470492825E+02  0.15715634897E+03  0.12500000000E+03 0.  0.
         25    1    1    2    0    0  0.13861168504E+03 -0.10925025209E+02 -0.47205463586E+02  0.19283648824E+03  0.12500000000E+03 0.  0.
</event>
<event>
 5    0  0.5749909E-005  0.3751842E+03  0.7546771E-02  0.1052728E+00
         21   -1    0    0  502  501  0.00000000000E+00  0.00000000000E+00  0.80789819906E+03  0.80789819906E+03  0.00000000000E+00 0. -1.
         21   -1    0    0  501  502 -0.00000000000E+00 -0.00000000000E+00 -0.17423381615E+03  0.17423381615E+03  0.00000000000E+00 0. -1.
         25    1    1    2    0    0  0.16233926981E+03 -0.23338144458E+02 -0.15802261410E+01  0.20621882703E+03  0.12500000000E+03 0.  0.
         25    1    1    2    0    0 -0.17008095516E+03  0.29594470239E+02  0.11787219677E+03  0.24356152970E+03  0.12500000000E+03 0.  0.
         25    1    1    2    0    0  0.77416853539E+01 -0.62563257811E+01  0.51737241228E+03  0.53235165849E+03  0.12500000000E+03 0.  0.
</event>
<event>
 5    0  0.5749909E-005  0.2961665E+03  0.7546771E-02  0.1087173E+00
         21   -1    0    0  502  501  0.00000000000E+00  0.00000000000E+00  0.97091100546E+03  0.97091100546E+03  0.00000000000E+00 0.  1.
         21   -1    0    0  501  502 -0.00000000000E+00 -0.00000000000E+00 -0.90342572748E+02  0.90342572748E+02  0.00000000000E+00 0.  1.
         25    1    1    2    0    0  0.79987419001E+01 -0.13128743115E+03  0.13665520155E+03  0.22715636368E+03  0.12500000000E+03 0.  0.
         25    1    1    2    0    0  0.31210990410E+01  0.11551890443E+03  0.15007897246E+03  0.22694284856E+03  0.12500000000E+03 0.  0.
         25    1    1    2    0    0 -0.11119840941E+02  0.15768526715E+02  0.59383425870E+03  0.60715436596E+03  0.12500000000E+03 0.  0.
</event>
<event>
 5    0  0.5749909E-005  0.3023372E+03  0.7546771E-02  0.1084078E+00
         21   -1    0    0  502  501  0.00000000000E+00  0.00000000000E+00  0.99355284040E+02  0.99355284040E+02  0.00000000000E+00 0.  1.
         21   -1    0    0  501  502 -0.00000000000E+00 -0.00000000000E+00 -0.92000912756E+03  0.92000912756E+03  0.00000000000E+00 0.  1.
         25    1    1    2    0    0  0.11365297615E+02  0.14160070825E+03 -0.29345147275E+03  0.34916858024E+03  0.12500000000E+03 0.  0.
         25    1    1    2    0    0  0.86336099896E+01 -0.65625515542E+02 -0.21112154145E+02  0.14301038621E+03  0.12500000000E+03 0.  0.
         25    1    1    2    0    0 -0.19998907604E+02 -0.75975192712E+02 -0.50609021663E+03  0.52718544516E+03  0.12500000000E+03 0.  0.
</event>
<event>
 5    0  0.5749909E-005  0.7736787E+03  0.7546771E-02  0.9598917E-01
         21   -1    0    0  502  501  0.00000000000E+00  0.00000000000E+00  0.53892733068E+03  0.53892733068E+03  0.00000000000E+00 0.  1.
         21   -1    0    0  501  502 -0.00000000000E+00 -0.00000000000E+00 -0.11106855663E+04  0.11106855663E+04  0.00000000000E+00 0.  1.
         25    1    1    2    0    0  0.11458101936E+03 -0.80816779472E+02 -0.39409058300E+03  0.43656906607E+03  0.12500000000E+03 0.  0.
         25    1    1    2    0    0 -0.51141853073E+03  0.37424453391E+03  0.64715269197E+02  0.64916943151E+03  0.12500000000E+03 0.  0.
         25    1    1    2    0    0  0.39683751137E+03 -0.29342775444E+03 -0.24238292180E+03  0.56387439939E+03  0.12500000000E+03 0.  0.
</event>
<event>
 5    0  0.5749909E-005  0.3862799E+03  0.7546771E-02  0.1048637E+00
         21   -1    0    0  502  501  0.00000000000E+00  0.00000000000E+00  0.92442896761E+03  0.92442896761E+03  0.00000000000E+00 0.  1.
         21   -1    0    0  501  502 -0.00000000000E+00 -0.00000000000E+00 -0.16141011739E+03  0.16141011739E+03  0.00000000000E+00 0.  1.
         25    1    1    2    0    0 -0.12549723725E+02 -0.29822835808E+02 -0.15622852279E+01  0.12912915177E+03  0.12500000000E+03 0.  0.
         25    1    1    2    0    0  0.14735931746E+03  0.22202115746E+03  0.50825314434E+03  0.58732820598E+03  0.12500000000E+03 0.  0.
         25    1    1    2    0    0 -0.13480959373E+03 -0.19219832165E+03  0.25632799110E+03  0.36938172726E+03  0.12500000000E+03 0.  0.
</event>
<event>
 5    0  0.6586894E-005  0.4087439E+03  0.7546771E-02  0.1040793E+00
         21   -1    0    0  502  501  0.00000000000E+00  0.00000000000E+00  0.59486013779E+03  0.59486013779E+03  0.00000000000E+00 0. -1.
         21   -1    0    0  501  502 -0.00000000000E+00 -0.00000000000E+00 -0.28085858561E+03  0.28085858561E+03  0.00000000000E+00 0. -1.
         25    1    1    2    0    0  0.23372678975E+02  0.18930658132E+03  0.28263089608E+03  0.36316454572E+03  0.12500000000E+03 0.  0.
         25    1    1    2    0    0  0.21223242512E+02  0.30272214575E+02 -0.14971832558E+03  0.19851299708E+03  0.12500000000E+03 0.  0.
         25    1    1    2    0    0 -0.44595921486E+02 -0.21957879590E+03  0.18108898168E+03  0.31404118059E+03  0.12500000000E+03 0.  0.
</event>
<event>
 5    0  0.5749909E-005  0.4582053E+03  0.7546771E-02  0.1025303E+00
         21   -1    0    0  502  501  0.00000000000E+00  0.00000000000E+00  0.63210255886E+03  0.63210255886E+03  0.00000000000E+00 0.  1.
         21   -1    0    0  501  502 -0.00000000000E+00 -0.00000000000E+00 -0.33214876246E+03  0.33214876246E+03  0.00000000000E+00 0.  1.
         25    1    1    2    0    0  0.80254346311E+02  0.18505510417E+03  0.16050525562E+03  0.28648401136E+03  0.12500000000E+03 0.  0.
         25    1    1    2    0    0  0.15712158450E+03 -0.29787974645E+03  0.14317274538E+03  0.38670786219E+03  0.12500000000E+03 0.  0.
         25    1    1    2    0    0 -0.23737593081E+03  0.11282464227E+03 -0.37242045993E+01  0.29105944777E+03  0.12500000000E+03 0.  0.
</event>
<event>
 5    0  0.5749909E-005  0.4275287E+03  0.7546771E-02  0.1034643E+00
         21   -1    0    0  502  501  0.00000000000E+00  0.00000000000E+00  0.26156391757E+03  0.26156391757E+03  0.00000000000E+00 0.  1.
         21   -1    0    0  501  502 -0.00000000000E+00 -0.00000000000E+00 -0.69879955872E+03  0.69879955872E+03  0.00000000000E+00 0.  1.
         25    1    1    2    0    0 -0.85423521498E+01  0.34453400999E+02  0.50679567138E+02  0.13947554318E+03  0.12500000000E+03 0.  0.
         25    1    1    2    0    0 -0.24928691519E+03 -0.12123359765E+02 -0.30661285905E+02  0.28081320552E+03  0.12500000000E+03 0.  0.
         25    1    1    2    0    0  0.25782926734E+03 -0.22330041234E+02 -0.45725392239E+03  0.54007472759E+03  0.12500000000E+03 0.  0.
</event>
<event>
 5    0  0.5749909E-005  0.3977594E+03  0.7546771E-02  0.1044558E+00
         21   -1    0    0  502  501  0.00000000000E+00  0.00000000000E+00  0.47301911164E+03  0.47301911164E+03  0.00000000000E+00 0.  1.
         21   -1    0    0  501  502 -0.00000000000E+00 -0.00000000000E+00 -0.33447385854E+03  0.33447385854E+03  0.00000000000E+00 0.  1.
         25    1    1    2    0    0 -0.15986014233E+03  0.15286427099E+03  0.19618594197E+03  0.32099326205E+03  0.12500000000E+03 0.  0.
         25    1    1    2    0    0  0.11402050705E+03  0.56846436999E+02  0.87522115911E+02  0.19878962297E+03  0.12500000000E+03 0.  0.
         25    1    1    2    0    0  0.45839635286E+02 -0.20971070799E+03 -0.14516280479E+03  0.28771008516E+03  0.12500000000E+03 0.  0.
</event>
<event>
 5    0  0.5749909E-005  0.2938545E+03  0.7546771E-02  0.1088354E+00
         21   -1    0    0  502  501  0.00000000000E+00  0.00000000000E+00  0.27911208529E+03  0.27911208529E+03  0.00000000000E+00 0.  1.
         21   -1    0    0  501  502 -0.00000000000E+00 -0.00000000000E+00 -0.30937550057E+03  0.30937550057E+03  0.00000000000E+00 0.  1.
         25    1    1    2    0    0 -0.10875718778E+03 -0.11620099940E+03  0.57076663400E+02  0.21027016826E+03  0.12500000000E+03 0.  0.
         25    1    1    2    0    0 -0.37377803662E+01 -0.45866492240E+01  0.44429813803E+02  0.13279313502E+03  0.12500000000E+03 0.  0.
         25    1    1    2    0    0  0.11249496815E+03  0.12078764862E+03 -0.13176989249E+03  0.24542428259E+03  0.12500000000E+03 0.  0.
</event>
<event>
 5    0  0.5749909E-005  0.2769424E+03  0.7546771E-02  0.1097371E+00
         21   -1    0    0  502  501  0.00000000000E+00  0.00000000000E+00  0.45614189884E+03  0.45614189884E+03  0.00000000000E+00 0.  1.
         21   -1    0    0  501  502 -0.00000000000E+00 -0.00000000000E+00 -0.16814305675E+03  0.16814305675E+03  0.00000000000E+00 0.  1.
         25    1    1    2    0    0 -0.13558991507E+03  0.90506856450E+02  0.98559211683E+02  0.22784870932E+03  0.12500000000E+03 0.  0.
         25    1    1    2    0    0  0.16518185894E+01 -0.31849656329E+02  0.37361125083E+01  0.12905846601E+03  0.12500000000E+03 0.  0.
         25    1    1    2    0    0  0.13393809648E+03 -0.58657200121E+02  0.18570351790E+03  0.26737778026E+03  0.12500000000E+03 0.  0.
</event>
<event>
 5    0  0.5749909E-005  0.3906648E+03  0.7546771E-02  0.1047061E+00
         21   -1    0    0  502  501  0.00000000000E+00  0.00000000000E+00  0.35947172643E+03  0.35947172643E+03  0.00000000000E+00 0.  1.
         21   -1    0    0  501  502 -0.00000000000E+00 -0.00000000000E+00 -0.42456473851E+03  0.42456473851E+03  0.00000000000E+00 0.  1.
         25    1    1    2    0    0  0.63599763907E+02  0.15260412327E+03  0.19576481221E+03  0.28509964943E+03  0.12500000000E+03 0.  0.
         25    1    1    2    0    0 -0.66519983210E+02 -0.21592768307E+03 -0.24828686431E+03  0.35821926172E+03  0.12500000000E+03 0.  0.
         25    1    1    2    0    0  0.29202193022E+01  0.63323559802E+02 -0.12570959989E+02  0.14071755378E+03  0.12500000000E+03 0.  0.
</event>
<event>
 5    0  0.5749909E-005  0.2206096E+03  0.7546771E-02  0.1133429E+00
         21   -1    0    0  502  501  0.00000000000E+00  0.00000000000E+00  0.20006171724E+03  0.20006171724E+03  0.00000000000E+00 0.  1.
         21   -1    0    0  501  502 -0.00000000000E+00 -0.00000000000E+00 -0.24326797854E+03  0.24326797854E+03  0.00000000000E+00 0.  1.
         25    1    1    2    0    0  0.88736216212E+02  0.50262842560E+02 -0.32357345886E+02  0.16453713029E+03  0.12500000000E+03 0.  0.
         25    1    1    2    0    0 -0.33935000473E+02 -0.40114480232E+00  0.17632589753E+02  0.13071975136E+03  0.12500000000E+03 0.  0.
         25    1    1    2    0    0 -0.54801215739E+02 -0.49861697758E+02 -0.28481505160E+02  0.14807281414E+03  0.12500000000E+03 0.  0.
</event>
<event>
 5    0  0.5749909E-005  0.6785917E+03  0.7546771E-02  0.9754560E-01
         21   -1    0    0  502  501  0.00000000000E+00  0.00000000000E+00  0.44920140536E+03  0.44920140536E+03  0.00000000000E+00 0. -1.
         21   -1    0    0  501  502 -0.00000000000E+00 -0.00000000000E+00 -0.10251229619E+04  0.10251229619E+04  0.00000000000E+00 0. -1.
         25    1    1    2    0    0  0.44972619241E+03 -0.11716024948E+03 -0.47848092501E+03  0.67863772942E+03  0.12500000000E+03 0.  0.
         25    1    1    2    0    0  0.12195338206E+03 -0.41798410749E+02  0.10018676798E+02  0.17984745876E+03  0.12500000000E+03 0.  0.
         25    1    1    2    0    0 -0.57167957447E+03  0.15895866023E+03 -0.10745930831E+03  0.61583917906E+03  0.12500000000E+03 0.  0.
</event>
<event>
 5    0  0.5749909E-005  0.4886979E+03  0.7546771E-02  0.1016772E+00
         21   -1    0    0  502  501  0.00000000000E+00  0.00000000000E+00  0.16112099043E+04  0.16112099043E+04  0.00000000000E+00 0. -1.
         21   -1    0    0  501  502 -0.00000000000E+00 -0.00000000000E+00 -0.14822752905E+03  0.14822752905E+03  0.00000000000E+00 0. -1.
         25    1    1    2    0    0 -0.75035898229E+02 -0.50369869316E+02  0.75153830301E+03  0.76720423008E+03  0.12500000000E+03 0.  0.
         25    1    1    2    0    0 -0.10529148385E+03 -0.16878573525E+03  0.62885024602E+03  0.67130660127E+03  0.12500000000E+03 0.  0.
         25    1    1    2    0    0  0.18032738208E+03  0.21915560457E+03  0.82593826213E+02  0.32092660199E+03  0.12500000000E+03 0.  0.
</event>
<event>
 5    0  0.5749909E-005  0.2231108E+03  0.7546771E-02  0.1131585E+00
         21   -1    0    0  502  501  0.00000000000E+00  0.00000000000E+00  0.17337803151E+03  0.17337803151E+03  0.00000000000E+00 0. -1.
         21   -1    0    0  501  502 -0.00000000000E+00 -0.00000000000E+00 -0.28710930846E+03  0.28710930846E+03  0.00000000000E+00 0. -1.
         25    1    1    2    0    0  0.81821118091E+02 -0.66552021497E+01 -0.80494739006E+02  0.16983341865E+03  0.12500000000E+03 0.  0.
         25    1    1    2    0    0 -0.55667486978E+02 -0.29554534890E+02  0.30700319320E+02  0.14331730267E+03  0.12500000000E+03 0.  0.
         25    1    1    2    0    0 -0.26153631113E+02  0.36209737040E+02 -0.63936857265E+02  0.14733661864E+03  0.12500000000E+03 0.  0.
</event>
<event>
 5    0  0.5749909E-005  0.2532204E+03  0.7546771E-02  0.1111286E+00
         21   -1    0    0  502  501  0.00000000000E+00  0.00000000000E+00  0.18793740572E+04  0.18793740572E+04  0.00000000000E+00 0.  1.
         21   -1    0    0  501  502 -0.00000000000E+00 -0.00000000000E+00 -0.34118033702E+02  0.34118033702E+02  0.00000000000E+00 0.  1.
         25    1    1    2    0    0 -0.72736486814E+02  0.95951111817E+02  0.98040563976E+03  0.99564925091E+03  0.12500000000E+03 0.  0.
         25    1    1    2    0    0 -0.50643165016E+01 -0.61848291655E+02  0.56600058901E+03  0.58295156338E+03  0.12500000000E+03 0.  0.
         25    1    1    2    0    0  0.77800803316E+02 -0.34102820162E+02  0.29884979469E+03  0.33489127658E+03  0.12500000000E+03 0.  0.
</event>
<event>
 5    0  0.6818115E-005  0.3425345E+03  0.7546771E-02  0.1065722E+00
         21   -1    0    0  502  501  0.00000000000E+00  0.00000000000E+00  0.65369758960E+03  0.65369758960E+03  0.00000000000E+00 0.  1.
         21   -1    0    0  501  502 -0.00000000000E+00 -0.00000000000E+00 -0.17948644848E+03  0.17948644848E+03  0.00000000000E+00 0.  1.
         25    1    1    2    0    0 -0.18260696215E+03 -0.62130612154E+02  0.22280076838E+03  0.32011044654E+03  0.12500000000E+03 0.  0.
         25    1    1    2    0    0  0.15604207412E+03 -0.42460121755E+02  0.27878401682E+03  0.34568413164E+03  0.12500000000E+03 0.  0.
         25    1    1    2    0    0  0.26564888032E+02  0.10459073391E+03 -0.27373644083E+02  0.16738945990E+03  0.12500000000E+03 0.  0.
</event>
<event>
 5    0  0.5749909E-005  0.2640313E+03  0.7546771E-02  0.1104745E+00
         21   -1    0    0  502  501  0.00000000000E+00  0.00000000000E+00  0.24355644815E+02  0.24355644815E+02  0.00000000000E+00 0.  1.
         21   -1    0    0  501  502 -0.00000000000E+00 -0.00000000000E+00 -0.28622744257E+04  0.28622744257E+04  0.00000000000E+00 0.  1.
         25    1    1    2    0    0  0.14263851356E+03  0.81321315881E+01 -0.78000599642E+03  0.80277408501E+03  0.12500000000E+03 0.  0.
         25    1    1    2    0    0 -0.14425411902E+03  0.29355438234E+02 -0.13855125168E+04  0.13989070472E+04  0.12500000000E+03 0.  0.
         25    1    1    2    0    0  0.16156054591E+01 -0.37487569822E+02 -0.67240026764E+03  0.68494893824E+03  0.12500000000E+03 0.  0.
</event>
<event>
 5    0  0.5749909E-005  0.4017199E+03  0.7546771E-02  0.1043186E+00
         21   -1    0    0  502  501  0.00000000000E+00  0.00000000000E+00  0.47750259671E+03  0.47750259671E+03  0.00000000000E+00 0. -1.
         21   -1    0    0  501  502 -0.00000000000E+00 -0.00000000000E+00 -0.33796432550E+03  0.33796432550E+03  0.00000000000E+00 0. -1.
         25    1    1    2    0    0  0.79582201598E+02  0.87737277674E+02  0.22590942287E+03  0.28406200739E+03  0.12500000000E+03 0.  0.
         25    1    1    2    0    0 -0.57154591895E+02 -0.19830876162E+03  0.11634961143E+03  0.26787169390E+03  0.12500000000E+03 0.  0.
         25    1    1    2    0    0 -0.22427609703E+02  0.11057148395E+03 -0.20272076309E+03  0.26353322092E+03  0.12500000000E+03 0.  0.
</event>
<event>
 5    0  0.6677748E-005  0.3702162E+03  0.7546771E-02  0.1054610E+00
         21   -1    0    0  502  501  0.00000000000E+00  0.00000000000E+00  0.21408989742E+03  0.21408989742E+03  0.00000000000E+00 0. -1.
         21   -1    0    0  501  502 -0.00000000000E+00 -0.00000000000E+00 -0.64019857473E+03  0.64019857473E+03  0.00000000000E+00 0. -1.
         25    1    1    2    0    0  0.12940472886E+03 -0.11592812684E+03 -0.24658229870E+03  0.32651607078E+03  0.12500000000E+03 0.  0.
         25    1    1    2    0    0 -0.11525230238E+03  0.99081997049E+02 -0.29604126066E+03  0.35547962439E+03  0.12500000000E+03 0.  0.
         25    1    1    2    0    0 -0.14152426478E+02  0.16846129793E+02  0.11651488204E+03  0.17229277698E+03  0.12500000000E+03 0.  0.
</event>
<event>
 5    0  0.5749909E-005  0.4580255E+03  0.7546771E-02  0.1025355E+00
         21   -1    0    0  502  501  0.00000000000E+00  0.00000000000E+00  0.46651654068E+03  0.46651654068E+03  0.00000000000E+00 0.  1.
         21   -1    0    0  501  502 -0.00000000000E+00 -0.00000000000E+00 -0.44968903591E+03  0.44968903591E+03  0.00000000000E+00 0.  1.
         25    1    1    2    0    0 -0.32104323937E+01 -0.32617983580E+02 -0.12708902811E+03  0.18124806425E+03  0.12500000000E+03 0.  0.
         25    1    1    2    0    0  0.32645039256E+03 -0.64362683603E+02  0.26584311693E+02  0.35643251741E+03  0.12500000000E+03 0.  0.
         25    1    1    2    0    0 -0.32323996016E+03  0.96980667183E+02  0.11733222119E+03  0.37852499493E+03  0.12500000000E+03 0.  0.
</event>
<event>
 5    0  0.5749909E-005  0.3771957E+03  0.7546771E-02  0.1051975E+00
         21   -1    0    0  502  501  0.00000000000E+00  0.00000000000E+00  0.68464070089E+03  0.68464070089E+03  0.00000000000E+00 0. -1.
         21   -1    0    0  501  502 -0.00000000000E+00 -0.00000000000E+00 -0.20781205672E+03  0.20781205672E+03  0.00000000000E+00 0. -1.
         25    1    1    2    0    0 -0.11939678808E+03  0.12944202440E+03  0.27473749083E+02  0.21769390799E+03  0.12500000000E+03 0.  0.
         25    1    1    2    0    0  0.83287433956E+02 -0.24305368895E+03  0.13485818494E+03  0.31594876549E+03  0.12500000000E+03 0.  0.
         25    1    1    2    0    0  0.36109354124E+02  0.11361166455E+03  0.31449671015E+03  0.35881008413E+03  0.12500000000E+03 0.  0.
</event>
<event>
 5    0  0.7238341E-005  0.3924721E+03  0.7546771E-02  0.1046418E+00
         21   -1    0    0  502  501  0.00000000000E+00  0.00000000000E+00  0.55074549896E+03  0.55074549896E+03  0.00000000000E+00 0. -1.
         21   -1    0    0  501  502 -0.00000000000E+00 -0.00000000000E+00 -0.27968330088E+03  0.27968330088E+03  0.00000000000E+00 0. -1.
         25    1    1    2    0    0  0.10157155384E+03  0.82361083930E+02  0.35247938717E+03  0.39619041770E+03  0.12500000000E+03 0.  0.
         25    1    1    2    0    0  0.80536029115E+02  0.39288319536E+02 -0.96594248630E+02  0.18161793112E+03  0.12500000000E+03 0.  0.
         25    1    1    2    0    0 -0.18210758295E+03 -0.12164940347E+03  0.15177059535E+02  0.25262045101E+03  0.12500000000E+03 0.  0.
</event>
<event>
 5    0  0.5749909E-005  0.2823536E+03  0.7546771E-02  0.1094410E+00
         21   -1    0    0  502  501  0.00000000000E+00  0.00000000000E+00  0.68541586354E+02  0.68541586354E+02  0.00000000000E+00 0. -1.
         21   -1    0    0  501  502 -0.00000000000E+00 -0.00000000000E+00 -0.11631415731E+04  0.11631415731E+04  0.00000000000E+00 0. -1.
         25    1    1    2    0    0 -0.46248158488E+02  0.25123187261E+02 -0.24592494584E+03  0.28084541244E+03  0.12500000000E+03 0.  0.
         25    1    1    2    0    0 -0.28722523459E+02  0.11740400853E+03 -0.62258499245E+03  0.64640989890E+03  0.12500000000E+03 0.  0.
         25    1    1    2    0    0  0.74970681947E+02 -0.14252719579E+03 -0.22609004842E+03  0.30442784808E+03  0.12500000000E+03 0.  0.
</event>
<event>
 5    0  0.5749909E-005  0.3167979E+03  0.7546771E-02  0.1077132E+00
         21   -1    0    0  502  501  0.00000000000E+00  0.00000000000E+00  0.78264504956E+02  0.78264504956E+02  0.00000000000E+00 0.  1.
         21   -1    0    0  501  502 -0.00000000000E+00 -0.00000000000E+00 -0.12823300909E+04  0.12823300909E+04  0.00000000000E+00 0.  1.
         25    1    1    2    0    0  0.14524957203E+03  0.62840755214E+02 -0.59568428750E+03  0.62889678729E+03  0.12500000000E+03 0.  0.
         25    1    1    2    0    0 -0.11296840943E+01 -0.12035613542E+03 -0.14091898325E+03  0.22353978474E+03  0.12500000000E+03 0.  0.
         25    1    1    2    0    0 -0.14411988793E+03  0.57515380202E+02 -0.46746231519E+03  0.50815802383E+03  0.12500000000E+03 0.  0.
</event>
<event>
 5    0  0.5749909E-005  0.2735024E+03  0.7546771E-02  0.1099292E+00
         21   -1    0    0  502  501  0.00000000000E+00  0.00000000000E+00  0.18525266376E+03  0.18525266376E+03  0.00000000000E+00 0. -1.
         21   -1    0    0  501  502 -0.00000000000E+00 -0.00000000000E+00 -0.40379221541E+03  0.40379221541E+03  0.00000000000E+00 0. -1.
         25    1    1    2    0    0 -0.14015024555E+03  0.52253842548E+02 -0.50162254343E+01  0.19499414839E+03  0.12500000000E+03 0.  0.
         25    1    1    2    0    0  0.70328805630E+01  0.23154823586E+02 -0.12192558857E+03  0.17628515653E+03  0.12500000000E+03 0.  0.
         25    1    1    2    0    0  0.13311736498E+03 -0.75408666133E+02 -0.91597737641E+02  0.21776557425E+03  0.12500000000E+03 0.  0.
</event>
<event>
 5    0  0.5749909E-005  0.3724946E+03  0.7546771E-02  0.1053743E+00
         21   -1    0    0  502  501  0.00000000000E+00  0.00000000000E+00  0.88063927626E+03  0.88063927626E+03  0.00000000000E+00 0.  1.
         21   -1    0    0  501  502 -0.00000000000E+00 -0.00000000000E+00 -0.15755856065E+03  0.15755856065E+03  0.00000000000E+00 0.  1.
         25    1    1    2    0    0  0.78754750740E+02 -0.15331761612E+03  0.12596482035E+03  0.24738782942E+03  0.12500000000E+03 0.  0.
         25    1    1    2    0    0 -0.18406680505E+03  0.10264355283E+03  0.99275918138E+02  0.26438039939E+03  0.12500000000E+03 0.  0.
         25    1    1    2    0    0  0.10531205431E+03  0.50674063298E+02  0.49783997712E+03  0.52642960811E+03  0.12500000000E+03 0.  0.
</event>
<event>
 5    0  0.5749909E-005  0.2382796E+03  0.7546771E-02  0.1120944E+00
         21   -1    0    0  502  501  0.00000000000E+00  0.00000000000E+00  0.43111652303E+03  0.43111652303E+03  0.00000000000E+00 0.  1.
         21   -1    0    0  501  502 -0.00000000000E+00 -0.00000000000E+00 -0.13169794080E+03  0.13169794080E+03  0.00000000000E+00 0.  1.
         25    1    1    2    0    0 -0.28370479673E+02 -0.57483207353E+02  0.14269038164E+03  0.20023673054E+03  0.12500000000E+03 0.  0.
         25    1    1    2    0    0  0.35156764234E+02  0.12302288626E+03  0.12366101110E+03  0.21745729300E+03  0.12500000000E+03 0.  0.
         25    1    1    2    0    0 -0.67862845605E+01 -0.65539678906E+02  0.33067189501E+02  0.14512044029E+03  0.12500000000E+03 0.  0.
</event>
<event>
 5    0  0.5749909E-005  0.2399403E+03  0.7546771E-02  0.1119833E+00
         21   -1    0    0  502  501  0.00000000000E+00  0.00000000000E+00  0.33036561770E+02  0.33036561770E+02  0.00000000000E+00 0. -1.
         21   -1    0    0  501  502 -0.00000000000E+00 -0.00000000000E+00 -0.17426548935E+04  0.17426548935E+04  0.00000000000E+00 0. -1.
         25    1    1    2    0    0 -0.17888965222E+02  0.71773691662E+00 -0.91531520167E+03  0.92398455000E+03  0.12500000000E+03 0.  0.
         25    1    1    2    0    0  0.34378584600E+02 -0.54410323042E+02 -0.21853971812E+03  0.25985953654E+03  0.12500000000E+03 0.  0.
         25    1    1    2    0    0 -0.16489619377E+02  0.53692586126E+02 -0.57576341189E+03  0.59184736869E+03  0.12500000000E+03 0.  0.
</event>
<event>
 5    0  0.5749909E-005  0.4091726E+03  0.7546771E-02  0.1040649E+00
         21   -1    0    0  502  501  0.00000000000E+00  0.00000000000E+00  0.41959764571E+03  0.41959764571E+03  0.00000000000E+00 0. -1.
         21   -1    0    0  501  502 -0.00000000000E+00 -0.00000000000E+00 -0.39900653652E+03  0.39900653652E+03  0.00000000000E+00 0. -1.
         25    1    1    2    0    0 -0.14418286804E+03  0.10454425641E+03 -0.47215528098E+02  0.22264884253E+03  0.12500000000E+03 0.  0.
         25    1    1    2    0    0 -0.20288358047E+02 -0.16188426117E+03  0.24358842976E+03  0.31871375025E+03  0.12500000000E+03 0.  0.
         25    1    1    2    0    0  0.16447122609E+03  0.57340004757E+02 -0.17578179248E+03  0.27724158945E+03  0.12500000000E+03 0.  0.
</event>
<event>
 5    0  0.5749909E-005  0.3101012E+03  0.7546771E-02  0.1080297E+00
         21   -1    0    0  502  501  0.00000000000E+00  0.00000000000E+00  0.95790636241E+03  0.95790636241E+03  0.00000000000E+00 0. -1.
         21   -1    0    0  501  502 -0.00000000000E+00 -0.00000000000E+00 -0.10038849770E+03  0.10038849770E+03  0.00000000000E+00 0. -1.
         25    1    1    2    0    0 -0.54104842082E+02 -0.11844603030E+03  0.94266674816E+02  0.20363693676E+03  0.12500000000E+03 0.  0.
         25    1    1    2    0    0  0.69356922525E+02 -0.12349735154E+02  0.12245079794E+03  0.18863217270E+03  0.12500000000E+03 0.  0.
         25    1    1    2    0    0 -0.15252080443E+02  0.13079576546E+03  0.64080039196E+03  0.66602575067E+03  0.12500000000E+03 0.  0.
</event>
<event>
 5    0  0.5749909E-005  0.3255755E+03  0.7546771E-02  0.1073112E+00
         21   -1    0    0  502  501  0.00000000000E+00  0.00000000000E+00  0.80327223023E+02  0.80327223023E+02  0.00000000000E+00 0. -1.
         21   -1    0    0  501  502 -0.00000000000E+00 -0.00000000000E+00 -0.13195949089E+04  0.13195949089E+04  0.00000000000E+00 0. -1.
         25    1    1    2    0    0  0.38783256916E+02 -0.11180836513E+03 -0.46101677231E+03  0.49210437499E+03  0.12500000000E+03 0.  0.
         25    1    1    2    0    0  0.16475053483E+03  0.61085481847E+02 -0.28448908646E+03  0.35697789166E+03  0.12500000000E+03 0.  0.
         25    1    1    2    0    0 -0.20353379174E+03  0.50722883286E+02 -0.49376182712E+03  0.55083986529E+03  0.12500000000E+03 0.  0.
</event>
<event>
 5    0  0.5749909E-005  0.3835853E+03  0.7546771E-02  0.1049617E+00
         21   -1    0    0  502  501  0.00000000000E+00  0.00000000000E+00  0.43207165170E+03  0.43207165170E+03  0.00000000000E+00 0. -1.
         21   -1    0    0  501  502 -0.00000000000E+00 -0.00000000000E+00 -0.34053994387E+03  0.34053994387E+03  0.00000000000E+00 0. -1.
         25    1    1    2    0    0  0.15187237224E+03 -0.77104244563E+01  0.12127684721E+03  0.23120930293E+03  0.12500000000E+03 0.  0.
         25    1    1    2    0    0  0.35311344090E+02 -0.11403074653E+03  0.14986143378E+03  0.22876483889E+03  0.12500000000E+03 0.  0.
         25    1    1    2    0    0 -0.18718371633E+03  0.12174117098E+03 -0.17960657316E+03  0.31263745376E+03  0.12500000000E+03 0.  0.
</event>
<event>
 5    0  0.5749909E-005  0.3004175E+03  0.7546771E-02  0.1085032E+00
         21   -1    0    0  502  501  0.00000000000E+00  0.00000000000E+00  0.10638746701E+04  0.10638746701E+04  0.00000000000E+00 0. -1.
         21   -1    0    0  501  502 -0.00000000000E+00 -0.00000000000E+00 -0.84832047272E+02  0.84832047272E+02  0.00000000000E+00 0. -1.
         25    1    1    2    0    0  0.88200933294E+02 -0.68102670365E+02  0.28978786162E+03  0.33469296838E+03  0.12500000000E+03 0.  0.
         25    1    1    2    0    0 -0.88115318325E+02  0.15735269161E+03  0.18539412461E+03  0.28726322480E+03  0.12500000000E+03 0.  0.
         25    1    1    2    0    0 -0.85614969474E-01 -0.89250021245E+02  0.50386063660E+03  0.52675052419E+03  0.12500000000E+03 0.  0.
</event>
<event>
 5    0  0.5749909E-005  0.2535868E+03  0.7546771E-02  0.1111059E+00
         21   -1    0    0  502  501  0.00000000000E+00  0.00000000000E+00  0.25671068499E+03  0.25671068499E+03  0.00000000000E+00 0. -1.
         21   -1    0    0  501  502 -0.00000000000E+00 -0.00000000000E+00 -0.25050089512E+03  0.25050089512E+03  0.00000000000E+00 0. -1.
         25    1    1    2    0    0 -0.24944600512E+02  0.39634803053E+02 -0.26842747147E+02  0.13615683524E+03  0.12500000000E+03 0.  0.
         25    1    1    2    0    0 -0.45998707447E+02  0.49118203596E+02 -0.84543022726E+02  0.16523014768E+03  0.12500000000E+03 0.  0.
         25    1    1    2    0    0  0.70943307959E+02 -0.88753006649E+02  0.11759555975E+03  0.20582459718E+03  0.12500000000E+03 0.  0.
</event>
<event>
 5    0  0.5749909E-005  0.4035952E+03  0.7546771E-02  0.1042542E+00
         21   -1    0    0  502  501  0.00000000000E+00  0.00000000000E+00  0.35801280952E+03  0.35801280952E+03  0.00000000000E+00 0. -1.
         21   -1    0    0  501  502 -0.00000000000E+00 -0.00000000000E+00 -0.45498114903E+03  0.45498114903E+03  0.00000000000E+00 0. -1.
         25    1    1    2    0    0 -0.20994931677E+03 -0.17084091413E+03  0.78517133404E+02  0.30831035304E+03  0.12500000000E+03 0.  0.
         25    1    1    2    0    0  0.11349651632E+03  0.24533232177E+03 -0.12470550965E+03  0.32287129240E+03  0.12500000000E+03 0.  0.
         25    1    1    2    0    0  0.96452800454E+02 -0.74491407637E+02 -0.50779963268E+02  0.18181231311E+03  0.12500000000E+03 0.  0.
</event>
<event>
 5    0  0.5749909E-005  0.2651221E+03  0.7546771E-02  0.1104104E+00
         21   -1    0    0  502  501  0.00000000000E+00  0.00000000000E+00  0.39687885794E+03  0.39687885794E+03  0.00000000000E+00 0.  1.
         21   -1    0    0  501  502 -0.00000000000E+00 -0.00000000000E+00 -0.17710625444E+03  0.17710625444E+03  0.00000000000E+00 0.  1.
         25    1    1    2    0    0  0.89420074538E+01 -0.94057385741E+01  0.19614217025E+03  0.23294887500E+03  0.12500000000E+03 0.  0.
         25    1    1    2    0    0  0.15584818595E+02  0.10720766666E+03  0.60729783895E+02  0.17620861788E+03  0.12500000000E+03 0.  0.
         25    1    1    2    0    0 -0.24526826049E+02 -0.97801928087E+02 -0.37099350641E+02  0.16482761950E+03  0.12500000000E+03 0.  0.
</event>
<event>
 5    0  0.5749909E-005  0.3041786E+03  0.7546771E-02  0.1083170E+00
         21   -1    0    0  502  501  0.00000000000E+00  0.00000000000E+00  0.10236455978E+04  0.10236455978E+04  0.00000000000E+00 0.  1.
         21   -1    0    0  501  502 -0.00000000000E+00 -0.00000000000E+00 -0.90387345533E+02  0.90387345533E+02  0.00000000000E+00 0.  1.
         25    1    1    2    0    0  0.11198733413E+03 -0.52204295730E+02  0.56258586518E+03  0.58940165184E+03  0.12500000000E+03 0.  0.
         25    1    1    2    0    0 -0.14695438931E+03 -0.55834421646E-01  0.32407122327E+03  0.37715083641E+03  0.12500000000E+03 0.  0.
         25    1    1    2    0    0  0.34967055181E+02  0.52260130152E+02  0.46601163776E+02  0.14748045503E+03  0.12500000000E+03 0.  0.
</event>
<event>
 5    0  0.5749909E-005  0.2154593E+03  0.7546771E-02  0.1137314E+00
         21   -1    0    0  502  501  0.00000000000E+00  0.00000000000E+00  0.80910386086E+03  0.80910386086E+03  0.00000000000E+00 0. -1.
         21   -1    0    0  501  502 -0.00000000000E+00 -0.00000000000E+00 -0.57375477396E+02  0.57375477396E+02  0.00000000000E+00 0. -1.
         25    1    1    2    0    0 -0.29735425364E+02  0.10787032551E+02  0.16367078610E+03  0.20835950138E+03  0.12500000000E+03 0.  0.
         25    1    1    2    0    0  0.74008543080E+02  0.24062859700E+01  0.41500949212E+03  0.43970550737E+03  0.12500000000E+03 0.  0.
         25    1    1    2    0    0 -0.44273117716E+02 -0.13193318521E+02  0.17304810525E+03  0.21841432951E+03  0.12500000000E+03 0.  0.
</event>
<event>
 5    0  0.5749909E-005  0.2500167E+03  0.7546771E-02  0.1113294E+00
         21   -1    0    0  502  501  0.00000000000E+00  0.00000000000E+00  0.17670707033E+03  0.17670707033E+03  0.00000000000E+00 0. -1.
         21   -1    0    0  501  502 -0.00000000000E+00 -0.00000000000E+00 -0.35374009004E+03  0.35374009004E+03  0.00000000000E+00 0. -1.
         25    1    1    2    0    0  0.62638548727E+02 -0.33962106505E+01 -0.16965627959E+02  0.14088276887E+03  0.12500000000E+03 0.  0.
         25    1    1    2    0    0  0.62108347015E+02  0.74124129389E+02 -0.34909489914E+02  0.16185025738E+03  0.12500000000E+03 0.  0.
         25    1    1    2    0    0 -0.12474689574E+03 -0.70727918739E+02 -0.12515790184E+03  0.22771413412E+03  0.12500000000E+03 0.  0.
</event>
<event>
 5    0  0.5749909E-005  0.4069168E+03  0.7546771E-02  0.1041411E+00
         21   -1    0    0  502  501  0.00000000000E+00  0.00000000000E+00  0.13866110731E+04  0.13866110731E+04  0.00000000000E+00 0. -1.
         21   -1    0    0  501  502 -0.00000000000E+00 -0.00000000000E+00 -0.11941437331E+03  0.11941437331E+03  0.00000000000E+00 0. -1.
         25    1    1    2    0    0 -0.11205425340E+03  0.66578243633E+02  0.49645316289E+03  0.52827981333E+03  0.12500000000E+03 0.  0.
         25    1    1    2    0    0 -0.15241892051E+03  0.10943377250E+03  0.47609330930E+03  0.52677995126E+03  0.12500000000E+03 0.  0.
         25    1    1    2    0    0  0.26447317391E+03 -0.17601201614E+03  0.29465022758E+03  0.45096568179E+03  0.12500000000E+03 0.  0.
</event>
<event>
 5    0  0.5749909E-005  0.5085300E+03  0.7546771E-02  0.1011576E+00
         21   -1    0    0  502  501  0.00000000000E+00  0.00000000000E+00  0.94898179872E+03  0.94898179872E+03  0.00000000000E+00 0.  1.
         21   -1    0    0  501  502 -0.00000000000E+00 -0.00000000000E+00 -0.27250551690E+03  0.27250551690E+03  0.00000000000E+00 0.  1.
         25    1    1    2    0    0 -0.20535262481E+02  0.44417739741E+02  0.77461443504E+02  0.15498357280E+03  0.12500000000E+03 0.  0.
         25    1    1    2    0    0 -0.22818585328E+03 -0.26835776204E+03  0.55708977273E+01  0.37381908323E+03  0.12500000000E+03 0.  0.
         25    1    1    2    0    0  0.24872111576E+03  0.22394002230E+03  0.59344394059E+03  0.69268465959E+03  0.12500000000E+03 0.  0.
</event>
<event>
 5    0  0.5749909E-005  0.3927484E+03  0.7546771E-02  0.1046320E+00
         21   -1    0    0  502  501  0.00000000000E+00  0.00000000000E+00  0.13111971698E+03  0.13111971698E+03  0.00000000000E+00 0.  1.
         21   -1    0    0  501  502 -0.00000000000E+00 -0.00000000000E+00 -0.11764159631E+04  0.11764159631E+04  0.00000000000E+00 0.  1.
         25    1    1    2    0    0  0.14342661116E+03  0.27503691270E+02 -0.55852712078E+02  0.20018034686E+03  0.12500000000E+03 0.  0.
         25    1    1    2    0    0  0.34863917080E+02  0.16255422875E+03 -0.42984000477E+03  0.47752151753E+03  0.12500000000E+03 0.  0.
         25    1    1    2    0    0 -0.17829052824E+03 -0.19005792002E+03 -0.55960352927E+03  0.62983381569E+03  0.12500000000E+03 0.  0.
</event>
<event>
 5    0  0.5749909E-005  0.2756110E+03  0.7546771E-02  0.1098111E+00
         21   -1    0    0  502  501  0.00000000000E+00  0.00000000000E+00  0.17922055334E+04  0.17922055334E+04  0.00000000000E+00 0. -1.
         21   -1    0    0  501  502 -0.00000000000E+00 -0.00000000000E+00 -0.42384312404E+02  0.42384312404E+02  0.00000000000E+00 0. -1.
         25    1    1    2    0    0  0.37405879518E+02  0.28642527018E+01  0.92564042607E+03  0.93479548680E+03  0.12500000000E+03 0.  0.
         25    1    1    2    0    0 -0.47208011795E+01  0.45371212535E+02  0.11065242510E+03  0.17306008226E+03  0.12500000000E+03 0.  0.
         25    1    1    2    0    0 -0.32685078339E+02 -0.48235465236E+02  0.71352836984E+03  0.72673427676E+03  0.12500000000E+03 0.  0.
</event>
<event>
 5    0  0.6159181E-005  0.3462605E+03  0.7546771E-02  0.1064160E+00
         21   -1    0    0  502  501  0.00000000000E+00  0.00000000000E+00  0.25149204655E+03  0.25149204655E+03  0.00000000000E+00 0.  1.
         21   -1    0    0  501  502 -0.00000000000E+00 -0.00000000000E+00 -0.47673998898E+03  0.47673998898E+03  0.00000000000E+00 0.  1.
         25    1    1    2    0    0  0.13804144372E+03 -0.10860640791E+03  0.13725585053E+02  0.21601894294E+03  0.12500000000E+03 0.  0.
         25    1    1    2    0    0 -0.93075462209E+02 -0.11372764214E+03 -0.84280011098E+02  0.21053536169E+03  0.12500000000E+03 0.  0.
         25    1    1    2    0    0 -0.44965981509E+02  0.22233405005E+03 -0.15469351639E+03  0.30167773089E+03  0.12500000000E+03 0.  0.
</event>
<event>
 5    0  0.5749909E-005  0.3065463E+03  0.7546771E-02  0.1082013E+00
         21   -1    0    0  502  501  0.00000000000E+00  0.00000000000E+00  0.15948589180E+04  0.15948589180E+04  0.00000000000E+00 0. -1.
         21   -1    0    0  501  502 -0.00000000000E+00 -0.00000000000E+00 -0.58920955491E+02  0.58920955491E+02  0.00000000000E+00 0. -1.
         25    1    1    2    0    0 -0.74043649364E+02 -0.18864863475E+02  0.19919441458E+03  0.24726859867E+03  0.12500000000E+03 0.  0.
         25    1    1    2    0    0  0.20782038659E+03  0.20775789099E+02  0.60312476276E+03  0.65038867299E+03  0.12500000000E+03 0.  0.
         25    1    1    2    0    0 -0.13377673723E+03 -0.19109256242E+01  0.73361878514E+03  0.75612260181E+03  0.12500000000E+03 0.  0.
</event>
<event>
 5    0  0.5749909E-005  0.5285861E+03  0.7546771E-02  0.1006576E+00
         21   -1    0    0  502  501  0.00000000000E+00  0.00000000000E+00  0.18173752626E+03  0.18173752626E+03  0.00000000000E+00 0. -1.
         21   -1    0    0  501  502 -0.00000000000E+00 -0.00000000000E+00 -0.15373998653E+04  0.15373998653E+04  0.00000000000E+00 0. -1.
         25    1    1    2    0    0 -0.15146515067E+03  0.69404175990E+02  0.77317528350E+02  0.22217477738E+03  0.12500000000E+03 0.  0.
         25    1    1    2    0    0  0.17921552925E+03 -0.38786007953E+02 -0.12609895931E+04  0.12803680386E+04  0.12500000000E+03 0.  0.
         25    1    1    2    0    0 -0.27750378580E+02 -0.30618168036E+02 -0.17199027425E+03  0.21659457556E+03  0.12500000000E+03 0.  0.
</event>
<event>
 5    0  0.5749909E-005  0.2929239E+03  0.7546771E-02  0.1088832E+00
         21   -1    0    0  502  501  0.00000000000E+00  0.00000000000E+00  0.25566187784E+03  0.25566187784E+03  0.00000000000E+00 0. -1.
         21   -1    0    0  501  502 -0.00000000000E+00 -0.00000000000E+00 -0.33561668135E+03  0.33561668135E+03  0.00000000000E+00 0. -1.
         25    1    1    2    0    0 -0.27356944258E+02  0.46756084231E+02  0.24104931880E+02  0.13834949061E+03  0.12500000000E+03 0.  0.
         25    1    1    2    0    0 -0.11932570142E+03  0.95444269471E+02 -0.17209593284E+02  0.19816508698E+03  0.12500000000E+03 0.  0.
         25    1    1    2    0    0  0.14668264568E+03 -0.14220035370E+03 -0.86850142100E+02  0.25476398160E+03  0.12500000000E+03 0.  0.
</event>
<event>
 5    0  0.5749909E-005  0.2624485E+03  0.7546771E-02  0.1105681E+00
         21   -1    0    0  502  501  0.00000000000E+00  0.00000000000E+00  0.42129150767E+02  0.42129150767E+02  0.00000000000E+00 0.  1.
         21   -1    0    0  501  502 -0.00000000000E+00 -0.00000000000E+00 -0.16349540546E+04  0.16349540546E+04  0.00000000000E+00 0.  1.
         25    1    1    2    0    0  0.12692267632E+03  0.69879738433E+02 -0.35849692354E+03  0.40637124381E+03  0.12500000000E+03 0.  0.
         25    1    1    2    0    0 -0.30766407196E+02 -0.62104084152E+02 -0.53318922474E+03  0.55201380278E+03  0.12500000000E+03 0.  0.
         25    1    1    2    0    0 -0.96156269123E+02 -0.77756542807E+01 -0.70113875552E+03  0.71869815874E+03  0.12500000000E+03 0.  0.
</event>
<event>
 5    0  0.5749909E-005  0.2445264E+03  0.7546771E-02  0.1116814E+00
         21   -1    0    0  502  501  0.00000000000E+00  0.00000000000E+00  0.54583505047E+03  0.54583505047E+03  0.00000000000E+00 0.  1.
         21   -1    0    0  501  502 -0.00000000000E+00 -0.00000000000E+00 -0.10954434224E+03  0.10954434224E+03  0.00000000000E+00 0.  1.
         25    1    1    2    0    0 -0.90631250972E+02 -0.62147352058E+02  0.16458399251E+03  0.23407094568E+03  0.12500000000E+03 0.  0.
         25    1    1    2    0    0 -0.10887923792E+02  0.42408585601E+02  0.39820067875E+02  0.13830283013E+03  0.12500000000E+03 0.  0.
         25    1    1    2    0    0  0.10151917476E+03  0.19738766457E+02  0.23188664784E+03  0.28300561689E+03  0.12500000000E+03 0.  0.
</event>
<event>
 5    0  0.5749909E-005  0.3717273E+03  0.7546771E-02  0.1054034E+00
         21   -1    0    0  502  501  0.00000000000E+00  0.00000000000E+00  0.17560325723E+03  0.17560325723E+03  0.00000000000E+00 0.  1.
         21   -1    0    0  501  502 -0.00000000000E+00 -0.00000000000E+00 -0.78689412445E+03  0.78689412445E+03  0.00000000000E+00 0.  1.
         25    1    1    2    0    0  0.21386102723E+03  0.12030953147E+03 -0.15531189473E+03  0.31616088780E+03  0.12500000000E+03 0.  0.
         25    1    1    2    0    0 -0.19857450390E+02  0.24020133291E+02 -0.31385422826E+03  0.33926503171E+03  0.12500000000E+03 0.  0.
         25    1    1    2    0    0 -0.19400357684E+03 -0.14432966476E+03 -0.14212474423E+03  0.30707146217E+03  0.12500000000E+03 0.  0.
</event>
<event>
 5    0  0.6703841E-005  0.2839207E+03  0.7546771E-02  0.1093567E+00
         21   -1    0    0  502  501  0.00000000000E+00  0.00000000000E+00  0.28558050733E+03  0.28558050733E+03  0.00000000000E+00 0.  1.
         21   -1    0    0  501  502 -0.00000000000E+00 -0.00000000000E+00 -0.28227061930E+03  0.28227061930E+03  0.00000000000E+00 0.  1.
         25    1    1    2    0    0  0.41321626266E+01 -0.56200368047E+02  0.91732495883E+02  0.16497092755E+03  0.12500000000E+03 0.  0.
         25    1    1    2    0    0  0.11619038943E+02  0.18672326351E+02 -0.19566666159E+03  0.23322542806E+03  0.12500000000E+03 0.  0.
         25    1    1    2    0    0 -0.15751201570E+02  0.37528041696E+02  0.10724405374E+03  0.16965477101E+03  0.12500000000E+03 0.  0.
</event>
<event>
 5    0  0.7823722E-005  0.7044245E+03  0.7546771E-02  0.9709696E-01
         21   -1    0    0  502  501  0.00000000000E+00  0.00000000000E+00  0.29628666478E+03  0.29628666478E+03  0.00000000000E+00 0. -1.
         21   -1    0    0  501  502 -0.00000000000E+00 -0.00000000000E+00 -0.16747760541E+04  0.16747760541E+04  0.00000000000E+00 0. -1.
         25    1    1    2    0    0  0.25199871035E+03  0.27858208601E+03 -0.36917156523E+02  0.39761690747E+03  0.12500000000E+03 0.  0.
         25    1    1    2    0    0  0.58888545820E+02 -0.32362745006E+03 -0.11079536121E+04  0.11624924919E+04  0.12500000000E+03 0.  0.
         25    1    1    2    0    0 -0.31088725617E+03  0.45045364055E+02 -0.23361862078E+03  0.41095331955E+03  0.12500000000E+03 0.  0.
</event>
<event>
 5    0  0.5749909E-005  0.3887516E+03  0.7546771E-02  0.1047746E+00
         21   -1    0    0  502  501  0.00000000000E+00  0.00000000000E+00  0.83821126445E+03  0.83821126445E+03  0.00000000000E+00 0. -1.
         21   -1    0    0  501  502 -0.00000000000E+00 -0.00000000000E+00 -0.18029802241E+03  0.18029802241E+03  0.00000000000E+00 0. -1.
         25    1    1    2    0    0  0.28587054742E+03  0.12395620493E+00  0.16019910385E+03  0.35072886697E+03  0.12500000000E+03 0.  0.
         25    1    1    2    0    0 -0.15535990067E+03 -0.11248999029E+03  0.29935232010E+03  0.37686537145E+03  0.12500000000E+03 0.  0.
         25    1    1    2    0    0 -0.13051064676E+03  0.11236603408E+03  0.19836181809E+03  0.29091504844E+03  0.12500000000E+03 0.  0.
</event>
<event>
 5    0  0.5749909E-005  0.3383549E+03  0.7546771E-02  0.1067499E+00
         21   -1    0    0  502  501  0.00000000000E+00  0.00000000000E+00  0.20029279400E+03  0.20029279400E+03  0.00000000000E+00 0.  1.
         21   -1    0    0  501  502 -0.00000000000E+00 -0.00000000000E+00 -0.57158346858E+03  0.57158346858E+03  0.00000000000E+00 0.  1.
         25    1    1    2    0    0  0.60864237555E+02  0.66791391772E+02  0.81756807295E+01  0.15445836715E+03  0.12500000000E+03 0.  0.
         25    1    1    2    0    0 -0.10193492854E+03  0.31643297632E+02  0.38062512211E+02  0.16871805706E+03  0.12500000000E+03 0.  0.
         25    1    1    2    0    0  0.41070690984E+02 -0.98434689404E+02 -0.41752886752E+03  0.44869983836E+03  0.12500000000E+03 0.  0.
</event>
<event>
 5    0  0.5749909E-005  0.2721790E+03  0.7546771E-02  0.1100039E+00
         21   -1    0    0  502  501  0.00000000000E+00  0.00000000000E+00  0.51935422172E+03  0.51935422172E+03  0.00000000000E+00 0.  1.
         21   -1    0    0  501  502 -0.00000000000E+00 -0.00000000000E+00 -0.14264135832E+03  0.14264135832E+03  0.00000000000E+00 0.  1.
         25    1    1    2    0    0 -0.21434102448E+02 -0.49992243402E+01  0.48957564134E+02  0.13603770094E+03  0.12500000000E+03 0.  0.
         25    1    1    2    0    0 -0.20618299977E+02 -0.10319396607E+03  0.80584381797E+01  0.16359721071E+03  0.12500000000E+03 0.  0.
         25    1    1    2    0    0  0.42052402425E+02  0.10819319041E+03  0.31969686108E+03  0.36236066838E+03  0.12500000000E+03 0.  0.
</event>
<event>
 5    0  0.5749909E-005  0.2530621E+03  0.7546771E-02  0.1111385E+00
         21   -1    0    0  502  501  0.00000000000E+00  0.00000000000E+00  0.16187353163E+03  0.16187353163E+03  0.00000000000E+00 0.  1.
         21   -1    0    0  501  502 -0.00000000000E+00 -0.00000000000E+00 -0.39562019067E+03  0.39562019067E+03  0.00000000000E+00 0.  1.
         25    1    1    2    0    0  0.90720258315E+02 -0.44683396842E+02 -0.84870851262E+02  0.18180988041E+03  0.12500000000E+03 0.  0.
         25    1    1    2    0    0  0.59040606622E+02  0.56676927774E+02 -0.68428534937E+02  0.16433359902E+03  0.12500000000E+03 0.  0.
         25    1    1    2    0    0 -0.14976086494E+03 -0.11993530931E+02 -0.80447272843E+02  0.21135024286E+03  0.12500000000E+03 0.  0.
</event>
<event>
 5    0  0.6917129E-005  0.2913831E+03  0.7546771E-02  0.1089629E+00
         21   -1    0    0  502  501  0.00000000000E+00  0.00000000000E+00  0.59339705149E+03  0.59339705149E+03  0.00000000000E+00 0.  1.
         21   -1    0    0  501  502 -0.00000000000E+00 -0.00000000000E+00 -0.14308149373E+03  0.14308149373E+03  0.00000000000E+00 0.  1.
         25    1    1    2    0    0  0.47698240619E+02 -0.55800194702E+02  0.20654537917E+03  0.25233861683E+03  0.12500000000E+03 0.  0.
         25    1    1    2    0    0  0.25440791141E+02  0.90645780189E+02  0.28884414573E+03  0.32851153989E+03  0.12500000000E+03 0.  0.
         25    1    1    2    0    0 -0.73139031760E+02 -0.34845585488E+02 -0.45073967130E+02  0.15562838850E+03  0.12500000000E+03 0.  0.
</event>
<event>
 5    0  0.5749909E-005  0.2817885E+03  0.7546771E-02  0.1094716E+00
         21   -1    0    0  502  501  0.00000000000E+00  0.00000000000E+00  0.34936042900E+03  0.34936042900E+03  0.00000000000E+00 0. -1.
         21   -1    0    0  501  502 -0.00000000000E+00 -0.00000000000E+00 -0.22728605346E+03  0.22728605346E+03  0.00000000000E+00 0. -1.
         25    1    1    2    0    0 -0.12987333445E+03 -0.74344602777E+02  0.70231478404E+02  0.20724783117E+03  0.12500000000E+03 0.  0.
         25    1    1    2    0    0  0.19259025534E+01  0.11350957295E+03  0.75121513732E+02  0.18481443146E+03  0.12500000000E+03 0.  0.
         25    1    1    2    0    0  0.12794743190E+03 -0.39164970174E+02 -0.23278616591E+02  0.18458421983E+03  0.12500000000E+03 0.  0.
</event>
<event>
 5    0  0.5749909E-005  0.2798970E+03  0.7546771E-02  0.1095745E+00
         21   -1    0    0  502  501  0.00000000000E+00  0.00000000000E+00  0.52362272922E+03  0.52362272922E+03  0.00000000000E+00 0.  1.
         21   -1    0    0  501  502 -0.00000000000E+00 -0.00000000000E+00 -0.14961594281E+03  0.14961594281E+03  0.00000000000E+00 0.  1.
         25    1    1    2    0    0 -0.11476941814E+03  0.58205098128E+02  0.12774583195E+02  0.17985561644E+03  0.12500000000E+03 0.  0.
         25    1    1    2    0    0 -0.29849170019E+01 -0.98761782287E+02  0.16148672077E+03  0.22686066286E+03  0.12500000000E+03 0.  0.
         25    1    1    2    0    0  0.11775433514E+03  0.40556684158E+02  0.19974548245E+03  0.26652239274E+03  0.12500000000E+03 0.  0.
</event>
<event>
 5    0  0.5749909E-005  0.2932862E+03  0.7546771E-02  0.1088646E+00
         21   -1    0    0  502  501  0.00000000000E+00  0.00000000000E+00  0.15302547628E+04  0.15302547628E+04  0.00000000000E+00 0.  1.
         21   -1    0    0  501  502 -0.00000000000E+00 -0.00000000000E+00 -0.56210754253E+02  0.56210754253E+02  0.00000000000E+00 0.  1.
         25    1    1    2    0    0 -0.94241832296E+02 -0.62253572351E+02  0.74538175302E+03  0.76418321622E+03  0.12500000000E+03 0.  0.
         25    1    1    2    0    0  0.74009678037E+01 -0.55470241775E+02  0.52302438058E+03  0.54065814035E+03  0.12500000000E+03 0.  0.
         25    1    1    2    0    0  0.86840864493E+02  0.11772381413E+03  0.20563787499E+03  0.28162416052E+03  0.12500000000E+03 0.  0.
</event>
<event>
 5    0  0.5749909E-005  0.4043608E+03  0.7546771E-02  0.1042280E+00
         21   -1    0    0  502  501  0.00000000000E+00  0.00000000000E+00  0.92536367704E+03  0.92536367704E+03  0.00000000000E+00 0.  1.
         21   -1    0    0  501  502 -0.00000000000E+00 -0.00000000000E+00 -0.17669556279E+03  0.17669556279E+03  0.00000000000E+00 0.  1.
         25    1    1    2    0    0 -0.16482184269E+02 -0.29952014152E+03  0.17434622666E+03  0.36878934953E+03  0.12500000000E+03 0.  0.
         25    1    1    2    0    0  0.81989394035E+02  0.52556471594E+02  0.29358806502E+03  0.33362163504E+03  0.12500000000E+03 0.  0.
         25    1    1    2    0    0 -0.65507209765E+02  0.24696366993E+03  0.28073382257E+03  0.39964825526E+03  0.12500000000E+03 0.  0.
</event>
<event>
 5    0  0.5749909E-005  0.4387541E+03  0.7546771E-02  0.1031130E+00
         21   -1    0    0  502  501  0.00000000000E+00  0.00000000000E+00  0.92320919342E+02  0.92320919342E+02  0.00000000000E+00 0.  1.
         21   -1    0    0  501  502 -0.00000000000E+00 -0.00000000000E+00 -0.20851741856E+04  0.20851741856E+04  0.00000000000E+00 0.  1.
         25    1    1    2    0    0  0.24781633150E+03 -0.18910626950E+03 -0.50241400597E+03  0.60433347476E+03  0.12500000000E+03 0.  0.
         25    1    1    2    0    0 -0.20108895434E+02  0.19620333667E+03 -0.86318310712E+03  0.89420925595E+03  0.12500000000E+03 0.  0.
         25    1    1    2    0    0 -0.22770743606E+03 -0.70970671750E+01 -0.62725615319E+03  0.67895237427E+03  0.12500000000E+03 0.  0.
</event>
<event>
 5    0  0.5749909E-005  0.3336963E+03  0.7546771E-02  0.1069513E+00
         21   -1    0    0  502  501  0.00000000000E+00  0.00000000000E+00  0.35117278692E+04  0.35117278692E+04  0.00000000000E+00 0.  1.
         21   -1    0    0  501  502 -0.00000000000E+00 -0.00000000000E+00 -0.31708962632E+02  0.31708962632E+02  0.00000000000E+00 0.  1.
         25    1    1    2    0    0  0.18026151544E+02  0.10357117053E+00  0.22230846564E+03  0.25567754450E+03  0.12500000000E+03 0.  0.
         25    1    1    2    0    0 -0.22088658757E+02  0.10283968242E+03  0.27497003335E+04  0.27545491161E+04  0.12500000000E+03 0.  0.
         25    1    1    2    0    0  0.40625072126E+01 -0.10294325359E+03  0.50801010744E+03  0.53321017121E+03  0.12500000000E+03 0.  0.
</event>
<event>
 5    0  0.5749909E-005  0.4773512E+03  0.7546771E-02  0.1019866E+00
         21   -1    0    0  502  501  0.00000000000E+00  0.00000000000E+00  0.12141288037E+04  0.12141288037E+04  0.00000000000E+00 0. -1.
         21   -1    0    0  501  502 -0.00000000000E+00 -0.00000000000E+00 -0.18767705769E+03  0.18767705769E+03  0.00000000000E+00 0. -1.
         25    1    1    2    0    0 -0.24242479091E+03 -0.49419488534E+02  0.16669437058E+03  0.32345645499E+03  0.12500000000E+03 0.  0.
         25    1    1    2    0    0  0.38398779642E+03  0.15234972671E+03  0.62964725467E+03  0.76337260387E+03  0.12500000000E+03 0.  0.
         25    1    1    2    0    0 -0.14156300551E+03 -0.10293023817E+03  0.23011012076E+03  0.31497680253E+03  0.12500000000E+03 0.  0.
</event>
<event>
 5    0  0.5749909E-005  0.2639218E+03  0.7546771E-02  0.1104810E+00
         21   -1    0    0  502  501  0.00000000000E+00  0.00000000000E+00  0.14742993590E+04  0.14742993590E+04  0.00000000000E+00 0.  1.
         21   -1    0    0  501  502 -0.00000000000E+00 -0.00000000000E+00 -0.47245993031E+02  0.47245993031E+02  0.00000000000E+00 0.  1.
         25    1    1    2    0    0 -0.31441334710E+01  0.51453054902E+02  0.71740113088E+03  0.73003197534E+03  0.12500000000E+03 0.  0.
         25    1    1    2    0    0 -0.97559981081E+02 -0.74865671454E+02  0.47426656447E+03  0.50564472987E+03  0.12500000000E+03 0.  0.
         25    1    1    2    0    0  0.10070411455E+03  0.23412616552E+02  0.23538567062E+03  0.28586864682E+03  0.12500000000E+03 0.  0.
</event>
<event>
 5    0  0.5749909E-005  0.4244760E+03  0.7546771E-02  0.1035619E+00
         21   -1    0    0  502  501  0.00000000000E+00  0.00000000000E+00  0.51878295668E+03  0.51878295668E+03  0.00000000000E+00 0.  1.
         21   -1    0    0  501  502 -0.00000000000E+00 -0.00000000000E+00 -0.34731264834E+03  0.34731264834E+03  0.00000000000E+00 0.  1.
         25    1    1    2    0    0 -0.21197488143E+03 -0.99993359627E+01 -0.21923771442E+03  0.32973248627E+03  0.12500000000E+03 0.  0.
         25    1    1    2    0    0  0.41644378269E+02 -0.55123662503E+02  0.19054575424E+03  0.23812928604E+03  0.12500000000E+03 0.  0.
         25    1    1    2    0    0  0.17033050316E+03  0.65122998466E+02  0.20016226853E+03  0.29823383272E+03  0.12500000000E+03 0.  0.
</event>
<event>
 5    0  0.5749909E-005  0.4344157E+03  0.7546771E-02  0.1032474E+00
         21   -1    0    0  502  501  0.00000000000E+00  0.00000000000E+00  0.90311621385E+03  0.90311621385E+03  0.00000000000E+00 0. -1.
         21   -1    0    0  501  502 -0.00000000000E+00 -0.00000000000E+00 -0.20896205762E+03  0.20896205762E+03  0.00000000000E+00 0. -1.
         25    1    1    2    0    0 -0.18225810178E+02  0.20242920500E+03  0.50111254428E+03  0.55502121152E+03  0.12500000000E+03 0.  0.
         25    1    1    2    0    0  0.67079337948E+02 -0.31544485842E+03  0.14583051377E+03  0.37536200531E+03  0.12500000000E+03 0.  0.
         25    1    1    2    0    0 -0.48853527770E+02  0.11301565342E+03  0.47211098177E+02  0.18169505465E+03  0.12500000000E+03 0.  0.
</event>
<event>
 5    0  0.5749909E-005  0.2637214E+03  0.7546771E-02  0.1104928E+00
         21   -1    0    0  502  501  0.00000000000E+00  0.00000000000E+00  0.34722725066E+03  0.34722725066E+03  0.00000000000E+00 0. -1.
         21   -1    0    0  501  502 -0.00000000000E+00 -0.00000000000E+00 -0.20029819049E+03  0.20029819049E+03  0.00000000000E+00 0. -1.
         25    1    1    2    0    0  0.13716265865E+02  0.74281046935E+02 -0.66730115172E+01  0.14620307441E+03  0.12500000000E+03 0.  0.
         25    1    1    2    0    0  0.40314010344E+02 -0.13527587736E+03  0.19289666684E+01  0.18855636648E+03  0.12500000000E+03 0.  0.
         25    1    1    2    0    0 -0.54030276209E+02  0.60994830427E+02  0.15167310502E+03  0.21276600027E+03  0.12500000000E+03 0.  0.
</event>
<event>
 5    0  0.5749909E-005  0.4076551E+03  0.7546771E-02  0.1041161E+00
         21   -1    0    0  502  501  0.00000000000E+00  0.00000000000E+00  0.61157197392E+03  0.61157197392E+03  0.00000000000E+00 0. -1.
         21   -1    0    0  501  502 -0.00000000000E+00 -0.00000000000E+00 -0.27173030763E+03  0.27173030763E+03  0.00000000000E+00 0. -1.
         25    1    1    2    0    0 -0.54627372814E+02  0.40812668377E+02 -0.42945887000E+02  0.14872515917E+03  0.12500000000E+03 0.  0.
         25    1    1    2    0    0  0.11598314293E+03 -0.18033010242E+03 -0.55224320820E+02  0.25425530652E+03  0.12500000000E+03 0.  0.
         25    1    1    2    0    0 -0.61355770120E+02  0.13951743405E+03  0.43801187411E+03  0.48032181586E+03  0.12500000000E+03 0.  0.
</event>
<event>
 5    0  0.5749909E-005  0.2571705E+03  0.7546771E-02  0.1108855E+00
         21   -1    0    0  502  501  0.00000000000E+00  0.00000000000E+00  0.13669622082E+04  0.13669622082E+04  0.00000000000E+00 0. -1.
         21   -1    0    0  501  502 -0.00000000000E+00 -0.00000000000E+00 -0.48382225328E+02  0.48382225328E+02  0.00000000000E+00 0. -1.
         25    1    1    2    0    0  0.65276705924E+01  0.12190413251E+03  0.59717863376E+03  0.62221423049E+03  0.12500000000E+03 0.  0.
         25    1    1    2    0    0  0.69984571941E+02 -0.11355220959E+03  0.39924427090E+03  0.43910469419E+03  0.12500000000E+03 0.  0.
         25    1    1    2    0    0 -0.76512242534E+02 -0.83519229289E+01  0.32215707823E+03  0.35402550887E+03  0.12500000000E+03 0.  0.
</event>
<event>
 5    0  0.5926770E-005  0.2733211E+03  0.7546771E-02  0.1099394E+00
         21   -1    0    0  502  501  0.00000000000E+00  0.00000000000E+00  0.41685231889E+03  0.41685231889E+03  0.00000000000E+00 0. -1.
         21   -1    0    0  501  502 -0.00000000000E+00 -0.00000000000E+00 -0.17921075980E+03  0.17921075980E+03  0.00000000000E+00 0. -1.
         25    1    1    2    0    0  0.68244390367E+02 -0.73870742334E+02  0.16743831105E+03  0.23189387960E+03  0.12500000000E+03 0.  0.
         25    1    1    2    0    0 -0.69017991570E+01 -0.60651737406E+02  0.95758523873E+02  0.16888150573E+03  0.12500000000E+03 0.  0.
         25    1    1    2    0    0 -0.61342591209E+02  0.13452247974E+03 -0.25555275834E+02  0.19528769335E+03  0.12500000000E+03 0.  0.
</event>
<event>
 5    0  0.5749909E-005  0.2782253E+03  0.7546771E-02  0.1096662E+00
         21   -1    0    0  502  501  0.00000000000E+00  0.00000000000E+00  0.16578125972E+03  0.16578125972E+03  0.00000000000E+00 0.  1.
         21   -1    0    0  501  502 -0.00000000000E+00 -0.00000000000E+00 -0.46693633489E+03  0.46693633489E+03  0.00000000000E+00 0.  1.
         25    1    1    2    0    0  0.30749606103E+02  0.20094211069E+02 -0.27633792081E+02  0.13318386561E+03  0.12500000000E+03 0.  0.
         25    1    1    2    0    0  0.72794662760E+01 -0.17509006554E+03 -0.14341721906E+03  0.25865618184E+03  0.12500000000E+03 0.  0.
         25    1    1    2    0    0 -0.38029072379E+02  0.15499585447E+03 -0.13010406403E+03  0.24087754716E+03  0.12500000000E+03 0.  0.
</event>
<event>
 5    0  0.5749909E-005  0.5003307E+03  0.7546771E-02  0.1013693E+00
         21   -1    0    0  502  501  0.00000000000E+00  0.00000000000E+00  0.26953264578E+03  0.26953264578E+03  0.00000000000E+00 0. -1.
         21   -1    0    0  501  502 -0.00000000000E+00 -0.00000000000E+00 -0.92875873677E+03  0.92875873677E+03  0.00000000000E+00 0. -1.
         25    1    1    2    0    0  0.36951123539E+03  0.16855371053E+03 -0.35326614544E+03  0.55260372413E+03  0.12500000000E+03 0.  0.
         25    1    1    2    0    0 -0.14583504160E+03 -0.12082377538E+03  0.20617507629E+02  0.22785154306E+03  0.12500000000E+03 0.  0.
         25    1    1    2    0    0 -0.22367619379E+03 -0.47729935147E+02 -0.32657745317E+03  0.41783611536E+03  0.12500000000E+03 0.  0.
</event>
<event>
 5    0  0.5749909E-005  0.2407570E+03  0.7546771E-02  0.1119290E+00
         21   -1    0    0  502  501  0.00000000000E+00  0.00000000000E+00  0.15127518125E+03  0.15127518125E+03  0.00000000000E+00 0. -1.
         21   -1    0    0  501  502 -0.00000000000E+00 -0.00000000000E+00 -0.38316869520E+03  0.38316869520E+03  0.00000000000E+00 0. -1.
         25    1    1    2    0    0 -0.81809007373E+02  0.36375093415E+02 -0.14687631926E+03  0.21263469676E+03  0.12500000000E+03 0.  0.
         25    1    1    2    0    0  0.45683876410E+02  0.46205927457E+02  0.92026425567E+01  0.14117964770E+03  0.12500000000E+03 0.  0.
         25    1    1    2    0    0  0.36125130963E+02 -0.82581020872E+02 -0.94219837252E+02  0.18062953199E+03  0.12500000000E+03 0.  0.
</event>
<event>
 5    0  0.5749909E-005  0.2476697E+03  0.7546771E-02  0.1114786E+00
         21   -1    0    0  502  501  0.00000000000E+00  0.00000000000E+00  0.48379751807E+03  0.48379751807E+03  0.00000000000E+00 0.  1.
         21   -1    0    0  501  502 -0.00000000000E+00 -0.00000000000E+00 -0.12678919739E+03  0.12678919739E+03  0.00000000000E+00 0.  1.
         25    1    1    2    0    0 -0.36663719767E+02 -0.22536883875E+02  0.28809076719E+02  0.13530374120E+03  0.12500000000E+03 0.  0.
         25    1    1    2    0    0 -0.38492462299E+02  0.11238137884E+03  0.16749209047E+03  0.24039518367E+03  0.12500000000E+03 0.  0.
         25    1    1    2    0    0  0.75156182065E+02 -0.89844494963E+02  0.16070715349E+03  0.23488779058E+03  0.12500000000E+03 0.  0.
</event>
<event>
 5    0  0.5749909E-005  0.2996428E+03  0.7546771E-02  0.1085419E+00
         21   -1    0    0  502  501  0.00000000000E+00  0.00000000000E+00  0.11347408536E+03  0.11347408536E+03  0.00000000000E+00 0. -1.
         21   -1    0    0  501  502 -0.00000000000E+00 -0.00000000000E+00 -0.79124522173E+03  0.79124522173E+03  0.00000000000E+00 0. -1.
         25    1    1    2    0    0 -0.30571385212E+02 -0.64235226263E+02 -0.92085344687E+02  0.17077905197E+03  0.12500000000E+03 0.  0.
         25    1    1    2    0    0 -0.11710741375E+03 -0.27368439892E+02 -0.44544022690E+03  0.47802214760E+03  0.12500000000E+03 0.  0.
         25    1    1    2    0    0  0.14767879896E+03  0.91603666155E+02 -0.14024556478E+03  0.25591810752E+03  0.12500000000E+03 0.  0.
</event>
<event>
 5    0  0.5749909E-005  0.3068474E+03  0.7546771E-02  0.1081867E+00
         21   -1    0    0  502  501  0.00000000000E+00  0.00000000000E+00  0.20464680928E+04  0.20464680928E+04  0.00000000000E+00 0. -1.
         21   -1    0    0  501  502 -0.00000000000E+00 -0.00000000000E+00 -0.46008682900E+02  0.46008682900E+02  0.00000000000E+00 0. -1.
         25    1    1    2    0    0  0.15952782143E+03 -0.90990734193E+02  0.40872289132E+03  0.46519656212E+03  0.12500000000E+03 0.  0.
         25    1    1    2    0    0 -0.60017530396E+02  0.10773199915E+03  0.91936405008E+03  0.93598266233E+03  0.12500000000E+03 0.  0.
         25    1    1    2    0    0 -0.99510291035E+02 -0.16741264953E+02  0.67237246849E+03  0.69129755124E+03  0.12500000000E+03 0.  0.
</event>
<event>
 5    0  0.5749909E-005  0.2774833E+03  0.7546771E-02  0.1097072E+00
         21   -1    0    0  502  501  0.00000000000E+00  0.00000000000E+00  0.10331373455E+03  0.10331373455E+03  0.00000000000E+00 0.  1.
         21   -1    0    0  501  502 -0.00000000000E+00 -0.00000000000E+00 -0.74527323383E+03  0.74527323383E+03  0.00000000000E+00 0.  1.
         25    1    1    2    0    0 -0.87430328751E+02 -0.13795523066E+03 -0.26965026937E+03  0.33913415609E+03  0.12500000000E+03 0.  0.
         25    1    1    2    0    0  0.12505445738E+03  0.74773194268E+02 -0.14825329573E+03  0.24255656575E+03  0.12500000000E+03 0.  0.
         25    1    1    2    0    0 -0.37624128629E+02  0.63182036395E+02 -0.22405593418E+03  0.26689624655E+03  0.12500000000E+03 0.  0.
</event>
<event>
 5    0  0.5749909E-005  0.4241794E+03  0.7546771E-02  0.1035715E+00
         21   -1    0    0  502  501  0.00000000000E+00  0.00000000000E+00  0.22795380595E+04  0.22795380595E+04  0.00000000000E+00 0.  1.
         21   -1    0    0  501  502 -0.00000000000E+00 -0.00000000000E+00 -0.78931842090E+02  0.78931842090E+02  0.00000000000E+00 0.  1.
         25    1    1    2    0    0  0.13091043746E+03  0.15394398534E+03  0.69348342134E+03  0.73306244546E+03  0.12500000000E+03 0.  0.
         25    1    1    2    0    0  0.14947958279E+03 -0.21950891950E+03  0.67574669885E+03  0.73674073623E+03  0.12500000000E+03 0.  0.
         25    1    1    2    0    0 -0.28039002024E+03  0.65564934162E+02  0.83137609720E+03  0.88866671989E+03  0.12500000000E+03 0.  0.
</event>
<event>
 5    0  0.5749909E-005  0.2879939E+03  0.7546771E-02  0.1091401E+00
         21   -1    0    0  502  501  0.00000000000E+00  0.00000000000E+00  0.74953892906E+02  0.74953892906E+02  0.00000000000E+00 0.  1.
         21   -1    0    0  501  502 -0.00000000000E+00 -0.00000000000E+00 -0.11065536865E+04  0.11065536865E+04  0.00000000000E+00 0.  1.
         25    1    1    2    0    0 -0.84040595216E+02 -0.81971149096E+01 -0.74049338312E+02  0.16804261020E+03  0.12500000000E+03 0.  0.
         25    1    1    2    0    0  0.65596463632E+01 -0.90770982014E+02 -0.43428959519E+03  0.46099333252E+03  0.12500000000E+03 0.  0.
         25    1    1    2    0    0  0.77480948853E+02  0.98968096923E+02 -0.52326086009E+03  0.55247163669E+03  0.12500000000E+03 0.  0.
</event>
<event>
 5    0  0.5749909E-005  0.2999324E+03  0.7546771E-02  0.1085274E+00
         21   -1    0    0  502  501  0.00000000000E+00  0.00000000000E+00  0.19877870321E+03  0.19877870321E+03  0.00000000000E+00 0. -1.
         21   -1    0    0  501  502 -0.00000000000E+00 -0.00000000000E+00 -0.45256084871E+03  0.45256084871E+03  0.00000000000E+00 0. -1.
         25    1    1    2    0    0  0.27238311927E+02 -0.62847345496E+02  0.98830057839E+02  0.17344767166E+03  0.12500000000E+03 0.  0.
         25    1    1    2    0    0  0.33833036357E+02 -0.52724324007E+02 -0.17953789077E+03  0.22755962496E+03  0.12500000000E+03 0.  0.
         25    1    1    2    0    0 -0.61071348284E+02  0.11557166950E+03 -0.17307431257E+03  0.25033225530E+03  0.12500000000E+03 0.  0.
</event>
<event>
 5    0  0.5749909E-005  0.2937201E+03  0.7546771E-02  0.1088423E+00
         21   -1    0    0  502  501  0.00000000000E+00  0.00000000000E+00  0.50999438174E+02  0.50999438174E+02  0.00000000000E+00 0. -1.
         21   -1    0    0  501  502 -0.00000000000E+00 -0.00000000000E+00 -0.16916171662E+04  0.16916171662E+04  0.00000000000E+00 0. -1.
         25    1    1    2    0    0  0.46385151039E+02  0.19315067701E+03 -0.66394960173E+03  0.70421079224E+03  0.12500000000E+03 0.  0.
         25    1    1    2    0    0  0.34533094934E+02 -0.79240579618E+02 -0.58132445347E+03  0.60086165155E+03  0.12500000000E+03 0.  0.
         25    1    1    2    0    0 -0.80918245972E+02 -0.11391009739E+03 -0.39534367286E+03  0.43754416061E+03  0.12500000000E+03 0.  0.
</event>
<event>
 5    0  0.5749909E-005  0.2665331E+03  0.7546771E-02  0.1103280E+00
         21   -1    0    0  502  501  0.00000000000E+00  0.00000000000E+00  0.81986742222E+02  0.81986742222E+02  0.00000000000E+00 0.  1.
         21   -1    0    0  501  502 -0.00000000000E+00 -0.00000000000E+00 -0.86648000720E+03  0.86648000720E+03  0.00000000000E+00 0.  1.
         25    1    1    2    0    0  0.46494078072E+02 -0.14934521605E+03 -0.40067610295E+03  0.44791967174E+03  0.12500000000E+03 0.  0.
         25    1    1    2    0    0 -0.29211410447E+02  0.13645885468E+03 -0.27864700310E+03  0.33577295582E+03  0.12500000000E+03 0.  0.
         25    1    1    2    0    0 -0.17282667625E+02  0.12886361363E+02 -0.10517015893E+03  0.16477412187E+03  0.12500000000E+03 0.  0.
</event>
<event>
 5    0  0.5749909E-005  0.2358167E+03  0.7546771E-02  0.1122611E+00
         21   -1    0    0  502  501  0.00000000000E+00  0.00000000000E+00  0.12666458546E+03  0.12666458546E+03  0.00000000000E+00 0. -1.
         21   -1    0    0  501  502 -0.00000000000E+00 -0.00000000000E+00 -0.43902979963E+03  0.43902979963E+03  0.00000000000E+00 0.  1.
         25    1    1    2    0    0 -0.50095897182E+02 -0.10901668116E+03 -0.10179464137E+03  0.20095119979E+03  0.12500000000E+03 0.  0.
         25    1    1    2    0    0  0.30210555201E+02  0.11247157043E+03 -0.12975207783E+03  0.21453002937E+03  0.12500000000E+03 0.  0.
         25    1    1    2    0    0  0.19885341981E+02 -0.34548892627E+01 -0.80818494962E+02  0.15021315593E+03  0.12500000000E+03 0.  0.
</event>
<event>
 5    0  0.5749909E-005  0.2846844E+03  0.7546771E-02  0.1093158E+00
         21   -1    0    0  502  501  0.00000000000E+00  0.00000000000E+00  0.13390856777E+04  0.13390856777E+04  0.00000000000E+00 0. -1.
         21   -1    0    0  501  502 -0.00000000000E+00 -0.00000000000E+00 -0.60522786693E+02  0.60522786693E+02  0.00000000000E+00 0. -1.
         25    1    1    2    0    0 -0.13410276307E+03  0.80340564198E+02  0.31104566803E+03  0.36988182561E+03  0.12500000000E+03 0.  0.
         25    1    1    2    0    0 -0.11394334406E+02  0.10279248500E+02  0.51152291229E+03  0.52679804821E+03  0.12500000000E+03 0.  0.
         25    1    1    2    0    0  0.14549709747E+03 -0.90619812698E+02  0.45599431066E+03  0.50292859053E+03  0.12500000000E+03 0.  0.
</event>
<event>
 5    0  0.5749909E-005  0.3403896E+03  0.7546771E-02  0.1066630E+00
         21   -1    0    0  502  501  0.00000000000E+00  0.00000000000E+00  0.73591474690E+02  0.73591474690E+02  0.00000000000E+00 0. -1.
         21   -1    0    0  501  502 -0.00000000000E+00 -0.00000000000E+00 -0.15744357301E+04  0.15744357301E+04  0.00000000000E+00 0. -1.
         25    1    1    2    0    0  0.10448280755E+03  0.50549549841E+01 -0.12486973089E+04  0.12592903473E+04  0.12500000000E+03 0.  0.
         25    1    1    2    0    0  0.86099692102E+01  0.16022407142E+01 -0.86155239468E+02  0.15206716948E+03  0.12500000000E+03 0.  0.
         25    1    1    2    0    0 -0.11309277676E+03 -0.66571956983E+01 -0.16599170712E+03  0.23666968805E+03  0.12500000000E+03 0.  0.
</event>
<event>
 5    0  0.5749909E-005  0.4149431E+03  0.7546771E-02  0.1038725E+00
         21   -1    0    0  502  501  0.00000000000E+00  0.00000000000E+00  0.15438950479E+03  0.15438950479E+03  0.00000000000E+00 0. -1.
         21   -1    0    0  501  502 -0.00000000000E+00 -0.00000000000E+00 -0.11152169991E+04  0.11152169991E+04  0.00000000000E+00 0. -1.
         25    1    1    2    0    0 -0.17950311801E+03 -0.45805670226E+02 -0.66050192664E+03  0.69728568313E+03  0.12500000000E+03 0.  0.
         25    1    1    2    0    0  0.16777486632E+02  0.17372922141E+03 -0.24215955164E+03  0.32361949088E+03  0.12500000000E+03 0.  0.
         25    1    1    2    0    0  0.16272563138E+03 -0.12792355119E+03 -0.58166016032E+02  0.24870132987E+03  0.12500000000E+03 0.  0.
</event>
<event>
 5    0  0.5749909E-005  0.2909433E+03  0.7546771E-02  0.1089858E+00
         21   -1    0    0  502  501  0.00000000000E+00  0.00000000000E+00  0.74266349682E+02  0.74266349682E+02  0.00000000000E+00 0.  1.
         21   -1    0    0  501  502 -0.00000000000E+00 -0.00000000000E+00 -0.11397896132E+04  0.11397896132E+04  0.00000000000E+00 0.  1.
         25    1    1    2    0    0  0.12045593944E+03 -0.66237613093E+01 -0.30017870970E+03  0.34682238296E+03  0.12500000000E+03 0.  0.
         25    1    1    2    0    0  0.75461883633E+02 -0.19965499950E+02 -0.45719095937E+03  0.48035579563E+03  0.12500000000E+03 0.  0.
         25    1    1    2    0    0 -0.19591782307E+03  0.26589261260E+02 -0.30815359445E+03  0.38687778430E+03  0.12500000000E+03 0.  0.
</event>
<event>
 5    0  0.5749909E-005  0.4030498E+03  0.7546771E-02  0.1042729E+00
         21   -1    0    0  502  501  0.00000000000E+00  0.00000000000E+00  0.22527695255E+03  0.22527695255E+03  0.00000000000E+00 0.  1.
         21   -1    0    0  501  502 -0.00000000000E+00 -0.00000000000E+00 -0.72110841199E+03  0.72110841199E+03  0.00000000000E+00 0.  1.
         25    1    1    2    0    0  0.10403736477E+03 -0.23506050165E+03 -0.27094461578E+03  0.39384412846E+03  0.12500000000E+03 0.  0.
         25    1    1    2    0    0 -0.51787267044E+02  0.28527810480E+03 -0.40558612348E+02  0.31833240354E+03  0.12500000000E+03 0.  0.
         25    1    1    2    0    0 -0.52250097722E+02 -0.50217603159E+02 -0.18432823132E+03  0.23420883254E+03  0.12500000000E+03 0.  0.
</event>
<event>
 5    0  0.5749909E-005  0.2759615E+03  0.7546771E-02  0.1097915E+00
         21   -1    0    0  502  501  0.00000000000E+00  0.00000000000E+00  0.42627369685E+02  0.42627369685E+02  0.00000000000E+00 0. -1.
         21   -1    0    0  501  502 -0.00000000000E+00 -0.00000000000E+00 -0.17865220479E+04  0.17865220479E+04  0.00000000000E+00 0. -1.
         25    1    1    2    0    0  0.46185940979E+02 -0.75293030386E+02 -0.22786186744E+03  0.27449628814E+03  0.12500000000E+03 0.  0.
         25    1    1    2    0    0 -0.27486280967E+02 -0.50677176916E+02 -0.36933285382E+03  0.39415153026E+03  0.12500000000E+03 0.  0.
         25    1    1    2    0    0 -0.18699660013E+02  0.12597020730E+03 -0.11466999570E+04  0.11605015992E+04  0.12500000000E+03 0.  0.
</event>
<event>
 5    0  0.5749909E-005  0.2909874E+03  0.7546771E-02  0.1089835E+00
         21   -1    0    0  502  501  0.00000000000E+00  0.00000000000E+00  0.90645345875E+03  0.90645345875E+03  0.00000000000E+00 0. -1.
         21   -1    0    0  501  502 -0.00000000000E+00 -0.00000000000E+00 -0.93412009082E+02  0.93412009082E+02  0.00000000000E+00 0. -1.
         25    1    1    2    0    0 -0.33680825536E+02  0.13831322861E+03  0.24584322060E+03  0.31036887140E+03  0.12500000000E+03 0.  0.
         25    1    1    2    0    0 -0.91633176780E+02 -0.39801042862E+02  0.12481016736E+03  0.20293678813E+03  0.12500000000E+03 0.  0.
         25    1    1    2    0    0  0.12531400232E+03 -0.98512185750E+02  0.44238806170E+03  0.48655980830E+03  0.12500000000E+03 0.  0.
</event>
<event>
 5    0  0.5749909E-005  0.2980693E+03  0.7546771E-02  0.1086210E+00
         21   -1    0    0  502  501  0.00000000000E+00  0.00000000000E+00  0.17491257842E+03  0.17491257842E+03  0.00000000000E+00 0. -1.
         21   -1    0    0  501  502 -0.00000000000E+00 -0.00000000000E+00 -0.50794136811E+03  0.50794136811E+03  0.00000000000E+00 0. -1.
         25    1    1    2    0    0  0.10958060185E+03 -0.44419275819E+02 -0.74042784334E+02  0.18731875047E+03  0.12500000000E+03 0.  0.
         25    1    1    2    0    0 -0.14087838716E+03 -0.10306591638E+03 -0.19350565597E+03  0.28903069384E+03  0.12500000000E+03 0.  0.
         25    1    1    2    0    0  0.31297785312E+02  0.14748519220E+03 -0.65480349388E+02  0.20650450223E+03  0.12500000000E+03 0.  0.
</event>
<event>
 5    0  0.5749909E-005  0.3300954E+03  0.7546771E-02  0.1071095E+00
         21   -1    0    0  502  501  0.00000000000E+00  0.00000000000E+00  0.26525186298E+04  0.26525186298E+04  0.00000000000E+00 0. -1.
         21   -1    0    0  501  502 -0.00000000000E+00 -0.00000000000E+00 -0.41079055344E+02  0.41079055344E+02  0.00000000000E+00 0. -1.
         25    1    1    2    0    0  0.17924749763E+03  0.50006000399E+02  0.10847660352E+04  0.11076879600E+04  0.12500000000E+03 0.  0.
         25    1    1    2    0    0 -0.15620862265E+03  0.21732991434E+02  0.38012403247E+03  0.43010781993E+03  0.12500000000E+03 0.  0.
         25    1    1    2    0    0 -0.23038874986E+02 -0.71738991833E+02  0.11465495067E+04  0.11558019052E+04  0.12500000000E+03 0.  0.
</event>
<event>
 5    0  0.5749909E-005  0.3792782E+03  0.7546771E-02  0.1051201E+00
         21   -1    0    0  502  501  0.00000000000E+00  0.00000000000E+00  0.13027597863E+04  0.13027597863E+04  0.00000000000E+00 0.  1.
         21   -1    0    0  501  502 -0.00000000000E+00 -0.00000000000E+00 -0.11042094887E+03  0.11042094887E+03  0.00000000000E+00 0.  1.
         25    1    1    2    0    0  0.41741624665E+02 -0.23871554111E+03  0.61233540693E+03  0.67030375456E+03  0.12500000000E+03 0.  0.
         25    1    1    2    0    0 -0.10182743873E+03 -0.70460061555E+00  0.34124054245E+03  0.37741148837E+03  0.12500000000E+03 0.  0.
         25    1    1    2    0    0  0.60085814068E+02  0.23942014173E+03  0.23876288809E+03  0.36546549228E+03  0.12500000000E+03 0.  0.
</event>
<event>
 5    0  0.5749909E-005  0.8031083E+03  0.7546771E-02  0.9555529E-01
         21   -1    0    0  502  501  0.00000000000E+00  0.00000000000E+00  0.92929238320E+03  0.92929238320E+03  0.00000000000E+00 0.  1.
         21   -1    0    0  501  502 -0.00000000000E+00 -0.00000000000E+00 -0.69405820605E+03  0.69405820605E+03  0.00000000000E+00 0.  1.
         25    1    1    2    0    0 -0.17146761158E+03 -0.21473857862E+03  0.68596491682E+03  0.74945758124E+03  0.12500000000E+03 0.  0.
         25    1    1    2    0    0  0.15580121357E+03  0.20891695654E+03 -0.60746289862E+03  0.67272318681E+03  0.12500000000E+03 0.  0.
         25    1    1    2    0    0  0.15666398016E+02  0.58216220824E+01  0.15673215894E+03  0.20116982119E+03  0.12500000000E+03 0.  0.
</event>
<event>
 5    0  0.5749909E-005  0.3475135E+03  0.7546771E-02  0.1063640E+00
         21   -1    0    0  502  501  0.00000000000E+00  0.00000000000E+00  0.16902881606E+04  0.16902881606E+04  0.00000000000E+00 0.  1.
         21   -1    0    0  501  502 -0.00000000000E+00 -0.00000000000E+00 -0.71446771656E+02  0.71446771656E+02  0.00000000000E+00 0.  1.
         25    1    1    2    0    0 -0.10234252907E+03  0.13041113000E+03  0.54762802139E+03  0.58566415794E+03  0.12500000000E+03 0.  0.
         25    1    1    2    0    0  0.16395043856E+03  0.85809535872E+02  0.41556760456E+03  0.47176737563E+03  0.12500000000E+03 0.  0.
         25    1    1    2    0    0 -0.61607909493E+02 -0.21622066587E+03  0.65564576299E+03  0.70430339867E+03  0.12500000000E+03 0.  0.
</event>
<event>
 5    0  0.5749909E-005  0.2390942E+03  0.7546771E-02  0.1120398E+00
         21   -1    0    0  502  501  0.00000000000E+00  0.00000000000E+00  0.24178055132E+02  0.24178055132E+02  0.00000000000E+00 0. -1.
         21   -1    0    0  501  502 -0.00000000000E+00 -0.00000000000E+00 -0.23643776155E+04  0.23643776155E+04  0.00000000000E+00 0. -1.
         25    1    1    2    0    0  0.15838856932E+02 -0.36046692173E+02 -0.74897106368E+03  0.76035050315E+03  0.12500000000E+03 0.  0.
         25    1    1    2    0    0 -0.19147395142E+01  0.36849833238E+02 -0.13488850083E+04  0.13551669056E+04  0.12500000000E+03 0.  0.
         25    1    1    2    0    0 -0.13924117418E+02 -0.80314106489E+00 -0.24234348833E+03  0.27303826182E+03  0.12500000000E+03 0.  0.
</event>
<event>
 5    0  0.5749909E-005  0.3903039E+03  0.7546771E-02  0.1047190E+00
         21   -1    0    0  502  501  0.00000000000E+00  0.00000000000E+00  0.85172332090E+02  0.85172332090E+02  0.00000000000E+00 0. -1.
         21   -1    0    0  501  502 -0.00000000000E+00 -0.00000000000E+00 -0.17885755843E+04  0.17885755843E+04  0.00000000000E+00 0. -1.
         25    1    1    2    0    0 -0.61241294830E+02 -0.52468123887E+02 -0.17371200476E+03  0.22870124795E+03  0.12500000000E+03 0.  0.
         25    1    1    2    0    0 -0.21836393237E+03  0.13823669577E+03 -0.73282228946E+03  0.78704872718E+03  0.12500000000E+03 0.  0.
         25    1    1    2    0    0  0.27960522720E+03 -0.85768571879E+02 -0.79686895796E+03  0.85799794123E+03  0.12500000000E+03 0.  0.
</event>
<event>
 5    0  0.5749909E-005  0.3991059E+03  0.7546771E-02  0.1044090E+00
         21   -1    0    0  502  501  0.00000000000E+00  0.00000000000E+00  0.97508004399E+02  0.97508004399E+02  0.00000000000E+00 0. -1.
         21   -1    0    0  501  502 -0.00000000000E+00 -0.00000000000E+00 -0.16335634016E+04  0.16335634016E+04  0.00000000000E+00 0. -1.
         25    1    1    2    0    0 -0.97144684009E+02 -0.49557125632E+02 -0.75827131579E+03  0.77620447479E+03  0.12500000000E+03 0.  0.
         25    1    1    2    0    0 -0.26110247076E+02  0.20601980035E+03 -0.15136921978E+03  0.28576833946E+03  0.12500000000E+03 0.  0.
         25    1    1    2    0    0  0.12325493108E+03 -0.15646267472E+03 -0.62641486167E+03  0.66909859179E+03  0.12500000000E+03 0.  0.
</event>
<event>
 5    0  0.5749909E-005  0.2371607E+03  0.7546771E-02  0.1121699E+00
         21   -1    0    0  502  501  0.00000000000E+00  0.00000000000E+00  0.32010682649E+02  0.32010682649E+02  0.00000000000E+00 0.  1.
         21   -1    0    0  501  502 -0.00000000000E+00 -0.00000000000E+00 -0.17570765672E+04  0.17570765672E+04  0.00000000000E+00 0.  1.
         25    1    1    2    0    0 -0.94505795816E+02  0.26083554649E+01 -0.76581294436E+03  0.78168575189E+03  0.12500000000E+03 0.  0.
         25    1    1    2    0    0  0.24285337826E+02 -0.42549827219E+02 -0.65595905803E+03  0.66955772809E+03  0.12500000000E+03 0.  0.
         25    1    1    2    0    0  0.70220457991E+02  0.39941471754E+02 -0.30329388221E+03  0.33784376992E+03  0.12500000000E+03 0.  0.
</event>
<event>
 5    0  0.5749909E-005  0.2366384E+03  0.7546771E-02  0.1122053E+00
         21   -1    0    0  502  501  0.00000000000E+00  0.00000000000E+00  0.21340114893E+03  0.21340114893E+03  0.00000000000E+00 0.  1.
         21   -1    0    0  501  502 -0.00000000000E+00 -0.00000000000E+00 -0.26240586680E+03  0.26240586680E+03  0.00000000000E+00 0.  1.
         25    1    1    2    0    0  0.15737517895E+01 -0.51419010666E+01 -0.74038495306E+02  0.14538092938E+03  0.12500000000E+03 0.  0.
         25    1    1    2    0    0  0.36703230509E+02  0.10298279264E+03  0.81006329092E+01  0.16626245206E+03  0.12500000000E+03 0.  0.
         25    1    1    2    0    0 -0.38276982298E+02 -0.97840891578E+02  0.16933144533E+02  0.16416363429E+03  0.12500000000E+03 0.  0.
</event>
<event>
 5    0  0.5749909E-005  0.3280968E+03  0.7546771E-02  0.1071982E+00
         21   -1    0    0  502  501  0.00000000000E+00  0.00000000000E+00  0.18410470079E+03  0.18410470079E+03  0.00000000000E+00 0. -1.
         21   -1    0    0  501  502 -0.00000000000E+00 -0.00000000000E+00 -0.58470802192E+03  0.58470802192E+03  0.00000000000E+00 0. -1.
         25    1    1    2    0    0 -0.70291528618E+01 -0.11552717726E+03 -0.44487815879E+03  0.47637959008E+03  0.12500000000E+03 0.  0.
         25    1    1    2    0    0  0.11449340465E+02  0.30491743313E+02 -0.14883922405E+02  0.13002832366E+03  0.12500000000E+03 0.  0.
         25    1    1    2    0    0 -0.44201876028E+01  0.85035433943E+02  0.59158760064E+02  0.16240480897E+03  0.12500000000E+03 0.  0.
</event>
<event>
 5    0  0.5749909E-005  0.3451443E+03  0.7546771E-02  0.1064626E+00
         21   -1    0    0  502  501  0.00000000000E+00  0.00000000000E+00  0.16678741511E+03  0.16678741511E+03  0.00000000000E+00 0. -1.
         21   -1    0    0  501  502 -0.00000000000E+00 -0.00000000000E+00 -0.71423000569E+03  0.71423000569E+03  0.00000000000E+00 0. -1.
         25    1    1    2    0    0 -0.14810878002E+03 -0.13073831406E+03 -0.99319520035E+02  0.25400410340E+03  0.12500000000E+03 0.  0.
         25    1    1    2    0    0  0.64600745731E+02  0.14117236793E+03 -0.43162358047E+03  0.47542276874E+03  0.12500000000E+03 0.  0.
         25    1    1    2    0    0  0.83508034289E+02 -0.10434053871E+02 -0.16499490071E+02  0.15159054866E+03  0.12500000000E+03 0.  0.
</event>
<event>
 5    0  0.5749909E-005  0.4463856E+03  0.7546771E-02  0.1028805E+00
         21   -1    0    0  502  501  0.00000000000E+00  0.00000000000E+00  0.80423068321E+02  0.80423068321E+02  0.00000000000E+00 0. -1.
         21   -1    0    0  501  502 -0.00000000000E+00 -0.00000000000E+00 -0.24776490677E+04  0.24776490677E+04  0.00000000000E+00 0. -1.
         25    1    1    2    0    0 -0.12647148226E+03 -0.16254870751E+03 -0.18513269541E+04  0.18669369591E+04  0.12500000000E+03 0.  0.
         25    1    1    2    0    0  0.13544617532E+02  0.17192688914E+03 -0.14921459951E+03  0.26006212446E+03  0.12500000000E+03 0.  0.
         25    1    1    2    0    0  0.11292686473E+03 -0.93781816309E+01 -0.39668444574E+03  0.43107305247E+03  0.12500000000E+03 0.  0.
</event>
<event>
 5    0  0.5749909E-005  0.2729750E+03  0.7546771E-02  0.1099589E+00
         21   -1    0    0  502  501  0.00000000000E+00  0.00000000000E+00  0.38674570801E+03  0.38674570801E+03  0.00000000000E+00 0. -1.
         21   -1    0    0  501  502 -0.00000000000E+00 -0.00000000000E+00 -0.19267266989E+03  0.19267266989E+03  0.00000000000E+00 0. -1.
         25    1    1    2    0    0 -0.53826839064E+02 -0.80356754097E+02 -0.23391176062E+02  0.15977072213E+03  0.12500000000E+03 0.  0.
         25    1    1    2    0    0  0.66574510942E+02  0.95596966117E+02  0.23638277037E+03  0.29167234968E+03  0.12500000000E+03 0.  0.
         25    1    1    2    0    0 -0.12747671879E+02 -0.15240212019E+02 -0.18918556184E+02  0.12797530609E+03  0.12500000000E+03 0.  0.
</event>
<event>
 5    0  0.5749909E-005  0.2380652E+03  0.7546771E-02  0.1121088E+00
         21   -1    0    0  502  501  0.00000000000E+00  0.00000000000E+00  0.15014283966E+03  0.15014283966E+03  0.00000000000E+00 0. -1.
         21   -1    0    0  501  502 -0.00000000000E+00 -0.00000000000E+00 -0.37747422071E+03  0.37747422071E+03  0.00000000000E+00 0. -1.
         25    1    1    2    0    0  0.96971943657E+02 -0.43799221799E+02 -0.63414935734E+02  0.17597836163E+03  0.12500000000E+03 0.  0.
         25    1    1    2    0    0 -0.57310508421E+02  0.14181137476E+02 -0.16745910991E+03  0.21714776657E+03  0.12500000000E+03 0.  0.
         25    1    1    2    0    0 -0.39661435236E+02  0.29618084322E+02  0.35426645904E+01  0.13449093217E+03  0.12500000000E+03 0.  0.
</event>
<event>
 5    0  0.5749909E-005  0.2445731E+03  0.7546771E-02  0.1116783E+00
         21   -1    0    0  502  501  0.00000000000E+00  0.00000000000E+00  0.20260118297E+03  0.20260118297E+03  0.00000000000E+00 0.  1.
         21   -1    0    0  501  502 -0.00000000000E+00 -0.00000000000E+00 -0.29524004719E+03  0.29524004719E+03  0.00000000000E+00 0.  1.
         25    1    1    2    0    0 -0.75388395641E+02  0.98766952032E+02 -0.60098211332E+02  0.18621255601E+03  0.12500000000E+03 0.  0.
         25    1    1    2    0    0  0.20287001897E+02 -0.11656774241E+03 -0.20749946228E+02  0.17336424454E+03  0.12500000000E+03 0.  0.
         25    1    1    2    0    0  0.55101393744E+02  0.17800790375E+02 -0.11790706656E+02  0.13826442960E+03  0.12500000000E+03 0.  0.
</event>
<event>
 5    0  0.5749909E-005  0.3600154E+03  0.7546771E-02  0.1058578E+00
         21   -1    0    0  502  501  0.00000000000E+00  0.00000000000E+00  0.71751621034E+03  0.71751621034E+03  0.00000000000E+00 0. -1.
         21   -1    0    0  501  502 -0.00000000000E+00 -0.00000000000E+00 -0.18063855678E+03  0.18063855678E+03  0.00000000000E+00 0. -1.
         25    1    1    2    0    0  0.25923805184E+03 -0.56782043115E+02  0.71770999775E+02  0.30200106681E+03  0.12500000000E+03 0.  0.
         25    1    1    2    0    0 -0.14555489534E+03  0.49491580165E+01  0.28683516514E+03  0.34512336009E+03  0.12500000000E+03 0.  0.
         25    1    1    2    0    0 -0.11368315650E+03  0.51832885098E+02  0.17827148865E+03  0.25103034023E+03  0.12500000000E+03 0.  0.
</event>
<event>
 5    0  0.5749909E-005  0.3385697E+03  0.7546771E-02  0.1067407E+00
         21   -1    0    0  502  501  0.00000000000E+00  0.00000000000E+00  0.63326594569E+03  0.63326594569E+03  0.00000000000E+00 0.  1.
         21   -1    0    0  501  502 -0.00000000000E+00 -0.00000000000E+00 -0.18101307165E+03  0.18101307165E+03  0.00000000000E+00 0.  1.
         25    1    1    2    0    0 -0.64384047993E+00 -0.24945924473E+03  0.12516117240E+03  0.30581145889E+03  0.12500000000E+03 0.  0.
         25    1    1    2    0    0 -0.56998842694E+02  0.63360575485E+02  0.85045543614E+02  0.17355453057E+03  0.12500000000E+03 0.  0.
         25    1    1    2    0    0  0.57642683174E+02  0.18609866925E+03  0.24204615802E+03  0.33491302787E+03  0.12500000000E+03 0.  0.
</event>
<event>
 5    0  0.5749909E-005  0.5501180E+03  0.7546771E-02  0.1001467E+00
         21   -1    0    0  502  501  0.00000000000E+00  0.00000000000E+00  0.19981373700E+04  0.19981373700E+04  0.00000000000E+00 0. -1.
         21   -1    0    0  501  502 -0.00000000000E+00 -0.00000000000E+00 -0.15145595800E+03  0.15145595800E+03  0.00000000000E+00 0. -1.
         25    1    1    2    0    0 -0.15241324161E+03 -0.57645499855E+02  0.16684168582E+04  0.16810094029E+04  0.12500000000E+03 0.  0.
         25    1    1    2    0    0  0.22311851532E+03  0.69861237140E+02  0.18661728728E+03  0.32421208529E+03  0.12500000000E+03 0.  0.
         25    1    1    2    0    0 -0.70705273711E+02 -0.12215737285E+02 -0.83527335052E+01  0.14437183979E+03  0.12500000000E+03 0.  0.
</event>
<event>
 5    0  0.5749909E-005  0.2132433E+03  0.7546771E-02  0.1139023E+00
         21   -1    0    0  502  501  0.00000000000E+00  0.00000000000E+00  0.11631973181E+03  0.11631973181E+03  0.00000000000E+00 0.  1.
         21   -1    0    0  501  502 -0.00000000000E+00 -0.00000000000E+00 -0.39092850287E+03  0.39092850287E+03  0.00000000000E+00 0.  1.
         25    1    1    2    0    0 -0.22774350795E+02 -0.83462151837E+01 -0.73168283574E+02  0.14685682852E+03  0.12500000000E+03 0.  0.
         25    1    1    2    0    0  0.39707005759E+02  0.39093281799E+01 -0.19366875299E+03  0.23393271477E+03  0.12500000000E+03 0.  0.
         25    1    1    2    0    0 -0.16932654964E+02  0.44368870038E+01 -0.77717344960E+01  0.12645869139E+03  0.12500000000E+03 0.  0.
</event>
<event>
 5    0  0.5749909E-005  0.2373182E+03  0.7546771E-02  0.1121592E+00
         21   -1    0    0  502  501  0.00000000000E+00  0.00000000000E+00  0.65469675814E+03  0.65469675814E+03  0.00000000000E+00 0. -1.
         21   -1    0    0  501  502 -0.00000000000E+00 -0.00000000000E+00 -0.86024478813E+02  0.86024478813E+02  0.00000000000E+00 0. -1.
         25    1    1    2    0    0  0.57576039916E+02  0.50839253957E+02  0.18138020369E+03  0.23328825176E+03  0.12500000000E+03 0.  0.
         25    1    1    2    0    0 -0.68465023766E+02  0.57602211524E+02  0.12998563534E+03  0.20131254220E+03  0.12500000000E+03 0.  0.
         25    1    1    2    0    0  0.10888983849E+02 -0.10844146548E+03  0.25730644030E+03  0.30612044300E+03  0.12500000000E+03 0.  0.
</event>
<event>
 5    0  0.5749909E-005  0.2547756E+03  0.7546771E-02  0.1110323E+00
         21   -1    0    0  502  501  0.00000000000E+00  0.00000000000E+00  0.15559988793E+03  0.15559988793E+03  0.00000000000E+00 0. -1.
         21   -1    0    0  501  502 -0.00000000000E+00 -0.00000000000E+00 -0.41716357235E+03  0.41716357235E+03  0.00000000000E+00 0. -1.
         25    1    1    2    0    0 -0.97567541273E+02  0.39745597434E+02 -0.62634773803E+02  0.17506356707E+03  0.12500000000E+03 0.  0.
         25    1    1    2    0    0  0.28044636587E+02  0.71992593859E+02 -0.14940109920E+03  0.20955935592E+03  0.12500000000E+03 0.  0.
         25    1    1    2    0    0  0.69522904686E+02 -0.11173819129E+03 -0.49527811414E+02  0.18814053729E+03  0.12500000000E+03 0.  0.
</event>
<event>
 5    0  0.5749909E-005  0.3671366E+03  0.7546771E-02  0.1055793E+00
         21   -1    0    0  502  501  0.00000000000E+00  0.00000000000E+00  0.23497896640E+03  0.23497896640E+03  0.00000000000E+00 0. -1.
         21   -1    0    0  501  502 -0.00000000000E+00 -0.00000000000E+00 -0.57362276253E+03  0.57362276253E+03  0.00000000000E+00 0. -1.
         25    1    1    2    0    0  0.47407895472E+02  0.85671399838E+02 -0.10114936950E+03  0.18826388993E+03  0.12500000000E+03 0.  0.
         25    1    1    2    0    0 -0.10466196969E+03 -0.28578573619E+03 -0.15692979948E+03  0.36452651052E+03  0.12500000000E+03 0.  0.
         25    1    1    2    0    0  0.57254074217E+02  0.20011433636E+03 -0.80564627159E+02  0.25581132848E+03  0.12500000000E+03 0.  0.
</event>
<event>
 5    0  0.5749909E-005  0.3288390E+03  0.7546771E-02  0.1071652E+00
         21   -1    0    0  502  501  0.00000000000E+00  0.00000000000E+00  0.57811754339E+03  0.57811754339E+03  0.00000000000E+00 0.  1.
         21   -1    0    0  501  502 -0.00000000000E+00 -0.00000000000E+00 -0.18704686033E+03  0.18704686033E+03  0.00000000000E+00 0. -1.
         25    1    1    2    0    0 -0.17989655045E+03 -0.34590883906E+01  0.12026482503E+03  0.24992671385E+03  0.12500000000E+03 0.  0.
         25    1    1    2    0    0 -0.25149553086E+02 -0.10246679826E+03  0.16472057946E+03  0.23214179733E+03  0.12500000000E+03 0.  0.
         25    1    1    2    0    0  0.20504610354E+03  0.10592588666E+03  0.10608527857E+03  0.28309589253E+03  0.12500000000E+03 0.  0.
</event>
<event>
 5    0  0.5749909E-005  0.3427595E+03  0.7546771E-02  0.1065627E+00
         21   -1    0    0  502  501  0.00000000000E+00  0.00000000000E+00  0.35856994139E+03  0.35856994139E+03  0.00000000000E+00 0. -1.
         21   -1    0    0  501  502 -0.00000000000E+00 -0.00000000000E+00 -0.32764611202E+03  0.32764611202E+03  0.00000000000E+00 0. -1.
         25    1    1    2    0    0 -0.16150275134E+03 -0.93304914631E+02  0.14330827261E+03  0.26636667731E+03  0.12500000000E+03 0.  0.
         25    1    1    2    0    0  0.21514725885E+03  0.70925184427E+02 -0.11215097796E+03  0.28199568549E+03  0.12500000000E+03 0.  0.
         25    1    1    2    0    0 -0.53644507511E+02  0.22379730203E+02 -0.23346528539E+00  0.13785369061E+03  0.12500000000E+03 0.  0.
</event>
<event>
 5    0  0.5749909E-005  0.2537482E+03  0.7546771E-02  0.1110959E+00
         21   -1    0    0  502  501  0.00000000000E+00  0.00000000000E+00  0.39712691391E+02  0.39712691391E+02  0.00000000000E+00 0.  1.
         21   -1    0    0  501  502 -0.00000000000E+00 -0.00000000000E+00 -0.16213495817E+04  0.16213495817E+04  0.00000000000E+00 0.  1.
         25    1    1    2    0    0  0.23848731578E+02  0.47660766068E+02 -0.21090524514E+03  0.25089107806E+03  0.12500000000E+03 0.  0.
         25    1    1    2    0    0  0.91045015498E+02 -0.33296362661E+02 -0.74847195815E+03  0.76500530374E+03  0.12500000000E+03 0.  0.
         25    1    1    2    0    0 -0.11489374708E+03 -0.14364403408E+02 -0.62225968702E+03  0.64516589130E+03  0.12500000000E+03 0.  0.
</event>
<event>
 5    0  0.5749909E-005  0.2164259E+03  0.7546771E-02  0.1136576E+00
         21   -1    0    0  502  501  0.00000000000E+00  0.00000000000E+00  0.24409443403E+03  0.24409443403E+03  0.00000000000E+00 0.  1.
         21   -1    0    0  501  502 -0.00000000000E+00 -0.00000000000E+00 -0.19189367200E+03  0.19189367200E+03  0.00000000000E+00 0.  1.
         25    1    1    2    0    0 -0.89182483944E+02 -0.97372460217E+01  0.22323269787E+02  0.15547236982E+03  0.12500000000E+03 0.  0.
         25    1    1    2    0    0  0.32136053380E+02 -0.35612683281E+02  0.74463778525E+01  0.13409488313E+03  0.12500000000E+03 0.  0.
         25    1    1    2    0    0  0.57046430564E+02  0.45349929303E+02  0.22431114393E+02  0.14642085309E+03  0.12500000000E+03 0.  0.
</event>
<event>
 5    0  0.5749909E-005  0.2165980E+03  0.7546771E-02  0.1136445E+00
         21   -1    0    0  502  501  0.00000000000E+00  0.00000000000E+00  0.97732797886E+02  0.97732797886E+02  0.00000000000E+00 0. -1.
         21   -1    0    0  501  502 -0.00000000000E+00 -0.00000000000E+00 -0.48003009631E+03  0.48003009631E+03  0.00000000000E+00 0. -1.
         25    1    1    2    0    0  0.46191230239E+02 -0.62489452515E+02 -0.11928139122E+03  0.18945081609E+03  0.12500000000E+03 0.  0.
         25    1    1    2    0    0 -0.42283423491E+02  0.81157967939E+02 -0.11099191807E+03  0.19057468232E+03  0.12500000000E+03 0.  0.
         25    1    1    2    0    0 -0.39078067479E+01 -0.18668515424E+02 -0.15202398914E+03  0.19773739579E+03  0.12500000000E+03 0.  0.
</event>
<event>
 5    0  0.5749909E-005  0.3947219E+03  0.7546771E-02  0.1045623E+00
         21   -1    0    0  502  501  0.00000000000E+00  0.00000000000E+00  0.50290969439E+03  0.50290969439E+03  0.00000000000E+00 0.  1.
         21   -1    0    0  501  502 -0.00000000000E+00 -0.00000000000E+00 -0.30980786917E+03  0.30980786917E+03  0.00000000000E+00 0. -1.
         25    1    1    2    0    0  0.85920031790E+02  0.25001853590E+03 -0.47408682914E+02  0.29625006898E+03  0.12500000000E+03 0.  0.
         25    1    1    2    0    0 -0.18764159177E+02 -0.15573001511E+03  0.27723973346E+03  0.34218533149E+03  0.12500000000E+03 0.  0.
         25    1    1    2    0    0 -0.67155872613E+02 -0.94288520790E+02 -0.36729225326E+02  0.17428216309E+03  0.12500000000E+03 0.  0.
</event>
<event>
 5    0  0.5749909E-005  0.5658172E+03  0.7546771E-02  0.9978977E-01
         21   -1    0    0  502  501  0.00000000000E+00  0.00000000000E+00  0.11051364820E+04  0.11051364820E+04  0.00000000000E+00 0. -1.
         21   -1    0    0  501  502 -0.00000000000E+00 -0.00000000000E+00 -0.28969191551E+03  0.28969191551E+03  0.00000000000E+00 0. -1.
         25    1    1    2    0    0 -0.91697313916E+02 -0.32082843833E+03  0.89132598778E+03  0.95990952736E+03  0.12500000000E+03 0.  0.
         25    1    1    2    0    0  0.16473740344E+02  0.91009796289E+02 -0.38098147310E+02  0.16009570878E+03  0.12500000000E+03 0.  0.
         25    1    1    2    0    0  0.75223573572E+02  0.22981864204E+03 -0.37783273951E+02  0.27482316140E+03  0.12500000000E+03 0.  0.
</event>
<event>
 5    0  0.5749909E-005  0.4012817E+03  0.7546771E-02  0.1043337E+00
         21   -1    0    0  502  501  0.00000000000E+00  0.00000000000E+00  0.37714921545E+03  0.37714921545E+03  0.00000000000E+00 0. -1.
         21   -1    0    0  501  502 -0.00000000000E+00 -0.00000000000E+00 -0.42695839958E+03  0.42695839958E+03  0.00000000000E+00 0. -1.
         25    1    1    2    0    0  0.29437615662E+03 -0.10521056151E+03 -0.98155794093E+02  0.35069380341E+03  0.12500000000E+03 0.  0.
         25    1    1    2    0    0 -0.99126830654E+02  0.42348865369E+00 -0.68289377486E+02  0.17353601060E+03  0.12500000000E+03 0.  0.
         25    1    1    2    0    0 -0.19524932597E+03  0.10478707285E+03  0.11663598745E+03  0.27987780101E+03  0.12500000000E+03 0.  0.
</event>
<event>
 5    0  0.5749909E-005  0.4304234E+03  0.7546771E-02  0.1033726E+00
         21   -1    0    0  502  501  0.00000000000E+00  0.00000000000E+00  0.17663041335E+03  0.17663041335E+03  0.00000000000E+00 0.  1.
         21   -1    0    0  501  502 -0.00000000000E+00 -0.00000000000E+00 -0.10488812635E+04  0.10488812635E+04  0.00000000000E+00 0.  1.
         25    1    1    2    0    0 -0.14168702128E+03  0.90617196488E+02 -0.22817574624E+02  0.21078977681E+03  0.12500000000E+03 0.  0.
         25    1    1    2    0    0  0.31182103984E+03 -0.66494421773E+02 -0.51315007773E+03  0.61692938923E+03  0.12500000000E+03 0.  0.
         25    1    1    2    0    0 -0.17013401857E+03 -0.24122774715E+02 -0.33628319778E+03  0.39779251079E+03  0.12500000000E+03 0.  0.
</event>
<event>
 5    0  0.5749909E-005  0.3849932E+03  0.7546771E-02  0.1049104E+00
         21   -1    0    0  502  501  0.00000000000E+00  0.00000000000E+00  0.52643926267E+03  0.52643926267E+03  0.00000000000E+00 0.  1.
         21   -1    0    0  501  502 -0.00000000000E+00 -0.00000000000E+00 -0.28155143612E+03  0.28155143612E+03  0.00000000000E+00 0.  1.
         25    1    1    2    0    0  0.14563898123E+03  0.80085811418E+02  0.13318229216E+03  0.24695540688E+03  0.12500000000E+03 0.  0.
         25    1    1    2    0    0 -0.14846242916E+03 -0.21030058451E+03  0.21049617997E+03  0.35524790006E+03  0.12500000000E+03 0.  0.
         25    1    1    2    0    0  0.28234479251E+01  0.13021477309E+03 -0.98790645580E+02  0.20578739185E+03  0.12500000000E+03 0.  0.
</event>
<event>
 5    0  0.5749909E-005  0.2431586E+03  0.7546771E-02  0.1117706E+00
         21   -1    0    0  502  501  0.00000000000E+00  0.00000000000E+00  0.97103356856E+03  0.97103356856E+03  0.00000000000E+00 0. -1.
         21   -1    0    0  501  502 -0.00000000000E+00 -0.00000000000E+00 -0.60889868638E+02  0.60889868638E+02  0.00000000000E+00 0. -1.
         25    1    1    2    0    0  0.77571648397E+02 -0.25842027362E+02  0.12278368004E+03  0.19335460454E+03  0.12500000000E+03 0.  0.
         25    1    1    2    0    0 -0.62591609588E+02  0.30081780122E+02  0.26374421668E+03  0.30001439119E+03  0.12500000000E+03 0.  0.
         25    1    1    2    0    0 -0.14980038809E+02 -0.42397527591E+01  0.52361580320E+03  0.53855444147E+03  0.12500000000E+03 0.  0.
</event>
<event>
 5    0  0.5749909E-005  0.2926990E+03  0.7546771E-02  0.1088948E+00
         21   -1    0    0  502  501  0.00000000000E+00  0.00000000000E+00  0.94685135470E+02  0.94685135470E+02  0.00000000000E+00 0. -1.
         21   -1    0    0  501  502 -0.00000000000E+00 -0.00000000000E+00 -0.90481711187E+03  0.90481711187E+03  0.00000000000E+00 0. -1.
         25    1    1    2    0    0  0.70020741425E+02 -0.85916405223E+02 -0.66735080928E+03  0.68794377355E+03  0.12500000000E+03 0.  0.
         25    1    1    2    0    0 -0.17828345581E+02  0.26621866739E+02 -0.67623318073E+02  0.14568626168E+03  0.12500000000E+03 0.  0.
         25    1    1    2    0    0 -0.52192395844E+02  0.59294538484E+02 -0.75157849045E+02  0.16587221211E+03  0.12500000000E+03 0.  0.
</event>
<event>
 5    0  0.5749909E-005  0.2737670E+03  0.7546771E-02  0.1099143E+00
         21   -1    0    0  502  501  0.00000000000E+00  0.00000000000E+00  0.70938951768E+03  0.70938951768E+03  0.00000000000E+00 0. -1.
         21   -1    0    0  501  502 -0.00000000000E+00 -0.00000000000E+00 -0.10565192558E+03  0.10565192558E+03  0.00000000000E+00 0. -1.
         25    1    1    2    0    0  0.72671054325E+02 -0.10746402769E+03  0.19496833121E+03  0.26545668113E+03  0.12500000000E+03 0.  0.
         25    1    1    2    0    0  0.52974441424E+02  0.14779681627E+02  0.28051179589E+03  0.31198813770E+03  0.12500000000E+03 0.  0.
         25    1    1    2    0    0 -0.12564549575E+03  0.92684346064E+02  0.12825746501E+03  0.23759662443E+03  0.12500000000E+03 0.  0.
</event>
<event>
 5    0  0.5749909E-005  0.3265629E+03  0.7546771E-02  0.1072668E+00
         21   -1    0    0  502  501  0.00000000000E+00  0.00000000000E+00  0.83726769908E+03  0.83726769908E+03  0.00000000000E+00 0.  1.
         21   -1    0    0  501  502 -0.00000000000E+00 -0.00000000000E+00 -0.12737064389E+03  0.12737064389E+03  0.00000000000E+00 0.  1.
         25    1    1    2    0    0 -0.12221767265E+02 -0.14913972320E+03  0.94143580269E+02  0.21651799541E+03  0.12500000000E+03 0.  0.
         25    1    1    2    0    0  0.22958140343E+02  0.23803591201E+03  0.36372491322E+03  0.45288959374E+03  0.12500000000E+03 0.  0.
         25    1    1    2    0    0 -0.10736373078E+02 -0.88896188813E+02  0.25202856169E+03  0.29523075382E+03  0.12500000000E+03 0.  0.
</event>
<event>
 5    0  0.5749909E-005  0.3145602E+03  0.7546771E-02  0.1078180E+00
         21   -1    0    0  502  501  0.00000000000E+00  0.00000000000E+00  0.27904460009E+03  0.27904460009E+03  0.00000000000E+00 0. -1.
         21   -1    0    0  501  502 -0.00000000000E+00 -0.00000000000E+00 -0.35459602830E+03  0.35459602830E+03  0.00000000000E+00 0. -1.
         25    1    1    2    0    0 -0.11964623264E+03  0.10229118193E+03 -0.44351545070E+02  0.20584160521E+03  0.12500000000E+03 0.  0.
         25    1    1    2    0    0  0.65930609227E+02 -0.99980028913E+02  0.13026098254E+03  0.21664665930E+03  0.12500000000E+03 0.  0.
         25    1    1    2    0    0  0.53715623411E+02 -0.23111530159E+01 -0.16146086568E+03  0.21115236388E+03  0.12500000000E+03 0.  0.
</event>
<event>
 5    0  0.6080891E-005  0.3438574E+03  0.7546771E-02  0.1065165E+00
         21   -1    0    0  502  501  0.00000000000E+00  0.00000000000E+00  0.54678354633E+03  0.54678354633E+03  0.00000000000E+00 0.  1.
         21   -1    0    0  501  502 -0.00000000000E+00 -0.00000000000E+00 -0.21624260094E+03  0.21624260094E+03  0.00000000000E+00 0.  1.
         25    1    1    2    0    0 -0.16223432958E+03 -0.39072765932E+02 -0.26443198462E+02  0.21016874524E+03  0.12500000000E+03 0.  0.
         25    1    1    2    0    0  0.17956507554E+03  0.12075767664E+03  0.13296044983E+03  0.28307157053E+03  0.12500000000E+03 0.  0.
         25    1    1    2    0    0 -0.17330745960E+02 -0.81684910707E+02  0.22402369402E+03  0.26978583150E+03  0.12500000000E+03 0.  0.
</event>
<event>
 5    0  0.5749909E-005  0.2508472E+03  0.7546771E-02  0.1112771E+00
         21   -1    0    0  502  501  0.00000000000E+00  0.00000000000E+00  0.37716175789E+03  0.37716175789E+03  0.00000000000E+00 0.  1.
         21   -1    0    0  501  502 -0.00000000000E+00 -0.00000000000E+00 -0.16683635523E+03  0.16683635523E+03  0.00000000000E+00 0.  1.
         25    1    1    2    0    0 -0.63475231192E+02  0.40705826534E+02  0.57682961098E+02  0.15696621703E+03  0.12500000000E+03 0.  0.
         25    1    1    2    0    0  0.18962010693E+02 -0.71414470204E+01  0.20461312370E+03  0.24062852804E+03  0.12500000000E+03 0.  0.
         25    1    1    2    0    0  0.44513220499E+02 -0.33564379513E+02 -0.51970682146E+02  0.14640336804E+03  0.12500000000E+03 0.  0.
</event>
<event>
 5    0  0.5749909E-005  0.3657912E+03  0.7546771E-02  0.1056314E+00
         21   -1    0    0  502  501  0.00000000000E+00  0.00000000000E+00  0.10811454594E+04  0.10811454594E+04  0.00000000000E+00 0. -1.
         21   -1    0    0  501  502 -0.00000000000E+00 -0.00000000000E+00 -0.12376061689E+03  0.12376061689E+03  0.00000000000E+00 0. -1.
         25    1    1    2    0    0  0.87027881289E+02  0.21883688043E+03  0.72738640754E+03  0.77471247456E+03  0.12500000000E+03 0.  0.
         25    1    1    2    0    0 -0.78972406125E+01 -0.40514355125E+02  0.90356304244E+02  0.15966540357E+03  0.12500000000E+03 0.  0.
         25    1    1    2    0    0 -0.79130640676E+02 -0.17832252531E+03  0.13964213071E+03  0.27052819815E+03  0.12500000000E+03 0.  0.
</event>
<event>
 5    0  0.5749909E-005  0.4047375E+03  0.7546771E-02  0.1042151E+00
         21   -1    0    0  502  501  0.00000000000E+00  0.00000000000E+00  0.11945298807E+03  0.11945298807E+03  0.00000000000E+00 0. -1.
         21   -1    0    0  501  502 -0.00000000000E+00 -0.00000000000E+00 -0.13713547356E+04  0.13713547356E+04  0.00000000000E+00 0. -1.
         25    1    1    2    0    0 -0.15243706681E+03  0.24147944932E+03 -0.30323537797E+03  0.43488628196E+03  0.12500000000E+03 0.  0.
         25    1    1    2    0    0  0.18834073862E+03 -0.16035719597E+03 -0.78115854885E+03  0.82886690280E+03  0.12500000000E+03 0.  0.
         25    1    1    2    0    0 -0.35903671804E+02 -0.81122253358E+02 -0.16750782068E+03  0.22705453888E+03  0.12500000000E+03 0.  0.
</event>
<event>
 5    0  0.5749909E-005  0.3428445E+03  0.7546771E-02  0.1065591E+00
         21   -1    0    0  502  501  0.00000000000E+00  0.00000000000E+00  0.70428900241E+02  0.70428900241E+02  0.00000000000E+00 0.  1.
         21   -1    0    0  501  502 -0.00000000000E+00 -0.00000000000E+00 -0.16689500804E+04  0.16689500804E+04  0.00000000000E+00 0.  1.
         25    1    1    2    0    0  0.23821231925E+03  0.85830282849E+02 -0.42086126492E+03  0.50681471053E+03  0.12500000000E+03 0.  0.
         25    1    1    2    0    0 -0.10183862110E+03 -0.18129293265E+02 -0.43675505402E+03  0.46591818298E+03  0.12500000000E+03 0.  0.
         25    1    1    2    0    0 -0.13637369815E+03 -0.67700989584E+02 -0.74090486124E+03  0.76664608715E+03  0.12500000000E+03 0.  0.
</event>
<event>
 5    0  0.5749909E-005  0.3102254E+03  0.7546771E-02  0.1080238E+00
         21   -1    0    0  502  501  0.00000000000E+00  0.00000000000E+00  0.28663949623E+03  0.28663949623E+03  0.00000000000E+00 0.  1.
         21   -1    0    0  501  502 -0.00000000000E+00 -0.00000000000E+00 -0.33575198706E+03  0.33575198706E+03  0.00000000000E+00 0.  1.
         25    1    1    2    0    0 -0.16208964205E+03  0.39378157367E+02 -0.36472694606E+02  0.21161037023E+03  0.12500000000E+03 0.  0.
         25    1    1    2    0    0  0.12626942927E+02  0.84133067516E+02 -0.79182665867E+02  0.17068306100E+03  0.12500000000E+03 0.  0.
         25    1    1    2    0    0  0.14946269912E+03 -0.12351122488E+03  0.66542869641E+02  0.24009805206E+03  0.12500000000E+03 0.  0.
</event>
<event>
 5    0  0.5749909E-005  0.3775014E+03  0.7546771E-02  0.1051861E+00
         21   -1    0    0  502  501  0.00000000000E+00  0.00000000000E+00  0.31836110755E+03  0.31836110755E+03  0.00000000000E+00 0.  1.
         21   -1    0    0  501  502 -0.00000000000E+00 -0.00000000000E+00 -0.44762789371E+03  0.44762789371E+03  0.00000000000E+00 0.  1.
         25    1    1    2    0    0  0.26548353593E+03 -0.23519752609E+02  0.15285817315E+02  0.29477676778E+03  0.12500000000E+03 0.  0.
         25    1    1    2    0    0 -0.54203857779E+02  0.12108758085E+03 -0.81255853646E+02  0.19956897100E+03  0.12500000000E+03 0.  0.
         25    1    1    2    0    0 -0.21127967815E+03 -0.97567828245E+02 -0.63296749828E+02  0.27164326248E+03  0.12500000000E+03 0.  0.
</event>
<event>
 5    0  0.5749909E-005  0.4571266E+03  0.7546771E-02  0.1025618E+00
         21   -1    0    0  502  501  0.00000000000E+00  0.00000000000E+00  0.15934532622E+03  0.15934532622E+03  0.00000000000E+00 0.  1.
         21   -1    0    0  501  502 -0.00000000000E+00 -0.00000000000E+00 -0.13113956626E+04  0.13113956626E+04  0.00000000000E+00 0.  1.
         25    1    1    2    0    0 -0.20862112579E+03  0.20929651378E+02 -0.40190753260E+03  0.47022918795E+03  0.12500000000E+03 0.  0.
         25    1    1    2    0    0  0.37565494739E+03 -0.11001542653E+03 -0.60449034370E+03  0.73092654160E+03  0.12500000000E+03 0.  0.
         25    1    1    2    0    0 -0.16703382161E+03  0.89085775155E+02 -0.14565246006E+03  0.26958525927E+03  0.12500000000E+03 0.  0.
</event>
<event>
 5    0  0.5749909E-005  0.3826511E+03  0.7546771E-02  0.1049958E+00
         21   -1    0    0  502  501  0.00000000000E+00  0.00000000000E+00  0.24205267463E+03  0.24205267463E+03  0.00000000000E+00 0. -1.
         21   -1    0    0  501  502 -0.00000000000E+00 -0.00000000000E+00 -0.60491721977E+03  0.60491721977E+03  0.00000000000E+00 0. -1.
         25    1    1    2    0    0  0.10167055685E+03  0.19221609054E+03  0.66001296389E+02  0.25935515942E+03  0.12500000000E+03 0.  0.
         25    1    1    2    0    0 -0.69369011630E+01 -0.17908521860E+03 -0.14255710046E+03  0.26089684361E+03  0.12500000000E+03 0.  0.
         25    1    1    2    0    0 -0.94733655691E+02 -0.13130871944E+02 -0.28630874108E+03  0.32671789136E+03  0.12500000000E+03 0.  0.
</event>
<event>
 5    0  0.5749909E-005  0.2826551E+03  0.7546771E-02  0.1094248E+00
         21   -1    0    0  502  501  0.00000000000E+00  0.00000000000E+00  0.52174588009E+02  0.52174588009E+02  0.00000000000E+00 0. -1.
         21   -1    0    0  501  502 -0.00000000000E+00 -0.00000000000E+00 -0.15312797540E+04  0.15312797540E+04  0.00000000000E+00 0. -1.
         25    1    1    2    0    0  0.10744864874E+03 -0.27275546323E+02 -0.56995692465E+03  0.59394028614E+03  0.12500000000E+03 0.  0.
         25    1    1    2    0    0  0.43985312546E+02 -0.86408268350E+02 -0.45744899986E+03  0.48403066435E+03  0.12500000000E+03 0.  0.
         25    1    1    2    0    0 -0.15143396128E+03  0.11368381467E+03 -0.45169924149E+03  0.50548339152E+03  0.12500000000E+03 0.  0.
</event>
<event>
 5    0  0.5749909E-005  0.3553875E+03  0.7546771E-02  0.1060425E+00
         21   -1    0    0  502  501  0.00000000000E+00  0.00000000000E+00  0.21082407691E+04  0.21082407691E+04  0.00000000000E+00 0.  1.
         21   -1    0    0  501  502 -0.00000000000E+00 -0.00000000000E+00 -0.59907888561E+02  0.59907888561E+02  0.00000000000E+00 0.  1.
         25    1    1    2    0    0  0.51314050842E+02 -0.40693493278E+02  0.31823742282E+03  0.34812231972E+03  0.12500000000E+03 0.  0.
         25    1    1    2    0    0  0.17650665898E+02 -0.16211388677E+03  0.27144385184E+03  0.34043974943E+03  0.12500000000E+03 0.  0.
         25    1    1    2    0    0 -0.68964716740E+02  0.20280738004E+03  0.14586516059E+04  0.14795865885E+04  0.12500000000E+03 0.  0.
</event>
<event>
 5    0  0.5749909E-005  0.3460740E+03  0.7546771E-02  0.1064238E+00
         21   -1    0    0  502  501  0.00000000000E+00  0.00000000000E+00  0.90834301848E+03  0.90834301848E+03  0.00000000000E+00 0. -1.
         21   -1    0    0  501  502 -0.00000000000E+00 -0.00000000000E+00 -0.13185242364E+03  0.13185242364E+03  0.00000000000E+00 0. -1.
         25    1    1    2    0    0 -0.15773907258E+03 -0.93682470409E+02  0.75090041157E+02  0.23435343941E+03  0.12500000000E+03 0.  0.
         25    1    1    2    0    0  0.15515793934E+03  0.89533787403E+02  0.61806498886E+03  0.65553002653E+03  0.12500000000E+03 0.  0.
         25    1    1    2    0    0  0.25811332407E+01  0.41486830058E+01  0.83335564826E+02  0.15031197618E+03  0.12500000000E+03 0.  0.
</event>
<event>
 5    0  0.5749909E-005  0.3798694E+03  0.7546771E-02  0.1050982E+00
         21   -1    0    0  502  501  0.00000000000E+00  0.00000000000E+00  0.13873542170E+04  0.13873542170E+04  0.00000000000E+00 0. -1.
         21   -1    0    0  501  502 -0.00000000000E+00 -0.00000000000E+00 -0.10401147889E+03  0.10401147889E+03  0.00000000000E+00 0. -1.
         25    1    1    2    0    0 -0.10369691634E+03 -0.18086936308E+03  0.55259446875E+03  0.60369895134E+03  0.12500000000E+03 0.  0.
         25    1    1    2    0    0 -0.12950337498E+03  0.73731220976E+02  0.16950716637E+03  0.25800212505E+03  0.12500000000E+03 0.  0.
         25    1    1    2    0    0  0.23320029131E+03  0.10713814211E+03  0.56124110303E+03  0.62966461953E+03  0.12500000000E+03 0.  0.
</event>
<event>
 5    0  0.5749909E-005  0.2812609E+03  0.7546771E-02  0.1095002E+00
         21   -1    0    0  502  501  0.00000000000E+00  0.00000000000E+00  0.73330345584E+03  0.73330345584E+03  0.00000000000E+00 0.  1.
         21   -1    0    0  501  502 -0.00000000000E+00 -0.00000000000E+00 -0.10787850072E+03  0.10787850072E+03  0.00000000000E+00 0.  1.
         25    1    1    2    0    0 -0.77944011092E+02 -0.43776449202E+02  0.26748447637E+02  0.15598758226E+03  0.12500000000E+03 0.  0.
         25    1    1    2    0    0  0.11170572820E+03 -0.35438479949E+02  0.40012741933E+03  0.43527118819E+03  0.12500000000E+03 0.  0.
         25    1    1    2    0    0 -0.33761717103E+02  0.79214929150E+02  0.19854908816E+03  0.24992318610E+03  0.12500000000E+03 0.  0.
</event>
<event>
 5    0  0.6134164E-005  0.3101166E+03  0.7546771E-02  0.1080290E+00
         21   -1    0    0  502  501  0.00000000000E+00  0.00000000000E+00  0.35490418886E+03  0.35490418886E+03  0.00000000000E+00 0. -1.
         21   -1    0    0  501  502 -0.00000000000E+00 -0.00000000000E+00 -0.27098095916E+03  0.27098095916E+03  0.00000000000E+00 0. -1.
         25    1    1    2    0    0  0.62269519321E+02 -0.10457608543E+03 -0.60707456503E+02  0.18472694973E+03  0.12500000000E+03 0.  0.
         25    1    1    2    0    0 -0.77098255108E+02 -0.20028038084E+02  0.20593407975E+03  0.25373038536E+03  0.12500000000E+03 0.  0.
         25    1    1    2    0    0  0.14828735786E+02  0.12460412352E+03 -0.61303393552E+02  0.18742781294E+03  0.12500000000E+03 0.  0.
</event>
<event>
 5    0  0.5749909E-005  0.3444081E+03  0.7546771E-02  0.1064934E+00
         21   -1    0    0  502  501  0.00000000000E+00  0.00000000000E+00  0.95818439657E+03  0.95818439657E+03  0.00000000000E+00 0.  1.
         21   -1    0    0  501  502 -0.00000000000E+00 -0.00000000000E+00 -0.12379340634E+03  0.12379340634E+03  0.00000000000E+00 0.  1.
         25    1    1    2    0    0 -0.13197122383E+03 -0.99771880349E+02  0.37205760510E+03  0.42593742914E+03  0.12500000000E+03 0.  0.
         25    1    1    2    0    0 -0.17888550619E+02  0.10186907418E+03  0.42821636146E+03  0.45792091101E+03  0.12500000000E+03 0.  0.
         25    1    1    2    0    0  0.14985977445E+03 -0.20971938267E+01  0.34117023657E+02  0.19811946276E+03  0.12500000000E+03 0.  0.
</event>
<event>
 5    0  0.5749909E-005  0.3238405E+03  0.7546771E-02  0.1073895E+00
         21   -1    0    0  502  501  0.00000000000E+00  0.00000000000E+00  0.13111573569E+04  0.13111573569E+04  0.00000000000E+00 0. -1.
         21   -1    0    0  501  502 -0.00000000000E+00 -0.00000000000E+00 -0.79984829011E+02  0.79984829011E+02  0.00000000000E+00 0. -1.
         25    1    1    2    0    0  0.83255952058E+01 -0.65205447357E+02  0.46634079846E+02  0.14873064010E+03  0.12500000000E+03 0.  0.
         25    1    1    2    0    0  0.53145281269E+02  0.13244010236E+03  0.39917956285E+03  0.44196620349E+03  0.12500000000E+03 0.  0.
         25    1    1    2    0    0 -0.61470876475E+02 -0.67234655007E+02  0.78535888519E+03  0.80044534232E+03  0.12500000000E+03 0.  0.
</event>
<event>
 5    0  0.5749909E-005  0.2366561E+03  0.7546771E-02  0.1122041E+00
         21   -1    0    0  502  501  0.00000000000E+00  0.00000000000E+00  0.91305904226E+03  0.91305904226E+03  0.00000000000E+00 0. -1.
         21   -1    0    0  501  502 -0.00000000000E+00 -0.00000000000E+00 -0.61338961763E+02  0.61338961763E+02  0.00000000000E+00 0. -1.
         25    1    1    2    0    0 -0.30489651178E+02  0.13365234085E+02  0.25646643603E+03  0.28724254755E+03  0.12500000000E+03 0.  0.
         25    1    1    2    0    0  0.16946731202E+02 -0.81938758129E+02  0.12500587213E+03  0.19558276981E+03  0.12500000000E+03 0.  0.
         25    1    1    2    0    0  0.13542919976E+02  0.68573524044E+02  0.47024777234E+03  0.49157268666E+03  0.12500000000E+03 0.  0.
</event>
<event>
 5    0  0.5749909E-005  0.3306124E+03  0.7546771E-02  0.1070866E+00
         21   -1    0    0  502  501  0.00000000000E+00  0.00000000000E+00  0.20547501754E+03  0.20547501754E+03  0.00000000000E+00 0.  1.
         21   -1    0    0  501  502 -0.00000000000E+00 -0.00000000000E+00 -0.53196042912E+03  0.53196042912E+03  0.00000000000E+00 0.  1.
         25    1    1    2    0    0  0.21290739539E+02 -0.10274261518E+03 -0.22424440339E+03  0.27734435818E+03  0.12500000000E+03 0.  0.
         25    1    1    2    0    0 -0.13042023264E+03 -0.41027910732E+02 -0.14642919485E+03  0.23613393582E+03  0.12500000000E+03 0.  0.
         25    1    1    2    0    0  0.10912949310E+03  0.14377052591E+03  0.44188186663E+02  0.22395715266E+03  0.12500000000E+03 0.  0.
</event>
<event>
 5    0  0.5749909E-005  0.6751734E+03  0.7546771E-02  0.9760657E-01
         21   -1    0    0  502  501  0.00000000000E+00  0.00000000000E+00  0.22704033773E+04  0.22704033773E+04  0.00000000000E+00 0. -1.
         21   -1    0    0  501  502 -0.00000000000E+00 -0.00000000000E+00 -0.20078333138E+03  0.20078333138E+03  0.00000000000E+00 0. -1.
         25    1    1    2    0    0 -0.13381666806E+03 -0.27544784260E+03  0.12464337969E+04  0.12895738151E+04  0.12500000000E+03 0.  0.
         25    1    1    2    0    0  0.42765217486E+03  0.11243829805E+03  0.30512209671E+03  0.55159155852E+03  0.12500000000E+03 0.  0.
         25    1    1    2    0    0 -0.29383550680E+03  0.16300954456E+03  0.51806415230E+03  0.63002133501E+03  0.12500000000E+03 0.  0.
</event>
<event>
 5    0  0.5749909E-005  0.3771584E+03  0.7546771E-02  0.1051989E+00
         21   -1    0    0  502  501  0.00000000000E+00  0.00000000000E+00  0.34444379299E+03  0.34444379299E+03  0.00000000000E+00 0. -1.
         21   -1    0    0  501  502 -0.00000000000E+00 -0.00000000000E+00 -0.41298010708E+03  0.41298010708E+03  0.00000000000E+00 0. -1.
         25    1    1    2    0    0  0.40486067600E+02  0.92009933392E+02 -0.71544217483E+02  0.17563748053E+03  0.12500000000E+03 0.  0.
         25    1    1    2    0    0  0.18698650260E+03 -0.17051848699E+03  0.91228815617E+02  0.29662805558E+03  0.12500000000E+03 0.  0.
         25    1    1    2    0    0 -0.22747257020E+03  0.78508553601E+02 -0.88220912216E+02  0.28515836396E+03  0.12500000000E+03 0.  0.
</event>
<event>
 5    0  0.5749909E-005  0.3261909E+03  0.7546771E-02  0.1072835E+00
         21   -1    0    0  502  501  0.00000000000E+00  0.00000000000E+00  0.39072741495E+03  0.39072741495E+03  0.00000000000E+00 0. -1.
         21   -1    0    0  501  502 -0.00000000000E+00 -0.00000000000E+00 -0.27231384395E+03  0.27231384395E+03  0.00000000000E+00 0. -1.
         25    1    1    2    0    0 -0.10743652237E+03 -0.78300744321E+02 -0.13913923569E+03  0.22947405040E+03  0.12500000000E+03 0.  0.
         25    1    1    2    0    0  0.86107252335E+02 -0.54711864479E+02  0.15184179581E+03  0.22155987447E+03  0.12500000000E+03 0.  0.
         25    1    1    2    0    0  0.21329270035E+02  0.13301260880E+03  0.10571101088E+03  0.21200733403E+03  0.12500000000E+03 0.  0.
</event>
<event>
 5    0  0.5749909E-005  0.2717028E+03  0.7546771E-02  0.1100309E+00
         21   -1    0    0  502  501  0.00000000000E+00  0.00000000000E+00  0.49870700531E+03  0.49870700531E+03  0.00000000000E+00 0. -1.
         21   -1    0    0  501  502 -0.00000000000E+00 -0.00000000000E+00 -0.14802759312E+03  0.14802759312E+03  0.00000000000E+00 0. -1.
         25    1    1    2    0    0 -0.10075700495E+03  0.11145633289E+02  0.30048147090E+03  0.34086700272E+03  0.12500000000E+03 0.  0.
         25    1    1    2    0    0  0.16153149780E+02 -0.64354164950E+02  0.28506889630E+02  0.14436074796E+03  0.12500000000E+03 0.  0.
         25    1    1    2    0    0  0.84603855174E+02  0.53208531661E+02  0.21691051662E+02  0.16150684776E+03  0.12500000000E+03 0.  0.
</event>
<event>
 5    0  0.5749909E-005  0.3744734E+03  0.7546771E-02  0.1052996E+00
         21   -1    0    0  502  501  0.00000000000E+00  0.00000000000E+00  0.54395909385E+03  0.54395909385E+03  0.00000000000E+00 0.  1.
         21   -1    0    0  501  502 -0.00000000000E+00 -0.00000000000E+00 -0.25779567181E+03  0.25779567181E+03  0.00000000000E+00 0.  1.
         25    1    1    2    0    0  0.18816678788E+03  0.25639100681E+02  0.83742535307E+02  0.24228478236E+03  0.12500000000E+03 0.  0.
         25    1    1    2    0    0 -0.29566228973E+03 -0.67299026082E+02  0.51281516611E+02  0.33196406797E+03  0.12500000000E+03 0.  0.
         25    1    1    2    0    0  0.10749550185E+03  0.41659925400E+02  0.15113937013E+03  0.22750591532E+03  0.12500000000E+03 0.  0.
</event>
<event>
 5    0  0.5749909E-005  0.3896377E+03  0.7546771E-02  0.1047428E+00
         21   -1    0    0  502  501  0.00000000000E+00  0.00000000000E+00  0.95716785360E+02  0.95716785360E+02  0.00000000000E+00 0.  1.
         21   -1    0    0  501  502 -0.00000000000E+00 -0.00000000000E+00 -0.15861115646E+04  0.15861115646E+04  0.00000000000E+00 0.  1.
         25    1    1    2    0    0 -0.15219495436E+03  0.13169429789E+03 -0.86963999396E+03  0.90133534898E+03  0.12500000000E+03 0.  0.
         25    1    1    2    0    0  0.36094997545E+02 -0.12297191789E+02 -0.54253968152E+03  0.55805768142E+03  0.12500000000E+03 0.  0.
         25    1    1    2    0    0  0.11609995682E+03 -0.11939710610E+03 -0.78215103731E+02  0.22243531952E+03  0.12500000000E+03 0.  0.
</event>
<event>
 5    0  0.5749909E-005  0.3096746E+03  0.7546771E-02  0.1080502E+00
         21   -1    0    0  502  501  0.00000000000E+00  0.00000000000E+00  0.15859599429E+04  0.15859599429E+04  0.00000000000E+00 0.  1.
         21   -1    0    0  501  502 -0.00000000000E+00 -0.00000000000E+00 -0.60467064881E+02  0.60467064881E+02  0.00000000000E+00 0.  1.
         25    1    1    2    0    0 -0.45444164614E+02  0.47158559985E+02  0.26562195101E+03  0.30078085500E+03  0.12500000000E+03 0.  0.
         25    1    1    2    0    0 -0.11660132680E+03  0.19658055597E+02  0.19865837890E+03  0.26281639992E+03  0.12500000000E+03 0.  0.
         25    1    1    2    0    0  0.16204549142E+03 -0.66816615582E+02  0.10612125481E+04  0.10828297529E+04  0.12500000000E+03 0.  0.
</event>
<event>
 5    0  0.6453485E-005  0.4425198E+03  0.7546771E-02  0.1029976E+00
         21   -1    0    0  502  501  0.00000000000E+00  0.00000000000E+00  0.11731259509E+04  0.11731259509E+04  0.00000000000E+00 0.  1.
         21   -1    0    0  501  502 -0.00000000000E+00 -0.00000000000E+00 -0.16692476764E+03  0.16692476764E+03  0.00000000000E+00 0.  1.
         25    1    1    2    0    0 -0.15714535570E+03 -0.34245675314E+02  0.81718245897E+01  0.20386075594E+03  0.12500000000E+03 0.  0.
         25    1    1    2    0    0 -0.28235312825E+01 -0.14946579828E+03  0.72029246508E+03  0.74618645956E+03  0.12500000000E+03 0.  0.
         25    1    1    2    0    0  0.15996888698E+03  0.18371147359E+03  0.27773689362E+03  0.39000350307E+03  0.12500000000E+03 0.  0.
</event>
<event>
 5    0  0.5749909E-005  0.5128116E+03  0.7546771E-02  0.1010488E+00
         21   -1    0    0  502  501  0.00000000000E+00  0.00000000000E+00  0.15171422071E+03  0.15171422071E+03  0.00000000000E+00 0. -1.
         21   -1    0    0  501  502 -0.00000000000E+00 -0.00000000000E+00 -0.17333623356E+04  0.17333623356E+04  0.00000000000E+00 0. -1.
         25    1    1    2    0    0  0.10308836199E+02 -0.19225628082E+03 -0.11661199636E+04  0.11884988512E+04  0.12500000000E+03 0.  0.
         25    1    1    2    0    0  0.51093861581E+02  0.33367455395E+03 -0.28344954926E+03  0.45816802335E+03  0.12500000000E+03 0.  0.
         25    1    1    2    0    0 -0.61402697780E+02 -0.14141827313E+03 -0.13207860198E+03  0.23840968179E+03  0.12500000000E+03 0.  0.
</event>
<event>
 5    0  0.5749909E-005  0.2757560E+03  0.7546771E-02  0.1098030E+00
         21   -1    0    0  502  501  0.00000000000E+00  0.00000000000E+00  0.13165710577E+04  0.13165710577E+04  0.00000000000E+00 0.  1.
         21   -1    0    0  501  502 -0.00000000000E+00 -0.00000000000E+00 -0.57757151902E+02  0.57757151902E+02  0.00000000000E+00 0.  1.
         25    1    1    2    0    0 -0.36816748698E+02  0.39582404423E+02  0.43208929724E+03  0.45304348634E+03  0.12500000000E+03 0.  0.
         25    1    1    2    0    0  0.69497477656E+02  0.26348022594E+02  0.73592798580E+03  0.75015939505E+03  0.12500000000E+03 0.  0.
         25    1    1    2    0    0 -0.32680728958E+02 -0.65930427017E+02  0.90796622755E+02  0.17112532821E+03  0.12500000000E+03 0.  0.
</event>
<event>
 5    0  0.5749909E-005  0.3239166E+03  0.7546771E-02  0.1073861E+00
         21   -1    0    0  502  501  0.00000000000E+00  0.00000000000E+00  0.22379016024E+03  0.22379016024E+03  0.00000000000E+00 0.  1.
         21   -1    0    0  501  502 -0.00000000000E+00 -0.00000000000E+00 -0.46884083178E+03  0.46884083178E+03  0.00000000000E+00 0.  1.
         25    1    1    2    0    0  0.94468079306E+02 -0.31617004024E+02 -0.23288283792E+03  0.28245932300E+03  0.12500000000E+03 0.  0.
         25    1    1    2    0    0 -0.11138514728E+03 -0.18389206692E+02 -0.14354428594E+03  0.22130245363E+03  0.12500000000E+03 0.  0.
         25    1    1    2    0    0  0.16917067975E+02  0.50006210715E+02  0.13137645232E+03  0.18886921539E+03  0.12500000000E+03 0.  0.
</event>
<event>
 5    0  0.5749909E-005  0.2880309E+03  0.7546771E-02  0.1091382E+00
         21   -1    0    0  502  501  0.00000000000E+00  0.00000000000E+00  0.90659258525E+02  0.90659258525E+02  0.00000000000E+00 0.  1.
         21   -1    0    0  501  502 -0.00000000000E+00 -0.00000000000E+00 -0.91509457280E+03  0.91509457280E+03  0.00000000000E+00 0.  1.
         25    1    1    2    0    0 -0.15764255128E+03  0.38056607844E+02 -0.37394321290E+03  0.42633086429E+03  0.12500000000E+03 0.  0.
         25    1    1    2    0    0  0.80195574609E+02 -0.25589833399E+01 -0.59182658548E+02  0.15989204375E+03  0.12500000000E+03 0.  0.
         25    1    1    2    0    0  0.77446976674E+02 -0.35497624504E+02 -0.39130944282E+03  0.41953092328E+03  0.12500000000E+03 0.  0.
</event>
<event>
 5    0  0.5749909E-005  0.2722178E+03  0.7546771E-02  0.1100017E+00
         21   -1    0    0  502  501  0.00000000000E+00  0.00000000000E+00  0.12312506967E+04  0.12312506967E+04  0.00000000000E+00 0.  1.
         21   -1    0    0  501  502 -0.00000000000E+00 -0.00000000000E+00 -0.60184757659E+02  0.60184757659E+02  0.00000000000E+00 0.  1.
         25    1    1    2    0    0  0.13167045214E+03 -0.56917753774E+02  0.63955978833E+03  0.66726191373E+03  0.12500000000E+03 0.  0.
         25    1    1    2    0    0 -0.77634759481E+02  0.57007831307E+02  0.14472781164E+03  0.21412190026E+03  0.12500000000E+03 0.  0.
         25    1    1    2    0    0 -0.54035692662E+02 -0.90077533614E-01  0.38677833908E+03  0.41005164037E+03  0.12500000000E+03 0.  0.
</event>
<event>
 5    0  0.5749909E-005  0.2922876E+03  0.7546771E-02  0.1089161E+00
         21   -1    0    0  502  501  0.00000000000E+00  0.00000000000E+00  0.40656565217E+03  0.40656565217E+03  0.00000000000E+00 0. -1.
         21   -1    0    0  501  502 -0.00000000000E+00 -0.00000000000E+00 -0.21013102695E+03  0.21013102695E+03  0.00000000000E+00 0. -1.
         25    1    1    2    0    0  0.15009217665E+03  0.10959882992E+03  0.90347929716E+02  0.24151048303E+03  0.12500000000E+03 0.  0.
         25    1    1    2    0    0 -0.11921456742E+02 -0.84914743992E+02 -0.13870736116E+02  0.15221705620E+03  0.12500000000E+03 0.  0.
         25    1    1    2    0    0 -0.13817071991E+03 -0.24684085923E+02  0.11995743162E+03  0.22296913988E+03  0.12500000000E+03 0.  0.
</event>
<event>
 5    0  0.5749909E-005  0.3206440E+03  0.7546771E-02  0.1075353E+00
         21   -1    0    0  502  501  0.00000000000E+00  0.00000000000E+00  0.34102455975E+03  0.34102455975E+03  0.00000000000E+00 0.  1.
         21   -1    0    0  501  502 -0.00000000000E+00 -0.00000000000E+00 -0.30148148054E+03  0.30148148054E+03  0.00000000000E+00 0.  1.
         25    1    1    2    0    0 -0.37468267814E+02 -0.11476113729E+03 -0.17536916564E+02  0.17466119537E+03  0.12500000000E+03 0.  0.
         25    1    1    2    0    0  0.14367976564E+02 -0.64454359471E+02  0.16975971344E+03  0.22091664381E+03  0.12500000000E+03 0.  0.
         25    1    1    2    0    0  0.23100291250E+02  0.17921549676E+03 -0.11267971766E+03  0.24692820112E+03  0.12500000000E+03 0.  0.
</event>
<event>
 5    0  0.5749909E-005  0.2781287E+03  0.7546771E-02  0.1096715E+00
         21   -1    0    0  502  501  0.00000000000E+00  0.00000000000E+00  0.15326700344E+03  0.15326700344E+03  0.00000000000E+00 0.  1.
         21   -1    0    0  501  502 -0.00000000000E+00 -0.00000000000E+00 -0.50471119731E+03  0.50471119731E+03  0.00000000000E+00 0.  1.
         25    1    1    2    0    0 -0.10601930330E+03 -0.72756157536E+02 -0.15046778650E+03  0.23409208851E+03  0.12500000000E+03 0.  0.
         25    1    1    2    0    0  0.17924533785E+03  0.64681291343E+02 -0.12987913241E+03  0.26230926332E+03  0.12500000000E+03 0.  0.
         25    1    1    2    0    0 -0.73226034547E+02  0.80748661937E+01 -0.71097274965E+02  0.16157684892E+03  0.12500000000E+03 0.  0.
</event>
<event>
 5    0  0.5749909E-005  0.3356252E+03  0.7546771E-02  0.1068675E+00
         21   -1    0    0  502  501  0.00000000000E+00  0.00000000000E+00  0.23183886232E+03  0.23183886232E+03  0.00000000000E+00 0. -1.
         21   -1    0    0  501  502 -0.00000000000E+00 -0.00000000000E+00 -0.48587313782E+03  0.48587313782E+03  0.00000000000E+00 0. -1.
         25    1    1    2    0    0  0.13750465938E+03  0.13791026907E+03  0.40795392773E+02  0.23498093058E+03  0.12500000000E+03 0.  0.
         25    1    1    2    0    0 -0.16130599669E+03 -0.11934885769E+03 -0.25587278622E+03  0.34836712980E+03  0.12500000000E+03 0.  0.
         25    1    1    2    0    0  0.23801337315E+02 -0.18561411377E+02 -0.38956882057E+02  0.13436393977E+03  0.12500000000E+03 0.  0.
</event>
<event>
 5    0  0.5749909E-005  0.2796765E+03  0.7546771E-02  0.1095866E+00
         21   -1    0    0  502  501  0.00000000000E+00  0.00000000000E+00  0.21770718172E+03  0.21770718172E+03  0.00000000000E+00 0. -1.
         21   -1    0    0  501  502 -0.00000000000E+00 -0.00000000000E+00 -0.35928499658E+03  0.35928499658E+03  0.00000000000E+00 0. -1.
         25    1    1    2    0    0  0.97718201151E+02  0.34288707549E+02 -0.18945064151E+03  0.24948167843E+03  0.12500000000E+03 0.  0.
         25    1    1    2    0    0 -0.13780312200E+03 -0.41270832910E+02  0.10574110788E+02  0.19086590555E+03  0.12500000000E+03 0.  0.
         25    1    1    2    0    0  0.40084920851E+02  0.69821253614E+01  0.37298715858E+02  0.13664459433E+03  0.12500000000E+03 0.  0.
</event>
<event>
 5    0  0.5749909E-005  0.4148129E+03  0.7546771E-02  0.1038768E+00
         21   -1    0    0  502  501  0.00000000000E+00  0.00000000000E+00  0.56137614201E+03  0.56137614201E+03  0.00000000000E+00 0. -1.
         21   -1    0    0  501  502 -0.00000000000E+00 -0.00000000000E+00 -0.30651415225E+03  0.30651415225E+03  0.00000000000E+00 0. -1.
         25    1    1    2    0    0  0.18289909322E+03 -0.64403519094E+02  0.34241659162E+03  0.41288498858E+03  0.12500000000E+03 0.  0.
         25    1    1    2    0    0 -0.13576678545E+03  0.16758273956E+03 -0.12973079561E+03  0.28101899217E+03  0.12500000000E+03 0.  0.
         25    1    1    2    0    0 -0.47132307779E+02 -0.10317922046E+03  0.42176193751E+02  0.17398631352E+03  0.12500000000E+03 0.  0.
</event>
<event>
 5    0  0.5749909E-005  0.2779905E+03  0.7546771E-02  0.1096792E+00
         21   -1    0    0  502  501  0.00000000000E+00  0.00000000000E+00  0.25446888364E+04  0.25446888364E+04  0.00000000000E+00 0. -1.
         21   -1    0    0  501  502 -0.00000000000E+00 -0.00000000000E+00 -0.30368624851E+02  0.30368624851E+02  0.00000000000E+00 0. -1.
         25    1    1    2    0    0 -0.40993280760E+02 -0.11584255699E+03  0.85395207085E+03  0.87175632283E+03  0.12500000000E+03 0.  0.
         25    1    1    2    0    0  0.13268288556E+03  0.48956178241E+02  0.58325383318E+03  0.61303465598E+03  0.12500000000E+03 0.  0.
         25    1    1    2    0    0 -0.91689604799E+02  0.66886378748E+02  0.10771143075E+04  0.10902664824E+04  0.12500000000E+03 0.  0.
</event>
<event>
 5    0  0.5749909E-005  0.3754496E+03  0.7546771E-02  0.1052629E+00
         21   -1    0    0  502  501  0.00000000000E+00  0.00000000000E+00  0.41414014696E+03  0.41414014696E+03  0.00000000000E+00 0.  1.
         21   -1    0    0  501  502 -0.00000000000E+00 -0.00000000000E+00 -0.34037366499E+03  0.34037366499E+03  0.00000000000E+00 0.  1.
         25    1    1    2    0    0 -0.21812706099E+03 -0.70832156340E+02  0.15255013232E+03  0.30247834960E+03  0.12500000000E+03 0.  0.
         25    1    1    2    0    0  0.10488620948E+03  0.10145191361E+03  0.89367779450E+02  0.21190848902E+03  0.12500000000E+03 0.  0.
         25    1    1    2    0    0  0.11324085151E+03 -0.30619757268E+02 -0.16815142979E+03  0.24012697334E+03  0.12500000000E+03 0.  0.
</event>
<event>
 5    0  0.5749909E-005  0.2016055E+03  0.7546771E-02  0.1148391E+00
         21   -1    0    0  502  501  0.00000000000E+00  0.00000000000E+00  0.46175608955E+03  0.46175608955E+03  0.00000000000E+00 0.  1.
         21   -1    0    0  501  502 -0.00000000000E+00 -0.00000000000E+00 -0.88022215863E+02  0.88022215863E+02  0.00000000000E+00 0.  1.
         25    1    1    2    0    0 -0.31052919007E+02  0.19947193203E+02  0.77987907296E+02  0.15188577280E+03  0.12500000000E+03 0.  0.
         25    1    1    2    0    0 -0.21546149718E+02 -0.22668598548E+01  0.11494763158E+03  0.17119384693E+03  0.12500000000E+03 0.  0.
         25    1    1    2    0    0  0.52599068725E+02 -0.17680333348E+02  0.18079833482E+03  0.22669868568E+03  0.12500000000E+03 0.  0.
</event>
<event>
 5    0  0.5749909E-005  0.3519356E+03  0.7546771E-02  0.1061823E+00
         21   -1    0    0  502  501  0.00000000000E+00  0.00000000000E+00  0.30097062545E+03  0.30097062545E+03  0.00000000000E+00 0.  1.
         21   -1    0    0  501  502 -0.00000000000E+00 -0.00000000000E+00 -0.41153071367E+03  0.41153071367E+03  0.00000000000E+00 0.  1.
         25    1    1    2    0    0 -0.24999188940E+02 -0.16459139982E+03 -0.28084636848E+03  0.34959257863E+03  0.12500000000E+03 0.  0.
         25    1    1    2    0    0  0.54965406765E+02  0.12698354710E+03  0.95185554156E+02  0.20935927707E+03  0.12500000000E+03 0.  0.
         25    1    1    2    0    0 -0.29966217825E+02  0.37607852721E+02  0.75100726099E+02  0.15354948342E+03  0.12500000000E+03 0.  0.
</event>
<event>
 5    0  0.5749909E-005  0.2620375E+03  0.7546771E-02  0.1105925E+00
         21   -1    0    0  502  501  0.00000000000E+00  0.00000000000E+00  0.93568347608E+03  0.93568347608E+03  0.00000000000E+00 0. -1.
         21   -1    0    0  501  502 -0.00000000000E+00 -0.00000000000E+00 -0.73383391621E+02  0.73383391621E+02  0.00000000000E+00 0. -1.
         25    1    1    2    0    0  0.90743227240E+02 -0.10255415393E+03  0.53884089057E+03  0.56984751744E+03  0.12500000000E+03 0.  0.
         25    1    1    2    0    0 -0.53100360331E+02  0.37711735088E+02  0.10155905254E+03  0.17372698231E+03  0.12500000000E+03 0.  0.
         25    1    1    2    0    0 -0.37642866910E+02  0.64842418840E+02  0.22190014134E+03  0.26549236794E+03  0.12500000000E+03 0.  0.
</event>
<event>
 5    0  0.5749909E-005  0.2365838E+03  0.7546771E-02  0.1122090E+00
         21   -1    0    0  502  501  0.00000000000E+00  0.00000000000E+00  0.20268832483E+04  0.20268832483E+04  0.00000000000E+00 0. -1.
         21   -1    0    0  501  502 -0.00000000000E+00 -0.00000000000E+00 -0.27614765856E+02  0.27614765856E+02  0.00000000000E+00 0. -1.
         25    1    1    2    0    0  0.94948824385E+02 -0.27950248522E+02  0.84651140816E+03  0.86139599476E+03  0.12500000000E+03 0.  0.
         25    1    1    2    0    0 -0.77629017723E+02  0.84082997075E+02  0.62408349206E+03  0.64668494636E+03  0.12500000000E+03 0.  0.
         25    1    1    2    0    0 -0.17319806662E+02 -0.56132748553E+02  0.52867358227E+03  0.54641707308E+03  0.12500000000E+03 0.  0.
</event>
<event>
 5    0  0.5749909E-005  0.3108215E+03  0.7546771E-02  0.1079953E+00
         21   -1    0    0  502  501  0.00000000000E+00  0.00000000000E+00  0.18332267688E+03  0.18332267688E+03  0.00000000000E+00 0.  1.
         21   -1    0    0  501  502 -0.00000000000E+00 -0.00000000000E+00 -0.52699425841E+03  0.52699425841E+03  0.00000000000E+00 0.  1.
         25    1    1    2    0    0 -0.15482819011E+02 -0.16888809159E+03 -0.75567307711E+02  0.22382654704E+03  0.12500000000E+03 0.  0.
         25    1    1    2    0    0 -0.12124469523E+03  0.10426196831E+03 -0.91997789591E+02  0.22284395313E+03  0.12500000000E+03 0.  0.
         25    1    1    2    0    0  0.13672751424E+03  0.64626123276E+02 -0.17610648423E+03  0.26364643511E+03  0.12500000000E+03 0.  0.
</event>
<event>
 5    0  0.5749909E-005  0.3743638E+03  0.7546771E-02  0.1053037E+00
         21   -1    0    0  502  501  0.00000000000E+00  0.00000000000E+00  0.15762595745E+03  0.15762595745E+03  0.00000000000E+00 0. -1.
         21   -1    0    0  501  502 -0.00000000000E+00 -0.00000000000E+00 -0.88911912308E+03  0.88911912308E+03  0.00000000000E+00 0. -1.
         25    1    1    2    0    0  0.54447404856E+02 -0.25966056865E+02 -0.38771574216E+02  0.14410756737E+03  0.12500000000E+03 0.  0.
         25    1    1    2    0    0  0.13711695675E+03 -0.14032341419E+03 -0.52404058977E+03  0.57335439314E+03  0.12500000000E+03 0.  0.
         25    1    1    2    0    0 -0.19156436160E+03  0.16628947105E+03 -0.16868100164E+03  0.32928312003E+03  0.12500000000E+03 0.  0.
</event>
<event>
 5    0  0.5749909E-005  0.2610682E+03  0.7546771E-02  0.1106503E+00
         21   -1    0    0  502  501  0.00000000000E+00  0.00000000000E+00  0.71961063057E+03  0.71961063057E+03  0.00000000000E+00 0.  1.
         21   -1    0    0  501  502 -0.00000000000E+00 -0.00000000000E+00 -0.94713187764E+02  0.94713187764E+02  0.00000000000E+00 0.  1.
         25    1    1    2    0    0 -0.10570705134E+03 -0.58729804943E+02  0.21220523908E+03  0.27437061465E+03  0.12500000000E+03 0.  0.
         25    1    1    2    0    0  0.14490695299E+03  0.28173410948E+02  0.32861823554E+03  0.38132231883E+03  0.12500000000E+03 0.  0.
         25    1    1    2    0    0 -0.39199901653E+02  0.30556393995E+02  0.84073968192E+02  0.15863088486E+03  0.12500000000E+03 0.  0.
</event>
<event>
 5    0  0.5749909E-005  0.3136256E+03  0.7546771E-02  0.1078621E+00
         21   -1    0    0  502  501  0.00000000000E+00  0.00000000000E+00  0.84433149604E+02  0.84433149604E+02  0.00000000000E+00 0.  1.
         21   -1    0    0  501  502 -0.00000000000E+00 -0.00000000000E+00 -0.11649570244E+04  0.11649570244E+04  0.00000000000E+00 0.  1.
         25    1    1    2    0    0  0.65180504821E+02 -0.16733839880E+03 -0.17368604425E+03  0.27936084172E+03  0.12500000000E+03 0.  0.
         25    1    1    2    0    0 -0.10917933047E+03  0.83952460050E+02 -0.54162582889E+03  0.57267065603E+03  0.12500000000E+03 0.  0.
         25    1    1    2    0    0  0.43998825653E+02  0.83385938748E+02 -0.36521200162E+03  0.39735867622E+03  0.12500000000E+03 0.  0.
</event>
<event>
 5    0  0.5749909E-005  0.2722901E+03  0.7546771E-02  0.1099976E+00
         21   -1    0    0  502  501  0.00000000000E+00  0.00000000000E+00  0.22871401822E+03  0.22871401822E+03  0.00000000000E+00 0. -1.
         21   -1    0    0  501  502 -0.00000000000E+00 -0.00000000000E+00 -0.32416861131E+03  0.32416861131E+03  0.00000000000E+00 0. -1.
         25    1    1    2    0    0  0.21598068336E+02  0.31258233886E+02 -0.20378398380E+02  0.13222644540E+03  0.12500000000E+03 0.  0.
         25    1    1    2    0    0  0.11027440445E+03 -0.53181735946E+02 -0.14245713683E+03  0.22562751860E+03  0.12500000000E+03 0.  0.
         25    1    1    2    0    0 -0.13187247279E+03  0.21923502060E+02  0.67380942111E+02  0.19502866554E+03  0.12500000000E+03 0.  0.
</event>
<event>
 5    0  0.5749909E-005  0.2391869E+03  0.7546771E-02  0.1120336E+00
         21   -1    0    0  502  501  0.00000000000E+00  0.00000000000E+00  0.61269954218E+02  0.61269954218E+02  0.00000000000E+00 0. -1.
         21   -1    0    0  501  502 -0.00000000000E+00 -0.00000000000E+00 -0.93374284725E+03  0.93374284725E+03  0.00000000000E+00 0. -1.
         25    1    1    2    0    0 -0.37165147909E+02  0.47904425395E+02 -0.21355045044E+03  0.25476435597E+03  0.12500000000E+03 0.  0.
         25    1    1    2    0    0  0.12538679278E+02 -0.11618375667E+03 -0.22364939516E+03  0.28160244272E+03  0.12500000000E+03 0.  0.
         25    1    1    2    0    0  0.24626468631E+02  0.68279331277E+02 -0.43527304744E+03  0.45864600278E+03  0.12500000000E+03 0.  0.
</event>
<event>
 5    0  0.5749909E-005  0.2934048E+03  0.7546771E-02  0.1088585E+00
         21   -1    0    0  502  501  0.00000000000E+00  0.00000000000E+00  0.92218737499E+02  0.92218737499E+02  0.00000000000E+00 0.  1.
         21   -1    0    0  501  502 -0.00000000000E+00 -0.00000000000E+00 -0.93350206882E+03  0.93350206882E+03  0.00000000000E+00 0.  1.
         25    1    1    2    0    0 -0.11861847099E+03 -0.33857242575E+02 -0.79172136957E+02  0.19263925302E+03  0.12500000000E+03 0.  0.
         25    1    1    2    0    0  0.10889366674E+03 -0.54530168215E+02 -0.31123917706E+03  0.35682796308E+03  0.12500000000E+03 0.  0.
         25    1    1    2    0    0  0.97248042462E+01  0.88387410790E+02 -0.45087201731E+03  0.47625359022E+03  0.12500000000E+03 0.  0.
</event>
<event>
 5    0  0.5749909E-005  0.2817136E+03  0.7546771E-02  0.1094757E+00
         21   -1    0    0  502  501  0.00000000000E+00  0.00000000000E+00  0.98607618314E+03  0.98607618314E+03  0.00000000000E+00 0.  1.
         21   -1    0    0  501  502 -0.00000000000E+00 -0.00000000000E+00 -0.80483157239E+02  0.80483157239E+02  0.00000000000E+00 0.  1.
         25    1    1    2    0    0  0.12465616214E+03 -0.64401107083E+02  0.59386179498E+03  0.62288320967E+03  0.12500000000E+03 0.  0.
         25    1    1    2    0    0 -0.25642056660E+02  0.41877797435E+02  0.65413047015E+02  0.14938250134E+03  0.12500000000E+03 0.  0.
         25    1    1    2    0    0 -0.99014105481E+02  0.22523309649E+02  0.24631818391E+03  0.29429362937E+03  0.12500000000E+03 0.  0.
</event>
<event>
 5    0  0.5749909E-005  0.2469162E+03  0.7546771E-02  0.1115269E+00
         21   -1    0    0  502  501  0.00000000000E+00  0.00000000000E+00  0.10868196926E+03  0.10868196926E+03  0.00000000000E+00 0. -1.
         21   -1    0    0  501  502 -0.00000000000E+00 -0.00000000000E+00 -0.56097277905E+03  0.56097277905E+03  0.00000000000E+00 0. -1.
         25    1    1    2    0    0  0.52091260182E+02  0.26249611618E+02 -0.17994505379E+03  0.22673280283E+03  0.12500000000E+03 0.  0.
         25    1    1    2    0    0 -0.10090049900E+03 -0.87215513948E+02 -0.22110087326E+03  0.28687637185E+03  0.12500000000E+03 0.  0.
         25    1    1    2    0    0  0.48809238814E+02  0.60965902329E+02 -0.51244882747E+02  0.15604557363E+03  0.12500000000E+03 0.  0.
</event>
<event>
 5    0  0.5749909E-005  0.3033604E+03  0.7546771E-02  0.1083573E+00
         21   -1    0    0  502  501  0.00000000000E+00  0.00000000000E+00  0.22055501987E+03  0.22055501987E+03  0.00000000000E+00 0.  1.
         21   -1    0    0  501  502 -0.00000000000E+00 -0.00000000000E+00 -0.41725432159E+03  0.41725432159E+03  0.00000000000E+00 0.  1.
         25    1    1    2    0    0  0.75550534064E+02  0.40437467440E+02 -0.71895439227E+02  0.16774094954E+03  0.12500000000E+03 0.  0.
         25    1    1    2    0    0  0.45772009091E+02  0.28378681184E+02  0.10622687674E+03  0.17265449807E+03  0.12500000000E+03 0.  0.
         25    1    1    2    0    0 -0.12132254315E+03 -0.68816148624E+02 -0.23103073923E+03  0.29741389385E+03  0.12500000000E+03 0.  0.
</event>
<event>
 5    0  0.5749909E-005  0.3062116E+03  0.7546771E-02  0.1082176E+00
         21   -1    0    0  502  501  0.00000000000E+00  0.00000000000E+00  0.61502364649E+03  0.61502364649E+03  0.00000000000E+00 0.  1.
         21   -1    0    0  501  502 -0.00000000000E+00 -0.00000000000E+00 -0.15245842864E+03  0.15245842864E+03  0.00000000000E+00 0.  1.
         25    1    1    2    0    0  0.11211576144E+03  0.95809967566E+01  0.38265666504E+03  0.41798667773E+03  0.12500000000E+03 0.  0.
         25    1    1    2    0    0 -0.15059891780E+03  0.97454464082E+01  0.18625308728E+01  0.19596805043E+03  0.12500000000E+03 0.  0.
         25    1    1    2    0    0  0.38483156363E+02 -0.19326443165E+02  0.78046021933E+02  0.15352734697E+03  0.12500000000E+03 0.  0.
</event>
<event>
 5    0  0.5749909E-005  0.3484048E+03  0.7546771E-02  0.1063272E+00
         21   -1    0    0  502  501  0.00000000000E+00  0.00000000000E+00  0.10667098327E+03  0.10667098327E+03  0.00000000000E+00 0.  1.
         21   -1    0    0  501  502 -0.00000000000E+00 -0.00000000000E+00 -0.11379470897E+04  0.11379470897E+04  0.00000000000E+00 0.  1.
         25    1    1    2    0    0  0.42755040022E+02  0.68019814754E+02 -0.44485378738E+03  0.46901447823E+03  0.12500000000E+03 0.  0.
         25    1    1    2    0    0 -0.22183375443E+03  0.49295521253E+02 -0.31423611008E+03  0.40744275168E+03  0.12500000000E+03 0.  0.
         25    1    1    2    0    0  0.17907871441E+03 -0.11731533601E+03 -0.27218620900E+03  0.36816084309E+03  0.12500000000E+03 0.  0.
</event>
<event>
 5    0  0.5749909E-005  0.6067638E+03  0.7546771E-02  0.9891472E-01
         21   -1    0    0  502  501  0.00000000000E+00  0.00000000000E+00  0.31732792765E+03  0.31732792765E+03  0.00000000000E+00 0.  1.
         21   -1    0    0  501  502 -0.00000000000E+00 -0.00000000000E+00 -0.11601951357E+04  0.11601951357E+04  0.00000000000E+00 0.  1.
         25    1    1    2    0    0  0.55853908666E+02 -0.49043207847E+03 -0.42452191396E+03  0.66293826118E+03  0.12500000000E+03 0.  0.
         25    1    1    2    0    0  0.55037226519E+02  0.49654983222E+03 -0.38764194803E+03  0.64457901925E+03  0.12500000000E+03 0.  0.
         25    1    1    2    0    0 -0.11089113518E+03 -0.61177537496E+01 -0.30703346067E+02  0.17000578294E+03  0.12500000000E+03 0.  0.
</event>
<event>
 5    0  0.5749909E-005  0.3210002E+03  0.7546771E-02  0.1075190E+00
         21   -1    0    0  502  501  0.00000000000E+00  0.00000000000E+00  0.34667717907E+03  0.34667717907E+03  0.00000000000E+00 0. -1.
         21   -1    0    0  501  502 -0.00000000000E+00 -0.00000000000E+00 -0.29722509283E+03  0.29722509283E+03  0.00000000000E+00 0. -1.
         25    1    1    2    0    0 -0.92691195492E+02 -0.40639046937E+02 -0.85359488530E+02  0.18208358559E+03  0.12500000000E+03 0.  0.
         25    1    1    2    0    0  0.65372263664E+02  0.45904253295E+02  0.24926511947E+03  0.29006694591E+03  0.12500000000E+03 0.  0.
         25    1    1    2    0    0  0.27318931829E+02 -0.52652063577E+01 -0.11445354471E+03  0.17175174040E+03  0.12500000000E+03 0.  0.
</event>
<event>
 5    0  0.5749909E-005  0.2468633E+03  0.7546771E-02  0.1115303E+00
         21   -1    0    0  502  501  0.00000000000E+00  0.00000000000E+00  0.29834368702E+03  0.29834368702E+03  0.00000000000E+00 0.  1.
         21   -1    0    0  501  502 -0.00000000000E+00 -0.00000000000E+00 -0.20426602180E+03  0.20426602180E+03  0.00000000000E+00 0.  1.
         25    1    1    2    0    0  0.34982564599E+02 -0.68177972964E+01 -0.28709729914E+02  0.13311465275E+03  0.12500000000E+03 0.  0.
         25    1    1    2    0    0 -0.21469509460E+02  0.32970795101E+02 -0.61594191203E+02  0.14479937001E+03  0.12500000000E+03 0.  0.
         25    1    1    2    0    0 -0.13513055139E+02 -0.26152997804E+02  0.18438158633E+03  0.22469568606E+03  0.12500000000E+03 0.  0.
</event>
<event>
 5    0  0.5749909E-005  0.3821913E+03  0.7546771E-02  0.1050127E+00
         21   -1    0    0  502  501  0.00000000000E+00  0.00000000000E+00  0.55197750201E+03  0.55197750201E+03  0.00000000000E+00 0. -1.
         21   -1    0    0  501  502 -0.00000000000E+00 -0.00000000000E+00 -0.26463066695E+03  0.26463066695E+03  0.00000000000E+00 0. -1.
         25    1    1    2    0    0 -0.19616612929E+03 -0.17088128660E+03  0.10131764690E+02  0.28880653913E+03  0.12500000000E+03 0.  0.
         25    1    1    2    0    0  0.15103623319E+03 -0.37038048610E+02  0.15366386831E+03  0.25183594899E+03  0.12500000000E+03 0.  0.
         25    1    1    2    0    0  0.45129896095E+02  0.20791933521E+03  0.12355120206E+03  0.27596568084E+03  0.12500000000E+03 0.  0.
</event>
<event>
 5    0  0.5749909E-005  0.2528106E+03  0.7546771E-02  0.1111541E+00
         21   -1    0    0  502  501  0.00000000000E+00  0.00000000000E+00  0.18894988471E+03  0.18894988471E+03  0.00000000000E+00 0.  1.
         21   -1    0    0  501  502 -0.00000000000E+00 -0.00000000000E+00 -0.33825477036E+03  0.33825477036E+03  0.00000000000E+00 0.  1.
         25    1    1    2    0    0  0.59033803029E+02 -0.64263409561E+02 -0.12795912757E+03  0.19903093738E+03  0.12500000000E+03 0.  0.
         25    1    1    2    0    0 -0.63260468918E+02  0.35611667165E+02 -0.10173215957E+03  0.17676116671E+03  0.12500000000E+03 0.  0.
         25    1    1    2    0    0  0.42266658893E+01  0.28651742395E+02  0.80386401486E+02  0.15141255097E+03  0.12500000000E+03 0.  0.
</event>
<event>
 5    0  0.5749909E-005  0.2171115E+03  0.7546771E-02  0.1136055E+00
         21   -1    0    0  502  501  0.00000000000E+00  0.00000000000E+00  0.10094205977E+03  0.10094205977E+03  0.00000000000E+00 0.  1.
         21   -1    0    0  501  502 -0.00000000000E+00 -0.00000000000E+00 -0.46697497179E+03  0.46697497179E+03  0.00000000000E+00 0.  1.
         25    1    1    2    0    0  0.64284270008E+02  0.27408491279E+02 -0.67038795257E+02  0.15812303069E+03  0.12500000000E+03 0.  0.
         25    1    1    2    0    0 -0.40192217250E+02 -0.65996963786E+02 -0.14807599779E+03  0.20862050397E+03  0.12500000000E+03 0.  0.
         25    1    1    2    0    0 -0.24092052758E+02  0.38588472506E+02 -0.15091811898E+03  0.20117349689E+03  0.12500000000E+03 0.  0.
</event>
<event>
 5    0  0.5749909E-005  0.3052175E+03  0.7546771E-02  0.1082661E+00
         21   -1    0    0  502  501  0.00000000000E+00  0.00000000000E+00  0.41939385640E+03  0.41939385640E+03  0.00000000000E+00 0. -1.
         21   -1    0    0  501  502 -0.00000000000E+00 -0.00000000000E+00 -0.22212465342E+03  0.22212465342E+03  0.00000000000E+00 0. -1.
         25    1    1    2    0    0  0.76034560404E+01 -0.14329944633E+03  0.61623201367E+02  0.20003740353E+03  0.12500000000E+03 0.  0.
         25    1    1    2    0    0  0.14349787353E+03  0.10818716063E+03  0.49524555738E+02  0.22444104583E+03  0.12500000000E+03 0.  0.
         25    1    1    2    0    0 -0.15110132957E+03  0.35112285702E+02  0.86121445870E+02  0.21704006046E+03  0.12500000000E+03 0.  0.
</event>
<event>
 5    0  0.5749909E-005  0.4175145E+03  0.7546771E-02  0.1037878E+00
         21   -1    0    0  502  501  0.00000000000E+00  0.00000000000E+00  0.97934698520E+03  0.97934698520E+03  0.00000000000E+00 0. -1.
         21   -1    0    0  501  502 -0.00000000000E+00 -0.00000000000E+00 -0.17799446930E+03  0.17799446930E+03  0.00000000000E+00 0. -1.
         25    1    1    2    0    0 -0.23300725189E+03 -0.64102035340E+02  0.22446771685E+03  0.35272114521E+03  0.12500000000E+03 0.  0.
         25    1    1    2    0    0  0.35296927250E+03  0.89739416870E+02  0.41512049606E+03  0.56620711451E+03  0.12500000000E+03 0.  0.
         25    1    1    2    0    0 -0.11996202062E+03 -0.25637381530E+02  0.16176430299E+03  0.23841319478E+03  0.12500000000E+03 0.  0.
</event>
<event>
 5    0  0.5749909E-005  0.2773009E+03  0.7546771E-02  0.1097172E+00
         21   -1    0    0  502  501  0.00000000000E+00  0.00000000000E+00  0.91553733334E+03  0.91553733334E+03  0.00000000000E+00 0.  1.
         21   -1    0    0  501  502 -0.00000000000E+00 -0.00000000000E+00 -0.83989816085E+02  0.83989816085E+02  0.00000000000E+00 0.  1.
         25    1    1    2    0    0 -0.45559539449E+02 -0.10922938015E+03  0.12991885173E+03  0.21566324944E+03  0.12500000000E+03 0.  0.
         25    1    1    2    0    0  0.88394666098E+02 -0.25916169440E+02  0.25022578768E+03  0.29448804671E+03  0.12500000000E+03 0.  0.
         25    1    1    2    0    0 -0.42835126649E+02  0.13514554959E+03  0.45140287784E+03  0.48937585328E+03  0.12500000000E+03 0.  0.
</event>
<event>
 5    0  0.5749909E-005  0.3526571E+03  0.7546771E-02  0.1061530E+00
         21   -1    0    0  502  501  0.00000000000E+00  0.00000000000E+00  0.76893768669E+02  0.76893768669E+02  0.00000000000E+00 0. -1.
         21   -1    0    0  501  502 -0.00000000000E+00 -0.00000000000E+00 -0.16173877910E+04  0.16173877910E+04  0.00000000000E+00 0. -1.
         25    1    1    2    0    0 -0.35782614307E+02  0.54492559663E+02 -0.45073050356E+03  0.47226350842E+03  0.12500000000E+03 0.  0.
         25    1    1    2    0    0 -0.19234376181E+03 -0.15026711925E+03 -0.49679322977E+03  0.56745470567E+03  0.12500000000E+03 0.  0.
         25    1    1    2    0    0  0.22812637612E+03  0.95774559587E+02 -0.59297028902E+03  0.65456334560E+03  0.12500000000E+03 0.  0.
</event>
<event>
 5    0  0.5749909E-005  0.2573294E+03  0.7546771E-02  0.1108758E+00
         21   -1    0    0  502  501  0.00000000000E+00  0.00000000000E+00  0.57815181605E+03  0.57815181605E+03  0.00000000000E+00 0. -1.
         21   -1    0    0  501  502 -0.00000000000E+00 -0.00000000000E+00 -0.11453468682E+03  0.11453468682E+03  0.00000000000E+00 0. -1.
         25    1    1    2    0    0 -0.12773364368E+03 -0.43391003121E+02  0.73294605715E+02  0.19797919614E+03  0.12500000000E+03 0.  0.
         25    1    1    2    0    0  0.77180346755E+02  0.38080965277E+02  0.28735440418E+03  0.32496848992E+03  0.12500000000E+03 0.  0.
         25    1    1    2    0    0  0.50553296921E+02  0.53100378436E+01  0.10296811933E+03  0.16973881681E+03  0.12500000000E+03 0.  0.
</event>
<event>
 5    0  0.5749909E-005  0.3186735E+03  0.7546771E-02  0.1076261E+00
         21   -1    0    0  502  501  0.00000000000E+00  0.00000000000E+00  0.47917821276E+03  0.47917821276E+03  0.00000000000E+00 0. -1.
         21   -1    0    0  501  502 -0.00000000000E+00 -0.00000000000E+00 -0.21193117690E+03  0.21193117690E+03  0.00000000000E+00 0. -1.
         25    1    1    2    0    0  0.36033849628E+02 -0.16630766814E+02  0.28556438747E+02  0.13422179748E+03  0.12500000000E+03 0.  0.
         25    1    1    2    0    0  0.48828681519E+02 -0.15171559994E+03 -0.30982161252E+02  0.20490670492E+03  0.12500000000E+03 0.  0.
         25    1    1    2    0    0 -0.84862531147E+02  0.16834636675E+03  0.26967275837E+03  0.35198088726E+03  0.12500000000E+03 0.  0.
</event>
<event>
 5    0  0.5938776E-005  0.3628612E+03  0.7546771E-02  0.1057457E+00
         21   -1    0    0  502  501  0.00000000000E+00  0.00000000000E+00  0.31757091956E+03  0.31757091956E+03  0.00000000000E+00 0. -1.
         21   -1    0    0  501  502 -0.00000000000E+00 -0.00000000000E+00 -0.41461056129E+03  0.41461056129E+03  0.00000000000E+00 0. -1.
         25    1    1    2    0    0 -0.42927298349E+02 -0.12466530978E+03  0.14725871488E+03  0.23386817123E+03  0.12500000000E+03 0.  0.
         25    1    1    2    0    0 -0.11984904435E+03  0.14449181153E+03 -0.15472386349E+03  0.27350713147E+03  0.12500000000E+03 0.  0.
         25    1    1    2    0    0  0.16277634270E+03 -0.19826501751E+02 -0.89574493129E+02  0.22480617815E+03  0.12500000000E+03 0.  0.
</event>
<event>
 5    0  0.6797732E-005  0.2902715E+03  0.7546771E-02  0.1090207E+00
         21   -1    0    0  502  501  0.00000000000E+00  0.00000000000E+00  0.35113002589E+03  0.35113002589E+03  0.00000000000E+00 0.  1.
         21   -1    0    0  501  502 -0.00000000000E+00 -0.00000000000E+00 -0.23996110161E+03  0.23996110161E+03  0.00000000000E+00 0.  1.
         25    1    1    2    0    0 -0.28319260313E+02 -0.37779270639E+02 -0.11539375921E+03  0.17655020096E+03  0.12500000000E+03 0.  0.
         25    1    1    2    0    0 -0.83338681479E+02  0.32629464805E+02  0.30825551040E+02  0.15679678696E+03  0.12500000000E+03 0.  0.
         25    1    1    2    0    0  0.11165794179E+03  0.51498058336E+01  0.19573713246E+03  0.25774413958E+03  0.12500000000E+03 0.  0.
</event>
<event>
 5    0  0.5749909E-005  0.4136286E+03  0.7546771E-02  0.1039160E+00
         21   -1    0    0  502  501  0.00000000000E+00  0.00000000000E+00  0.38543417210E+03  0.38543417210E+03  0.00000000000E+00 0. -1.
         21   -1    0    0  501  502 -0.00000000000E+00 -0.00000000000E+00 -0.44388552867E+03  0.44388552867E+03  0.00000000000E+00 0. -1.
         25    1    1    2    0    0  0.11025907497E+03 -0.89715460112E+02  0.56249483848E+02  0.19747134432E+03  0.12500000000E+03 0.  0.
         25    1    1    2    0    0 -0.20813028949E+03 -0.37978989925E+02 -0.27778457115E+03  0.37087718863E+03  0.12500000000E+03 0.  0.
         25    1    1    2    0    0  0.97871214520E+02  0.12769445004E+03  0.16308373073E+03  0.26097116781E+03  0.12500000000E+03 0.  0.
</event>
<event>
 5    0  0.5749909E-005  0.3668279E+03  0.7546771E-02  0.1055913E+00
         21   -1    0    0  502  501  0.00000000000E+00  0.00000000000E+00  0.98419073172E+03  0.98419073172E+03  0.00000000000E+00 0. -1.
         21   -1    0    0  501  502 -0.00000000000E+00 -0.00000000000E+00 -0.13672420442E+03  0.13672420442E+03  0.00000000000E+00 0. -1.
         25    1    1    2    0    0  0.20506642615E+03  0.12614581504E+03  0.13633461037E+03  0.30360687043E+03  0.12500000000E+03 0.  0.
         25    1    1    2    0    0 -0.20720564178E+03 -0.10206503052E+03  0.37457253166E+03  0.45747243623E+03  0.12500000000E+03 0.  0.
         25    1    1    2    0    0  0.21392156248E+01 -0.24080784513E+02  0.33655938528E+03  0.35983562948E+03  0.12500000000E+03 0.  0.
</event>
<event>
 5    0  0.5749909E-005  0.3070966E+03  0.7546771E-02  0.1081746E+00
         21   -1    0    0  502  501  0.00000000000E+00  0.00000000000E+00  0.89144276525E+03  0.89144276525E+03  0.00000000000E+00 0. -1.
         21   -1    0    0  501  502 -0.00000000000E+00 -0.00000000000E+00 -0.10579290039E+03  0.10579290039E+03  0.00000000000E+00 0. -1.
         25    1    1    2    0    0 -0.91177169841E+02  0.15032392791E+01  0.12007918265E+03  0.19585593209E+03  0.12500000000E+03 0.  0.
         25    1    1    2    0    0  0.43756697158E+02 -0.17229966922E+03  0.42586807998E+03  0.47811133233E+03  0.12500000000E+03 0.  0.
         25    1    1    2    0    0  0.47420472682E+02  0.17079642994E+03  0.23970260223E+03  0.32326840121E+03  0.12500000000E+03 0.  0.
</event>
<event>
 5    0  0.5749909E-005  0.3050215E+03  0.7546771E-02  0.1082757E+00
         21   -1    0    0  502  501  0.00000000000E+00  0.00000000000E+00  0.77602227353E+02  0.77602227353E+02  0.00000000000E+00 0.  1.
         21   -1    0    0  501  502 -0.00000000000E+00 -0.00000000000E+00 -0.11989100464E+04  0.11989100464E+04  0.00000000000E+00 0.  1.
         25    1    1    2    0    0 -0.72533525651E+02 -0.92889826071E+01 -0.11425911610E+03  0.18446556088E+03  0.12500000000E+03 0.  0.
         25    1    1    2    0    0  0.18699979329E+03 -0.33416119818E+02 -0.39767177456E+03  0.45809758790E+03  0.12500000000E+03 0.  0.
         25    1    1    2    0    0 -0.11446626764E+03  0.42705102425E+02 -0.60937692840E+03  0.63394912498E+03  0.12500000000E+03 0.  0.
</event>
<event>
 5    0  0.5749909E-005  0.2879730E+03  0.7546771E-02  0.1091412E+00
         21   -1    0    0  502  501  0.00000000000E+00  0.00000000000E+00  0.97104912765E+03  0.97104912765E+03  0.00000000000E+00 0.  1.
         21   -1    0    0  501  502 -0.00000000000E+00 -0.00000000000E+00 -0.85400903705E+02  0.85400903705E+02  0.00000000000E+00 0.  1.
         25    1    1    2    0    0  0.45378592097E+02  0.56345389279E+02  0.54968277924E+02  0.15453326856E+03  0.12500000000E+03 0.  0.
         25    1    1    2    0    0  0.63346581345E+02  0.56239492077E+02  0.35279098589E+03  0.38374750757E+03  0.12500000000E+03 0.  0.
         25    1    1    2    0    0 -0.10872517344E+03 -0.11258488136E+03  0.47788896013E+03  0.51816925523E+03  0.12500000000E+03 0.  0.
</event>
<event>
 5    0  0.5749909E-005  0.2595147E+03  0.7546771E-02  0.1107435E+00
         21   -1    0    0  502  501  0.00000000000E+00  0.00000000000E+00  0.55100589719E+03  0.55100589719E+03  0.00000000000E+00 0. -1.
         21   -1    0    0  501  502 -0.00000000000E+00 -0.00000000000E+00 -0.12222716785E+03  0.12222716785E+03  0.00000000000E+00 0. -1.
         25    1    1    2    0    0 -0.14370216483E+03 -0.36953774689E+02  0.18769648300E+03  0.26994603789E+03  0.12500000000E+03 0.  0.
         25    1    1    2    0    0  0.47119560477E+01 -0.18518992989E+02  0.11621075341E+03  0.17174136030E+03  0.12500000000E+03 0.  0.
         25    1    1    2    0    0  0.13899020878E+03  0.55472767678E+02  0.12487149293E+03  0.23154566685E+03  0.12500000000E+03 0.  0.
</event>
<event>
 5    0  0.6202766E-005  0.3355464E+03  0.7546771E-02  0.1068709E+00
         21   -1    0    0  502  501  0.00000000000E+00  0.00000000000E+00  0.37707246959E+03  0.37707246959E+03  0.00000000000E+00 0.  1.
         21   -1    0    0  501  502 -0.00000000000E+00 -0.00000000000E+00 -0.29859342176E+03  0.29859342176E+03  0.00000000000E+00 0.  1.
         25    1    1    2    0    0 -0.21166270510E+02 -0.13309250433E+03  0.17915201458E+02  0.18468237642E+03  0.12500000000E+03 0.  0.
         25    1    1    2    0    0  0.17641599602E+03  0.15859958103E+03 -0.31436523530E+02  0.26998089890E+03  0.12500000000E+03 0.  0.
         25    1    1    2    0    0 -0.15524972551E+03 -0.25507076705E+02  0.92000369908E+02  0.22100261604E+03  0.12500000000E+03 0.  0.
</event>
<event>
 5    0  0.5749909E-005  0.2799170E+03  0.7546771E-02  0.1095734E+00
         21   -1    0    0  502  501  0.00000000000E+00  0.00000000000E+00  0.17852295551E+03  0.17852295551E+03  0.00000000000E+00 0. -1.
         21   -1    0    0  501  502 -0.00000000000E+00 -0.00000000000E+00 -0.43889904609E+03  0.43889904609E+03  0.00000000000E+00 0. -1.
         25    1    1    2    0    0 -0.86509743009E+01 -0.28570018928E+02  0.31871460096E+02  0.13240798808E+03  0.12500000000E+03 0.  0.
         25    1    1    2    0    0  0.71822359871E+02  0.14534856139E+03 -0.15598349294E+03  0.25737230959E+03  0.12500000000E+03 0.  0.
         25    1    1    2    0    0 -0.63171385570E+02 -0.11677854246E+03 -0.13626405774E+03  0.22764170393E+03  0.12500000000E+03 0.  0.
</event>
<event>
 5    0  0.5749909E-005  0.3497427E+03  0.7546771E-02  0.1062721E+00
         21   -1    0    0  502  501  0.00000000000E+00  0.00000000000E+00  0.17373812441E+03  0.17373812441E+03  0.00000000000E+00 0.  1.
         21   -1    0    0  501  502 -0.00000000000E+00 -0.00000000000E+00 -0.70404781772E+03  0.70404781772E+03  0.00000000000E+00 0.  1.
         25    1    1    2    0    0  0.22812778060E+02 -0.11942728747E+01 -0.26074341667E+03  0.29005857765E+03  0.12500000000E+03 0.  0.
         25    1    1    2    0    0 -0.22794548353E+03 -0.74161970960E+02 -0.14687558225E+03  0.30766309181E+03  0.12500000000E+03 0.  0.
         25    1    1    2    0    0  0.20513270547E+03  0.75356243834E+02 -0.12269069439E+03  0.28006427267E+03  0.12500000000E+03 0.  0.
</event>
<event>
 5    0  0.5749909E-005  0.2730285E+03  0.7546771E-02  0.1099559E+00
         21   -1    0    0  502  501  0.00000000000E+00  0.00000000000E+00  0.25593195520E+04  0.25593195520E+04  0.00000000000E+00 0.  1.
         21   -1    0    0  501  502 -0.00000000000E+00 -0.00000000000E+00 -0.29126712122E+02  0.29126712122E+02  0.00000000000E+00 0.  1.
         25    1    1    2    0    0  0.95890547190E+00  0.12236433597E+02  0.57846142314E+03  0.59194025701E+03  0.12500000000E+03 0.  0.
         25    1    1    2    0    0 -0.34587969108E+02  0.14058723599E+03  0.13200359963E+04  0.13338220009E+04  0.12500000000E+03 0.  0.
         25    1    1    2    0    0  0.33629063636E+02 -0.15282366958E+03  0.63169542050E+03  0.66268400629E+03  0.12500000000E+03 0.  0.
</event>
<event>
 5    0  0.5749909E-005  0.3939470E+03  0.7546771E-02  0.1045896E+00
         21   -1    0    0  502  501  0.00000000000E+00  0.00000000000E+00  0.11472903685E+04  0.11472903685E+04  0.00000000000E+00 0. -1.
         21   -1    0    0  501  502 -0.00000000000E+00 -0.00000000000E+00 -0.13527023248E+03  0.13527023248E+03  0.00000000000E+00 0. -1.
         25    1    1    2    0    0  0.50359843473E+02 -0.21299218436E+03  0.57896307443E+03  0.63144677209E+03  0.12500000000E+03 0.  0.
         25    1    1    2    0    0 -0.60972740372E+02  0.21962591485E+03  0.45457720539E+03  0.52365890922E+03  0.12500000000E+03 0.  0.
         25    1    1    2    0    0  0.10612896899E+02 -0.66337304886E+01 -0.21520143790E+02  0.12745491968E+03  0.12500000000E+03 0.  0.
</event>
<event>
 5    0  0.5749909E-005  0.2998738E+03  0.7546771E-02  0.1085304E+00
         21   -1    0    0  502  501  0.00000000000E+00  0.00000000000E+00  0.17066534490E+03  0.17066534490E+03  0.00000000000E+00 0.  1.
         21   -1    0    0  501  502 -0.00000000000E+00 -0.00000000000E+00 -0.52690442209E+03  0.52690442209E+03  0.00000000000E+00 0.  1.
         25    1    1    2    0    0  0.65715624527E+02  0.12141248471E+03 -0.83484401210E+01  0.18642486745E+03  0.12500000000E+03 0.  0.
         25    1    1    2    0    0  0.80667443621E+02 -0.99973760860E+02 -0.14393352658E+03  0.22987790106E+03  0.12500000000E+03 0.  0.
         25    1    1    2    0    0 -0.14638306815E+03 -0.21438723853E+02 -0.20395711049E+03  0.28126699849E+03  0.12500000000E+03 0.  0.
</event>
<event>
 5    0  0.5749909E-005  0.3485173E+03  0.7546771E-02  0.1063225E+00
         21   -1    0    0  502  501  0.00000000000E+00  0.00000000000E+00  0.22153310487E+03  0.22153310487E+03  0.00000000000E+00 0. -1.
         21   -1    0    0  501  502 -0.00000000000E+00 -0.00000000000E+00 -0.54828970634E+03  0.54828970634E+03  0.00000000000E+00 0. -1.
         25    1    1    2    0    0 -0.19154062494E+02  0.11388347340E+03 -0.73400837808E+02  0.18533484997E+03  0.12500000000E+03 0.  0.
         25    1    1    2    0    0  0.10970144107E+03  0.11261188626E+03  0.14341423995E+02  0.20136166354E+03  0.12500000000E+03 0.  0.
         25    1    1    2    0    0 -0.90547378576E+02 -0.22649535966E+03 -0.26769718765E+03  0.38312629770E+03  0.12500000000E+03 0.  0.
</event>
<event>
 5    0  0.5749909E-005  0.3162992E+03  0.7546771E-02  0.1077365E+00
         21   -1    0    0  502  501  0.00000000000E+00  0.00000000000E+00  0.26352603545E+03  0.26352603545E+03  0.00000000000E+00 0.  1.
         21   -1    0    0  501  502 -0.00000000000E+00 -0.00000000000E+00 -0.37964070033E+03  0.37964070033E+03  0.00000000000E+00 0.  1.
         25    1    1    2    0    0 -0.41934101289E+02 -0.92565002632E+02 -0.11352286635E+03  0.19707660883E+03  0.12500000000E+03 0.  0.
         25    1    1    2    0    0  0.73203686365E+02 -0.12498275030E+03 -0.21572218876E+02  0.19253526482E+03  0.12500000000E+03 0.  0.
         25    1    1    2    0    0 -0.31269585075E+02  0.21754775294E+03  0.18980420347E+02  0.25355486214E+03  0.12500000000E+03 0.  0.
</event>
<event>
 5    0  0.5749909E-005  0.3265301E+03  0.7546771E-02  0.1072683E+00
         21   -1    0    0  502  501  0.00000000000E+00  0.00000000000E+00  0.72540655734E+02  0.72540655734E+02  0.00000000000E+00 0.  1.
         21   -1    0    0  501  502 -0.00000000000E+00 -0.00000000000E+00 -0.14698223175E+04  0.14698223175E+04  0.00000000000E+00 0. -1.
         25    1    1    2    0    0  0.10183407060E+03 -0.19129763180E+03 -0.60434156150E+03  0.65407850051E+03  0.12500000000E+03 0.  0.
         25    1    1    2    0    0 -0.15188940099E+03  0.13772587038E+03 -0.36895475051E+03  0.44021746152E+03  0.12500000000E+03 0.  0.
         25    1    1    2    0    0  0.50055330394E+02  0.53571761427E+02 -0.42398534975E+03  0.44806701120E+03  0.12500000000E+03 0.  0.
</event>
<event>
 5    0  0.5749909E-005  0.3254804E+03  0.7546771E-02  0.1073154E+00
         21   -1    0    0  502  501  0.00000000000E+00  0.00000000000E+00  0.10451971898E+04  0.10451971898E+04  0.00000000000E+00 0. -1.
         21   -1    0    0  501  502 -0.00000000000E+00 -0.00000000000E+00 -0.10135644181E+03  0.10135644181E+03  0.00000000000E+00 0. -1.
         25    1    1    2    0    0 -0.78796544936E+02  0.25430187733E+02  0.73954781846E+03  0.75459364279E+03  0.12500000000E+03 0.  0.
         25    1    1    2    0    0  0.14427569857E+03 -0.26342385576E+02  0.10541294961E+03  0.21965037769E+03  0.12500000000E+03 0.  0.
         25    1    1    2    0    0 -0.65479153629E+02  0.91219784361E+00  0.98879979966E+02  0.17230961117E+03  0.12500000000E+03 0.  0.
</event>
<event>
 5    0  0.5749909E-005  0.4497404E+03  0.7546771E-02  0.1027799E+00
         21   -1    0    0  502  501  0.00000000000E+00  0.00000000000E+00  0.17619347027E+04  0.17619347027E+04  0.00000000000E+00 0.  1.
         21   -1    0    0  501  502 -0.00000000000E+00 -0.00000000000E+00 -0.11479793266E+03  0.11479793266E+03  0.00000000000E+00 0.  1.
         25    1    1    2    0    0 -0.14317410136E+03 -0.36063217885E+02  0.29230519554E+03  0.35052347471E+03  0.12500000000E+03 0.  0.
         25    1    1    2    0    0  0.21559643438E+03  0.88916125384E+02  0.13463949555E+04  0.13721487806E+04  0.12500000000E+03 0.  0.
         25    1    1    2    0    0 -0.72422333027E+02 -0.52852907500E+02  0.84366189645E+01  0.15406038002E+03  0.12500000000E+03 0.  0.
</event>
<event>
 5    0  0.5749909E-005  0.2865764E+03  0.7546771E-02  0.1092150E+00
         21   -1    0    0  502  501  0.00000000000E+00  0.00000000000E+00  0.81887101529E+03  0.81887101529E+03  0.00000000000E+00 0.  1.
         21   -1    0    0  501  502 -0.00000000000E+00 -0.00000000000E+00 -0.10029179951E+03  0.10029179951E+03  0.00000000000E+00 0.  1.
         25    1    1    2    0    0 -0.16369012597E+03 -0.64306064679E+02  0.21776667078E+03  0.30655676505E+03  0.12500000000E+03 0.  0.
         25    1    1    2    0    0  0.15744523819E+03 -0.19562560643E+02  0.27749379562E+03  0.34321932262E+03  0.12500000000E+03 0.  0.
         25    1    1    2    0    0  0.62448877767E+01  0.83868625322E+02  0.22331874937E+03  0.26938672714E+03  0.12500000000E+03 0.  0.
</event>
<event>
 5    0  0.5749909E-005  0.2301281E+03  0.7546771E-02  0.1126550E+00
         21   -1    0    0  502  501  0.00000000000E+00  0.00000000000E+00  0.40992618075E+03  0.40992618075E+03  0.00000000000E+00 0.  1.
         21   -1    0    0  501  502 -0.00000000000E+00 -0.00000000000E+00 -0.12919143667E+03  0.12919143667E+03  0.00000000000E+00 0.  1.
         25    1    1    2    0    0 -0.45997752347E+02 -0.24295464462E+02  0.19553403545E+03  0.23783318068E+03  0.12500000000E+03 0.  0.
         25    1    1    2    0    0  0.41717602525E+01 -0.51566850630E+02  0.24239363556E+02  0.13743758734E+03  0.12500000000E+03 0.  0.
         25    1    1    2    0    0  0.41825992095E+02  0.75862315093E+02  0.60961345073E+02  0.16384684940E+03  0.12500000000E+03 0.  0.
</event>
<event>
 5    0  0.5749909E-005  0.3482077E+03  0.7546771E-02  0.1063353E+00
         21   -1    0    0  502  501  0.00000000000E+00  0.00000000000E+00  0.89430734453E+03  0.89430734453E+03  0.00000000000E+00 0.  1.
         21   -1    0    0  501  502 -0.00000000000E+00 -0.00000000000E+00 -0.13557825640E+03  0.13557825640E+03  0.00000000000E+00 0.  1.
         25    1    1    2    0    0  0.14009078493E+03 -0.14653702293E+02  0.27084127494E+02  0.19025958314E+03  0.12500000000E+03 0.  0.
         25    1    1    2    0    0  0.32667382465E+02  0.10310586860E+03  0.42335774266E+03  0.45448295489E+03  0.12500000000E+03 0.  0.
         25    1    1    2    0    0 -0.17275816740E+03 -0.88452166307E+02  0.30828721798E+03  0.38514306289E+03  0.12500000000E+03 0.  0.
</event>
<event>
 5    0  0.5749909E-005  0.2850079E+03  0.7546771E-02  0.1092985E+00
         21   -1    0    0  502  501  0.00000000000E+00  0.00000000000E+00  0.90277432377E+02  0.90277432377E+02  0.00000000000E+00 0.  1.
         21   -1    0    0  501  502 -0.00000000000E+00 -0.00000000000E+00 -0.89977650813E+03  0.89977650813E+03  0.00000000000E+00 0.  1.
         25    1    1    2    0    0  0.10584039571E+03 -0.50377240947E+02 -0.33622912873E+03  0.37737922939E+03  0.12500000000E+03 0.  0.
         25    1    1    2    0    0  0.51432230977E+02 -0.67781315795E+02 -0.23438054500E+03  0.27892440021E+03  0.12500000000E+03 0.  0.
         25    1    1    2    0    0 -0.15727262669E+03  0.11815855674E+03 -0.23888940202E+03  0.33375031091E+03  0.12500000000E+03 0.  0.
</event>
<event>
 5    0  0.5749909E-005  0.4319020E+03  0.7546771E-02  0.1033261E+00
         21   -1    0    0  502  501  0.00000000000E+00  0.00000000000E+00  0.31730780802E+03  0.31730780802E+03  0.00000000000E+00 0.  1.
         21   -1    0    0  501  502 -0.00000000000E+00 -0.00000000000E+00 -0.58788123656E+03  0.58788123656E+03  0.00000000000E+00 0.  1.
         25    1    1    2    0    0 -0.24214248737E+03 -0.21122747812E+03 -0.32060051542E+02  0.34626995048E+03  0.12500000000E+03 0.  0.
         25    1    1    2    0    0  0.21686618384E+03  0.15000473996E+02 -0.20212390499E+03  0.32207922765E+03  0.12500000000E+03 0.  0.
         25    1    1    2    0    0  0.25276303529E+02  0.19622700412E+03 -0.36389472009E+02  0.23683986645E+03  0.12500000000E+03 0.  0.
</event>
<event>
 5    0  0.5749909E-005  0.3468499E+03  0.7546771E-02  0.1063915E+00
         21   -1    0    0  502  501  0.00000000000E+00  0.00000000000E+00  0.21298878232E+03  0.21298878232E+03  0.00000000000E+00 0.  1.
         21   -1    0    0  501  502 -0.00000000000E+00 -0.00000000000E+00 -0.56484112195E+03  0.56484112195E+03  0.00000000000E+00 0.  1.
         25    1    1    2    0    0  0.76816597888E+02  0.22674657848E+03 -0.24312133810E+03  0.36338379931E+03  0.12500000000E+03 0.  0.
         25    1    1    2    0    0 -0.89433628179E+02 -0.30685224452E+02  0.16668549212E+01  0.15674098141E+03  0.12500000000E+03 0.  0.
         25    1    1    2    0    0  0.12617030291E+02 -0.19606135402E+03 -0.11039785644E+03  0.25770512355E+03  0.12500000000E+03 0.  0.
</event>
<event>
 5    0  0.5749909E-005  0.2876691E+03  0.7546771E-02  0.1091572E+00
         21   -1    0    0  502  501  0.00000000000E+00  0.00000000000E+00  0.38571412923E+03  0.38571412923E+03  0.00000000000E+00 0.  1.
         21   -1    0    0  501  502 -0.00000000000E+00 -0.00000000000E+00 -0.21454620540E+03  0.21454620540E+03  0.00000000000E+00 0.  1.
         25    1    1    2    0    0 -0.13008991107E+02 -0.48134588444E+02  0.11385263621E+03  0.17627704112E+03  0.12500000000E+03 0.  0.
         25    1    1    2    0    0  0.64067385297E+02  0.10607430933E+03  0.16543553580E+03  0.24155807886E+03  0.12500000000E+03 0.  0.
         25    1    1    2    0    0 -0.51058394190E+02 -0.57939720885E+02 -0.10812024817E+03  0.18242521465E+03  0.12500000000E+03 0.  0.
</event>
<event>
 5    0  0.5749909E-005  0.3037317E+03  0.7546771E-02  0.1083390E+00
         21   -1    0    0  502  501  0.00000000000E+00  0.00000000000E+00  0.15204421307E+04  0.15204421307E+04  0.00000000000E+00 0. -1.
         21   -1    0    0  501  502 -0.00000000000E+00 -0.00000000000E+00 -0.60675063679E+02  0.60675063679E+02  0.00000000000E+00 0. -1.
         25    1    1    2    0    0  0.26982165170E+02  0.92695998061E+02  0.14670404631E+03  0.21556359270E+03  0.12500000000E+03 0.  0.
         25    1    1    2    0    0 -0.16974284437E+02 -0.14263158204E+03  0.10763417668E+04  0.10930546618E+04  0.12500000000E+03 0.  0.
         25    1    1    2    0    0 -0.10007880733E+02  0.49935583980E+02  0.23672125382E+03  0.27249893988E+03  0.12500000000E+03 0.  0.
</event>
<event>
 5    0  0.5749909E-005  0.2917372E+03  0.7546771E-02  0.1089446E+00
         21   -1    0    0  502  501  0.00000000000E+00  0.00000000000E+00  0.11647503408E+03  0.11647503408E+03  0.00000000000E+00 0. -1.
         21   -1    0    0  501  502 -0.00000000000E+00 -0.00000000000E+00 -0.73071958537E+03  0.73071958537E+03  0.00000000000E+00 0. -1.
         25    1    1    2    0    0  0.10578262549E+03 -0.13418086572E+03 -0.40930034691E+03  0.46081041932E+03  0.12500000000E+03 0.  0.
         25    1    1    2    0    0 -0.54563227504E+02  0.29102390516E+02 -0.15412652516E+03  0.20785591329E+03  0.12500000000E+03 0.  0.
         25    1    1    2    0    0 -0.51219397986E+02  0.10507847520E+03 -0.50817679215E+02  0.17852828684E+03  0.12500000000E+03 0.  0.
</event>
<event>
 5    0  0.5749909E-005  0.4704813E+03  0.7546771E-02  0.1021784E+00
         21   -1    0    0  502  501  0.00000000000E+00  0.00000000000E+00  0.35027707972E+03  0.35027707972E+03  0.00000000000E+00 0. -1.
         21   -1    0    0  501  502 -0.00000000000E+00 -0.00000000000E+00 -0.63193595647E+03  0.63193595647E+03  0.00000000000E+00 0. -1.
         25    1    1    2    0    0 -0.32574987600E+03  0.64548775431E+02 -0.21610606709E+03  0.41545921383E+03  0.12500000000E+03 0.  0.
         25    1    1    2    0    0  0.37393495950E+03 -0.68594271193E+02 -0.12622884048E+03  0.41963227729E+03  0.12500000000E+03 0.  0.
         25    1    1    2    0    0 -0.48185083498E+02  0.40454957622E+01  0.60676030812E+02  0.14712154507E+03  0.12500000000E+03 0.  0.
</event>
<event>
 5    0  0.5749909E-005  0.2745135E+03  0.7546771E-02  0.1098724E+00
         21   -1    0    0  502  501  0.00000000000E+00  0.00000000000E+00  0.30425362263E+03  0.30425362263E+03  0.00000000000E+00 0. -1.
         21   -1    0    0  501  502 -0.00000000000E+00 -0.00000000000E+00 -0.24768037717E+03  0.24768037717E+03  0.00000000000E+00 0. -1.
         25    1    1    2    0    0  0.26774301051E+02  0.75092093625E+02  0.33804240974E+02  0.15206384327E+03  0.12500000000E+03 0.  0.
         25    1    1    2    0    0  0.56331810854E+02  0.96341741662E+02 -0.17481368668E+02  0.16848027288E+03  0.12500000000E+03 0.  0.
         25    1    1    2    0    0 -0.83106111905E+02 -0.17143383529E+03  0.40250373146E+02  0.23138988365E+03  0.12500000000E+03 0.  0.
</event>
<event>
 5    0  0.5749909E-005  0.4319685E+03  0.7546771E-02  0.1033240E+00
         21   -1    0    0  502  501  0.00000000000E+00  0.00000000000E+00  0.12912029511E+03  0.12912029511E+03  0.00000000000E+00 0.  1.
         21   -1    0    0  501  502 -0.00000000000E+00 -0.00000000000E+00 -0.14451394111E+04  0.14451394111E+04  0.00000000000E+00 0.  1.
         25    1    1    2    0    0  0.19875039082E+03  0.13857716885E+03 -0.17550110873E+03  0.32423909194E+03  0.12500000000E+03 0.  0.
         25    1    1    2    0    0  0.79803357995E+02 -0.70863044276E+02 -0.63209452659E+03  0.65311456693E+03  0.12500000000E+03 0.  0.
         25    1    1    2    0    0 -0.27855374882E+03 -0.67714124578E+02 -0.50842348070E+03  0.59690604736E+03  0.12500000000E+03 0.  0.
</event>
<event>
 5    0  0.5749909E-005  0.4774354E+03  0.7546771E-02  0.1019842E+00
         21   -1    0    0  502  501  0.00000000000E+00  0.00000000000E+00  0.56215022704E+03  0.56215022704E+03  0.00000000000E+00 0.  1.
         21   -1    0    0  501  502 -0.00000000000E+00 -0.00000000000E+00 -0.40548686573E+03  0.40548686573E+03  0.00000000000E+00 0.  1.
         25    1    1    2    0    0 -0.37550220101E+02 -0.28749921336E+03  0.31140956753E+02  0.31727050903E+03  0.12500000000E+03 0.  0.
         25    1    1    2    0    0 -0.81384764743E+02  0.38506391515E+03 -0.51110209452E+01  0.41297556976E+03  0.12500000000E+03 0.  0.
         25    1    1    2    0    0  0.11893498484E+03 -0.97564701794E+02  0.13063342550E+03  0.23739101397E+03  0.12500000000E+03 0.  0.
</event>
<event>
 5    0  0.5749909E-005  0.3668189E+03  0.7546771E-02  0.1055916E+00
         21   -1    0    0  502  501  0.00000000000E+00  0.00000000000E+00  0.12362927668E+03  0.12362927668E+03  0.00000000000E+00 0. -1.
         21   -1    0    0  501  502 -0.00000000000E+00 -0.00000000000E+00 -0.10883838137E+04  0.10883838137E+04  0.00000000000E+00 0. -1.
         25    1    1    2    0    0  0.32547561528E+02  0.74664991167E+02 -0.46420363473E+02  0.15624997540E+03  0.12500000000E+03 0.  0.
         25    1    1    2    0    0  0.42030100456E+02  0.30687755227E+02 -0.16731802510E+02  0.13643027846E+03  0.12500000000E+03 0.  0.
         25    1    1    2    0    0 -0.74577661984E+02 -0.10535274639E+03 -0.90160237108E+03  0.91933283656E+03  0.12500000000E+03 0.  0.
</event>
<event>
 5    0  0.5749909E-005  0.2937527E+03  0.7546771E-02  0.1088406E+00
         21   -1    0    0  502  501  0.00000000000E+00  0.00000000000E+00  0.11713310353E+03  0.11713310353E+03  0.00000000000E+00 0. -1.
         21   -1    0    0  501  502 -0.00000000000E+00 -0.00000000000E+00 -0.73668858641E+03  0.73668858641E+03  0.00000000000E+00 0. -1.
         25    1    1    2    0    0  0.54651844196E+02 -0.21651761571E+02 -0.13614007323E+03  0.19394520461E+03  0.12500000000E+03 0.  0.
         25    1    1    2    0    0  0.64533456428E+02 -0.14618939860E+03 -0.27257653577E+03  0.33979240002E+03  0.12500000000E+03 0.  0.
         25    1    1    2    0    0 -0.11918530062E+03  0.16784116017E+03 -0.21083887387E+03  0.32008408531E+03  0.12500000000E+03 0.  0.
</event>
<event>
 5    0  0.5749909E-005  0.2436601E+03  0.7546771E-02  0.1117378E+00
         21   -1    0    0  502  501  0.00000000000E+00  0.00000000000E+00  0.33766397152E+03  0.33766397152E+03  0.00000000000E+00 0. -1.
         21   -1    0    0  501  502 -0.00000000000E+00 -0.00000000000E+00 -0.17582640781E+03  0.17582640781E+03  0.00000000000E+00 0. -1.
         25    1    1    2    0    0 -0.95974132505E+01  0.13413287003E+03  0.57501037522E+02  0.19239310403E+03  0.12500000000E+03 0.  0.
         25    1    1    2    0    0  0.22846065312E+02 -0.59610415244E+02 -0.19999364551E+01  0.14037216267E+03  0.12500000000E+03 0.  0.
         25    1    1    2    0    0 -0.13248652061E+02 -0.74522454782E+02  0.10633646264E+03  0.18072511263E+03  0.12500000000E+03 0.  0.
</event>
<event>
 5    0  0.5749909E-005  0.1729483E+04  0.7546771E-02  0.8744726E-01
         21   -1    0    0  502  501  0.00000000000E+00  0.00000000000E+00  0.22781967236E+04  0.22781967236E+04  0.00000000000E+00 0.  1.
         21   -1    0    0  501  502 -0.00000000000E+00 -0.00000000000E+00 -0.13129286644E+04  0.13129286644E+04  0.00000000000E+00 0.  1.
         25    1    1    2    0    0  0.10281529754E+04  0.30424050656E+03 -0.78931662361E+03  0.13372757977E+04  0.12500000000E+03 0.  0.
         25    1    1    2    0    0 -0.11403933834E+04 -0.25751113041E+03  0.17076247995E+04  0.20732622861E+04  0.12500000000E+03 0.  0.
         25    1    1    2    0    0  0.11224040795E+03 -0.46729376145E+02  0.46959883296E+02  0.18058730412E+03  0.12500000000E+03 0.  0.
</event>
<event>
 5    0  0.5749909E-005  0.3573932E+03  0.7546771E-02  0.1059621E+00
         21   -1    0    0  502  501  0.00000000000E+00  0.00000000000E+00  0.32345318923E+03  0.32345318923E+03  0.00000000000E+00 0. -1.
         21   -1    0    0  501  502 -0.00000000000E+00 -0.00000000000E+00 -0.39489450918E+03  0.39489450918E+03  0.00000000000E+00 0. -1.
         25    1    1    2    0    0 -0.19647667852E+03 -0.18380141583E+03  0.66277115879E+02  0.30397977195E+03  0.12500000000E+03 0.  0.
         25    1    1    2    0    0  0.22422029469E+02  0.64477122182E+02 -0.25696284220E+02  0.14472506940E+03  0.12500000000E+03 0.  0.
         25    1    1    2    0    0  0.17405464905E+03  0.11932429365E+03 -0.11202215161E+03  0.26964285706E+03  0.12500000000E+03 0.  0.
</event>
<event>
 5    0  0.5749909E-005  0.3160083E+03  0.7546771E-02  0.1077501E+00
         21   -1    0    0  502  501  0.00000000000E+00  0.00000000000E+00  0.61786673322E+03  0.61786673322E+03  0.00000000000E+00 0.  1.
         21   -1    0    0  501  502 -0.00000000000E+00 -0.00000000000E+00 -0.16162258749E+03  0.16162258749E+03  0.00000000000E+00 0.  1.
         25    1    1    2    0    0 -0.46920205881E+02  0.20603384393E+03  0.23728968770E+03  0.34144230326E+03  0.12500000000E+03 0.  0.
         25    1    1    2    0    0 -0.72754246162E+02 -0.10477033809E+03  0.94387837005E+02  0.20200016795E+03  0.12500000000E+03 0.  0.
         25    1    1    2    0    0  0.11967445204E+03 -0.10126350584E+03  0.12456662103E+03  0.23604684950E+03  0.12500000000E+03 0.  0.
</event>
<event>
 5    0  0.5749909E-005  0.3103313E+03  0.7546771E-02  0.1080187E+00
         21   -1    0    0  502  501  0.00000000000E+00  0.00000000000E+00  0.20366947575E+03  0.20366947575E+03  0.00000000000E+00 0. -1.
         21   -1    0    0  501  502 -0.00000000000E+00 -0.00000000000E+00 -0.47285187701E+03  0.47285187701E+03  0.00000000000E+00 0. -1.
         25    1    1    2    0    0  0.64843794876E+02  0.27948661663E+02 -0.12774142309E+03  0.19216845890E+03  0.12500000000E+03 0.  0.
         25    1    1    2    0    0  0.15173982213E+03 -0.20166356233E+02 -0.12453824404E+03  0.23359458421E+03  0.12500000000E+03 0.  0.
         25    1    1    2    0    0 -0.21658361701E+03 -0.77823054295E+01 -0.16902734122E+02  0.25075830964E+03  0.12500000000E+03 0.  0.
</event>
<event>
 5    0  0.5749909E-005  0.2698424E+03  0.7546771E-02  0.1101370E+00
         21   -1    0    0  502  501  0.00000000000E+00  0.00000000000E+00  0.37461509505E+03  0.37461509505E+03  0.00000000000E+00 0. -1.
         21   -1    0    0  501  502 -0.00000000000E+00 -0.00000000000E+00 -0.19437258512E+03  0.19437258512E+03  0.00000000000E+00 0. -1.
         25    1    1    2    0    0  0.22059293679E+02  0.35279621098E+02  0.27162476958E+01  0.13177117327E+03  0.12500000000E+03 0.  0.
         25    1    1    2    0    0 -0.14568776377E+03 -0.88696133037E+02  0.12692499022E+03  0.24663106387E+03  0.12500000000E+03 0.  0.
         25    1    1    2    0    0  0.12362847009E+03  0.53416511940E+02  0.50601272022E+02  0.19058544303E+03  0.12500000000E+03 0.  0.
</event>
<event>
 5    0  0.5749909E-005  0.3376505E+03  0.7546771E-02  0.1067801E+00
         21   -1    0    0  502  501  0.00000000000E+00  0.00000000000E+00  0.36375989965E+02  0.36375989965E+02  0.00000000000E+00 0.  1.
         21   -1    0    0  501  502 -0.00000000000E+00 -0.00000000000E+00 -0.31341508011E+04  0.31341508011E+04  0.00000000000E+00 0.  1.
         25    1    1    2    0    0 -0.83785251681E+02  0.24685980074E+02 -0.14965881276E+04  0.15043371928E+04  0.12500000000E+03 0.  0.
         25    1    1    2    0    0 -0.66924710615E+02  0.11465020648E+03 -0.37878036966E+03  0.42038453251E+03  0.12500000000E+03 0.  0.
         25    1    1    2    0    0  0.15070996230E+03 -0.13933618655E+03 -0.12224063140E+04  0.12458050658E+04  0.12500000000E+03 0.  0.
</event>
<event>
 5    0  0.5749909E-005  0.3049442E+03  0.7546771E-02  0.1082795E+00
         21   -1    0    0  502  501  0.00000000000E+00  0.00000000000E+00  0.83341093831E+02  0.83341093831E+02  0.00000000000E+00 0. -1.
         21   -1    0    0  501  502 -0.00000000000E+00 -0.00000000000E+00 -0.11157878423E+04  0.11157878423E+04  0.00000000000E+00 0. -1.
         25    1    1    2    0    0 -0.71649644043E+00 -0.58376143038E+02 -0.35071073053E+03  0.37687040738E+03  0.12500000000E+03 0.  0.
         25    1    1    2    0    0 -0.75641551811E+02  0.34194082819E+01 -0.26404068859E+02  0.14851098130E+03  0.12500000000E+03 0.  0.
         25    1    1    2    0    0  0.76358048251E+02  0.54956734756E+02 -0.65533194906E+03  0.67374754745E+03  0.12500000000E+03 0.  0.
</event>
<event>
 5    0  0.5749909E-005  0.4595177E+03  0.7546771E-02  0.1024921E+00
         21   -1    0    0  502  501  0.00000000000E+00  0.00000000000E+00  0.65474472759E+03  0.65474472759E+03  0.00000000000E+00 0.  1.
         21   -1    0    0  501  502 -0.00000000000E+00 -0.00000000000E+00 -0.32250199809E+03  0.32250199809E+03  0.00000000000E+00 0.  1.
         25    1    1    2    0    0  0.44869717831E+02  0.67821550845E+02 -0.18101738734E+03  0.23453219152E+03  0.12500000000E+03 0.  0.
         25    1    1    2    0    0 -0.54496906045E+02 -0.15652584876E+03  0.65228223327E+00  0.20759498927E+03  0.12500000000E+03 0.  0.
         25    1    1    2    0    0  0.96271882145E+01  0.88704297918E+02  0.51260783461E+03  0.53511954489E+03  0.12500000000E+03 0.  0.
</event>
<event>
 5    0  0.5749909E-005  0.3233151E+03  0.7546771E-02  0.1074134E+00
         21   -1    0    0  502  501  0.00000000000E+00  0.00000000000E+00  0.89824086541E+02  0.89824086541E+02  0.00000000000E+00 0.  1.
         21   -1    0    0  501  502 -0.00000000000E+00 -0.00000000000E+00 -0.11637484704E+04  0.11637484704E+04  0.00000000000E+00 0.  1.
         25    1    1    2    0    0  0.94217112477E+02  0.20584246806E+02 -0.26429216265E+03  0.30785698423E+03  0.12500000000E+03 0.  0.
         25    1    1    2    0    0  0.39018685093E+02  0.57793106689E+02 -0.36890121442E+02  0.14781198201E+03  0.12500000000E+03 0.  0.
         25    1    1    2    0    0 -0.13323579757E+03 -0.78377353495E+02 -0.77274209978E+03  0.79790359071E+03  0.12500000000E+03 0.  0.
</event>
<event>
 5    0  0.5749909E-005  0.2714118E+03  0.7546771E-02  0.1100474E+00
         21   -1    0    0  502  501  0.00000000000E+00  0.00000000000E+00  0.61695499572E+02  0.61695499572E+02  0.00000000000E+00 0. -1.
         21   -1    0    0  501  502 -0.00000000000E+00 -0.00000000000E+00 -0.11939987805E+04  0.11939987805E+04  0.00000000000E+00 0. -1.
         25    1    1    2    0    0  0.17151644329E+02 -0.70058293920E+02 -0.75437420961E+03  0.76805454987E+03  0.12500000000E+03 0.  0.
         25    1    1    2    0    0  0.32293112698E+02  0.82422916840E+02 -0.28563867479E+03  0.32411546536E+03  0.12500000000E+03 0.  0.
         25    1    1    2    0    0 -0.49444757027E+02 -0.12364622921E+02 -0.92290396499E+02  0.16352426482E+03  0.12500000000E+03 0.  0.
</event>
<event>
 5    0  0.5749909E-005  0.3787446E+03  0.7546771E-02  0.1051399E+00
         21   -1    0    0  502  501  0.00000000000E+00  0.00000000000E+00  0.41693476155E+03  0.41693476155E+03  0.00000000000E+00 0.  1.
         21   -1    0    0  501  502 -0.00000000000E+00 -0.00000000000E+00 -0.34405251410E+03  0.34405251410E+03  0.00000000000E+00 0.  1.
         25    1    1    2    0    0 -0.11558865072E+03 -0.14214986775E+03 -0.14524945208E+02  0.22226852028E+03  0.12500000000E+03 0.  0.
         25    1    1    2    0    0  0.21384700223E+03 -0.56182253901E+02 -0.35339127501E+02  0.25643876452E+03  0.12500000000E+03 0.  0.
         25    1    1    2    0    0 -0.98258351506E+02  0.19833212165E+03  0.12274632017E+03  0.28227999085E+03  0.12500000000E+03 0.  0.
</event>
<event>
 5    0  0.5749909E-005  0.2263090E+03  0.7546771E-02  0.1129265E+00
         21   -1    0    0  502  501  0.00000000000E+00  0.00000000000E+00  0.45490498696E+03  0.45490498696E+03  0.00000000000E+00 0. -1.
         21   -1    0    0  501  502 -0.00000000000E+00 -0.00000000000E+00 -0.11258560816E+03  0.11258560816E+03  0.00000000000E+00 0. -1.
         25    1    1    2    0    0  0.10169266587E+03  0.52401885260E+02  0.16729863502E+03  0.23812011497E+03  0.12500000000E+03 0.  0.
         25    1    1    2    0    0 -0.56115249322E+02 -0.45155092970E+02  0.10802701464E+03  0.18022968545E+03  0.12500000000E+03 0.  0.
         25    1    1    2    0    0 -0.45577416551E+02 -0.72467922902E+01  0.66993729137E+02  0.14914079469E+03  0.12500000000E+03 0.  0.
</event>
<event>
 5    0  0.5749909E-005  0.2339836E+03  0.7546771E-02  0.1123867E+00
         21   -1    0    0  502  501  0.00000000000E+00  0.00000000000E+00  0.65441605544E+03  0.65441605544E+03  0.00000000000E+00 0. -1.
         21   -1    0    0  501  502 -0.00000000000E+00 -0.00000000000E+00 -0.83659816719E+02  0.83659816719E+02  0.00000000000E+00 0. -1.
         25    1    1    2    0    0 -0.82772105769E+02 -0.32045907154E+02  0.10773403265E+03  0.18737604823E+03  0.12500000000E+03 0.  0.
         25    1    1    2    0    0 -0.25758938091E+02 -0.57846836303E+01  0.18218662775E+03  0.22251730896E+03  0.12500000000E+03 0.  0.
         25    1    1    2    0    0  0.10853104386E+03  0.37830590784E+02  0.28083557832E+03  0.32818251497E+03  0.12500000000E+03 0.  0.
</event>
<event>
 5    0  0.5749909E-005  0.2875593E+03  0.7546771E-02  0.1091630E+00
         21   -1    0    0  502  501  0.00000000000E+00  0.00000000000E+00  0.10214234460E+03  0.10214234460E+03  0.00000000000E+00 0.  1.
         21   -1    0    0  501  502 -0.00000000000E+00 -0.00000000000E+00 -0.80956017772E+03  0.80956017772E+03  0.00000000000E+00 0.  1.
         25    1    1    2    0    0 -0.19076703397E+02  0.12397615576E+03 -0.10778101412E+03  0.20730594496E+03  0.12500000000E+03 0.  0.
         25    1    1    2    0    0  0.48264857410E+02 -0.13119889940E+03 -0.16052955768E+03  0.24685499094E+03  0.12500000000E+03 0.  0.
         25    1    1    2    0    0 -0.29188154012E+02  0.72227436354E+01 -0.43910726131E+03  0.45754158641E+03  0.12500000000E+03 0.  0.
</event>
<event>
 5    0  0.5749909E-005  0.2172066E+03  0.7546771E-02  0.1135983E+00
         21   -1    0    0  502  501  0.00000000000E+00  0.00000000000E+00  0.43219091944E+03  0.43219091944E+03  0.00000000000E+00 0.  1.
         21   -1    0    0  501  502 -0.00000000000E+00 -0.00000000000E+00 -0.10916168572E+03  0.10916168572E+03  0.00000000000E+00 0.  1.
         25    1    1    2    0    0 -0.73954762419E+02 -0.23832490793E+02  0.11456163550E+03  0.18651183027E+03  0.12500000000E+03 0.  0.
         25    1    1    2    0    0  0.29073151997E+01  0.39626122831E+02  0.50222182050E+02  0.14044909990E+03  0.12500000000E+03 0.  0.
         25    1    1    2    0    0  0.71047447219E+02 -0.15793632038E+02  0.15824541617E+03  0.21439167500E+03  0.12500000000E+03 0.  0.
</event>
<event>
 5    0  0.5749909E-005  0.4168985E+03  0.7546771E-02  0.1038080E+00
         21   -1    0    0  502  501  0.00000000000E+00  0.00000000000E+00  0.48623089235E+03  0.48623089235E+03  0.00000000000E+00 0.  1.
         21   -1    0    0  501  502 -0.00000000000E+00 -0.00000000000E+00 -0.35745229691E+03  0.35745229691E+03  0.00000000000E+00 0.  1.
         25    1    1    2    0    0 -0.54105995551E+02  0.68475651568E+02  0.13028786718E+03  0.20054002580E+03  0.12500000000E+03 0.  0.
         25    1    1    2    0    0  0.21250639935E+03  0.12331448346E+03 -0.16404440487E+03  0.32078185479E+03  0.12500000000E+03 0.  0.
         25    1    1    2    0    0 -0.15840040380E+03 -0.19179013503E+03  0.16253513312E+03  0.32236130866E+03  0.12500000000E+03 0.  0.
</event>
<event>
 5    0  0.5749909E-005  0.2846821E+03  0.7546771E-02  0.1093159E+00
         21   -1    0    0  502  501  0.00000000000E+00  0.00000000000E+00  0.64242180488E+02  0.64242180488E+02  0.00000000000E+00 0.  1.
         21   -1    0    0  501  502 -0.00000000000E+00 -0.00000000000E+00 -0.12615368097E+04  0.12615368097E+04  0.00000000000E+00 0.  1.
         25    1    1    2    0    0 -0.91548888947E+02  0.56090011734E+02 -0.64052629911E+03  0.66138205928E+03  0.12500000000E+03 0.  0.
         25    1    1    2    0    0 -0.18605850198E+02 -0.14933851075E+02 -0.63687661838E+02  0.14230360445E+03  0.12500000000E+03 0.  0.
         25    1    1    2    0    0  0.11015473914E+03 -0.41156160659E+02 -0.49308066826E+03  0.52209332645E+03  0.12500000000E+03 0.  0.
</event>
<event>
 5    0  0.5749909E-005  0.3840914E+03  0.7546771E-02  0.1049432E+00
         21   -1    0    0  502  501  0.00000000000E+00  0.00000000000E+00  0.41073162985E+03  0.41073162985E+03  0.00000000000E+00 0. -1.
         21   -1    0    0  501  502 -0.00000000000E+00 -0.00000000000E+00 -0.35917906689E+03  0.35917906689E+03  0.00000000000E+00 0. -1.
         25    1    1    2    0    0  0.10997945576E+03 -0.13554603383E+03 -0.31102453517E+02  0.21693448456E+03  0.12500000000E+03 0.  0.
         25    1    1    2    0    0  0.47879424994E+02 -0.11322884390E+03 -0.81433119190E+02  0.19331208791E+03  0.12500000000E+03 0.  0.
         25    1    1    2    0    0 -0.15785888076E+03  0.24877487773E+03  0.16408813566E+03  0.35966412427E+03  0.12500000000E+03 0.  0.
</event>
<event>
 5    0  0.5749909E-005  0.2600732E+03  0.7546771E-02  0.1107099E+00
         21   -1    0    0  502  501  0.00000000000E+00  0.00000000000E+00  0.25064344298E+03  0.25064344298E+03  0.00000000000E+00 0. -1.
         21   -1    0    0  501  502 -0.00000000000E+00 -0.00000000000E+00 -0.26985766607E+03  0.26985766607E+03  0.00000000000E+00 0. -1.
         25    1    1    2    0    0 -0.24709643305E+02 -0.14490419499E+02 -0.16645324074E+03  0.21012429674E+03  0.12500000000E+03 0.  0.
         25    1    1    2    0    0  0.52134725522E+02  0.42544175348E+02  0.83280925646E+02  0.16458660042E+03  0.12500000000E+03 0.  0.
         25    1    1    2    0    0 -0.27425082217E+02 -0.28053755848E+02  0.63958091999E+02  0.14579021189E+03  0.12500000000E+03 0.  0.
</event>
<event>
 5    0  0.5749909E-005  0.3897104E+03  0.7546771E-02  0.1047402E+00
         21   -1    0    0  502  501  0.00000000000E+00  0.00000000000E+00  0.74910464668E+03  0.74910464668E+03  0.00000000000E+00 0. -1.
         21   -1    0    0  501  502 -0.00000000000E+00 -0.00000000000E+00 -0.20274100383E+03  0.20274100383E+03  0.00000000000E+00 0. -1.
         25    1    1    2    0    0  0.86895964359E+02 -0.29772951287E+02  0.14881248069E+03  0.21495927907E+03  0.12500000000E+03 0.  0.
         25    1    1    2    0    0 -0.64932126779E+02 -0.10881117955E+03  0.49441141219E+03  0.52547473620E+03  0.12500000000E+03 0.  0.
         25    1    1    2    0    0 -0.21963837580E+02  0.13858413084E+03 -0.96860250020E+02  0.21141163524E+03  0.12500000000E+03 0.  0.
</event>
<event>
 5    0  0.5749909E-005  0.4751541E+03  0.7546771E-02  0.1020476E+00
         21   -1    0    0  502  501  0.00000000000E+00  0.00000000000E+00  0.30699533562E+03  0.30699533562E+03  0.00000000000E+00 0. -1.
         21   -1    0    0  501  502 -0.00000000000E+00 -0.00000000000E+00 -0.73542294450E+03  0.73542294450E+03  0.00000000000E+00 0. -1.
         25    1    1    2    0    0 -0.73288133016E+02  0.75459999011E+01 -0.37061475937E+02  0.14975528556E+03  0.12500000000E+03 0.  0.
         25    1    1    2    0    0  0.27102259694E+03 -0.88615253106E+02  0.11267534675E+03  0.33109914664E+03  0.12500000000E+03 0.  0.
         25    1    1    2    0    0 -0.19773446393E+03  0.81069253205E+02 -0.50404147969E+03  0.56156384792E+03  0.12500000000E+03 0.  0.
</event>
<event>
 5    0  0.5749909E-005  0.2224970E+03  0.7546771E-02  0.1132035E+00
         21   -1    0    0  502  501  0.00000000000E+00  0.00000000000E+00  0.12189870893E+03  0.12189870893E+03  0.00000000000E+00 0.  1.
         21   -1    0    0  501  502 -0.00000000000E+00 -0.00000000000E+00 -0.40611507412E+03  0.40611507412E+03  0.00000000000E+00 0.  1.
         25    1    1    2    0    0  0.47846358673E+02 -0.18383563615E+02 -0.19430728658E+03  0.23665914533E+03  0.12500000000E+03 0.  0.
         25    1    1    2    0    0 -0.21393470213E+02 -0.33875367924E+02 -0.78256467046E+02  0.15282112339E+03  0.12500000000E+03 0.  0.
         25    1    1    2    0    0 -0.26452888460E+02  0.52258931538E+02 -0.11652611559E+02  0.13853351432E+03  0.12500000000E+03 0.  0.
</event>
<event>
 5    0  0.5749909E-005  0.3493204E+03  0.7546771E-02  0.1062894E+00
         21   -1    0    0  502  501  0.00000000000E+00  0.00000000000E+00  0.67123421440E+03  0.67123421440E+03  0.00000000000E+00 0.  1.
         21   -1    0    0  501  502 -0.00000000000E+00 -0.00000000000E+00 -0.18179160471E+03  0.18179160471E+03  0.00000000000E+00 0.  1.
         25    1    1    2    0    0 -0.47694304460E+02 -0.24517155345E+03  0.83660367915E+02  0.29156113332E+03  0.12500000000E+03 0.  0.
         25    1    1    2    0    0 -0.32117177987E+02  0.43737590836E+02  0.16825173805E+03  0.21651359618E+03  0.12500000000E+03 0.  0.
         25    1    1    2    0    0  0.79811482447E+02  0.20143396262E+03  0.23753050372E+03  0.34495108961E+03  0.12500000000E+03 0.  0.
</event>
<event>
 5    0  0.5749909E-005  0.2696851E+03  0.7546771E-02  0.1101460E+00
         21   -1    0    0  502  501  0.00000000000E+00  0.00000000000E+00  0.13635504110E+03  0.13635504110E+03  0.00000000000E+00 0.  1.
         21   -1    0    0  501  502 -0.00000000000E+00 -0.00000000000E+00 -0.53338725301E+03  0.53338725301E+03  0.00000000000E+00 0.  1.
         25    1    1    2    0    0 -0.10064037804E+02  0.25816369088E+02 -0.81015008060E+02  0.15151304004E+03  0.12500000000E+03 0.  0.
         25    1    1    2    0    0  0.34806907740E+02 -0.12139751638E+03 -0.31180821606E+03  0.35888471883E+03  0.12500000000E+03 0.  0.
         25    1    1    2    0    0 -0.24742869936E+02  0.95581147292E+02 -0.42089877886E+01  0.15934453523E+03  0.12500000000E+03 0.  0.
</event>
<event>
 5    0  0.5749909E-005  0.4739917E+03  0.7546771E-02  0.1020800E+00
         21   -1    0    0  502  501  0.00000000000E+00  0.00000000000E+00  0.19048707083E+03  0.19048707083E+03  0.00000000000E+00 0. -1.
         21   -1    0    0  501  502 -0.00000000000E+00 -0.00000000000E+00 -0.11794402183E+04  0.11794402183E+04  0.00000000000E+00 0. -1.
         25    1    1    2    0    0  0.31052331914E+03  0.25672973288E+02 -0.61866775226E+03  0.70388821625E+03  0.12500000000E+03 0.  0.
         25    1    1    2    0    0 -0.30644881722E+02  0.28242975284E+02  0.51830073281E+02  0.14159142250E+03  0.12500000000E+03 0.  0.
         25    1    1    2    0    0 -0.27987843742E+03 -0.53915948572E+02 -0.42211546845E+03  0.52444765034E+03  0.12500000000E+03 0.  0.
</event>
<event>
 5    0  0.5749909E-005  0.3693356E+03  0.7546771E-02  0.1054947E+00
         21   -1    0    0  502  501  0.00000000000E+00  0.00000000000E+00  0.12059243427E+03  0.12059243427E+03  0.00000000000E+00 0. -1.
         21   -1    0    0  501  502 -0.00000000000E+00 -0.00000000000E+00 -0.11311553368E+04  0.11311553368E+04  0.00000000000E+00 0. -1.
         25    1    1    2    0    0  0.20294139098E+03 -0.73391140606E+02 -0.21325952932E+03  0.32814035798E+03  0.12500000000E+03 0.  0.
         25    1    1    2    0    0 -0.86984955844E+02  0.43045838976E+02 -0.64962685478E+02  0.17106863330E+03  0.12500000000E+03 0.  0.
         25    1    1    2    0    0 -0.11595643513E+03  0.30345301630E+02 -0.73234068776E+03  0.75253877982E+03  0.12500000000E+03 0.  0.
</event>
<event>
 5    0  0.5749909E-005  0.3698620E+03  0.7546771E-02  0.1054746E+00
         21   -1    0    0  502  501  0.00000000000E+00  0.00000000000E+00  0.44601572822E+03  0.44601572822E+03  0.00000000000E+00 0.  1.
         21   -1    0    0  501  502 -0.00000000000E+00 -0.00000000000E+00 -0.30671095847E+03  0.30671095847E+03  0.00000000000E+00 0.  1.
         25    1    1    2    0    0 -0.50409569611E+02 -0.16379318586E+02 -0.69939235009E+02  0.15272820100E+03  0.12500000000E+03 0.  0.
         25    1    1    2    0    0 -0.76632747357E+02 -0.39286690918E+01  0.34510158894E+03  0.37497749146E+03  0.12500000000E+03 0.  0.
         25    1    1    2    0    0  0.12704231697E+03  0.20307987678E+02 -0.13585758419E+03  0.22502099423E+03  0.12500000000E+03 0.  0.
</event>
<event>
 5    0  0.5749909E-005  0.2597020E+03  0.7546771E-02  0.1107322E+00
         21   -1    0    0  502  501  0.00000000000E+00  0.00000000000E+00  0.73818431604E+02  0.73818431604E+02  0.00000000000E+00 0.  1.
         21   -1    0    0  501  502 -0.00000000000E+00 -0.00000000000E+00 -0.91366254998E+03  0.91366254998E+03  0.00000000000E+00 0.  1.
         25    1    1    2    0    0 -0.10645237308E+03  0.66314121515E+02 -0.53148066425E+03  0.56020207686E+03  0.12500000000E+03 0.  0.
         25    1    1    2    0    0  0.46100734664E+02 -0.12925992075E+02 -0.83763067416E+02  0.15790380132E+03  0.12500000000E+03 0.  0.
         25    1    1    2    0    0  0.60351638416E+02 -0.53388129440E+02 -0.22460038671E+03  0.26937510341E+03  0.12500000000E+03 0.  0.
</event>
<event>
 5    0  0.5749909E-005  0.3513464E+03  0.7546771E-02  0.1062064E+00
         21   -1    0    0  502  501  0.00000000000E+00  0.00000000000E+00  0.33958102329E+03  0.33958102329E+03  0.00000000000E+00 0. -1.
         21   -1    0    0  501  502 -0.00000000000E+00 -0.00000000000E+00 -0.36351944224E+03  0.36351944224E+03  0.00000000000E+00 0. -1.
         25    1    1    2    0    0 -0.17654170633E+02 -0.23677563164E+02 -0.47520936848E+02  0.13695085314E+03  0.12500000000E+03 0.  0.
         25    1    1    2    0    0  0.26530518325E+02  0.21479546458E+03  0.16305179588E+03  0.29841556284E+03  0.12500000000E+03 0.  0.
         25    1    1    2    0    0 -0.88763476919E+01 -0.19111790141E+03 -0.13946927798E+03  0.26773404955E+03  0.12500000000E+03 0.  0.
</event>
<event>
 5    0  0.5749909E-005  0.3266386E+03  0.7546771E-02  0.1072634E+00
         21   -1    0    0  502  501  0.00000000000E+00  0.00000000000E+00  0.81351250638E+03  0.81351250638E+03  0.00000000000E+00 0. -1.
         21   -1    0    0  501  502 -0.00000000000E+00 -0.00000000000E+00 -0.13115072564E+03  0.13115072564E+03  0.00000000000E+00 0. -1.
         25    1    1    2    0    0  0.76576670280E+02  0.11059844634E+03  0.36849567032E+03  0.41171599654E+03  0.12500000000E+03 0.  0.
         25    1    1    2    0    0  0.99562630646E+02 -0.62027298967E+02  0.31742961877E+02  0.17433507641E+03  0.12500000000E+03 0.  0.
         25    1    1    2    0    0 -0.17613930093E+03 -0.48571147374E+02  0.28212314854E+03  0.35861215907E+03  0.12500000000E+03 0.  0.
</event>
<event>
 5    0  0.5749909E-005  0.3998572E+03  0.7546771E-02  0.1043829E+00
         21   -1    0    0  502  501  0.00000000000E+00  0.00000000000E+00  0.23738549324E+03  0.23738549324E+03  0.00000000000E+00 0.  1.
         21   -1    0    0  501  502 -0.00000000000E+00 -0.00000000000E+00 -0.67352813780E+03  0.67352813780E+03  0.00000000000E+00 0.  1.
         25    1    1    2    0    0 -0.13898393543E+03  0.25843338154E+03 -0.19958386361E+03  0.37624867523E+03  0.12500000000E+03 0.  0.
         25    1    1    2    0    0  0.86965808097E+01  0.31215337112E+02 -0.20596372532E+02  0.13076405603E+03  0.12500000000E+03 0.  0.
         25    1    1    2    0    0  0.13028735462E+03 -0.28964871865E+03 -0.21596240842E+03  0.40390089978E+03  0.12500000000E+03 0.  0.
</event>
<event>
 5    0  0.5749909E-005  0.4005803E+03  0.7546771E-02  0.1043579E+00
         21   -1    0    0  502  501  0.00000000000E+00  0.00000000000E+00  0.10697719500E+04  0.10697719500E+04  0.00000000000E+00 0. -1.
         21   -1    0    0  501  502 -0.00000000000E+00 -0.00000000000E+00 -0.14999883704E+03  0.14999883704E+03  0.00000000000E+00 0. -1.
         25    1    1    2    0    0  0.13759212687E+03  0.12597383696E+03  0.13268040171E+03  0.26082578472E+03  0.12500000000E+03 0.  0.
         25    1    1    2    0    0 -0.20209139603E+03  0.76205724121E+02  0.59943734476E+03  0.64930607192E+03  0.12500000000E+03 0.  0.
         25    1    1    2    0    0  0.64499269165E+02 -0.20217956108E+03  0.18765536646E+03  0.30963893037E+03  0.12500000000E+03 0.  0.
</event>
<event>
 5    0  0.5749909E-005  0.2617364E+03  0.7546771E-02  0.1106104E+00
         21   -1    0    0  502  501  0.00000000000E+00  0.00000000000E+00  0.15970739868E+03  0.15970739868E+03  0.00000000000E+00 0. -1.
         21   -1    0    0  501  502 -0.00000000000E+00 -0.00000000000E+00 -0.42894664974E+03  0.42894664974E+03  0.00000000000E+00 0. -1.
         25    1    1    2    0    0 -0.12045829927E+03 -0.12587834708E+02  0.14414736078E+02  0.17464661480E+03  0.12500000000E+03 0.  0.
         25    1    1    2    0    0  0.76568210663E+02 -0.49284515146E+02 -0.15986780943E+03  0.22242834983E+03  0.12500000000E+03 0.  0.
         25    1    1    2    0    0  0.43890088607E+02  0.61872349854E+02 -0.12378617770E+03  0.19157908379E+03  0.12500000000E+03 0.  0.
</event>
<event>
 5    0  0.5749909E-005  0.3018619E+03  0.7546771E-02  0.1084314E+00
         21   -1    0    0  502  501  0.00000000000E+00  0.00000000000E+00  0.12701421955E+03  0.12701421955E+03  0.00000000000E+00 0. -1.
         21   -1    0    0  501  502 -0.00000000000E+00 -0.00000000000E+00 -0.71740492049E+03  0.71740492049E+03  0.00000000000E+00 0. -1.
         25    1    1    2    0    0 -0.81504125671E+01 -0.44797953883E+02 -0.75161607259E+02  0.15279906120E+03  0.12500000000E+03 0.  0.
         25    1    1    2    0    0  0.86468091900E+02  0.10760183255E+03 -0.40537966481E+02  0.19058649483E+03  0.12500000000E+03 0.  0.
         25    1    1    2    0    0 -0.78317679333E+02 -0.62803878671E+02 -0.47469112719E+03  0.50103358401E+03  0.12500000000E+03 0.  0.
</event>
<event>
 5    0  0.5749909E-005  0.2275296E+03  0.7546771E-02  0.1128391E+00
         21   -1    0    0  502  501  0.00000000000E+00  0.00000000000E+00  0.37394000999E+03  0.37394000999E+03  0.00000000000E+00 0.  1.
         21   -1    0    0  501  502 -0.00000000000E+00 -0.00000000000E+00 -0.13844394278E+03  0.13844394278E+03  0.00000000000E+00 0.  1.
         25    1    1    2    0    0  0.43022714532E+01  0.92446103578E+02  0.14504107777E+02  0.15620550806E+03  0.12500000000E+03 0.  0.
         25    1    1    2    0    0  0.81621116004E+01 -0.15658008482E+02  0.13854983306E+03  0.18743758837E+03  0.12500000000E+03 0.  0.
         25    1    1    2    0    0 -0.12464383054E+02 -0.76788095096E+02  0.82442126374E+02  0.16874085633E+03  0.12500000000E+03 0.  0.
</event>
<event>
 5    0  0.5749909E-005  0.2778675E+03  0.7546771E-02  0.1096859E+00
         21   -1    0    0  502  501  0.00000000000E+00  0.00000000000E+00  0.82893558975E+02  0.82893558975E+02  0.00000000000E+00 0. -1.
         21   -1    0    0  501  502 -0.00000000000E+00 -0.00000000000E+00 -0.93143993101E+03  0.93143993101E+03  0.00000000000E+00 0. -1.
         25    1    1    2    0    0  0.93619671823E+02 -0.38181383067E+02 -0.61239420213E+03  0.63314620726E+03  0.12500000000E+03 0.  0.
         25    1    1    2    0    0 -0.10975684102E+03  0.38731141190E+02 -0.11182730725E+03  0.20414948468E+03  0.12500000000E+03 0.  0.
         25    1    1    2    0    0  0.16137169193E+02 -0.54975812256E+00 -0.12432486266E+03  0.17703779805E+03  0.12500000000E+03 0.  0.
</event>
<event>
 5    0  0.5749909E-005  0.3518645E+03  0.7546771E-02  0.1061852E+00
         21   -1    0    0  502  501  0.00000000000E+00  0.00000000000E+00  0.37424591859E+03  0.37424591859E+03  0.00000000000E+00 0. -1.
         21   -1    0    0  501  502 -0.00000000000E+00 -0.00000000000E+00 -0.33082158312E+03  0.33082158312E+03  0.00000000000E+00 0. -1.
         25    1    1    2    0    0 -0.41584051977E+02  0.12686925880E+02  0.65933684929E+02  0.14785953563E+03  0.12500000000E+03 0.  0.
         25    1    1    2    0    0 -0.21098189699E+03  0.82315822765E+02  0.33241323522E+01  0.25869925665E+03  0.12500000000E+03 0.  0.
         25    1    1    2    0    0  0.25256594896E+03 -0.95002748645E+02 -0.25833481814E+02  0.29850870944E+03  0.12500000000E+03 0.  0.
</event>
<event>
 5    0  0.5749909E-005  0.3763947E+03  0.7546771E-02  0.1052274E+00
         21   -1    0    0  502  501  0.00000000000E+00  0.00000000000E+00  0.55006822661E+03  0.55006822661E+03  0.00000000000E+00 0. -1.
         21   -1    0    0  501  502 -0.00000000000E+00 -0.00000000000E+00 -0.25755520267E+03  0.25755520267E+03  0.00000000000E+00 0. -1.
         25    1    1    2    0    0  0.10301911818E+03 -0.10022826214E+03  0.17678815909E+03  0.25988015784E+03  0.12500000000E+03 0.  0.
         25    1    1    2    0    0 -0.13027252836E+03 -0.39614952788E+02 -0.13826421199E+03  0.23082952248E+03  0.12500000000E+03 0.  0.
         25    1    1    2    0    0  0.27253410184E+02  0.13984321493E+03  0.25398907684E+03  0.31691374897E+03  0.12500000000E+03 0.  0.
</event>
<event>
 5    0  0.5749909E-005  0.2033857E+03  0.7546771E-02  0.1146913E+00
         21   -1    0    0  502  501  0.00000000000E+00  0.00000000000E+00  0.69655839082E+02  0.69655839082E+02  0.00000000000E+00 0. -1.
         21   -1    0    0  501  502 -0.00000000000E+00 -0.00000000000E+00 -0.59385919810E+03  0.59385919810E+03  0.00000000000E+00 0. -1.
         25    1    1    2    0    0  0.43239364852E+02  0.23384114373E+02 -0.10852674695E+03  0.17268327736E+03  0.12500000000E+03 0.  0.
         25    1    1    2    0    0 -0.46304390355E+01 -0.92788336080E+01 -0.16022115045E+03  0.20347814323E+03  0.12500000000E+03 0.  0.
         25    1    1    2    0    0 -0.38608925816E+02 -0.14105280765E+02 -0.25545546162E+03  0.28735361659E+03  0.12500000000E+03 0.  0.
</event>
<event>
 5    0  0.5749909E-005  0.2554231E+03  0.7546771E-02  0.1109925E+00
         21   -1    0    0  502  501  0.00000000000E+00  0.00000000000E+00  0.70603268424E+03  0.70603268424E+03  0.00000000000E+00 0. -1.
         21   -1    0    0  501  502 -0.00000000000E+00 -0.00000000000E+00 -0.92404992942E+02  0.92404992942E+02  0.00000000000E+00 0. -1.
         25    1    1    2    0    0  0.15215325845E+03 -0.57065791954E+02  0.25247776716E+03  0.32523397974E+03  0.12500000000E+03 0.  0.
         25    1    1    2    0    0 -0.11275794613E+03  0.42760457580E+02  0.19604195302E+03  0.26191651053E+03  0.12500000000E+03 0.  0.
         25    1    1    2    0    0 -0.39395312323E+02  0.14305334374E+02  0.16510797113E+03  0.21128718691E+03  0.12500000000E+03 0.  0.
</event>
<event>
 5    0  0.5749909E-005  0.2804799E+03  0.7546771E-02  0.1095427E+00
         21   -1    0    0  502  501  0.00000000000E+00  0.00000000000E+00  0.10952422606E+03  0.10952422606E+03  0.00000000000E+00 0. -1.
         21   -1    0    0  501  502 -0.00000000000E+00 -0.00000000000E+00 -0.71827901493E+03  0.71827901493E+03  0.00000000000E+00 0. -1.
         25    1    1    2    0    0  0.49407081760E+02  0.11257307911E+03 -0.18911106809E+03  0.25787933989E+03  0.12500000000E+03 0.  0.
         25    1    1    2    0    0 -0.10858755521E+03 -0.16776943677E+03 -0.23689412534E+03  0.33418807232E+03  0.12500000000E+03 0.  0.
         25    1    1    2    0    0  0.59180473450E+02  0.55196357656E+02 -0.18274959543E+03  0.23573582877E+03  0.12500000000E+03 0.  0.
</event>
<event>
 5    0  0.5749909E-005  0.2887128E+03  0.7546771E-02  0.1091023E+00
         21   -1    0    0  502  501  0.00000000000E+00  0.00000000000E+00  0.16851775460E+04  0.16851775460E+04  0.00000000000E+00 0. -1.
         21   -1    0    0  501  502 -0.00000000000E+00 -0.00000000000E+00 -0.49463678058E+02  0.49463678058E+02  0.00000000000E+00 0. -1.
         25    1    1    2    0    0  0.61910190353E+02  0.87427840355E+02  0.68053482226E+03  0.70016365462E+03  0.12500000000E+03 0.  0.
         25    1    1    2    0    0  0.76576735675E+02 -0.72578868328E+02  0.21017600514E+03  0.26632807158E+03  0.12500000000E+03 0.  0.
         25    1    1    2    0    0 -0.13848692603E+03 -0.14848972028E+02  0.74500304059E+03  0.76814949791E+03  0.12500000000E+03 0.  0.
</event>
<event>
 5    0  0.5749909E-005  0.3436958E+03  0.7546771E-02  0.1065233E+00
         21   -1    0    0  502  501  0.00000000000E+00  0.00000000000E+00  0.65966487439E+03  0.65966487439E+03  0.00000000000E+00 0.  1.
         21   -1    0    0  501  502 -0.00000000000E+00 -0.00000000000E+00 -0.17907096071E+03  0.17907096071E+03  0.00000000000E+00 0.  1.
         25    1    1    2    0    0  0.51313014071E+02  0.63649567132E+02  0.52309663849E+03  0.54400311213E+03  0.12500000000E+03 0.  0.
         25    1    1    2    0    0 -0.79851532563E+02 -0.55014761641E+01 -0.28035323029E+01  0.14845670509E+03  0.12500000000E+03 0.  0.
         25    1    1    2    0    0  0.28538518492E+02 -0.58148090968E+02 -0.39699192507E+02  0.14627601788E+03  0.12500000000E+03 0.  0.
</event>
<event>
 5    0  0.5749909E-005  0.2653479E+03  0.7546771E-02  0.1103972E+00
         21   -1    0    0  502  501  0.00000000000E+00  0.00000000000E+00  0.11525816097E+04  0.11525816097E+04  0.00000000000E+00 0. -1.
         21   -1    0    0  501  502 -0.00000000000E+00 -0.00000000000E+00 -0.61088506233E+02  0.61088506233E+02  0.00000000000E+00 0. -1.
         25    1    1    2    0    0 -0.99609008612E+02 -0.34038763908E+02  0.26385997399E+03  0.31036700520E+03  0.12500000000E+03 0.  0.
         25    1    1    2    0    0 -0.59413506458E+02 -0.37641668832E+02  0.39804522635E+03  0.42309793453E+03  0.12500000000E+03 0.  0.
         25    1    1    2    0    0  0.15902251507E+03  0.71680432740E+02  0.42958790313E+03  0.48020517620E+03  0.12500000000E+03 0.  0.
</event>
<event>
 5    0  0.5749909E-005  0.3125221E+03  0.7546771E-02  0.1079143E+00
         21   -1    0    0  502  501  0.00000000000E+00  0.00000000000E+00  0.13244919959E+03  0.13244919959E+03  0.00000000000E+00 0. -1.
         21   -1    0    0  501  502 -0.00000000000E+00 -0.00000000000E+00 -0.73741513338E+03  0.73741513338E+03  0.00000000000E+00 0. -1.
         25    1    1    2    0    0  0.13627715698E+03 -0.81655050324E+02 -0.12768775760E+03  0.23909867043E+03  0.12500000000E+03 0.  0.
         25    1    1    2    0    0 -0.45055705634E+02 -0.57029517062E+02 -0.36927958097E+03  0.39657885893E+03  0.12500000000E+03 0.  0.
         25    1    1    2    0    0 -0.91221451346E+02  0.13868456739E+03 -0.10799859522E+03  0.23418680361E+03  0.12500000000E+03 0.  0.
</event>
<event>
 5    0  0.5749909E-005  0.4506492E+03  0.7546771E-02  0.1027529E+00
         21   -1    0    0  502  501  0.00000000000E+00  0.00000000000E+00  0.67892956044E+03  0.67892956044E+03  0.00000000000E+00 0.  1.
         21   -1    0    0  501  502 -0.00000000000E+00 -0.00000000000E+00 -0.29912483548E+03  0.29912483548E+03  0.00000000000E+00 0.  1.
         25    1    1    2    0    0 -0.67053998335E+00 -0.16472097561E+02  0.33925637593E+03  0.36192771134E+03  0.12500000000E+03 0.  0.
         25    1    1    2    0    0  0.12760210686E+02 -0.24676173780E+03  0.13698559168E+03  0.30894049677E+03  0.12500000000E+03 0.  0.
         25    1    1    2    0    0 -0.12089670703E+02  0.26323383536E+03 -0.96437242652E+02  0.30718618782E+03  0.12500000000E+03 0.  0.
</event>
<event>
 5    0  0.5749909E-005  0.4633699E+03  0.7546771E-02  0.1023808E+00
         21   -1    0    0  502  501  0.00000000000E+00  0.00000000000E+00  0.16522835952E+04  0.16522835952E+04  0.00000000000E+00 0. -1.
         21   -1    0    0  501  502 -0.00000000000E+00 -0.00000000000E+00 -0.12994841845E+03  0.12994841845E+03  0.00000000000E+00 0. -1.
         25    1    1    2    0    0  0.10240880056E+03  0.15606777873E+03  0.43616335987E+03  0.49062021002E+03  0.12500000000E+03 0.  0.
         25    1    1    2    0    0 -0.23945231969E+03 -0.12358789307E+03  0.10607939181E+04  0.11015988913E+04  0.12500000000E+03 0.  0.
         25    1    1    2    0    0  0.13704351914E+03 -0.32479885656E+02  0.25377898845E+02  0.19001291235E+03  0.12500000000E+03 0.  0.
</event>
<event>
 5    0  0.5749909E-005  0.2488453E+03  0.7546771E-02  0.1114037E+00
         21   -1    0    0  502  501  0.00000000000E+00  0.00000000000E+00  0.23896988467E+03  0.23896988467E+03  0.00000000000E+00 0.  1.
         21   -1    0    0  501  502 -0.00000000000E+00 -0.00000000000E+00 -0.25912871940E+03  0.25912871940E+03  0.00000000000E+00 0.  1.
         25    1    1    2    0    0  0.59447779053E+02  0.14987361284E+02 -0.57433323758E+01  0.13934362310E+03  0.12500000000E+03 0.  0.
         25    1    1    2    0    0  0.11734808258E+02  0.99697379722E+02 -0.56589925803E+02  0.17001380224E+03  0.12500000000E+03 0.  0.
         25    1    1    2    0    0 -0.71182587311E+02 -0.11468474101E+03  0.42174423453E+02  0.18874117873E+03  0.12500000000E+03 0.  0.
</event>
<event>
 5    0  0.5749909E-005  0.3375136E+03  0.7546771E-02  0.1067860E+00
         21   -1    0    0  502  501  0.00000000000E+00  0.00000000000E+00  0.19048578033E+03  0.19048578033E+03  0.00000000000E+00 0. -1.
         21   -1    0    0  501  502 -0.00000000000E+00 -0.00000000000E+00 -0.59802591700E+03  0.59802591700E+03  0.00000000000E+00 0. -1.
         25    1    1    2    0    0  0.11006927372E+02  0.22695942521E+02  0.70802830003E+02  0.14585711842E+03  0.12500000000E+03 0.  0.
         25    1    1    2    0    0  0.96083024857E+01 -0.18473790606E+03 -0.25942480112E+03  0.34226691462E+03  0.12500000000E+03 0.  0.
         25    1    1    2    0    0 -0.20615229858E+02  0.16204196354E+03 -0.21891816555E+03  0.30038766429E+03  0.12500000000E+03 0.  0.
</event>
<event>
 5    0  0.5749909E-005  0.4342344E+03  0.7546771E-02  0.1032531E+00
         21   -1    0    0  502  501  0.00000000000E+00  0.00000000000E+00  0.13541714935E+03  0.13541714935E+03  0.00000000000E+00 0. -1.
         21   -1    0    0  501  502 -0.00000000000E+00 -0.00000000000E+00 -0.13924342959E+04  0.13924342959E+04  0.00000000000E+00 0. -1.
         25    1    1    2    0    0 -0.42574241818E+02  0.79584794684E+02 -0.65568793595E+03  0.67357106155E+03  0.12500000000E+03 0.  0.
         25    1    1    2    0    0  0.19083584451E+03 -0.25721234638E+03 -0.34310513572E+03  0.48571868899E+03  0.12500000000E+03 0.  0.
         25    1    1    2    0    0 -0.14826160270E+03  0.17762755170E+03 -0.25822407490E+03  0.36856169472E+03  0.12500000000E+03 0.  0.
</event>
<event>
 5    0  0.5749909E-005  0.2548390E+03  0.7546771E-02  0.1110284E+00
         21   -1    0    0  502  501  0.00000000000E+00  0.00000000000E+00  0.52746803827E+02  0.52746803827E+02  0.00000000000E+00 0.  1.
         21   -1    0    0  501  502 -0.00000000000E+00 -0.00000000000E+00 -0.12312199107E+04  0.12312199107E+04  0.00000000000E+00 0.  1.
         25    1    1    2    0    0  0.70961241751E+02 -0.44192465759E+02 -0.22123967179E+03  0.26750787696E+03  0.12500000000E+03 0.  0.
         25    1    1    2    0    0  0.77564633902E+00  0.11139711443E+03 -0.33891272826E+03  0.37801687278E+03  0.12500000000E+03 0.  0.
         25    1    1    2    0    0 -0.71736888090E+02 -0.67204648674E+02 -0.61832070685E+03  0.63844196482E+03  0.12500000000E+03 0.  0.
</event>
<event>
 5    0  0.5749909E-005  0.4772273E+03  0.7546771E-02  0.1019900E+00
         21   -1    0    0  502  501  0.00000000000E+00  0.00000000000E+00  0.71077261935E+03  0.71077261935E+03  0.00000000000E+00 0. -1.
         21   -1    0    0  501  502 -0.00000000000E+00 -0.00000000000E+00 -0.32042018418E+03  0.32042018418E+03  0.00000000000E+00 0.  1.
         25    1    1    2    0    0 -0.30903850423E+03 -0.37844958152E+02  0.36522634318E+03  0.49593580200E+03  0.12500000000E+03 0.  0.
         25    1    1    2    0    0  0.33759008354E+03  0.84216201308E+02  0.95466153729E+02  0.38183533045E+03  0.12500000000E+03 0.  0.
         25    1    1    2    0    0 -0.28551579315E+02 -0.46371243156E+02 -0.70340061736E+02  0.15342167108E+03  0.12500000000E+03 0.  0.
</event>
<event>
 5    0  0.6078665E-005  0.2860200E+03  0.7546771E-02  0.1092446E+00
         21   -1    0    0  502  501  0.00000000000E+00  0.00000000000E+00  0.13212070770E+03  0.13212070770E+03  0.00000000000E+00 0.  1.
         21   -1    0    0  501  502 -0.00000000000E+00 -0.00000000000E+00 -0.61918698557E+03  0.61918698557E+03  0.00000000000E+00 0.  1.
         25    1    1    2    0    0 -0.10648028987E+03  0.32265612660E+02 -0.13986101690E+03  0.21809453441E+03  0.12500000000E+03 0.  0.
         25    1    1    2    0    0 -0.80106976023E+02 -0.68244502417E+02 -0.78838237292E+02  0.18142466033E+03  0.12500000000E+03 0.  0.
         25    1    1    2    0    0  0.18658726590E+03  0.35978889757E+02 -0.26836702368E+03  0.35178849853E+03  0.12500000000E+03 0.  0.
</event>
<event>
 5    0  0.5749909E-005  0.3897094E+03  0.7546771E-02  0.1047402E+00
         21   -1    0    0  502  501  0.00000000000E+00  0.00000000000E+00  0.20135259767E+03  0.20135259767E+03  0.00000000000E+00 0. -1.
         21   -1    0    0  501  502 -0.00000000000E+00 -0.00000000000E+00 -0.75426596253E+03  0.75426596253E+03  0.00000000000E+00 0. -1.
         25    1    1    2    0    0  0.13142529099E+03  0.18154248468E+03  0.28339568448E+02  0.25818290415E+03  0.12500000000E+03 0.  0.
         25    1    1    2    0    0 -0.10522651968E+03 -0.33115608990E+02 -0.15189762602E+03  0.22553747536E+03  0.12500000000E+03 0.  0.
         25    1    1    2    0    0 -0.26198771305E+02 -0.14842687569E+03 -0.42935530729E+03  0.47189818069E+03  0.12500000000E+03 0.  0.
</event>
<event>
 5    0  0.5749909E-005  0.2662243E+03  0.7546771E-02  0.1103460E+00
         21   -1    0    0  502  501  0.00000000000E+00  0.00000000000E+00  0.15476109923E+03  0.15476109923E+03  0.00000000000E+00 0.  1.
         21   -1    0    0  501  502 -0.00000000000E+00 -0.00000000000E+00 -0.45796630814E+03  0.45796630814E+03  0.00000000000E+00 0.  1.
         25    1    1    2    0    0  0.26202512566E+02 -0.12840099443E+03 -0.21037152603E+03  0.27758704220E+03  0.12500000000E+03 0.  0.
         25    1    1    2    0    0  0.47837510978E+02  0.31544984834E+02 -0.25747865970E+00  0.13750847181E+03  0.12500000000E+03 0.  0.
         25    1    1    2    0    0 -0.74040023544E+02  0.96856009593E+02 -0.92576204222E+02  0.19763189335E+03  0.12500000000E+03 0.  0.
</event>
<event>
 5    0  0.5749909E-005  0.5770259E+03  0.7546771E-02  0.9954251E-01
         21   -1    0    0  502  501  0.00000000000E+00  0.00000000000E+00  0.23604445112E+03  0.23604445112E+03  0.00000000000E+00 0. -1.
         21   -1    0    0  501  502 -0.00000000000E+00 -0.00000000000E+00 -0.14105772891E+04  0.14105772891E+04  0.00000000000E+00 0. -1.
         25    1    1    2    0    0 -0.68916395697E+02 -0.36848110075E+03 -0.80031488182E+03  0.89255627344E+03  0.12500000000E+03 0.  0.
         25    1    1    2    0    0 -0.18595539141E+03  0.27707718467E+03 -0.19739223811E+03  0.40735717684E+03  0.12500000000E+03 0.  0.
         25    1    1    2    0    0  0.25487178710E+03  0.91403916078E+02 -0.17682571804E+03  0.34670828991E+03  0.12500000000E+03 0.  0.
</event>
<event>
 5    0  0.5749909E-005  0.3327052E+03  0.7546771E-02  0.1069946E+00
         21   -1    0    0  502  501  0.00000000000E+00  0.00000000000E+00  0.61522910334E+03  0.61522910334E+03  0.00000000000E+00 0.  1.
         21   -1    0    0  501  502 -0.00000000000E+00 -0.00000000000E+00 -0.17992121400E+03  0.17992121400E+03  0.00000000000E+00 0.  1.
         25    1    1    2    0    0  0.26071203724E+03 -0.46163461157E+02  0.19069061111E+03  0.34941342372E+03  0.12500000000E+03 0.  0.
         25    1    1    2    0    0 -0.12683907667E+03  0.30967203290E+02  0.16748082535E+03  0.24641823372E+03  0.12500000000E+03 0.  0.
         25    1    1    2    0    0 -0.13387296057E+03  0.15196257867E+02  0.77136452884E+02  0.19931865991E+03  0.12500000000E+03 0.  0.
</event>
<event>
 5    0  0.5749909E-005  0.3116027E+03  0.7546771E-02  0.1079580E+00
         21   -1    0    0  502  501  0.00000000000E+00  0.00000000000E+00  0.79146853500E+02  0.79146853500E+02  0.00000000000E+00 0.  1.
         21   -1    0    0  501  502 -0.00000000000E+00 -0.00000000000E+00 -0.12267860134E+04  0.12267860134E+04  0.00000000000E+00 0.  1.
         25    1    1    2    0    0 -0.10086445208E+03 -0.84339428332E+01 -0.17828669739E+03  0.24011646247E+03  0.12500000000E+03 0.  0.
         25    1    1    2    0    0  0.13860872226E+03  0.15553678176E+03 -0.46910452159E+03  0.52828791444E+03  0.12500000000E+03 0.  0.
         25    1    1    2    0    0 -0.37744270179E+02 -0.14710283893E+03 -0.50024794097E+03  0.53752849003E+03  0.12500000000E+03 0.  0.
</event>
<event>
 5    0  0.5749909E-005  0.2952616E+03  0.7546771E-02  0.1087634E+00
         21   -1    0    0  502  501  0.00000000000E+00  0.00000000000E+00  0.34989865908E+03  0.34989865908E+03  0.00000000000E+00 0. -1.
         21   -1    0    0  501  502 -0.00000000000E+00 -0.00000000000E+00 -0.24915619730E+03  0.24915619730E+03  0.00000000000E+00 0. -1.
         25    1    1    2    0    0 -0.11695018302E+03 -0.16122732045E+03  0.46132619803E+02  0.23963474869E+03  0.12500000000E+03 0.  0.
         25    1    1    2    0    0 -0.20801896759E+00  0.63218542045E+02 -0.32308226192E+02  0.14375482187E+03  0.12500000000E+03 0.  0.
         25    1    1    2    0    0  0.11715820198E+03  0.98008778408E+02  0.86918068168E+02  0.21566528583E+03  0.12500000000E+03 0.  0.
</event>
<event>
 5    0  0.5749909E-005  0.2434448E+03  0.7546771E-02  0.1117519E+00
         21   -1    0    0  502  501  0.00000000000E+00  0.00000000000E+00  0.42143359658E+03  0.42143359658E+03  0.00000000000E+00 0. -1.
         21   -1    0    0  501  502 -0.00000000000E+00 -0.00000000000E+00 -0.14062802643E+03  0.14062802643E+03  0.00000000000E+00 0. -1.
         25    1    1    2    0    0 -0.19607489497E+02 -0.11855049118E+03  0.56967477026E+02  0.18250744106E+03  0.12500000000E+03 0.  0.
         25    1    1    2    0    0  0.60564013553E+02  0.10133918096E+03  0.14724486732E+03  0.22637067011E+03  0.12500000000E+03 0.  0.
         25    1    1    2    0    0 -0.40956524056E+02  0.17211310225E+02  0.76593225798E+02  0.15318351184E+03  0.12500000000E+03 0.  0.
</event>
<event>
 5    0  0.5749909E-005  0.2590120E+03  0.7546771E-02  0.1107738E+00
         21   -1    0    0  502  501  0.00000000000E+00  0.00000000000E+00  0.20510634869E+03  0.20510634869E+03  0.00000000000E+00 0.  1.
         21   -1    0    0  501  502 -0.00000000000E+00 -0.00000000000E+00 -0.32708497464E+03  0.32708497464E+03  0.00000000000E+00 0.  1.
         25    1    1    2    0    0 -0.28192184697E+02  0.52229926483E+02 -0.14482361500E+03  0.20030387904E+03  0.12500000000E+03 0.  0.
         25    1    1    2    0    0 -0.19555426983E+02  0.57640827539E+02  0.65327038832E+02  0.15361478355E+03  0.12500000000E+03 0.  0.
         25    1    1    2    0    0  0.47747611679E+02 -0.10987075402E+03 -0.42482049788E+02  0.17827266073E+03  0.12500000000E+03 0.  0.
</event>
<event>
 5    0  0.5749909E-005  0.2730702E+03  0.7546771E-02  0.1099535E+00
         21   -1    0    0  502  501  0.00000000000E+00  0.00000000000E+00  0.50622145446E+02  0.50622145446E+02  0.00000000000E+00 0.  1.
         21   -1    0    0  501  502 -0.00000000000E+00 -0.00000000000E+00 -0.14730182511E+04  0.14730182511E+04  0.00000000000E+00 0.  1.
         25    1    1    2    0    0 -0.37463626671E+02 -0.14349633116E+02 -0.44595437543E+03  0.46487604828E+03  0.12500000000E+03 0.  0.
         25    1    1    2    0    0  0.84594002072E+02 -0.12139532423E+03 -0.30907916171E+03  0.36475731403E+03  0.12500000000E+03 0.  0.
         25    1    1    2    0    0 -0.47130375401E+02  0.13574495735E+03 -0.66736256850E+03  0.69400703423E+03  0.12500000000E+03 0.  0.
</event>
<event>
 5    0  0.5749909E-005  0.5080047E+03  0.7546771E-02  0.1011710E+00
         21   -1    0    0  502  501  0.00000000000E+00  0.00000000000E+00  0.97319547573E+03  0.97319547573E+03  0.00000000000E+00 0. -1.
         21   -1    0    0  501  502 -0.00000000000E+00 -0.00000000000E+00 -0.26517674097E+03  0.26517674097E+03  0.00000000000E+00 0. -1.
         25    1    1    2    0    0  0.10746282850E+03 -0.80809990864E+02 -0.76563940513E+02  0.19891091252E+03  0.12500000000E+03 0.  0.
         25    1    1    2    0    0  0.53547990093E+02 -0.24303832624E+02 -0.69841017423E+02  0.15479286559E+03  0.12500000000E+03 0.  0.
         25    1    1    2    0    0 -0.16101081859E+03  0.10511382349E+03  0.85442369270E+03  0.88466843859E+03  0.12500000000E+03 0.  0.
</event>
<event>
 5    0  0.5749909E-005  0.2463611E+03  0.7546771E-02  0.1115626E+00
         21   -1    0    0  502  501  0.00000000000E+00  0.00000000000E+00  0.58193276342E+02  0.58193276342E+02  0.00000000000E+00 0.  1.
         21   -1    0    0  501  502 -0.00000000000E+00 -0.00000000000E+00 -0.10429687538E+04  0.10429687538E+04  0.00000000000E+00 0.  1.
         25    1    1    2    0    0 -0.49768127062E+02 -0.64401108677E+02 -0.32141204715E+03  0.35433751329E+03  0.12500000000E+03 0.  0.
         25    1    1    2    0    0  0.19569838745E+02 -0.33378895769E+02 -0.11186088820E+03  0.17214815590E+03  0.12500000000E+03 0.  0.
         25    1    1    2    0    0  0.30198288317E+02  0.97780004446E+02 -0.55150254212E+03  0.57467636097E+03  0.12500000000E+03 0.  0.
</event>
<event>
 5    0  0.5749909E-005  0.3180894E+03  0.7546771E-02  0.1076532E+00
         21   -1    0    0  502  501  0.00000000000E+00  0.00000000000E+00  0.15994713870E+03  0.15994713870E+03  0.00000000000E+00 0. -1.
         21   -1    0    0  501  502 -0.00000000000E+00 -0.00000000000E+00 -0.63258937229E+03  0.63258937229E+03  0.00000000000E+00 0. -1.
         25    1    1    2    0    0  0.59316104883E+02  0.10420590378E+03 -0.13983257203E+02  0.17377514829E+03  0.12500000000E+03 0.  0.
         25    1    1    2    0    0  0.62320223520E+02 -0.17772300667E+03 -0.24724081875E+03  0.33499596984E+03  0.12500000000E+03 0.  0.
         25    1    1    2    0    0 -0.12163632840E+03  0.73517102889E+02 -0.21141815764E+03  0.28376539286E+03  0.12500000000E+03 0.  0.
</event>
<event>
 5    0  0.7113551E-005  0.4314568E+03  0.7546771E-02  0.1033401E+00
         21   -1    0    0  502  501  0.00000000000E+00  0.00000000000E+00  0.66168218742E+03  0.66168218742E+03  0.00000000000E+00 0.  1.
         21   -1    0    0  501  502 -0.00000000000E+00 -0.00000000000E+00 -0.28133597826E+03  0.28133597826E+03  0.00000000000E+00 0.  1.
         25    1    1    2    0    0 -0.38992347831E+02 -0.19835676878E+03 -0.45673889046E+02  0.24202668252E+03  0.12500000000E+03 0.  0.
         25    1    1    2    0    0  0.14227890848E+03  0.19222986000E+03  0.28165976640E+02  0.27131886981E+03  0.12500000000E+03 0.  0.
         25    1    1    2    0    0 -0.10328656065E+03  0.61269087807E+01  0.39785412157E+03  0.42967261336E+03  0.12500000000E+03 0.  0.
</event>
<event>
 5    0  0.5749909E-005  0.2727353E+03  0.7546771E-02  0.1099724E+00
         21   -1    0    0  502  501  0.00000000000E+00  0.00000000000E+00  0.63325211533E+02  0.63325211533E+02  0.00000000000E+00 0.  1.
         21   -1    0    0  501  502 -0.00000000000E+00 -0.00000000000E+00 -0.11746432833E+04  0.11746432833E+04  0.00000000000E+00 0.  1.
         25    1    1    2    0    0 -0.61865327238E+02  0.76646913615E+02 -0.11748778244E+03  0.19781417316E+03  0.12500000000E+03 0.  0.
         25    1    1    2    0    0  0.14718450867E+02 -0.82233483375E+02 -0.71864485138E+03  0.73420324230E+03  0.12500000000E+03 0.  0.
         25    1    1    2    0    0  0.47146876370E+02  0.55865697603E+01 -0.27518543795E+03  0.30595107938E+03  0.12500000000E+03 0.  0.
</event>
<event>
 5    0  0.5749909E-005  0.2421964E+03  0.7546771E-02  0.1118338E+00
         21   -1    0    0  502  501  0.00000000000E+00  0.00000000000E+00  0.25267976679E+03  0.25267976679E+03  0.00000000000E+00 0. -1.
         21   -1    0    0  501  502 -0.00000000000E+00 -0.00000000000E+00 -0.23214792995E+03  0.23214792995E+03  0.00000000000E+00 0. -1.
         25    1    1    2    0    0 -0.54731627726E+02 -0.20377386055E+02 -0.10006473903E+03  0.17043691189E+03  0.12500000000E+03 0.  0.
         25    1    1    2    0    0  0.92030154220E+02  0.26126608478E+02  0.85746290451E+02  0.17924724623E+03  0.12500000000E+03 0.  0.
         25    1    1    2    0    0 -0.37298526494E+02 -0.57492224231E+01  0.34850285423E+02  0.13514353862E+03  0.12500000000E+03 0.  0.
</event>
<event>
 5    0  0.5749909E-005  0.2521733E+03  0.7546771E-02  0.1111939E+00
         21   -1    0    0  502  501  0.00000000000E+00  0.00000000000E+00  0.56847031245E+03  0.56847031245E+03  0.00000000000E+00 0. -1.
         21   -1    0    0  501  502 -0.00000000000E+00 -0.00000000000E+00 -0.11186400962E+03  0.11186400962E+03  0.00000000000E+00 0. -1.
         25    1    1    2    0    0 -0.43193822596E+02 -0.12552128108E+01  0.26049050598E+03  0.29214309093E+03  0.12500000000E+03 0.  0.
         25    1    1    2    0    0 -0.13446784094E+02  0.32835509358E+02  0.20972382226E+03  0.24671454821E+03  0.12500000000E+03 0.  0.
         25    1    1    2    0    0  0.56640606690E+02 -0.31580296547E+02 -0.13608025408E+02  0.14147668293E+03  0.12500000000E+03 0.  0.
</event>
<event>
 5    0  0.5749909E-005  0.3211064E+03  0.7546771E-02  0.1075141E+00
         21   -1    0    0  502  501  0.00000000000E+00  0.00000000000E+00  0.50660663899E+03  0.50660663899E+03  0.00000000000E+00 0.  1.
         21   -1    0    0  501  502 -0.00000000000E+00 -0.00000000000E+00 -0.20352932216E+03  0.20352932216E+03  0.00000000000E+00 0.  1.
         25    1    1    2    0    0 -0.48448007099E+02 -0.57342993255E+02 -0.78448581699E+02  0.16557357349E+03  0.12500000000E+03 0.  0.
         25    1    1    2    0    0  0.10146296552E+03 -0.83818746772E+02  0.11906687295E+03  0.21707656694E+03  0.12500000000E+03 0.  0.
         25    1    1    2    0    0 -0.53014958425E+02  0.14116174003E+03  0.26245902558E+03  0.32748582072E+03  0.12500000000E+03 0.  0.
</event>
<event>
 5    0  0.5749909E-005  0.3294651E+03  0.7546771E-02  0.1071374E+00
         21   -1    0    0  502  501  0.00000000000E+00  0.00000000000E+00  0.27204024924E+03  0.27204024924E+03  0.00000000000E+00 0. -1.
         21   -1    0    0  501  502 -0.00000000000E+00 -0.00000000000E+00 -0.39901165218E+03  0.39901165218E+03  0.00000000000E+00 0. -1.
         25    1    1    2    0    0  0.48489090445E+01 -0.84033291035E+02  0.20392307307E+02  0.15207219377E+03  0.12500000000E+03 0.  0.
         25    1    1    2    0    0  0.62435129588E+01  0.25043047812E+03 -0.13334036709E+03  0.31009524234E+03  0.12500000000E+03 0.  0.
         25    1    1    2    0    0 -0.11092422003E+02 -0.16639718708E+03 -0.14023343149E+02  0.20888446531E+03  0.12500000000E+03 0.  0.
</event>
<event>
 5    0  0.5749909E-005  0.4604194E+03  0.7546771E-02  0.1024660E+00
         21   -1    0    0  502  501  0.00000000000E+00  0.00000000000E+00  0.59274251508E+03  0.59274251508E+03  0.00000000000E+00 0. -1.
         21   -1    0    0  501  502 -0.00000000000E+00 -0.00000000000E+00 -0.35763586318E+03  0.35763586318E+03  0.00000000000E+00 0. -1.
         25    1    1    2    0    0  0.40733775765E+01 -0.12492073884E+03  0.63326460953E+02  0.18776853851E+03  0.12500000000E+03 0.  0.
         25    1    1    2    0    0 -0.30376541598E+03 -0.10176764943E+03  0.45104086530E+02  0.34682771089E+03  0.12500000000E+03 0.  0.
         25    1    1    2    0    0  0.29969203841E+03  0.22668838827E+03  0.12667610442E+03  0.41578212887E+03  0.12500000000E+03 0.  0.
</event>
<event>
 5    0  0.5749909E-005  0.2898125E+03  0.7546771E-02  0.1090447E+00
         21   -1    0    0  502  501  0.00000000000E+00  0.00000000000E+00  0.36214897438E+03  0.36214897438E+03  0.00000000000E+00 0.  1.
         21   -1    0    0  501  502 -0.00000000000E+00 -0.00000000000E+00 -0.23192466897E+03  0.23192466897E+03  0.00000000000E+00 0.  1.
         25    1    1    2    0    0  0.10236470106E+03 -0.66350277840E+02 -0.10013941492E+03  0.20133006187E+03  0.12500000000E+03 0.  0.
         25    1    1    2    0    0 -0.11856819164E+03  0.68118514833E+02  0.17574198981E+03  0.25536012828E+03  0.12500000000E+03 0.  0.
         25    1    1    2    0    0  0.16203490587E+02 -0.17682369927E+01  0.54621730521E+02  0.13738345320E+03  0.12500000000E+03 0.  0.
</event>
<event>
 5    0  0.5749909E-005  0.3131578E+03  0.7546771E-02  0.1078842E+00
         21   -1    0    0  502  501  0.00000000000E+00  0.00000000000E+00  0.88986146375E+02  0.88986146375E+02  0.00000000000E+00 0.  1.
         21   -1    0    0  501  502 -0.00000000000E+00 -0.00000000000E+00 -0.11020567969E+04  0.11020567969E+04  0.00000000000E+00 0.  1.
         25    1    1    2    0    0 -0.65983529395E+01  0.10193081789E+03 -0.43556315805E+03  0.46451447184E+03  0.12500000000E+03 0.  0.
         25    1    1    2    0    0 -0.10414207847E+03  0.73790757752E+02 -0.35526528493E+03  0.39765446196E+03  0.12500000000E+03 0.  0.
         25    1    1    2    0    0  0.11074043141E+03 -0.17572157564E+03 -0.22224220752E+03  0.32887400946E+03  0.12500000000E+03 0.  0.
</event>
<event>
 5    0  0.5749909E-005  0.3709019E+03  0.7546771E-02  0.1054349E+00
         21   -1    0    0  502  501  0.00000000000E+00  0.00000000000E+00  0.69952712937E+03  0.69952712937E+03  0.00000000000E+00 0.  1.
         21   -1    0    0  501  502 -0.00000000000E+00 -0.00000000000E+00 -0.19665885499E+03  0.19665885499E+03  0.00000000000E+00 0.  1.
         25    1    1    2    0    0 -0.20748005730E+03 -0.16205489261E+03  0.18739163404E+03  0.34648288111E+03  0.12500000000E+03 0.  0.
         25    1    1    2    0    0  0.13391349093E+03 -0.52537156611E+02  0.11999713249E+03  0.22520499036E+03  0.12500000000E+03 0.  0.
         25    1    1    2    0    0  0.73566566371E+02  0.21459204922E+03  0.19547950785E+03  0.32449811288E+03  0.12500000000E+03 0.  0.
</event>
<event>
 5    0  0.5749909E-005  0.2324267E+03  0.7546771E-02  0.1124943E+00
         21   -1    0    0  502  501  0.00000000000E+00  0.00000000000E+00  0.55508043736E+03  0.55508043736E+03  0.00000000000E+00 0.  1.
         21   -1    0    0  501  502 -0.00000000000E+00 -0.00000000000E+00 -0.97323163444E+02  0.97323163444E+02  0.00000000000E+00 0.  1.
         25    1    1    2    0    0 -0.31619126919E+02  0.56917465242E+01  0.44923527413E+02  0.13665755918E+03  0.12500000000E+03 0.  0.
         25    1    1    2    0    0 -0.35793073558E+02  0.23105469579E+02  0.31316077324E+03  0.33986714571E+03  0.12500000000E+03 0.  0.
         25    1    1    2    0    0  0.67412200477E+02 -0.28797216104E+02  0.99672973266E+02  0.17587889591E+03  0.12500000000E+03 0.  0.
</event>
<event>
 5    0  0.5749909E-005  0.3551103E+03  0.7546771E-02  0.1060537E+00
         21   -1    0    0  502  501  0.00000000000E+00  0.00000000000E+00  0.10578941799E+04  0.10578941799E+04  0.00000000000E+00 0.  1.
         21   -1    0    0  501  502 -0.00000000000E+00 -0.00000000000E+00 -0.11920221517E+03  0.11920221517E+03  0.00000000000E+00 0.  1.
         25    1    1    2    0    0 -0.12900863966E+03  0.87105856670E+02  0.33058247757E+03  0.38618704516E+03  0.12500000000E+03 0.  0.
         25    1    1    2    0    0  0.26353060747E+02 -0.12775007086E+02 -0.27112129376E+02  0.13121643257E+03  0.12500000000E+03 0.  0.
         25    1    1    2    0    0  0.10265557892E+03 -0.74330849585E+02  0.63522161658E+03  0.65969291739E+03  0.12500000000E+03 0.  0.
</event>
<event>
 5    0  0.5749909E-005  0.2560167E+03  0.7546771E-02  0.1109560E+00
         21   -1    0    0  502  501  0.00000000000E+00  0.00000000000E+00  0.18849582747E+03  0.18849582747E+03  0.00000000000E+00 0. -1.
         21   -1    0    0  501  502 -0.00000000000E+00 -0.00000000000E+00 -0.34772426652E+03  0.34772426652E+03  0.00000000000E+00 0. -1.
         25    1    1    2    0    0 -0.28824847216E+02  0.58072249009E+02  0.31184175880E+02  0.14422451507E+03  0.12500000000E+03 0.  0.
         25    1    1    2    0    0 -0.54624770653E+02 -0.16019958166E+02 -0.19181585251E+03  0.23592122817E+03  0.12500000000E+03 0.  0.
         25    1    1    2    0    0  0.83449617869E+02 -0.42052290843E+02  0.14032375798E+01  0.15607435075E+03  0.12500000000E+03 0.  0.
</event>
<event>
 5    0  0.5749909E-005  0.3309203E+03  0.7546771E-02  0.1070730E+00
         21   -1    0    0  502  501  0.00000000000E+00  0.00000000000E+00  0.26567644851E+03  0.26567644851E+03  0.00000000000E+00 0. -1.
         21   -1    0    0  501  502 -0.00000000000E+00 -0.00000000000E+00 -0.41218660114E+03  0.41218660114E+03  0.00000000000E+00 0. -1.
         25    1    1    2    0    0 -0.18792597636E+03 -0.71735691768E+01  0.68574785079E+02  0.23599816490E+03  0.12500000000E+03 0.  0.
         25    1    1    2    0    0  0.17233286504E+03  0.59359033630E+02 -0.47929492307E+02  0.22615116069E+03  0.12500000000E+03 0.  0.
         25    1    1    2    0    0  0.15593111318E+02 -0.52185464453E+02 -0.16715544541E+03  0.21571372406E+03  0.12500000000E+03 0.  0.
</event>
<event>
 5    0  0.5749909E-005  0.4527641E+03  0.7546771E-02  0.1026901E+00
         21   -1    0    0  502  501  0.00000000000E+00  0.00000000000E+00  0.28278532847E+03  0.28278532847E+03  0.00000000000E+00 0.  1.
         21   -1    0    0  501  502 -0.00000000000E+00 -0.00000000000E+00 -0.72491515968E+03  0.72491515968E+03  0.00000000000E+00 0.  1.
         25    1    1    2    0    0  0.15675177059E+03  0.94338605373E+02  0.88245820312E+02  0.23850202274E+03  0.12500000000E+03 0.  0.
         25    1    1    2    0    0 -0.23235611646E+03 -0.22904632742E+03 -0.40203406888E+03  0.53264244809E+03  0.12500000000E+03 0.  0.
         25    1    1    2    0    0  0.75604345870E+02  0.13470772205E+03 -0.12834158264E+03  0.23655601732E+03  0.12500000000E+03 0.  0.
</event>
<event>
 5    0  0.5749909E-005  0.6893208E+03  0.7546771E-02  0.9735671E-01
         21   -1    0    0  502  501  0.00000000000E+00  0.00000000000E+00  0.38140573260E+03  0.38140573260E+03  0.00000000000E+00 0.  1.
         21   -1    0    0  501  502 -0.00000000000E+00 -0.00000000000E+00 -0.12458207513E+04  0.12458207513E+04  0.00000000000E+00 0.  1.
         25    1    1    2    0    0 -0.48354918857E+03 -0.13166463332E+02 -0.82516676251E+03  0.96463379553E+03  0.12500000000E+03 0.  0.
         25    1    1    2    0    0  0.83895460482E+02 -0.13056114752E+03 -0.86729542915E+02  0.21732849593E+03  0.12500000000E+03 0.  0.
         25    1    1    2    0    0  0.39965372809E+03  0.14372761085E+03  0.47481286708E+02  0.44526419245E+03  0.12500000000E+03 0.  0.
</event>
<event>
 5    0  0.5749909E-005  0.2077442E+03  0.7546771E-02  0.1143365E+00
         21   -1    0    0  502  501  0.00000000000E+00  0.00000000000E+00  0.51189697270E+02  0.51189697270E+02  0.00000000000E+00 0.  1.
         21   -1    0    0  501  502 -0.00000000000E+00 -0.00000000000E+00 -0.84309256230E+03  0.84309256230E+03  0.00000000000E+00 0.  1.
         25    1    1    2    0    0  0.41071121948E+02 -0.33312562412E+02 -0.37235933936E+03  0.39632441444E+03  0.12500000000E+03 0.  0.
         25    1    1    2    0    0 -0.35360784054E+02 -0.89055311548E+01 -0.26053017801E+03  0.29125704659E+03  0.12500000000E+03 0.  0.
         25    1    1    2    0    0 -0.57103378938E+01  0.42218093567E+02 -0.15901334766E+03  0.20670079854E+03  0.12500000000E+03 0.  0.
</event>
<event>
 5    0  0.5749909E-005  0.3653192E+03  0.7546771E-02  0.1056497E+00
         21   -1    0    0  502  501  0.00000000000E+00  0.00000000000E+00  0.14661745993E+04  0.14661745993E+04  0.00000000000E+00 0.  1.
         21   -1    0    0  501  502 -0.00000000000E+00 -0.00000000000E+00 -0.91024733710E+02  0.91024733710E+02  0.00000000000E+00 0.  1.
         25    1    1    2    0    0  0.18905963579E+03  0.22799698743E+02  0.32042024258E+03  0.39313802157E+03  0.12500000000E+03 0.  0.
         25    1    1    2    0    0 -0.21341026146E+03  0.12567555614E+02  0.98293524101E+03  0.10136511092E+04  0.12500000000E+03 0.  0.
         25    1    1    2    0    0  0.24350625667E+02 -0.35367254358E+02  0.71794381986E+02  0.15041020223E+03  0.12500000000E+03 0.  0.
</event>
<event>
 5    0  0.5749909E-005  0.5153028E+03  0.7546771E-02  0.1009860E+00
         21   -1    0    0  502  501  0.00000000000E+00  0.00000000000E+00  0.22922527352E+03  0.22922527352E+03  0.00000000000E+00 0.  1.
         21   -1    0    0  501  502 -0.00000000000E+00 -0.00000000000E+00 -0.11584105515E+04  0.11584105515E+04  0.00000000000E+00 0.  1.
         25    1    1    2    0    0 -0.18854262290E+02  0.38658342819E+03 -0.29226160907E+03  0.50084336703E+03  0.12500000000E+03 0.  0.
         25    1    1    2    0    0 -0.15379975418E+03 -0.14244765897E+03 -0.10895417726E+03  0.26728582580E+03  0.12500000000E+03 0.  0.
         25    1    1    2    0    0  0.17265401647E+03 -0.24413576923E+03 -0.52796949168E+03  0.61950663222E+03  0.12500000000E+03 0.  0.
</event>
<event>
 5    0  0.5749909E-005  0.5738541E+03  0.7546771E-02  0.9961186E-01
         21   -1    0    0  502  501  0.00000000000E+00  0.00000000000E+00  0.35199844997E+03  0.35199844997E+03  0.00000000000E+00 0. -1.
         21   -1    0    0  501  502 -0.00000000000E+00 -0.00000000000E+00 -0.93553958079E+03  0.93553958079E+03  0.00000000000E+00 0. -1.
         25    1    1    2    0    0 -0.18900290291E+03 -0.16027312276E+03  0.20241347385E+03  0.34351970189E+03  0.12500000000E+03 0.  0.
         25    1    1    2    0    0 -0.26488358443E+02  0.15796170405E+03 -0.59906178920E+03  0.63257692051E+03  0.12500000000E+03 0.  0.
         25    1    1    2    0    0  0.21549126135E+03  0.23114187116E+01 -0.18689281547E+03  0.31144140837E+03  0.12500000000E+03 0.  0.
</event>
<event>
 5    0  0.5749909E-005  0.2592153E+03  0.7546771E-02  0.1107616E+00
         21   -1    0    0  502  501  0.00000000000E+00  0.00000000000E+00  0.93273673001E+03  0.93273673001E+03  0.00000000000E+00 0.  1.
         21   -1    0    0  501  502 -0.00000000000E+00 -0.00000000000E+00 -0.72038083867E+02  0.72038083867E+02  0.00000000000E+00 0.  1.
         25    1    1    2    0    0  0.12130375015E+01 -0.90618962569E+02  0.93029154915E+02  0.18025729250E+03  0.12500000000E+03 0.  0.
         25    1    1    2    0    0  0.24179934635E+02 -0.43187481334E+01  0.47099629653E+03  0.48791990344E+03  0.12500000000E+03 0.  0.
         25    1    1    2    0    0 -0.25392972136E+02  0.94937710702E+02  0.29667319470E+03  0.33659761793E+03  0.12500000000E+03 0.  0.
</event>
<event>
 5    0  0.5749909E-005  0.2299929E+03  0.7546771E-02  0.1126645E+00
         21   -1    0    0  502  501  0.00000000000E+00  0.00000000000E+00  0.49884781310E+02  0.49884781310E+02  0.00000000000E+00 0. -1.
         21   -1    0    0  501  502 -0.00000000000E+00 -0.00000000000E+00 -0.10603779809E+04  0.10603779809E+04  0.00000000000E+00 0. -1.
         25    1    1    2    0    0  0.71734382019E+01  0.35984435546E+02 -0.67440344832E+03  0.68687069301E+03  0.12500000000E+03 0.  0.
         25    1    1    2    0    0 -0.43253553501E+00  0.62184970173E+01 -0.17259313670E+03  0.21319532741E+03  0.12500000000E+03 0.  0.
         25    1    1    2    0    0 -0.67409026669E+01 -0.42202932564E+02 -0.16349661460E+03  0.21019674182E+03  0.12500000000E+03 0.  0.
</event>
<event>
 5    0  0.5749909E-005  0.3112011E+03  0.7546771E-02  0.1079772E+00
         21   -1    0    0  502  501  0.00000000000E+00  0.00000000000E+00  0.12381200337E+03  0.12381200337E+03  0.00000000000E+00 0.  1.
         21   -1    0    0  501  502 -0.00000000000E+00 -0.00000000000E+00 -0.78220289208E+03  0.78220289208E+03  0.00000000000E+00 0.  1.
         25    1    1    2    0    0 -0.34500045354E+02 -0.76314198580E+02 -0.25859927660E+03  0.29918672413E+03  0.12500000000E+03 0.  0.
         25    1    1    2    0    0 -0.87691679527E+02  0.29402160134E+02  0.13063241681E+02  0.15604475628E+03  0.12500000000E+03 0.  0.
         25    1    1    2    0    0  0.12219172488E+03  0.46912038446E+02 -0.41285485378E+03  0.45078341504E+03  0.12500000000E+03 0.  0.
</event>
<event>
 5    0  0.5749909E-005  0.2593907E+03  0.7546771E-02  0.1107510E+00
         21   -1    0    0  502  501  0.00000000000E+00  0.00000000000E+00  0.10742029568E+04  0.10742029568E+04  0.00000000000E+00 0.  1.
         21   -1    0    0  501  502 -0.00000000000E+00 -0.00000000000E+00 -0.62635752141E+02  0.62635752141E+02  0.00000000000E+00 0.  1.
         25    1    1    2    0    0 -0.62719635157E+02  0.89892848811E+02  0.55086180985E+03  0.57540265071E+03  0.12500000000E+03 0.  0.
         25    1    1    2    0    0 -0.64290262670E+01 -0.85379167223E+00  0.89579740297E+02  0.15392073028E+03  0.12500000000E+03 0.  0.
         25    1    1    2    0    0  0.69148661424E+02 -0.89039057139E+02  0.37112565455E+03  0.40751532798E+03  0.12500000000E+03 0.  0.
</event>
<event>
 5    0  0.5749909E-005  0.3345725E+03  0.7546771E-02  0.1069131E+00
         21   -1    0    0  502  501  0.00000000000E+00  0.00000000000E+00  0.65656711380E+03  0.65656711380E+03  0.00000000000E+00 0. -1.
         21   -1    0    0  501  502 -0.00000000000E+00 -0.00000000000E+00 -0.17049098929E+03  0.17049098929E+03  0.00000000000E+00 0. -1.
         25    1    1    2    0    0 -0.48841811043E+02 -0.97140579173E+02  0.63763305150E+02  0.17751781238E+03  0.12500000000E+03 0.  0.
         25    1    1    2    0    0 -0.13722918868E+02 -0.14568327861E+03  0.26718397295E+03  0.32927831932E+03  0.12500000000E+03 0.  0.
         25    1    1    2    0    0  0.62564729911E+02  0.24282385778E+03  0.15512884641E+03  0.32026197140E+03  0.12500000000E+03 0.  0.
</event>
<event>
 5    0  0.5749909E-005  0.2872720E+03  0.7546771E-02  0.1091782E+00
         21   -1    0    0  502  501  0.00000000000E+00  0.00000000000E+00  0.87223126933E+03  0.87223126933E+03  0.00000000000E+00 0.  1.
         21   -1    0    0  501  502 -0.00000000000E+00 -0.00000000000E+00 -0.94613918684E+02  0.94613918684E+02  0.00000000000E+00 0.  1.
         25    1    1    2    0    0  0.17188797824E+03 -0.35326036477E+02  0.19188570299E+03  0.28851088182E+03  0.12500000000E+03 0.  0.
         25    1    1    2    0    0 -0.16392441367E+03  0.33892992037E+02  0.43332922976E+03  0.48106046363E+03  0.12500000000E+03 0.  0.
         25    1    1    2    0    0 -0.79635645740E+01  0.14330444396E+01  0.15240241789E+03  0.19727384256E+03  0.12500000000E+03 0.  0.
</event>
<event>
 5    0  0.5749909E-005  0.3341027E+03  0.7546771E-02  0.1069336E+00
         21   -1    0    0  502  501  0.00000000000E+00  0.00000000000E+00  0.12274188645E+04  0.12274188645E+04  0.00000000000E+00 0. -1.
         21   -1    0    0  501  502 -0.00000000000E+00 -0.00000000000E+00 -0.90942567317E+02  0.90942567317E+02  0.00000000000E+00 0. -1.
         25    1    1    2    0    0 -0.60456595361E+02  0.13170777159E+02  0.96259212448E+02  0.16946771160E+03  0.12500000000E+03 0.  0.
         25    1    1    2    0    0 -0.71549944819E+02 -0.12891475334E+03  0.81324878861E+03  0.83590489914E+03  0.12500000000E+03 0.  0.
         25    1    1    2    0    0  0.13200654018E+03  0.11574397618E+03  0.22696829612E+03  0.31298882107E+03  0.12500000000E+03 0.  0.
</event>
<event>
 5    0  0.5749909E-005  0.4920437E+03  0.7546771E-02  0.1015877E+00
         21   -1    0    0  502  501  0.00000000000E+00  0.00000000000E+00  0.12440891033E+04  0.12440891033E+04  0.00000000000E+00 0.  1.
         21   -1    0    0  501  502 -0.00000000000E+00 -0.00000000000E+00 -0.19460582239E+03  0.19460582239E+03  0.00000000000E+00 0.  1.
         25    1    1    2    0    0 -0.15576204185E+03  0.95532361395E+02  0.41129831196E+02  0.22517750503E+03  0.12500000000E+03 0.  0.
         25    1    1    2    0    0  0.97570075928E+02 -0.30204161962E+03  0.27161831361E+03  0.43606257348E+03  0.12500000000E+03 0.  0.
         25    1    1    2    0    0  0.58191965925E+02  0.20650925822E+03  0.73673513611E+03  0.77745484718E+03  0.12500000000E+03 0.  0.
</event>
<event>
 5    0  0.5749909E-005  0.3369870E+03  0.7546771E-02  0.1068086E+00
         21   -1    0    0  502  501  0.00000000000E+00  0.00000000000E+00  0.24357802837E+04  0.24357802837E+04  0.00000000000E+00 0. -1.
         21   -1    0    0  501  502 -0.00000000000E+00 -0.00000000000E+00 -0.46621713663E+02  0.46621713663E+02  0.00000000000E+00 0. -1.
         25    1    1    2    0    0  0.15784967860E+03  0.76999403801E+02  0.38039231956E+03  0.43722848260E+03  0.12500000000E+03 0.  0.
         25    1    1    2    0    0 -0.15146781498E+03  0.52390705067E+02  0.11349237529E+04  0.11529805765E+04  0.12500000000E+03 0.  0.
         25    1    1    2    0    0 -0.63818636161E+01 -0.12939010887E+03  0.87384249758E+03  0.89219293823E+03  0.12500000000E+03 0.  0.
</event>
<event>
 5    0  0.5749909E-005  0.3455958E+03  0.7546771E-02  0.1064437E+00
         21   -1    0    0  502  501  0.00000000000E+00  0.00000000000E+00  0.71004471989E+03  0.71004471989E+03  0.00000000000E+00 0. -1.
         21   -1    0    0  501  502 -0.00000000000E+00 -0.00000000000E+00 -0.16820978155E+03  0.16820978155E+03  0.00000000000E+00 0. -1.
         25    1    1    2    0    0  0.20943069495E+03  0.40478064345E+01  0.74006231058E+02  0.25491081374E+03  0.12500000000E+03 0.  0.
         25    1    1    2    0    0 -0.93040516070E+02  0.10524969737E+03  0.12751477197E+03  0.22719826914E+03  0.12500000000E+03 0.  0.
         25    1    1    2    0    0 -0.11639017888E+03 -0.10929750381E+03  0.34031393531E+03  0.39614541856E+03  0.12500000000E+03 0.  0.
</event>
<event>
 5    0  0.5817763E-005  0.3060651E+03  0.7546771E-02  0.1082247E+00
         21   -1    0    0  502  501  0.00000000000E+00  0.00000000000E+00  0.69321781439E+03  0.69321781439E+03  0.00000000000E+00 0.  1.
         21   -1    0    0  501  502 -0.00000000000E+00 -0.00000000000E+00 -0.13513187668E+03  0.13513187668E+03  0.00000000000E+00 0.  1.
         25    1    1    2    0    0  0.24756954254E+02 -0.27112674536E+02  0.24311809136E+03  0.27582496307E+03  0.12500000000E+03 0.  0.
         25    1    1    2    0    0 -0.14817112031E+03 -0.10948072592E+03  0.10336565374E+03  0.24545909764E+03  0.12500000000E+03 0.  0.
         25    1    1    2    0    0  0.12341416605E+03  0.13659340046E+03  0.21160219261E+03  0.30706563036E+03  0.12500000000E+03 0.  0.
</event>
<event>
 5    0  0.5749909E-005  0.2731838E+03  0.7546771E-02  0.1099471E+00
         21   -1    0    0  502  501  0.00000000000E+00  0.00000000000E+00  0.15018469604E+03  0.15018469604E+03  0.00000000000E+00 0.  1.
         21   -1    0    0  501  502 -0.00000000000E+00 -0.00000000000E+00 -0.49691753607E+03  0.49691753607E+03  0.00000000000E+00 0.  1.
         25    1    1    2    0    0  0.13178110889E+02 -0.59600006623E+02 -0.34649469942E+02  0.14335762681E+03  0.12500000000E+03 0.  0.
         25    1    1    2    0    0 -0.57896278737E+02  0.15868594670E+03 -0.94847500101E+02  0.23055207014E+03  0.12500000000E+03 0.  0.
         25    1    1    2    0    0  0.44718167847E+02 -0.99085940080E+02 -0.21723586999E+03  0.27319253516E+03  0.12500000000E+03 0.  0.
</event>
<event>
 5    0  0.5749909E-005  0.3790473E+03  0.7546771E-02  0.1051286E+00
         21   -1    0    0  502  501  0.00000000000E+00  0.00000000000E+00  0.55580283683E+03  0.55580283683E+03  0.00000000000E+00 0.  1.
         21   -1    0    0  501  502 -0.00000000000E+00 -0.00000000000E+00 -0.25850324537E+03  0.25850324537E+03  0.00000000000E+00 0.  1.
         25    1    1    2    0    0 -0.14655936397E+02 -0.14178463251E+03  0.41581294407E+02  0.19409194350E+03  0.12500000000E+03 0.  0.
         25    1    1    2    0    0  0.20236068566E+03  0.56305908025E+02  0.28704488783E+03  0.37701454880E+03  0.12500000000E+03 0.  0.
         25    1    1    2    0    0 -0.18770474926E+03  0.85478724488E+02 -0.31326590781E+02  0.24319958989E+03  0.12500000000E+03 0.  0.
</event>
<event>
 5    0  0.5749909E-005  0.2311185E+03  0.7546771E-02  0.1125855E+00
         21   -1    0    0  502  501  0.00000000000E+00  0.00000000000E+00  0.64612465590E+03  0.64612465590E+03  0.00000000000E+00 0. -1.
         21   -1    0    0  501  502 -0.00000000000E+00 -0.00000000000E+00 -0.82670953145E+02  0.82670953145E+02  0.00000000000E+00 0. -1.
         25    1    1    2    0    0  0.53298619435E+02  0.57645608646E+02  0.11078357597E+03  0.18455828276E+03  0.12500000000E+03 0.  0.
         25    1    1    2    0    0 -0.62984257032E+02 -0.80470112932E+02  0.32987667619E+03  0.36726839941E+03  0.12500000000E+03 0.  0.
         25    1    1    2    0    0  0.96856375975E+01  0.22824504286E+02  0.12279345059E+03  0.17696892687E+03  0.12500000000E+03 0.  0.
</event>
<event>
 5    0  0.5749909E-005  0.3158936E+03  0.7546771E-02  0.1077555E+00
         21   -1    0    0  502  501  0.00000000000E+00  0.00000000000E+00  0.11980714654E+03  0.11980714654E+03  0.00000000000E+00 0. -1.
         21   -1    0    0  501  502 -0.00000000000E+00 -0.00000000000E+00 -0.83291184160E+03  0.83291184160E+03  0.00000000000E+00 0. -1.
         25    1    1    2    0    0  0.66921289607E+02  0.11800948094E+03 -0.14986193509E+03  0.23767266604E+03  0.12500000000E+03 0.  0.
         25    1    1    2    0    0  0.37037124910E+01  0.10833815921E+03 -0.27887168803E+03  0.32426114878E+03  0.12500000000E+03 0.  0.
         25    1    1    2    0    0 -0.70625002098E+02 -0.22634764015E+03 -0.28437107194E+03  0.39078517332E+03  0.12500000000E+03 0.  0.
</event>
<event>
 5    0  0.5749909E-005  0.2221995E+03  0.7546771E-02  0.1132254E+00
         21   -1    0    0  502  501  0.00000000000E+00  0.00000000000E+00  0.18717174558E+03  0.18717174558E+03  0.00000000000E+00 0. -1.
         21   -1    0    0  501  502 -0.00000000000E+00 -0.00000000000E+00 -0.26378239523E+03  0.26378239523E+03  0.00000000000E+00 0. -1.
         25    1    1    2    0    0 -0.92595214144E+02  0.46063123184E+02 -0.58538207496E+02  0.17247436545E+03  0.12500000000E+03 0.  0.
         25    1    1    2    0    0  0.57021903301E+02 -0.46038668934E+02  0.10956955969E+02  0.14531383753E+03  0.12500000000E+03 0.  0.
         25    1    1    2    0    0  0.35573310843E+02 -0.24454249311E-01 -0.29029398128E+02  0.13316593783E+03  0.12500000000E+03 0.  0.
</event>
<event>
 5    0  0.5749909E-005  0.2706938E+03  0.7546771E-02  0.1100883E+00
         21   -1    0    0  502  501  0.00000000000E+00  0.00000000000E+00  0.13480959193E+03  0.13480959193E+03  0.00000000000E+00 0.  1.
         21   -1    0    0  501  502 -0.00000000000E+00 -0.00000000000E+00 -0.54354532009E+03  0.54354532009E+03  0.00000000000E+00 0.  1.
         25    1    1    2    0    0 -0.27967339408E+01 -0.45675823010E+02 -0.63019254321E+02  0.14727704826E+03  0.12500000000E+03 0.  0.
         25    1    1    2    0    0  0.91373342824E+02  0.25729922981E+02 -0.34227143545E+03  0.37654462184E+03  0.12500000000E+03 0.  0.
         25    1    1    2    0    0 -0.88576608883E+02  0.19945900029E+02 -0.34450383869E+01  0.15453324192E+03  0.12500000000E+03 0.  0.
</event>
<event>
 5    0  0.5749909E-005  0.2759797E+03  0.7546771E-02  0.1097905E+00
         21   -1    0    0  502  501  0.00000000000E+00  0.00000000000E+00  0.47951799785E+03  0.47951799785E+03  0.00000000000E+00 0. -1.
         21   -1    0    0  501  502 -0.00000000000E+00 -0.00000000000E+00 -0.15883616560E+03  0.15883616560E+03  0.00000000000E+00 0. -1.
         25    1    1    2    0    0 -0.10052845343E+03 -0.13011780001E+03  0.20860199733E+03  0.29355818012E+03  0.12500000000E+03 0.  0.
         25    1    1    2    0    0  0.10438767585E+03  0.86488172176E+02  0.24521221167E+02  0.18601957177E+03  0.12500000000E+03 0.  0.
         25    1    1    2    0    0 -0.38592224234E+01  0.43629627830E+02  0.87558613757E+02  0.15877641155E+03  0.12500000000E+03 0.  0.
</event>
<event>
 5    0  0.5749909E-005  0.2956230E+03  0.7546771E-02  0.1087449E+00
         21   -1    0    0  502  501  0.00000000000E+00  0.00000000000E+00  0.13616898860E+03  0.13616898860E+03  0.00000000000E+00 0.  1.
         21   -1    0    0  501  502 -0.00000000000E+00 -0.00000000000E+00 -0.64179782201E+03  0.64179782201E+03  0.00000000000E+00 0.  1.
         25    1    1    2    0    0 -0.35331668318E+02 -0.91130377916E+02 -0.30034194664E+02  0.16149342220E+03  0.12500000000E+03 0.  0.
         25    1    1    2    0    0 -0.11036030494E+03 -0.21836486331E+02 -0.22991228026E+03  0.28485239275E+03  0.12500000000E+03 0.  0.
         25    1    1    2    0    0  0.14569197326E+03  0.11296686425E+03 -0.24568235848E+03  0.33162099565E+03  0.12500000000E+03 0.  0.
</event>
<event>
 5    0  0.5749909E-005  0.4251845E+03  0.7546771E-02  0.1035392E+00
         21   -1    0    0  502  501  0.00000000000E+00  0.00000000000E+00  0.29610994552E+03  0.29610994552E+03  0.00000000000E+00 0.  1.
         21   -1    0    0  501  502 -0.00000000000E+00 -0.00000000000E+00 -0.61052287934E+03  0.61052287934E+03  0.00000000000E+00 0.  1.
         25    1    1    2    0    0 -0.58325362249E+02 -0.99496621344E+01 -0.28820516189E+03  0.31966867066E+03  0.12500000000E+03 0.  0.
         25    1    1    2    0    0  0.13528946542E+03  0.24666004144E+03 -0.13756501782E+02  0.30815362539E+03  0.12500000000E+03 0.  0.
         25    1    1    2    0    0 -0.76964103175E+02 -0.23671037931E+03 -0.12451270151E+02  0.27881052881E+03  0.12500000000E+03 0.  0.
</event>
<event>
 5    0  0.5749909E-005  0.4113326E+03  0.7546771E-02  0.1039925E+00
         21   -1    0    0  502  501  0.00000000000E+00  0.00000000000E+00  0.12526114093E+03  0.12526114093E+03  0.00000000000E+00 0. -1.
         21   -1    0    0  501  502 -0.00000000000E+00 -0.00000000000E+00 -0.13507341290E+04  0.13507341290E+04  0.00000000000E+00 0. -1.
         25    1    1    2    0    0 -0.90003125868E+01 -0.17611984451E+03 -0.49830919757E+03  0.54317240508E+03  0.12500000000E+03 0.  0.
         25    1    1    2    0    0 -0.24215641403E+03  0.11950159723E+03 -0.35095053906E+03  0.46012133341E+03  0.12500000000E+03 0.  0.
         25    1    1    2    0    0  0.25115672662E+03  0.56618247283E+02 -0.37621325143E+03  0.47270153141E+03  0.12500000000E+03 0.  0.
</event>
<event>
 5    0  0.5749909E-005  0.3485321E+03  0.7546771E-02  0.1063219E+00
         21   -1    0    0  502  501  0.00000000000E+00  0.00000000000E+00  0.77273165802E+03  0.77273165802E+03  0.00000000000E+00 0. -1.
         21   -1    0    0  501  502 -0.00000000000E+00 -0.00000000000E+00 -0.15720154320E+03  0.15720154320E+03  0.00000000000E+00 0. -1.
         25    1    1    2    0    0  0.31915143351E+02  0.11499073565E+03  0.13785614518E+03  0.22106732554E+03  0.12500000000E+03 0.  0.
         25    1    1    2    0    0 -0.14562262990E+03  0.10934824561E+03  0.11162693179E+03  0.24748446630E+03  0.12500000000E+03 0.  0.
         25    1    1    2    0    0  0.11370748655E+03 -0.22433898125E+03  0.36604703785E+03  0.46138140939E+03  0.12500000000E+03 0.  0.
</event>
<event>
 5    0  0.5749909E-005  0.2659085E+03  0.7546771E-02  0.1103644E+00
         21   -1    0    0  502  501  0.00000000000E+00  0.00000000000E+00  0.30015535854E+03  0.30015535854E+03  0.00000000000E+00 0.  1.
         21   -1    0    0  501  502 -0.00000000000E+00 -0.00000000000E+00 -0.23556918624E+03  0.23556918624E+03  0.00000000000E+00 0.  1.
         25    1    1    2    0    0  0.68928721598E+02 -0.11255961418E+03  0.40115634897E+02  0.18615880202E+03  0.12500000000E+03 0.  0.
         25    1    1    2    0    0 -0.73080333341E+02  0.96444961408E+02 -0.74507135146E+02  0.18925823335E+03  0.12500000000E+03 0.  0.
         25    1    1    2    0    0  0.41516117429E+01  0.16114652770E+02  0.98977672545E+02  0.16030750942E+03  0.12500000000E+03 0.  0.
</event>
<event>
 5    0  0.5749909E-005  0.2539158E+03  0.7546771E-02  0.1110855E+00
         21   -1    0    0  502  501  0.00000000000E+00  0.00000000000E+00  0.17169322764E+03  0.17169322764E+03  0.00000000000E+00 0. -1.
         21   -1    0    0  501  502 -0.00000000000E+00 -0.00000000000E+00 -0.37551414795E+03  0.37551414795E+03  0.00000000000E+00 0. -1.
         25    1    1    2    0    0 -0.11636676395E+03  0.42826201434E+02 -0.98066572410E+02  0.20153749007E+03  0.12500000000E+03 0.  0.
         25    1    1    2    0    0  0.35925788647E+02 -0.95856618766E+02 -0.95121867593E+02  0.18748952863E+03  0.12500000000E+03 0.  0.
         25    1    1    2    0    0  0.80440975298E+02  0.53030417332E+02 -0.10632480306E+02  0.15818035689E+03  0.12500000000E+03 0.  0.
</event>
<event>
 5    0  0.5749909E-005  0.2886695E+03  0.7546771E-02  0.1091046E+00
         21   -1    0    0  502  501  0.00000000000E+00  0.00000000000E+00  0.87079036229E+03  0.87079036229E+03  0.00000000000E+00 0.  1.
         21   -1    0    0  501  502 -0.00000000000E+00 -0.00000000000E+00 -0.95694736464E+02  0.95694736464E+02  0.00000000000E+00 0.  1.
         25    1    1    2    0    0  0.49929182167E+02 -0.22408309353E+02  0.10603331271E+02  0.13686667306E+03  0.12500000000E+03 0.  0.
         25    1    1    2    0    0 -0.62097065387E+02 -0.64246693879E+02  0.51242982229E+03  0.53497009821E+03  0.12500000000E+03 0.  0.
         25    1    1    2    0    0  0.12167883220E+02  0.86655003232E+02  0.25206247227E+03  0.29464832749E+03  0.12500000000E+03 0.  0.
</event>
<event>
 5    0  0.5749909E-005  0.3614667E+03  0.7546771E-02  0.1058005E+00
         21   -1    0    0  502  501  0.00000000000E+00  0.00000000000E+00  0.70634592641E+03  0.70634592641E+03  0.00000000000E+00 0.  1.
         21   -1    0    0  501  502 -0.00000000000E+00 -0.00000000000E+00 -0.18497758091E+03  0.18497758091E+03  0.00000000000E+00 0.  1.
         25    1    1    2    0    0  0.91955732469E+02 -0.16544750105E+03  0.16298848373E+03  0.27931877517E+03  0.12500000000E+03 0.  0.
         25    1    1    2    0    0 -0.15004358694E+02  0.27654156528E+03  0.16810064003E+03  0.34725090826E+03  0.12500000000E+03 0.  0.
         25    1    1    2    0    0 -0.76951373775E+02 -0.11109406424E+03  0.19027922174E+03  0.26475382388E+03  0.12500000000E+03 0.  0.
</event>
<event>
 5    0  0.5749909E-005  0.3740348E+03  0.7546771E-02  0.1053161E+00
         21   -1    0    0  502  501  0.00000000000E+00  0.00000000000E+00  0.12667205686E+03  0.12667205686E+03  0.00000000000E+00 0.  1.
         21   -1    0    0  501  502 -0.00000000000E+00 -0.00000000000E+00 -0.11044427526E+04  0.11044427526E+04  0.00000000000E+00 0.  1.
         25    1    1    2    0    0 -0.14213743323E+03  0.11663932468E+03 -0.37284213496E+03  0.43410141625E+03  0.12500000000E+03 0.  0.
         25    1    1    2    0    0  0.38567953248E+02 -0.50943959327E+02  0.25528413904E+02  0.14268662841E+03  0.12500000000E+03 0.  0.
         25    1    1    2    0    0  0.10356947998E+03 -0.65695365357E+02 -0.63045697469E+03  0.65432676481E+03  0.12500000000E+03 0.  0.
</event>
<event>
 5    0  0.5749909E-005  0.2762386E+03  0.7546771E-02  0.1097761E+00
         21   -1    0    0  502  501  0.00000000000E+00  0.00000000000E+00  0.23228922270E+04  0.23228922270E+04  0.00000000000E+00 0. -1.
         21   -1    0    0  501  502 -0.00000000000E+00 -0.00000000000E+00 -0.32850323627E+02  0.32850323627E+02  0.00000000000E+00 0. -1.
         25    1    1    2    0    0 -0.49418122637E+02  0.56258216631E+02  0.27580530842E+03  0.31193061077E+03  0.12500000000E+03 0.  0.
         25    1    1    2    0    0  0.11995039771E+03 -0.28782241288E+02  0.70925274161E+03  0.73067158615E+03  0.12500000000E+03 0.  0.
         25    1    1    2    0    0 -0.70532275074E+02 -0.27475975343E+02  0.13049838533E+04  0.13131403537E+04  0.12500000000E+03 0.  0.
</event>
<event>
 5    0  0.5749909E-005  0.3454399E+03  0.7546771E-02  0.1064502E+00
         21   -1    0    0  502  501  0.00000000000E+00  0.00000000000E+00  0.74928009153E+02  0.74928009153E+02  0.00000000000E+00 0.  1.
         21   -1    0    0  501  502 -0.00000000000E+00 -0.00000000000E+00 -0.15925786965E+04  0.15925786965E+04  0.00000000000E+00 0.  1.
         25    1    1    2    0    0  0.14385365533E+02 -0.12531476959E+03 -0.16386991521E+03  0.24163832339E+03  0.12500000000E+03 0.  0.
         25    1    1    2    0    0  0.12771310990E+03 -0.12071819805E+02 -0.87351522696E+03  0.89168953061E+03  0.12500000000E+03 0.  0.
         25    1    1    2    0    0 -0.14209847544E+03  0.13738658940E+03 -0.48026554520E+03  0.53417885167E+03  0.12500000000E+03 0.  0.
</event>
<event>
 5    0  0.5749909E-005  0.2798916E+03  0.7546771E-02  0.1095748E+00
         21   -1    0    0  502  501  0.00000000000E+00  0.00000000000E+00  0.13335775157E+03  0.13335775157E+03  0.00000000000E+00 0. -1.
         21   -1    0    0  501  502 -0.00000000000E+00 -0.00000000000E+00 -0.58743729059E+03  0.58743729059E+03  0.00000000000E+00 0. -1.
         25    1    1    2    0    0  0.22648920933E+01  0.80495402909E+02 -0.13647911561E+03  0.20183208026E+03  0.12500000000E+03 0.  0.
         25    1    1    2    0    0 -0.56957928493E+02 -0.10356410884E+03  0.53881589621E+00  0.17203203359E+03  0.12500000000E+03 0.  0.
         25    1    1    2    0    0  0.54693036399E+02  0.23068705936E+02 -0.31813923932E+03  0.34693092831E+03  0.12500000000E+03 0.  0.
</event>
<event>
 5    0  0.6383991E-005  0.6657969E+03  0.7546771E-02  0.9777581E-01
         21   -1    0    0  502  501  0.00000000000E+00  0.00000000000E+00  0.46219895797E+03  0.46219895797E+03  0.00000000000E+00 0. -1.
         21   -1    0    0  501  502 -0.00000000000E+00 -0.00000000000E+00 -0.95907955733E+03  0.95907955733E+03  0.00000000000E+00 0. -1.
         25    1    1    2    0    0 -0.29625469931E+03  0.85984262981E+02 -0.93647048071E+02  0.34576713255E+03  0.12500000000E+03 0.  0.
         25    1    1    2    0    0  0.87493820424E+02 -0.29713740191E+03 -0.60804686871E+03  0.69375197209E+03  0.12500000000E+03 0.  0.
         25    1    1    2    0    0  0.20876087888E+03  0.21115313893E+03  0.20481331743E+03  0.38175941066E+03  0.12500000000E+03 0.  0.
</event>
<event>
 5    0  0.5749909E-005  0.3982595E+03  0.7546771E-02  0.1044384E+00
         21   -1    0    0  502  501  0.00000000000E+00  0.00000000000E+00  0.55673760641E+03  0.55673760641E+03  0.00000000000E+00 0. -1.
         21   -1    0    0  501  502 -0.00000000000E+00 -0.00000000000E+00 -0.28489294599E+03  0.28489294599E+03  0.00000000000E+00 0. -1.
         25    1    1    2    0    0  0.22190075097E+03 -0.10650135527E+03  0.46637866987E+02  0.27996887790E+03  0.12500000000E+03 0.  0.
         25    1    1    2    0    0 -0.32283165219E+01 -0.64242701606E+02  0.21539033159E+03  0.25720719601E+03  0.12500000000E+03 0.  0.
         25    1    1    2    0    0 -0.21867243445E+03  0.17074405688E+03  0.98164618373E+01  0.30445447849E+03  0.12500000000E+03 0.  0.
</event>
<event>
 5    0  0.5749909E-005  0.2544396E+03  0.7546771E-02  0.1110531E+00
         21   -1    0    0  502  501  0.00000000000E+00  0.00000000000E+00  0.24850641663E+03  0.24850641663E+03  0.00000000000E+00 0.  1.
         21   -1    0    0  501  502 -0.00000000000E+00 -0.00000000000E+00 -0.26051439339E+03  0.26051439339E+03  0.00000000000E+00 0.  1.
         25    1    1    2    0    0  0.31925491447E+02 -0.11904585005E+03  0.42103246877E+02  0.18052377908E+03  0.12500000000E+03 0.  0.
         25    1    1    2    0    0 -0.88079640335E+02  0.21533669628E+02 -0.41142681388E+02  0.15981064483E+03  0.12500000000E+03 0.  0.
         25    1    1    2    0    0  0.56154148888E+02  0.97512180419E+02 -0.12968542255E+02  0.16868638610E+03  0.12500000000E+03 0.  0.
</event>
<event>
 5    0  0.5749909E-005  0.4272503E+03  0.7546771E-02  0.1034732E+00
         21   -1    0    0  502  501  0.00000000000E+00  0.00000000000E+00  0.21962030739E+03  0.21962030739E+03  0.00000000000E+00 0. -1.
         21   -1    0    0  501  502 -0.00000000000E+00 -0.00000000000E+00 -0.83117453702E+03  0.83117453702E+03  0.00000000000E+00 0. -1.
         25    1    1    2    0    0  0.97272251847E+02 -0.26670909138E+02 -0.53208675026E+03  0.55580080801E+03  0.12500000000E+03 0.  0.
         25    1    1    2    0    0  0.74231932243E+02  0.16621461819E+03 -0.95302708992E+02  0.24051046839E+03  0.12500000000E+03 0.  0.
         25    1    1    2    0    0 -0.17150418409E+03 -0.13954370905E+03  0.15835229624E+02  0.25448356802E+03  0.12500000000E+03 0.  0.
</event>
<event>
 5    0  0.5749909E-005  0.2672873E+03  0.7546771E-02  0.1102842E+00
         21   -1    0    0  502  501  0.00000000000E+00  0.00000000000E+00  0.18356256904E+04  0.18356256904E+04  0.00000000000E+00 0. -1.
         21   -1    0    0  501  502 -0.00000000000E+00 -0.00000000000E+00 -0.38919971726E+02  0.38919971726E+02  0.00000000000E+00 0. -1.
         25    1    1    2    0    0  0.32772365087E+02  0.13350697176E+03  0.67866345268E+03  0.70363855880E+03  0.12500000000E+03 0.  0.
         25    1    1    2    0    0  0.41741933064E+02 -0.13327972867E+03  0.45520333900E+03  0.49228137775E+03  0.12500000000E+03 0.  0.
         25    1    1    2    0    0 -0.74514298151E+02 -0.22724309327E+00  0.66283892695E+03  0.67862572553E+03  0.12500000000E+03 0.  0.
</event>
<event>
 5    0  0.5749909E-005  0.2880939E+03  0.7546771E-02  0.1091349E+00
         21   -1    0    0  502  501  0.00000000000E+00  0.00000000000E+00  0.12931178559E+03  0.12931178559E+03  0.00000000000E+00 0. -1.
         21   -1    0    0  501  502 -0.00000000000E+00 -0.00000000000E+00 -0.64184456890E+03  0.64184456890E+03  0.00000000000E+00 0. -1.
         25    1    1    2    0    0 -0.67014599876E+02 -0.10822210458E+02 -0.20301764678E+03  0.24788957570E+03  0.12500000000E+03 0.  0.
         25    1    1    2    0    0  0.17148578076E+03  0.10117668208E+03 -0.18564565836E+03  0.29955534458E+03  0.12500000000E+03 0.  0.
         25    1    1    2    0    0 -0.10447118088E+03 -0.90354471618E+02 -0.12386947818E+03  0.22371143422E+03  0.12500000000E+03 0.  0.
</event>
<event>
 5    0  0.5749909E-005  0.4811601E+03  0.7546771E-02  0.1018817E+00
         21   -1    0    0  502  501  0.00000000000E+00  0.00000000000E+00  0.63585607882E+03  0.63585607882E+03  0.00000000000E+00 0. -1.
         21   -1    0    0  501  502 -0.00000000000E+00 -0.00000000000E+00 -0.36409975072E+03  0.36409975072E+03  0.00000000000E+00 0. -1.
         25    1    1    2    0    0 -0.26696862823E+03  0.70149520640E+02 -0.54371325091E+01  0.30306396373E+03  0.12500000000E+03 0.  0.
         25    1    1    2    0    0 -0.12677543022E+01  0.20007377325E+03  0.13410772839E+03  0.27136876157E+03  0.12500000000E+03 0.  0.
         25    1    1    2    0    0  0.26823638253E+03 -0.27022329389E+03  0.14308573221E+03  0.42552310423E+03  0.12500000000E+03 0.  0.
</event>
<event>
 5    0  0.5749909E-005  0.5494696E+03  0.7546771E-02  0.1001617E+00
         21   -1    0    0  502  501  0.00000000000E+00  0.00000000000E+00  0.52784674470E+03  0.52784674470E+03  0.00000000000E+00 0.  1.
         21   -1    0    0  501  502 -0.00000000000E+00 -0.00000000000E+00 -0.57197828420E+03  0.57197828420E+03  0.00000000000E+00 0.  1.
         25    1    1    2    0    0 -0.12057021325E+03 -0.18479040985E+03 -0.42245327609E+03  0.49272349485E+03  0.12500000000E+03 0.  0.
         25    1    1    2    0    0  0.13919524285E+03  0.18739363553E+02  0.15635905913E+02  0.18866891883E+03  0.12500000000E+03 0.  0.
         25    1    1    2    0    0 -0.18625029598E+02  0.16605104630E+03  0.36268583068E+03  0.41843261522E+03  0.12500000000E+03 0.  0.
</event>
<event>
 5    0  0.5749909E-005  0.2302712E+03  0.7546771E-02  0.1126449E+00
         21   -1    0    0  502  501  0.00000000000E+00  0.00000000000E+00  0.33330148087E+03  0.33330148087E+03  0.00000000000E+00 0. -1.
         21   -1    0    0  501  502 -0.00000000000E+00 -0.00000000000E+00 -0.15908963719E+03  0.15908963719E+03  0.00000000000E+00 0. -1.
         25    1    1    2    0    0 -0.33032593160E+02 -0.33326336783E+02  0.23950698684E+02  0.13564819535E+03  0.12500000000E+03 0.  0.
         25    1    1    2    0    0  0.68868240458E+02 -0.38105470689E+02  0.14692353098E+03  0.20834199144E+03  0.12500000000E+03 0.  0.
         25    1    1    2    0    0 -0.35835647298E+02  0.71431807472E+02  0.33376140066E+01  0.14840093127E+03  0.12500000000E+03 0.  0.
</event>
<event>
 5    0  0.5749909E-005  0.5463608E+03  0.7546771E-02  0.1002340E+00
         21   -1    0    0  502  501  0.00000000000E+00  0.00000000000E+00  0.16503447485E+04  0.16503447485E+04  0.00000000000E+00 0. -1.
         21   -1    0    0  501  502 -0.00000000000E+00 -0.00000000000E+00 -0.18087740415E+03  0.18087740415E+03  0.00000000000E+00 0. -1.
         25    1    1    2    0    0 -0.30357336835E+01 -0.26936016026E+03  0.63034479598E+03  0.69679528804E+03  0.12500000000E+03 0.  0.
         25    1    1    2    0    0 -0.32377426248E+03  0.16805498895E+03  0.32481204788E+03  0.50418262445E+03  0.12500000000E+03 0.  0.
         25    1    1    2    0    0  0.32680999616E+03  0.10130517132E+03  0.51431050048E+03  0.63024424014E+03  0.12500000000E+03 0.  0.
</event>
<event>
 5    0  0.5749909E-005  0.2534376E+03  0.7546771E-02  0.1111151E+00
         21   -1    0    0  502  501  0.00000000000E+00  0.00000000000E+00  0.70990807664E+02  0.70990807664E+02  0.00000000000E+00 0.  1.
         21   -1    0    0  501  502 -0.00000000000E+00 -0.00000000000E+00 -0.90477372484E+03  0.90477372484E+03  0.00000000000E+00 0.  1.
         25    1    1    2    0    0 -0.58319528949E+02 -0.54851849880E+02 -0.45483561164E+03  0.47844574040E+03  0.12500000000E+03 0.  0.
         25    1    1    2    0    0 -0.32568504931E+02  0.64038772729E+02 -0.91301351846E+02  0.17065347572E+03  0.12500000000E+03 0.  0.
         25    1    1    2    0    0  0.90888033880E+02 -0.91869228492E+01 -0.28764595368E+03  0.32666531638E+03  0.12500000000E+03 0.  0.
</event>
<event>
 5    0  0.5749909E-005  0.2049979E+03  0.7546771E-02  0.1145589E+00
         21   -1    0    0  502  501  0.00000000000E+00  0.00000000000E+00  0.48635650587E+03  0.48635650587E+03  0.00000000000E+00 0.  1.
         21   -1    0    0  501  502 -0.00000000000E+00 -0.00000000000E+00 -0.86406042975E+02  0.86406042975E+02  0.00000000000E+00 0.  1.
         25    1    1    2    0    0  0.65026102691E+02 -0.23610759011E+02  0.10796433343E+03  0.17907305567E+03  0.12500000000E+03 0.  0.
         25    1    1    2    0    0 -0.23770605140E+02 -0.11620507464E+02  0.14471293432E+03  0.19304639655E+03  0.12500000000E+03 0.  0.
         25    1    1    2    0    0 -0.41255497552E+02  0.35231266475E+02  0.14727319514E+03  0.20064309663E+03  0.12500000000E+03 0.  0.
</event>
<event>
 5    0  0.5749909E-005  0.3041228E+03  0.7546771E-02  0.1083198E+00
         21   -1    0    0  502  501  0.00000000000E+00  0.00000000000E+00  0.42055122957E+03  0.42055122957E+03  0.00000000000E+00 0. -1.
         21   -1    0    0  501  502 -0.00000000000E+00 -0.00000000000E+00 -0.21992720793E+03  0.21992720793E+03  0.00000000000E+00 0. -1.
         25    1    1    2    0    0 -0.12671394717E+03  0.12713603286E+03  0.30366587538E+02  0.22083279850E+03  0.12500000000E+03 0.  0.
         25    1    1    2    0    0  0.46423249602E+02  0.58636728598E+02  0.62681222086E+02  0.15857906434E+03  0.12500000000E+03 0.  0.
         25    1    1    2    0    0  0.80290697565E+02 -0.18577276145E+03  0.10757621201E+03  0.26106657466E+03  0.12500000000E+03 0.  0.
</event>
<event>
 5    0  0.5749909E-005  0.2688765E+03  0.7546771E-02  0.1101924E+00
         21   -1    0    0  502  501  0.00000000000E+00  0.00000000000E+00  0.82284077742E+02  0.82284077742E+02  0.00000000000E+00 0.  1.
         21   -1    0    0  501  502 -0.00000000000E+00 -0.00000000000E+00 -0.87859758757E+03  0.87859758757E+03  0.00000000000E+00 0.  1.
         25    1    1    2    0    0  0.99522553845E+02 -0.88311908733E+02 -0.47063767914E+03  0.50480546448E+03  0.12500000000E+03 0.  0.
         25    1    1    2    0    0  0.11937771705E+02 -0.80341274594E+01 -0.11978521282E+03  0.17372551571E+03  0.12500000000E+03 0.  0.
         25    1    1    2    0    0 -0.11146032555E+03  0.96346036193E+02 -0.20589061788E+03  0.28235068513E+03  0.12500000000E+03 0.  0.
</event>
<event>
 5    0  0.5749909E-005  0.5515046E+03  0.7546771E-02  0.1001146E+00
         21   -1    0    0  502  501  0.00000000000E+00  0.00000000000E+00  0.49886086538E+03  0.49886086538E+03  0.00000000000E+00 0.  1.
         21   -1    0    0  501  502 -0.00000000000E+00 -0.00000000000E+00 -0.60970377154E+03  0.60970377154E+03  0.00000000000E+00 0.  1.
         25    1    1    2    0    0 -0.85022153542E+02  0.21690129203E+03 -0.52127420434E+02  0.26947579676E+03  0.12500000000E+03 0.  0.
         25    1    1    2    0    0  0.12183039631E+02 -0.82187845138E+02  0.35233561723E+03  0.38297343970E+03  0.12500000000E+03 0.  0.
         25    1    1    2    0    0  0.72839113910E+02 -0.13471344689E+03 -0.41105110296E+03  0.45611540046E+03  0.12500000000E+03 0.  0.
</event>
<event>
 5    0  0.5749909E-005  0.2012637E+03  0.7546771E-02  0.1148677E+00
         21   -1    0    0  502  501  0.00000000000E+00  0.00000000000E+00  0.33795116360E+03  0.33795116360E+03  0.00000000000E+00 0. -1.
         21   -1    0    0  501  502 -0.00000000000E+00 -0.00000000000E+00 -0.11986074354E+03  0.11986074354E+03  0.00000000000E+00 0. -1.
         25    1    1    2    0    0 -0.50483143400E+02 -0.30159126776E+02  0.61500345263E+02  0.15121313820E+03  0.12500000000E+03 0.  0.
         25    1    1    2    0    0 -0.26815792722E+01  0.54166363570E+01  0.82655523724E+02  0.14997821982E+03  0.12500000000E+03 0.  0.
         25    1    1    2    0    0  0.53164722672E+02  0.24742490419E+02  0.73934551074E+02  0.15662054914E+03  0.12500000000E+03 0.  0.
</event>
<event>
 5    0  0.5749909E-005  0.3299024E+03  0.7546771E-02  0.1071180E+00
         21   -1    0    0  502  501  0.00000000000E+00  0.00000000000E+00  0.96133821914E+02  0.96133821914E+02  0.00000000000E+00 0.  1.
         21   -1    0    0  501  502 -0.00000000000E+00 -0.00000000000E+00 -0.11321259702E+04  0.11321259702E+04  0.00000000000E+00 0.  1.
         25    1    1    2    0    0 -0.14815610376E+03  0.38619324795E+02 -0.52274060632E+03  0.55885993310E+03  0.12500000000E+03 0.  0.
         25    1    1    2    0    0  0.15103022151E+03  0.35477012935E+02 -0.48085275051E+03  0.52049314494E+03  0.12500000000E+03 0.  0.
         25    1    1    2    0    0 -0.28741177484E+01 -0.74096337730E+02 -0.32398791498E+02  0.14890671411E+03  0.12500000000E+03 0.  0.
</event>
<event>
 5    0  0.5749909E-005  0.2552205E+03  0.7546771E-02  0.1110049E+00
         21   -1    0    0  502  501  0.00000000000E+00  0.00000000000E+00  0.52444913084E+03  0.52444913084E+03  0.00000000000E+00 0.  1.
         21   -1    0    0  501  502 -0.00000000000E+00 -0.00000000000E+00 -0.12420174433E+03  0.12420174433E+03  0.00000000000E+00 0.  1.
         25    1    1    2    0    0  0.30980159477E+02 -0.91640816570E+02  0.17287262433E+03  0.23423866843E+03  0.12500000000E+03 0.  0.
         25    1    1    2    0    0  0.69254189533E+02  0.86723192978E+02  0.48141755481E+02  0.17395310744E+03  0.12500000000E+03 0.  0.
         25    1    1    2    0    0 -0.10023434901E+03  0.49176235914E+01  0.17923300670E+03  0.24045909930E+03  0.12500000000E+03 0.  0.
</event>
<event>
 5    0  0.5749909E-005  0.3322441E+03  0.7546771E-02  0.1070148E+00
         21   -1    0    0  502  501  0.00000000000E+00  0.00000000000E+00  0.53122072870E+03  0.53122072870E+03  0.00000000000E+00 0.  1.
         21   -1    0    0  501  502 -0.00000000000E+00 -0.00000000000E+00 -0.20779712707E+03  0.20779712707E+03  0.00000000000E+00 0.  1.
         25    1    1    2    0    0  0.40775644542E+02  0.76376122924E+02  0.33217902344E+03  0.36532707120E+03  0.12500000000E+03 0.  0.
         25    1    1    2    0    0 -0.26765639105E+02 -0.70340188139E+02 -0.13253418011E+03  0.19711532260E+03  0.12500000000E+03 0.  0.
         25    1    1    2    0    0 -0.14010005436E+02 -0.60359347849E+01  0.12377875831E+03  0.17657546197E+03  0.12500000000E+03 0.  0.
</event>
<event>
 5    0  0.5749909E-005  0.2741044E+03  0.7546771E-02  0.1098953E+00
         21   -1    0    0  502  501  0.00000000000E+00  0.00000000000E+00  0.79224278779E+03  0.79224278779E+03  0.00000000000E+00 0. -1.
         21   -1    0    0  501  502 -0.00000000000E+00 -0.00000000000E+00 -0.94836111677E+02  0.94836111677E+02  0.00000000000E+00 0. -1.
         25    1    1    2    0    0  0.15588427751E+03  0.37140428762E+01  0.31245805506E+03  0.37090259942E+03  0.12500000000E+03 0.  0.
         25    1    1    2    0    0 -0.55240505362E+02 -0.84153225510E+02  0.22051404464E+03  0.27273562781E+03  0.12500000000E+03 0.  0.
         25    1    1    2    0    0 -0.10064377214E+03  0.80439182633E+02  0.16443457642E+03  0.24344067223E+03  0.12500000000E+03 0.  0.
</event>
<event>
 5    0  0.5749909E-005  0.3148402E+03  0.7546771E-02  0.1078049E+00
         21   -1    0    0  502  501  0.00000000000E+00  0.00000000000E+00  0.17015092821E+04  0.17015092821E+04  0.00000000000E+00 0. -1.
         21   -1    0    0  501  502 -0.00000000000E+00 -0.00000000000E+00 -0.58256703268E+02  0.58256703268E+02  0.00000000000E+00 0. -1.
         25    1    1    2    0    0 -0.10717187178E+03  0.24827148723E+02  0.96077314181E+03  0.97509600934E+03  0.12500000000E+03 0.  0.
         25    1    1    2    0    0  0.56397569482E+02 -0.13263117577E+03  0.22111277319E+03  0.29204036210E+03  0.12500000000E+03 0.  0.
         25    1    1    2    0    0  0.50774302300E+02  0.10780402704E+03  0.46136666388E+03  0.49262961397E+03  0.12500000000E+03 0.  0.
</event>
<event>
 5    0  0.5749909E-005  0.3392775E+03  0.7546771E-02  0.1067104E+00
         21   -1    0    0  502  501  0.00000000000E+00  0.00000000000E+00  0.33158315709E+03  0.33158315709E+03  0.00000000000E+00 0.  1.
         21   -1    0    0  501  502 -0.00000000000E+00 -0.00000000000E+00 -0.34715042895E+03  0.34715042895E+03  0.00000000000E+00 0.  1.
         25    1    1    2    0    0 -0.26628328283E+02  0.86619419506E+02  0.84225968082E+02  0.17587212799E+03  0.12500000000E+03 0.  0.
         25    1    1    2    0    0  0.19703991248E+02 -0.29189271660E+02  0.16165049947E+03  0.20735511768E+03  0.12500000000E+03 0.  0.
         25    1    1    2    0    0  0.69243370350E+01 -0.57430147846E+02 -0.26144373940E+03  0.29550634037E+03  0.12500000000E+03 0.  0.
</event>
<event>
 5    0  0.5749909E-005  0.2365436E+03  0.7546771E-02  0.1122117E+00
         21   -1    0    0  502  501  0.00000000000E+00  0.00000000000E+00  0.79062005380E+03  0.79062005380E+03  0.00000000000E+00 0.  1.
         21   -1    0    0  501  502 -0.00000000000E+00 -0.00000000000E+00 -0.70770849929E+02  0.70770849929E+02  0.00000000000E+00 0.  1.
         25    1    1    2    0    0 -0.20518533086E+01 -0.48032213586E+02  0.27045480704E+03  0.30179812175E+03  0.12500000000E+03 0.  0.
         25    1    1    2    0    0  0.74248773359E+02  0.30561055532E+02  0.94520576344E+02  0.17608520044E+03  0.12500000000E+03 0.  0.
         25    1    1    2    0    0 -0.72196920050E+02  0.17471158054E+02  0.35487382048E+03  0.38350758153E+03  0.12500000000E+03 0.  0.
</event>
<event>
 5    0  0.5870053E-005  0.3252589E+03  0.7546771E-02  0.1073254E+00
         21   -1    0    0  502  501  0.00000000000E+00  0.00000000000E+00  0.17712603859E+03  0.17712603859E+03  0.00000000000E+00 0.  1.
         21   -1    0    0  501  502 -0.00000000000E+00 -0.00000000000E+00 -0.59727707971E+03  0.59727707971E+03  0.00000000000E+00 0.  1.
         25    1    1    2    0    0  0.16666025989E+03  0.29405531799E+02 -0.32692311822E+03  0.38877249485E+03  0.12500000000E+03 0.  0.
         25    1    1    2    0    0 -0.78826718102E+00 -0.71290803683E+02  0.20177820592E+02  0.14531051063E+03  0.12500000000E+03 0.  0.
         25    1    1    2    0    0 -0.16587199271E+03  0.41885271884E+02 -0.11340574349E+03  0.24032011281E+03  0.12500000000E+03 0.  0.
</event>
<event>
 5    0  0.5749909E-005  0.3646364E+03  0.7546771E-02  0.1056763E+00
         21   -1    0    0  502  501  0.00000000000E+00  0.00000000000E+00  0.13788169392E+03  0.13788169392E+03  0.00000000000E+00 0. -1.
         21   -1    0    0  501  502 -0.00000000000E+00 -0.00000000000E+00 -0.96430258948E+03  0.96430258948E+03  0.00000000000E+00 0. -1.
         25    1    1    2    0    0 -0.21054530496E+03  0.10283487001E+03 -0.49363386557E+03  0.56053878472E+03  0.12500000000E+03 0.  0.
         25    1    1    2    0    0  0.87193847598E+02  0.24664782330E+02 -0.12680677625E+02  0.15490938684E+03  0.12500000000E+03 0.  0.
         25    1    1    2    0    0  0.12335145736E+03 -0.12749965234E+03 -0.32010635236E+03  0.38673611184E+03  0.12500000000E+03 0.  0.
</event>
<event>
 5    0  0.5749909E-005  0.2575460E+03  0.7546771E-02  0.1108627E+00
         21   -1    0    0  502  501  0.00000000000E+00  0.00000000000E+00  0.30413130958E+03  0.30413130958E+03  0.00000000000E+00 0.  1.
         21   -1    0    0  501  502 -0.00000000000E+00 -0.00000000000E+00 -0.21809642229E+03  0.21809642229E+03  0.00000000000E+00 0.  1.
         25    1    1    2    0    0 -0.31182928883E+01 -0.32723074370E+01  0.60131931493E+01  0.12522615637E+03  0.12500000000E+03 0.  0.
         25    1    1    2    0    0  0.93384339403E+02  0.45882707642E+02 -0.70586080554E+02  0.17729425392E+03  0.12500000000E+03 0.  0.
         25    1    1    2    0    0 -0.90266046515E+02 -0.42610400205E+02  0.15060777469E+03  0.21970732158E+03  0.12500000000E+03 0.  0.
</event>
<event>
 5    0  0.5749909E-005  0.2909680E+03  0.7546771E-02  0.1089845E+00
         21   -1    0    0  502  501  0.00000000000E+00  0.00000000000E+00  0.87324528539E+02  0.87324528539E+02  0.00000000000E+00 0.  1.
         21   -1    0    0  501  502 -0.00000000000E+00 -0.00000000000E+00 -0.96951426199E+03  0.96951426199E+03  0.00000000000E+00 0.  1.
         25    1    1    2    0    0 -0.13022229648E+02  0.82670200829E+02 -0.26165890347E+03  0.30181835984E+03  0.12500000000E+03 0.  0.
         25    1    1    2    0    0 -0.74165493940E+02 -0.93428735302E+02 -0.56762021370E+03  0.59333561841E+03  0.12500000000E+03 0.  0.
         25    1    1    2    0    0  0.87187723588E+02  0.10758534472E+02 -0.52910616286E+02  0.16168481229E+03  0.12500000000E+03 0.  0.
</event>
<event>
 5    0  0.5749909E-005  0.3629478E+03  0.7546771E-02  0.1057423E+00
         21   -1    0    0  502  501  0.00000000000E+00  0.00000000000E+00  0.24314365167E+03  0.24314365167E+03  0.00000000000E+00 0.  1.
         21   -1    0    0  501  502 -0.00000000000E+00 -0.00000000000E+00 -0.54178301528E+03  0.54178301528E+03  0.00000000000E+00 0.  1.
         25    1    1    2    0    0 -0.62285626755E+02  0.13840921465E+03 -0.14463648081E+03  0.24409285442E+03  0.12500000000E+03 0.  0.
         25    1    1    2    0    0  0.15065210027E+03 -0.24680872405E+03 -0.15967518680E+03  0.35317384793E+03  0.12500000000E+03 0.  0.
         25    1    1    2    0    0 -0.88366473520E+02  0.10839950940E+03  0.56723040036E+01  0.18765996460E+03  0.12500000000E+03 0.  0.
</event>
<event>
 5    0  0.5749909E-005  0.3150805E+03  0.7546771E-02  0.1077936E+00
         21   -1    0    0  502  501  0.00000000000E+00  0.00000000000E+00  0.10222504622E+04  0.10222504622E+04  0.00000000000E+00 0. -1.
         21   -1    0    0  501  502 -0.00000000000E+00 -0.00000000000E+00 -0.97114900237E+02  0.97114900237E+02  0.00000000000E+00 0. -1.
         25    1    1    2    0    0  0.95822235300E+02  0.17058721625E+03  0.16193390606E+03  0.28307152640E+03  0.12500000000E+03 0.  0.
         25    1    1    2    0    0 -0.15479820531E+02 -0.76400665286E+02  0.21557736525E+03  0.26110397719E+03  0.12500000000E+03 0.  0.
         25    1    1    2    0    0 -0.80342414769E+02 -0.94186550967E+02  0.54762429063E+03  0.57518985881E+03  0.12500000000E+03 0.  0.
</event>
<event>
 5    0  0.5749909E-005  0.3103698E+03  0.7546771E-02  0.1080169E+00
         21   -1    0    0  502  501  0.00000000000E+00  0.00000000000E+00  0.80782978864E+02  0.80782978864E+02  0.00000000000E+00 0.  1.
         21   -1    0    0  501  502 -0.00000000000E+00 -0.00000000000E+00 -0.11924469530E+04  0.11924469530E+04  0.00000000000E+00 0.  1.
         25    1    1    2    0    0 -0.36388332300E+02  0.48359160702E+02 -0.21844644689E+03  0.25885627153E+03  0.12500000000E+03 0.  0.
         25    1    1    2    0    0 -0.18524340998E+03 -0.31099102676E+02 -0.40989168880E+03  0.46788724248E+03  0.12500000000E+03 0.  0.
         25    1    1    2    0    0  0.22163174228E+03 -0.17260058026E+02 -0.48332583846E+03  0.54648641787E+03  0.12500000000E+03 0.  0.
</event>
<event>
 5    0  0.5749909E-005  0.2663354E+03  0.7546771E-02  0.1103395E+00
         21   -1    0    0  502  501  0.00000000000E+00  0.00000000000E+00  0.45234621635E+03  0.45234621635E+03  0.00000000000E+00 0.  1.
         21   -1    0    0  501  502 -0.00000000000E+00 -0.00000000000E+00 -0.15681472727E+03  0.15681472727E+03  0.00000000000E+00 0.  1.
         25    1    1    2    0    0  0.27624476491E+02  0.11652840131E+03  0.18097777537E+03  0.25043948409E+03  0.12500000000E+03 0.  0.
         25    1    1    2    0    0  0.60313771936E+02 -0.36072157506E+02  0.11839602030E+03  0.18596120363E+03  0.12500000000E+03 0.  0.
         25    1    1    2    0    0 -0.87938248427E+02 -0.80456243799E+02 -0.38423065881E+01  0.17276025591E+03  0.12500000000E+03 0.  0.
</event>
<event>
 5    0  0.5749909E-005  0.4097392E+03  0.7546771E-02  0.1040459E+00
         21   -1    0    0  502  501  0.00000000000E+00  0.00000000000E+00  0.12644616654E+03  0.12644616654E+03  0.00000000000E+00 0.  1.
         21   -1    0    0  501  502 -0.00000000000E+00 -0.00000000000E+00 -0.13277289943E+04  0.13277289943E+04  0.00000000000E+00 0.  1.
         25    1    1    2    0    0 -0.16516821377E+03  0.13827893546E+02 -0.55099814760E+02  0.21478533252E+03  0.12500000000E+03 0.  0.
         25    1    1    2    0    0 -0.23171504203E+01  0.15624386952E+03 -0.54543311831E+03  0.58098175746E+03  0.12500000000E+03 0.  0.
         25    1    1    2    0    0  0.16748536419E+03 -0.17007176307E+03 -0.60074989469E+03  0.65840807086E+03  0.12500000000E+03 0.  0.
</event>
<event>
 5    0  0.5749909E-005  0.2536481E+03  0.7546771E-02  0.1111021E+00
         21   -1    0    0  502  501  0.00000000000E+00  0.00000000000E+00  0.14722583074E+04  0.14722583074E+04  0.00000000000E+00 0. -1.
         21   -1    0    0  501  502 -0.00000000000E+00 -0.00000000000E+00 -0.43699787855E+02  0.43699787855E+02  0.00000000000E+00 0. -1.
         25    1    1    2    0    0 -0.12364541658E+03  0.19146346447E+02  0.31578751087E+03  0.36194132625E+03  0.12500000000E+03 0.  0.
         25    1    1    2    0    0  0.60842941431E+02  0.23275716656E+02  0.74577651046E+03  0.75898038582E+03  0.12500000000E+03 0.  0.
         25    1    1    2    0    0  0.62802475149E+02 -0.42422063103E+02  0.36699449823E+03  0.39503638320E+03  0.12500000000E+03 0.  0.
</event>
<event>
 5    0  0.5749909E-005  0.2986236E+03  0.7546771E-02  0.1085931E+00
         21   -1    0    0  502  501  0.00000000000E+00  0.00000000000E+00  0.35401665518E+03  0.35401665518E+03  0.00000000000E+00 0. -1.
         21   -1    0    0  501  502 -0.00000000000E+00 -0.00000000000E+00 -0.25189788945E+03  0.25189788945E+03  0.00000000000E+00 0. -1.
         25    1    1    2    0    0 -0.16173681764E+02  0.18812489660E+03  0.16513317739E+03  0.28026154031E+03  0.12500000000E+03 0.  0.
         25    1    1    2    0    0  0.65794498146E+01 -0.10094513152E+03 -0.91214794450E+00  0.16080746485E+03  0.12500000000E+03 0.  0.
         25    1    1    2    0    0  0.95942319492E+01 -0.87179765081E+02 -0.62102263706E+02  0.16484553947E+03  0.12500000000E+03 0.  0.
</event>
<event>
 5    0  0.5749909E-005  0.2765182E+03  0.7546771E-02  0.1097606E+00
         21   -1    0    0  502  501  0.00000000000E+00  0.00000000000E+00  0.11191509668E+03  0.11191509668E+03  0.00000000000E+00 0. -1.
         21   -1    0    0  501  502 -0.00000000000E+00 -0.00000000000E+00 -0.68321700622E+03  0.68321700622E+03  0.00000000000E+00 0.  1.
         25    1    1    2    0    0  0.10630807179E+03 -0.64590761760E+02 -0.20928556001E+03  0.27367648467E+03  0.12500000000E+03 0.  0.
         25    1    1    2    0    0  0.22087815121E+02 -0.45894932828E+02 -0.47710750501E+02  0.14316260737E+03  0.12500000000E+03 0.  0.
         25    1    1    2    0    0 -0.12839588691E+03  0.11048569459E+03 -0.31430559903E+03  0.37829301086E+03  0.12500000000E+03 0.  0.
</event>
<event>
 5    0  0.5749909E-005  0.2700484E+03  0.7546771E-02  0.1101252E+00
         21   -1    0    0  502  501  0.00000000000E+00  0.00000000000E+00  0.16568266383E+03  0.16568266383E+03  0.00000000000E+00 0.  1.
         21   -1    0    0  501  502 -0.00000000000E+00 -0.00000000000E+00 -0.44015545353E+03  0.44015545353E+03  0.00000000000E+00 0.  1.
         25    1    1    2    0    0 -0.11929368020E+03 -0.65331397763E+02 -0.10798481849E+03  0.21397405145E+03  0.12500000000E+03 0.  0.
         25    1    1    2    0    0  0.33663722084E+01  0.11801161503E+03 -0.11236897886E+03  0.20540170680E+03  0.12500000000E+03 0.  0.
         25    1    1    2    0    0  0.11592730800E+03 -0.52680217271E+02 -0.54118992354E+02  0.18646235911E+03  0.12500000000E+03 0.  0.
</event>
<event>
 5    0  0.5749909E-005  0.3374280E+03  0.7546771E-02  0.1067897E+00
         21   -1    0    0  502  501  0.00000000000E+00  0.00000000000E+00  0.10145332203E+04  0.10145332203E+04  0.00000000000E+00 0. -1.
         21   -1    0    0  501  502 -0.00000000000E+00 -0.00000000000E+00 -0.11222662730E+03  0.11222662730E+03  0.00000000000E+00 0. -1.
         25    1    1    2    0    0  0.60219556839E+02 -0.50094329814E+02  0.15225273451E+03  0.21199465104E+03  0.12500000000E+03 0.  0.
         25    1    1    2    0    0  0.11288305829E+03  0.16740751186E+03  0.55158842219E+03  0.60053530068E+03  0.12500000000E+03 0.  0.
         25    1    1    2    0    0 -0.17310261513E+03 -0.11731318205E+03  0.19846543628E+03  0.31422989585E+03  0.12500000000E+03 0.  0.
</event>
<event>
 5    0  0.5749909E-005  0.3060278E+03  0.7546771E-02  0.1082266E+00
         21   -1    0    0  502  501  0.00000000000E+00  0.00000000000E+00  0.12226597301E+03  0.12226597301E+03  0.00000000000E+00 0.  1.
         21   -1    0    0  501  502 -0.00000000000E+00 -0.00000000000E+00 -0.76597765624E+03  0.76597765624E+03  0.00000000000E+00 0.  1.
         25    1    1    2    0    0 -0.96119580533E+02  0.16338277014E+03 -0.28771200990E+03  0.36651889990E+03  0.12500000000E+03 0.  0.
         25    1    1    2    0    0  0.48416165462E+02  0.10646310267E+02 -0.46503963198E+02  0.14228523322E+03  0.12500000000E+03 0.  0.
         25    1    1    2    0    0  0.47703415071E+02 -0.17402908041E+03 -0.30949571013E+03  0.37943949613E+03  0.12500000000E+03 0.  0.
</event>
<event>
 5    0  0.5749909E-005  0.3033174E+03  0.7546771E-02  0.1083594E+00
         21   -1    0    0  502  501  0.00000000000E+00  0.00000000000E+00  0.43239785082E+03  0.43239785082E+03  0.00000000000E+00 0.  1.
         21   -1    0    0  501  502 -0.00000000000E+00 -0.00000000000E+00 -0.21277032431E+03  0.21277032431E+03  0.00000000000E+00 0.  1.
         25    1    1    2    0    0 -0.13084011806E+03 -0.23759276548E+02 -0.94469747461E+02  0.20550711156E+03  0.12500000000E+03 0.  0.
         25    1    1    2    0    0  0.53683212602E+02  0.67727547825E+02  0.12927799619E+03  0.19951618568E+03  0.12500000000E+03 0.  0.
         25    1    1    2    0    0  0.77156905457E+02 -0.43968271277E+02  0.18481927778E+03  0.24014487789E+03  0.12500000000E+03 0.  0.
</event>
<event>
 5    0  0.5749909E-005  0.2375952E+03  0.7546771E-02  0.1121405E+00
         21   -1    0    0  502  501  0.00000000000E+00  0.00000000000E+00  0.11221015381E+03  0.11221015381E+03  0.00000000000E+00 0. -1.
         21   -1    0    0  501  502 -0.00000000000E+00 -0.00000000000E+00 -0.50308696545E+03  0.50308696545E+03  0.00000000000E+00 0. -1.
         25    1    1    2    0    0  0.12424848155E+03  0.29239181946E+02 -0.15204312946E+03  0.23459481696E+03  0.12500000000E+03 0.  0.
         25    1    1    2    0    0 -0.11183737036E+03 -0.32074229467E+02 -0.13401476585E+03  0.21707443671E+03  0.12500000000E+03 0.  0.
         25    1    1    2    0    0 -0.12411111187E+02  0.28350475213E+01 -0.10481891633E+03  0.16362786559E+03  0.12500000000E+03 0.  0.
</event>
<event>
 5    0  0.5749909E-005  0.2625574E+03  0.7546771E-02  0.1105616E+00
         21   -1    0    0  502  501  0.00000000000E+00  0.00000000000E+00  0.58445518705E+03  0.58445518705E+03  0.00000000000E+00 0. -1.
         21   -1    0    0  501  502 -0.00000000000E+00 -0.00000000000E+00 -0.11794986612E+03  0.11794986612E+03  0.00000000000E+00 0. -1.
         25    1    1    2    0    0 -0.41019121677E+02  0.64666529500E+00  0.19276390302E+03  0.23337932390E+03  0.12500000000E+03 0.  0.
         25    1    1    2    0    0 -0.26725315975E+02 -0.39223344207E+02 -0.24917727824E+02  0.13600958203E+03  0.12500000000E+03 0.  0.
         25    1    1    2    0    0  0.67744437652E+02  0.38576678912E+02  0.29865914573E+03  0.33301614723E+03  0.12500000000E+03 0.  0.
</event>
<event>
 5    0  0.5749909E-005  0.3769148E+03  0.7546771E-02  0.1052080E+00
         21   -1    0    0  502  501  0.00000000000E+00  0.00000000000E+00  0.66871036323E+03  0.66871036323E+03  0.00000000000E+00 0.  1.
         21   -1    0    0  501  502 -0.00000000000E+00 -0.00000000000E+00 -0.21244590008E+03  0.21244590008E+03  0.00000000000E+00 0.  1.
         25    1    1    2    0    0 -0.13880003079E+03  0.51029786618E+02  0.17809648153E+03  0.26308334118E+03  0.12500000000E+03 0.  0.
         25    1    1    2    0    0 -0.84368724944E+02 -0.32361065002E+02  0.32279013028E+03  0.35774821940E+03  0.12500000000E+03 0.  0.
         25    1    1    2    0    0  0.22316875574E+03 -0.18668721616E+02 -0.44622148660E+02  0.26032470274E+03  0.12500000000E+03 0.  0.
</event>
<event>
 5    0  0.5749909E-005  0.4353233E+03  0.7546771E-02  0.1032191E+00
         21   -1    0    0  502  501  0.00000000000E+00  0.00000000000E+00  0.17077462347E+04  0.17077462347E+04  0.00000000000E+00 0. -1.
         21   -1    0    0  501  502 -0.00000000000E+00 -0.00000000000E+00 -0.11096868979E+03  0.11096868979E+03  0.00000000000E+00 0. -1.
         25    1    1    2    0    0 -0.80715939602E+02 -0.48754938686E+01  0.13618440815E+03  0.20176725792E+03  0.12500000000E+03 0.  0.
         25    1    1    2    0    0 -0.29830312801E+02 -0.29543429400E+03  0.93574775417E+03  0.98965657127E+03  0.12500000000E+03 0.  0.
         25    1    1    2    0    0  0.11054625240E+03  0.30030978787E+03  0.52484538257E+03  0.62729109527E+03  0.12500000000E+03 0.  0.
</event>
<event>
 5    0  0.5749909E-005  0.5182103E+03  0.7546771E-02  0.1009132E+00
         21   -1    0    0  502  501  0.00000000000E+00  0.00000000000E+00  0.22831918476E+03  0.22831918476E+03  0.00000000000E+00 0.  1.
         21   -1    0    0  501  502 -0.00000000000E+00 -0.00000000000E+00 -0.11761690702E+04  0.11761690702E+04  0.00000000000E+00 0.  1.
         25    1    1    2    0    0  0.29565351674E+03 -0.31096141408E+03 -0.66229717856E+03  0.79898094830E+03  0.12500000000E+03 0.  0.
         25    1    1    2    0    0 -0.29863596912E+02  0.59251986299E+02 -0.38990929759E+02  0.14679211459E+03  0.12500000000E+03 0.  0.
         25    1    1    2    0    0 -0.26578991983E+03  0.25170942778E+03 -0.24656177716E+03  0.45871519211E+03  0.12500000000E+03 0.  0.
</event>
<event>
 5    0  0.5749909E-005  0.2848460E+03  0.7546771E-02  0.1093071E+00
         21   -1    0    0  502  501  0.00000000000E+00  0.00000000000E+00  0.88473103017E+03  0.88473103017E+03  0.00000000000E+00 0.  1.
         21   -1    0    0  501  502 -0.00000000000E+00 -0.00000000000E+00 -0.91708394336E+02  0.91708394336E+02  0.00000000000E+00 0.  1.
         25    1    1    2    0    0  0.18065067033E+03 -0.34477395424E+02  0.44762756354E+03  0.49981875828E+03  0.12500000000E+03 0.  0.
         25    1    1    2    0    0 -0.85271163537E+02  0.60430236596E+02  0.12868464149E+03  0.20762399134E+03  0.12500000000E+03 0.  0.
         25    1    1    2    0    0 -0.95379506788E+02 -0.25952841172E+02  0.21671043080E+03  0.26899667488E+03  0.12500000000E+03 0.  0.
</event>
<event>
 5    0  0.5749909E-005  0.2292083E+03  0.7546771E-02  0.1127198E+00
         21   -1    0    0  502  501  0.00000000000E+00  0.00000000000E+00  0.81688320478E+03  0.81688320478E+03  0.00000000000E+00 0.  1.
         21   -1    0    0  501  502 -0.00000000000E+00 -0.00000000000E+00 -0.64313313101E+02  0.64313313101E+02  0.00000000000E+00 0.  1.
         25    1    1    2    0    0 -0.57258070053E+02 -0.51566233714E+02  0.30380098548E+03  0.33742792093E+03  0.12500000000E+03 0.  0.
         25    1    1    2    0    0  0.50740349630E+02  0.19639628723E+02  0.92349933297E+02  0.16466271064E+03  0.12500000000E+03 0.  0.
         25    1    1    2    0    0  0.65177204226E+01  0.31926604991E+02  0.35641897291E+03  0.37910588631E+03  0.12500000000E+03 0.  0.
</event>
<event>
 5    0  0.5817073E-005  0.5619152E+03  0.7546771E-02  0.9987730E-01
         21   -1    0    0  502  501  0.00000000000E+00  0.00000000000E+00  0.78233606321E+03  0.78233606321E+03  0.00000000000E+00 0. -1.
         21   -1    0    0  501  502 -0.00000000000E+00 -0.00000000000E+00 -0.40359732104E+03  0.40359732104E+03  0.00000000000E+00 0. -1.
         25    1    1    2    0    0 -0.11208391803E+03 -0.10402516542E+03 -0.86888060704E+02  0.21577436088E+03  0.12500000000E+03 0.  0.
         25    1    1    2    0    0 -0.30444029605E+03  0.18268390912E+03  0.34850455848E+03  0.51296952326E+03  0.12500000000E+03 0.  0.
         25    1    1    2    0    0  0.41652421408E+03 -0.78658743692E+02  0.11712224440E+03  0.45718950011E+03  0.12500000000E+03 0.  0.
</event>
<event>
 5    0  0.5749909E-005  0.6831744E+03  0.7546771E-02  0.9746447E-01
         21   -1    0    0  502  501  0.00000000000E+00  0.00000000000E+00  0.10425803626E+04  0.10425803626E+04  0.00000000000E+00 0. -1.
         21   -1    0    0  501  502 -0.00000000000E+00 -0.00000000000E+00 -0.44766551896E+03  0.44766551896E+03  0.00000000000E+00 0. -1.
         25    1    1    2    0    0 -0.19284374615E+03 -0.22662637413E+03  0.80878591688E+03  0.87080875238E+03  0.12500000000E+03 0.  0.
         25    1    1    2    0    0  0.44771975184E+02  0.17142945863E+03 -0.32396460409E+03  0.38983413620E+03  0.12500000000E+03 0.  0.
         25    1    1    2    0    0  0.14807177097E+03  0.55196915499E+02  0.11009353082E+03  0.22960299294E+03  0.12500000000E+03 0.  0.
</event>
<event>
 5    0  0.5749909E-005  0.2595121E+03  0.7546771E-02  0.1107437E+00
         21   -1    0    0  502  501  0.00000000000E+00  0.00000000000E+00  0.11149122474E+03  0.11149122474E+03  0.00000000000E+00 0. -1.
         21   -1    0    0  501  502 -0.00000000000E+00 -0.00000000000E+00 -0.60405213347E+03  0.60405213347E+03  0.00000000000E+00 0. -1.
         25    1    1    2    0    0 -0.25681913729E+02 -0.22295847232E+02 -0.14441339087E+03  0.19400230143E+03  0.12500000000E+03 0.  0.
         25    1    1    2    0    0 -0.11868741705E+03 -0.13927896056E+02 -0.80471842570E+02  0.19073910637E+03  0.12500000000E+03 0.  0.
         25    1    1    2    0    0  0.14436933078E+03  0.36223743288E+02 -0.26767567529E+03  0.33080195040E+03  0.12500000000E+03 0.  0.
</event>
<event>
 5    0  0.5749909E-005  0.3761418E+03  0.7546771E-02  0.1052369E+00
         21   -1    0    0  502  501  0.00000000000E+00  0.00000000000E+00  0.86605415628E+03  0.86605415628E+03  0.00000000000E+00 0.  1.
         21   -1    0    0  501  502 -0.00000000000E+00 -0.00000000000E+00 -0.16336465660E+03  0.16336465660E+03  0.00000000000E+00 0.  1.
         25    1    1    2    0    0 -0.58357645947E+01  0.58813238220E+02  0.22565671075E+01  0.13828646077E+03  0.12500000000E+03 0.  0.
         25    1    1    2    0    0  0.18333403471E+03  0.25263981406E+01  0.60818761387E+03  0.64740630568E+03  0.12500000000E+03 0.  0.
         25    1    1    2    0    0 -0.17749827012E+03 -0.61339636361E+02  0.92245318712E+02  0.24372604643E+03  0.12500000000E+03 0.  0.
</event>
<event>
 5    0  0.5749909E-005  0.3455081E+03  0.7546771E-02  0.1064474E+00
         21   -1    0    0  502  501  0.00000000000E+00  0.00000000000E+00  0.83374072482E+03  0.83374072482E+03  0.00000000000E+00 0.  1.
         21   -1    0    0  501  502 -0.00000000000E+00 -0.00000000000E+00 -0.14318098823E+03  0.14318098823E+03  0.00000000000E+00 0.  1.
         25    1    1    2    0    0 -0.14173462391E+02  0.21382844767E+03  0.33632107169E+03  0.41792386309E+03  0.12500000000E+03 0.  0.
         25    1    1    2    0    0  0.38291665486E+02  0.46017055791E+02  0.78412605769E+02  0.15923993787E+03  0.12500000000E+03 0.  0.
         25    1    1    2    0    0 -0.24118203095E+02 -0.25984550347E+03  0.27582605913E+03  0.39975791210E+03  0.12500000000E+03 0.  0.
</event>
<event>
 5    0  0.5749909E-005  0.3192397E+03  0.7546771E-02  0.1076000E+00
         21   -1    0    0  502  501  0.00000000000E+00  0.00000000000E+00  0.75235572167E+02  0.75235572167E+02  0.00000000000E+00 0. -1.
         21   -1    0    0  501  502 -0.00000000000E+00 -0.00000000000E+00 -0.13545981568E+04  0.13545981568E+04  0.00000000000E+00 0. -1.
         25    1    1    2    0    0 -0.70396314281E+02  0.18826221872E+02 -0.59557081164E+03  0.61289449286E+03  0.12500000000E+03 0.  0.
         25    1    1    2    0    0  0.22317514459E+02  0.16507240902E+03 -0.41854407238E+03  0.46749450499E+03  0.12500000000E+03 0.  0.
         25    1    1    2    0    0  0.48078799822E+02 -0.18389863089E+03 -0.26524770065E+03  0.34944473116E+03  0.12500000000E+03 0.  0.
</event>
<event>
 5    0  0.5749909E-005  0.2735542E+03  0.7546771E-02  0.1099262E+00
         21   -1    0    0  502  501  0.00000000000E+00  0.00000000000E+00  0.82957839191E+03  0.82957839191E+03  0.00000000000E+00 0.  1.
         21   -1    0    0  501  502 -0.00000000000E+00 -0.00000000000E+00 -0.90204767554E+02  0.90204767554E+02  0.00000000000E+00 0.  1.
         25    1    1    2    0    0 -0.51287083361E+02 -0.11313099279E+03  0.12198938464E+03  0.21432544509E+03  0.12500000000E+03 0.  0.
         25    1    1    2    0    0  0.19500506683E+02  0.14295747536E+02  0.46703796132E+03  0.48408067041E+03  0.12500000000E+03 0.  0.
         25    1    1    2    0    0  0.31786576677E+02  0.98835245257E+02  0.15034627841E+03  0.22137704396E+03  0.12500000000E+03 0.  0.
</event>
<event>
 5    0  0.5749909E-005  0.3042600E+03  0.7546771E-02  0.1083130E+00
         21   -1    0    0  502  501  0.00000000000E+00  0.00000000000E+00  0.10722431202E+03  0.10722431202E+03  0.00000000000E+00 0.  1.
         21   -1    0    0  501  502 -0.00000000000E+00 -0.00000000000E+00 -0.86336883526E+03  0.86336883526E+03  0.00000000000E+00 0.  1.
         25    1    1    2    0    0 -0.86745876327E+02  0.32885403933E+02 -0.16253779028E+03  0.22505517128E+03  0.12500000000E+03 0.  0.
         25    1    1    2    0    0  0.75309425831E+02  0.16133328113E+03 -0.25049656624E+03  0.33177321609E+03  0.12500000000E+03 0.  0.
         25    1    1    2    0    0  0.11436450497E+02 -0.19421868506E+03 -0.34311016672E+03  0.41376475990E+03  0.12500000000E+03 0.  0.
</event>
<event>
 5    0  0.5749909E-005  0.3122079E+03  0.7546771E-02  0.1079292E+00
         21   -1    0    0  502  501  0.00000000000E+00  0.00000000000E+00  0.11564991050E+04  0.11564991050E+04  0.00000000000E+00 0.  1.
         21   -1    0    0  501  502 -0.00000000000E+00 -0.00000000000E+00 -0.84283482185E+02  0.84283482185E+02  0.00000000000E+00 0.  1.
         25    1    1    2    0    0 -0.12776591647E+03 -0.12401680406E+02  0.43447013537E+03  0.46996513660E+03  0.12500000000E+03 0.  0.
         25    1    1    2    0    0  0.10126318824E+03 -0.13416441121E+03  0.19054410271E+03  0.28317199298E+03  0.12500000000E+03 0.  0.
         25    1    1    2    0    0  0.26502728229E+02  0.14656609162E+03  0.44720138469E+03  0.48764545757E+03  0.12500000000E+03 0.  0.
</event>
<event>
 5    0  0.5749909E-005  0.2895509E+03  0.7546771E-02  0.1090584E+00
         21   -1    0    0  502  501  0.00000000000E+00  0.00000000000E+00  0.70481751658E+02  0.70481751658E+02  0.00000000000E+00 0.  1.
         21   -1    0    0  501  502 -0.00000000000E+00 -0.00000000000E+00 -0.11895240617E+04  0.11895240617E+04  0.00000000000E+00 0.  1.
         25    1    1    2    0    0 -0.74343037529E+02 -0.15337255610E+03 -0.21456518217E+03  0.30118639676E+03  0.12500000000E+03 0.  0.
         25    1    1    2    0    0  0.61685589978E+02  0.12961232346E+03 -0.54012311179E+03  0.57268005230E+03  0.12500000000E+03 0.  0.
         25    1    1    2    0    0  0.12657447551E+02  0.23760232633E+02 -0.36435401611E+03  0.38613936433E+03  0.12500000000E+03 0.  0.
</event>
