<event>
 6    0  0.6549018E+002  0.1128971E+03  0.7546771E-02  0.1255297E+00
         21   -1    0    0  503  501  0.00000000000E+00  0.00000000000E+00  0.30443859419E+03  0.30443859419E+03  0.00000000000E+00 0. -1.
         21   -1    0    0  504  502 -0.00000000000E+00 -0.00000000000E+00 -0.16424817282E+03  0.16424817282E+03  0.00000000000E+00 0. -1.
         21    1    1    2  503  505 -0.18086331953E+02  0.36967468013E+02  0.96039810656E+02  0.10448614418E+03  0.00000000000E+00 0. -1.
         21    1    1    2  504  501  0.23364335265E+02  0.41254769397E+02 -0.82825544846E+01  0.48129501028E+02  0.00000000000E+00 0.  1.
         21    1    1    2  505  506  0.12106719903E+03 -0.41773870393E+02  0.11346164449E+03  0.17110192197E+03  0.00000000000E+00 0. -1.
         21    1    1    2  506  502 -0.12634520234E+03 -0.36448367017E+02 -0.61028479298E+02  0.14496919983E+03  0.00000000000E+00 0. -1.
<scales pt_clust_3="41.15470" pt_clust_4="49.79098" pt_clust_5="112.89707" pt_clust_6="14000.00000"></scales>
<clustering>
<clus scale="   41.155">  1  3  2 -1</clus>
<clus scale="   49.791">  2  4  1 -1</clus>
<clus scale="  112.897">  1  5  2 -1</clus>
<clus scale="   41.155">  1  3  2 -1</clus>
</clustering>
</event>
<event>
 6    0  0.6549018E+002  0.8416046E+02  0.7546771E-02  0.1317643E+00
         21   -1    0    0  505  501  0.00000000000E+00  0.00000000000E+00  0.29703955051E+03  0.29703955051E+03  0.00000000000E+00 0. -1.
         21   -1    0    0  506  502 -0.00000000000E+00 -0.00000000000E+00 -0.95365971079E+03  0.95365971079E+03  0.00000000000E+00 0. -1.
         21    1    1    2  503  502 -0.21672603062E+02 -0.22626923127E+02 -0.32010335352E+03  0.32163307713E+03  0.00000000000E+00 0.  1.
         21    1    1    2  504  501 -0.82266362543E+02  0.15972638445E+02  0.27314532783E+03  0.28571182983E+03  0.00000000000E+00 0. -1.
         21    1    1    2  505  503  0.12695884057E+03  0.39266486276E+02 -0.57601802525E+03  0.59114902483E+03  0.00000000000E+00 0. -1.
         21    1    1    2  506  504 -0.23019874962E+02 -0.32612201595E+02 -0.33644109339E+02  0.52205329511E+02  0.00000000000E+00 0. -1.
<scales pt_clust_3="31.33176" pt_clust_4="14000.00000" pt_clust_5="84.16046" pt_clust_6="42.02123"></scales>
<clustering>
<clus scale="   31.332">  2  3  1 -1</clus>
<clus scale="   42.021">  2  6  1 -1</clus>
<clus scale="   84.160">  2  5  1 -1</clus>
<clus scale="   84.160">  1  3  2 -1</clus>
</clustering>
</event>
<event>
 6    0  0.6549018E+002  0.1230076E+03  0.7546771E-02  0.1238216E+00
         21   -1    0    0  504  501  0.00000000000E+00  0.00000000000E+00  0.15282857461E+03  0.15282857461E+03  0.00000000000E+00 0.  1.
         21   -1    0    0  505  502 -0.00000000000E+00 -0.00000000000E+00 -0.47559754542E+03  0.47559754542E+03  0.00000000000E+00 0. -1.
         21    1    1    2  503  506  0.25516749151E+02 -0.72273731311E+02 -0.22410304130E+03  0.23684756669E+03  0.00000000000E+00 0. -1.
         21    1    1    2  504  503 -0.29085839437E+02  0.16103302264E+03  0.53396196582E+02  0.17213010848E+03  0.00000000000E+00 0.  1.
         21    1    1    2  505  501  0.25178630270E+02 -0.52754116147E+02  0.32643105667E+01  0.58545844568E+02  0.00000000000E+00 0. -1.
         21    1    1    2  506  502 -0.21609539983E+02 -0.36005175185E+02 -0.15532643666E+03  0.16090260030E+03  0.00000000000E+00 0. -1.
<scales pt_clust_3="37.00091" pt_clust_4="112.39212" pt_clust_5="58.45477" pt_clust_6="37.00091"></scales>
<clustering>
<clus scale="   37.001">  3  6 -1 -1</clus>
<clus scale="   58.455">  1  5  2 -1</clus>
<clus scale="  112.392">  1  4  2 -1</clus>
<clus scale="   58.455">  1  3  2 -1</clus>
</clustering>
</event>
<event>
 6    0  0.6549018E+002  0.1100896E+03  0.7546771E-02  0.1260404E+00
         21   -1    0    0  503  501  0.00000000000E+00  0.00000000000E+00  0.91346372196E+03  0.91346372196E+03  0.00000000000E+00 0. -1.
         21   -1    0    0  505  502 -0.00000000000E+00 -0.00000000000E+00 -0.70027443746E+03  0.70027443746E+03  0.00000000000E+00 0.  1.
         21    1    1    2  503  506  0.77804246196E+02 -0.63286977928E+02  0.44920796599E+03  0.46026789917E+03  0.00000000000E+00 0. -1.
         21    1    1    2  504  501  0.26308926873E+02  0.24756913465E+02  0.44674592672E+03  0.44820418053E+03  0.00000000000E+00 0. -1.
         21    1    1    2  505  504 -0.53832493605E+02 -0.32798720402E+02 -0.11784577960E+03  0.13364625396E+03  0.00000000000E+00 0.  1.
         21    1    1    2  506  502 -0.50280679464E+02  0.71328784864E+02 -0.56491882862E+03  0.57161982576E+03  0.00000000000E+00 0.  1.
<scales pt_clust_3="14000.00000" pt_clust_4="36.12568" pt_clust_5="62.43808" pt_clust_6="110.08957"></scales>
<clustering>
<clus scale="   36.126">  1  4  2 -1</clus>
<clus scale="   62.438">  2  5  1 -1</clus>
<clus scale="  110.090">  2  6  1 -1</clus>
<clus scale="   36.126">  1  3  2 -1</clus>
</clustering>
</event>
<event>
 6    0  0.6549018E+002  0.9782062E+02  0.7546771E-02  0.1284947E+00
         21   -1    0    0  504  501  0.00000000000E+00  0.00000000000E+00  0.21874184115E+03  0.21874184115E+03  0.00000000000E+00 0.  1.
         21   -1    0    0  503  502 -0.00000000000E+00 -0.00000000000E+00 -0.14712421146E+04  0.14712421146E+04  0.00000000000E+00 0. -1.
         21    1    1    2  503  505 -0.43536973886E+02 -0.10452109588E+01 -0.80818708487E+03  0.80935957690E+03  0.00000000000E+00 0. -1.
         21    1    1    2  504  506  0.95036450654E+02  0.32261406901E+02  0.19961561248E+03  0.22342586706E+03  0.00000000000E+00 0.  1.
         21    1    1    2  505  501 -0.24071136649E+02 -0.68163811709E+02 -0.23981991885E+03  0.25047817933E+03  0.00000000000E+00 0.  1.
         21    1    1    2  506  502 -0.27428340119E+02  0.36947615766E+02 -0.40410888217E+03  0.40672033242E+03  0.00000000000E+00 0. -1.
<scales pt_clust_3="43.54952" pt_clust_4="97.82062" pt_clust_5="14000.00000" pt_clust_6="65.13094"></scales>
<clustering>
<clus scale="   43.550">  2  3  1 -1</clus>
<clus scale="   65.131">  2  6  1 -1</clus>
<clus scale="   97.821">  1  4  2 -1</clus>
<clus scale="   97.821">  1  3  2 -1</clus>
</clustering>
</event>
<event>
 6    0  0.6549018E+002  0.9279792E+02  0.7546771E-02  0.1296214E+00
         21   -1    0    0  504  501  0.00000000000E+00  0.00000000000E+00  0.11308952175E+03  0.11308952175E+03  0.00000000000E+00 0.  1.
         21   -1    0    0  503  502 -0.00000000000E+00 -0.00000000000E+00 -0.41915413675E+03  0.41915413675E+03  0.00000000000E+00 0. -1.
         21    1    1    2  503  501  0.62558122951E+01 -0.10144863890E+03 -0.11074400406E+03  0.15031698492E+03  0.00000000000E+00 0. -1.
         21    1    1    2  504  506 -0.77256448075E+02  0.51409088086E+02  0.59768131084E+02  0.11037972006E+03  0.00000000000E+00 0.  1.
         21    1    1    2  505  502  0.23088732150E+02  0.35032469874E+02 -0.13547784864E+03  0.14182598834E+03  0.00000000000E+00 0. -1.
         21    1    1    2  506  505  0.47911903630E+02  0.15007080936E+02 -0.11961089339E+03  0.12972096518E+03  0.00000000000E+00 0. -1.
<scales pt_clust_3="81.09798" pt_clust_4="92.79792" pt_clust_5="30.62655" pt_clust_6="30.62655"></scales>
<clustering>
<clus scale="   30.627">  5  6 -1 -1</clus>
<clus scale="   92.798">  1  4  2 -1</clus>
<clus scale="   81.098">  1  3  2 -1</clus>
<clus scale="   92.798">  1  3  2 -1</clus>
</clustering>
</event>
<event>
 6    0  0.6549018E+002  0.7037161E+02  0.7546771E-02  0.1358834E+00
         21   -1    0    0  504  501  0.00000000000E+00  0.00000000000E+00  0.17112720622E+03  0.17112720622E+03  0.00000000000E+00 0. -1.
         21   -1    0    0  505  502 -0.00000000000E+00 -0.00000000000E+00 -0.27193000737E+03  0.27193000737E+03  0.00000000000E+00 0.  1.
         21    1    1    2  503  506 -0.79973326784E+01 -0.60619487485E+02 -0.25282922258E+02  0.66165744542E+02  0.00000000000E+00 0.  1.
         21    1    1    2  504  502  0.59608992771E+02  0.37349757593E+02  0.12477625741E+03  0.14323878952E+03  0.00000000000E+00 0. -1.
         21    1    1    2  505  503  0.23987911187E+02  0.35001846507E+02 -0.89001004378E+02  0.98598823129E+02  0.00000000000E+00 0.  1.
         21    1    1    2  506  501 -0.75599571280E+02 -0.11732116616E+02 -0.11129513192E+03  0.13505385640E+03  0.00000000000E+00 0.  1.
<scales pt_clust_3="51.66761" pt_clust_4="70.37161" pt_clust_5="42.43288" pt_clust_6="14000.00000"></scales>
<clustering>
<clus scale="   42.433">  2  5  1 -1</clus>
<clus scale="   51.668">  2  3  1 -1</clus>
<clus scale="   70.372">  1  4  2 -1</clus>
<clus scale="   70.372">  1  3  2 -1</clus>
</clustering>
</event>
<event>
 6    0  0.6549018E+002  0.7108806E+02  0.7546771E-02  0.1356432E+00
         21   -1    0    0  505  501  0.00000000000E+00  0.00000000000E+00  0.78230103519E+02  0.78230103519E+02  0.00000000000E+00 0.  1.
         21   -1    0    0  504  502 -0.00000000000E+00 -0.00000000000E+00 -0.12318496305E+04  0.12318496305E+04  0.00000000000E+00 0.  1.
         21    1    1    2  503  502 -0.39150998647E+02 -0.15003074660E+01 -0.16864599029E+03  0.17313729136E+03  0.00000000000E+00 0.  1.
         21    1    1    2  504  506  0.75937035506E+02  0.54027079459E+02 -0.47848822506E+03  0.48747957926E+03  0.00000000000E+00 0.  1.
         21    1    1    2  505  503 -0.44009737347E+02  0.19083150517E+02 -0.55856650615E+03  0.56062248029E+03  0.00000000000E+00 0.  1.
         21    1    1    2  506  501  0.72237004882E+01 -0.71609922510E+02  0.52081194511E+02  0.88840383117E+02  0.00000000000E+00 0.  1.
<scales pt_clust_3="39.17973" pt_clust_4="71.08806" pt_clust_5="67.19718" pt_clust_6="14000.00000"></scales>
<clustering>
<clus scale="   39.180">  2  3  1 -1</clus>
<clus scale="   67.197">  2  5  1 -1</clus>
<clus scale="   71.088">  2  4  1 -1</clus>
<clus scale="   71.088">  1  3  2 -1</clus>
</clustering>
</event>
<event>
 6    0  0.6549018E+002  0.1789973E+03  0.7546771E-02  0.1168777E+00
         21   -1    0    0  502  501  0.00000000000E+00  0.00000000000E+00  0.17829401373E+04  0.17829401373E+04  0.00000000000E+00 0.  1.
         21   -1    0    0  503  502 -0.00000000000E+00 -0.00000000000E+00 -0.34145333589E+02  0.34145333589E+02  0.00000000000E+00 0.  1.
         21    1    1    2  503  505  0.62473898507E+02 -0.63809060892E+02  0.85155852856E+02  0.12339409841E+03  0.00000000000E+00 0.  1.
         21    1    1    2  504  501 -0.27905686780E+02  0.56548959150E+02  0.78215137283E+03  0.78468929020E+03  0.00000000000E+00 0. -1.
         21    1    1    2  505  506  0.64890377172E+02 -0.37303062163E+02  0.13294310174E+03  0.15256522473E+03  0.00000000000E+00 0.  1.
         21    1    1    2  506  504 -0.99458588899E+02  0.44563163905E+02  0.74854447626E+03  0.75643685753E+03  0.00000000000E+00 0.  1.
<scales pt_clust_3="169.07511" pt_clust_4="56.89567" pt_clust_5="42.36235" pt_clust_6="56.89567"></scales>
<clustering>
<clus scale="   42.362">  3  5 -1 -1</clus>
<clus scale="   56.896">  4  6 -1 -1</clus>
<clus scale="  169.075">  2  3  1 -1</clus>
<clus scale="  178.997">  1  3  2 -1</clus>
</clustering>
</event>
<event>
 6    0  0.6549018E+002  0.9604481E+02  0.7546771E-02  0.1288840E+00
         21   -1    0    0  503  501  0.00000000000E+00  0.00000000000E+00  0.10543589095E+04  0.10543589095E+04  0.00000000000E+00 0.  1.
         21   -1    0    0  505  502 -0.00000000000E+00 -0.00000000000E+00 -0.71549111185E+02  0.71549111185E+02  0.00000000000E+00 0. -1.
         21    1    1    2  503  504 -0.52033296600E+02  0.79291464049E+02  0.84404916761E+03  0.84936069933E+03  0.00000000000E+00 0.  1.
         21    1    1    2  504  502  0.94729317026E+02  0.27807851719E+01  0.59188740076E+02  0.11173487917E+03  0.00000000000E+00 0. -1.
         21    1    1    2  505  506 -0.97792847858E+01 -0.60910731153E+02 -0.14111892431E+02  0.63284256245E+02  0.00000000000E+00 0. -1.
         21    1    1    2  506  501 -0.32916735640E+02 -0.21161518067E+02  0.93683783047E+02  0.10152818593E+03  0.00000000000E+00 0.  1.
<scales pt_clust_3="96.04481" pt_clust_4="14000.00000" pt_clust_5="62.36628" pt_clust_6="39.13210"></scales>
<clustering>
<clus scale="   39.132">  1  6  2 -1</clus>
<clus scale="   62.366">  2  5  1 -1</clus>
<clus scale="   96.045">  1  3  2 -1</clus>
<clus scale="   39.132">  1  3  2 -1</clus>
</clustering>
</event>
<event>
 6    0  0.6549018E+002  0.1450873E+03  0.7546771E-02  0.1206643E+00
         21   -1    0    0  506  501  0.00000000000E+00  0.00000000000E+00  0.37519229239E+02  0.37519229239E+02  0.00000000000E+00 0.  1.
         21   -1    0    0  504  502 -0.00000000000E+00 -0.00000000000E+00 -0.12769983814E+04  0.12769983814E+04  0.00000000000E+00 0.  1.
         21    1    1    2  503  501 -0.35390145463E+02  0.31521601834E+02 -0.10860265616E+02  0.48621180028E+02  0.00000000000E+00 0.  1.
         21    1    1    2  504  505 -0.54850190842E+02  0.51747844194E+01 -0.41961744963E+03  0.42321876833E+03  0.00000000000E+00 0.  1.
         21    1    1    2  505  503 -0.70092652601E+02 -0.22221069306E+02 -0.29681862944E+03  0.30579086750E+03  0.00000000000E+00 0.  1.
         21    1    1    2  506  502  0.16033298891E+03 -0.14475316948E+02 -0.51218280751E+03  0.53688679481E+03  0.00000000000E+00 0.  1.
<scales pt_clust_3="47.39276" pt_clust_4="41.26926" pt_clust_5="41.26926" pt_clust_6="137.02999"></scales>
<clustering>
<clus scale="   41.269">  4  5 -1 -1</clus>
<clus scale="   47.393">  1  3  2 -1</clus>
<clus scale="  137.030">  1  6  2 -1</clus>
<clus scale="   47.393">  1  3  2 -1</clus>
</clustering>
</event>
<event>
 6    0  0.6549018E+002  0.1374911E+03  0.7546771E-02  0.1216745E+00
         21   -1    0    0  505  501  0.00000000000E+00  0.00000000000E+00  0.32854527527E+03  0.32854527527E+03  0.00000000000E+00 0. -1.
         21   -1    0    0  504  502 -0.00000000000E+00 -0.00000000000E+00 -0.23164185686E+03  0.23164185686E+03  0.00000000000E+00 0. -1.
         21    1    1    2  503  501  0.68948703862E+01  0.36708511947E+02  0.53679990620E+02  0.65395683955E+02  0.00000000000E+00 0. -1.
         21    1    1    2  504  506  0.58191886533E+02  0.47865347791E+02 -0.13720056556E+03  0.15652917417E+03  0.00000000000E+00 0. -1.
         21    1    1    2  505  502 -0.92826643345E+02 -0.12948099845E+03  0.22046788216E+03  0.27200772368E+03  0.00000000000E+00 0. -1.
         21    1    1    2  506  503  0.27739886426E+02  0.44907138712E+02 -0.40043888819E+02  0.66254550319E+02  0.00000000000E+00 0. -1.
<scales pt_clust_3="37.35042" pt_clust_4="39.84805" pt_clust_5="129.14260" pt_clust_6="39.84805"></scales>
<clustering>
<clus scale="   37.350">  1  3  2 -1</clus>
<clus scale="   39.848">  4  6 -1 -1</clus>
<clus scale="  129.143">  1  5  2 -1</clus>
<clus scale="   37.350">  1  3  2 -1</clus>
</clustering>
</event>
<event>
 6    0  0.7452037E+002  0.1038870E+03  0.7546771E-02  0.1272328E+00
         21   -1    0    0  504  501  0.00000000000E+00  0.00000000000E+00  0.62176124200E+03  0.62176124200E+03  0.00000000000E+00 0.  1.
         21   -1    0    0  506  502 -0.00000000000E+00 -0.00000000000E+00 -0.49460268062E+03  0.49460268062E+03  0.00000000000E+00 0. -1.
         21    1    1    2  503  505 -0.41231943456E+02 -0.41042352564E+02 -0.15427961066E+03  0.16488403844E+03  0.00000000000E+00 0. -1.
         21    1    1    2  504  502  0.27321802620E+02 -0.30665048502E+02 -0.24144366630E+03  0.24491196396E+03  0.00000000000E+00 0. -1.
         21    1    1    2  505  501 -0.25648044675E+02  0.10287453569E+03  0.60282868079E+03  0.61208121248E+03  0.00000000000E+00 0.  1.
         21    1    1    2  506  503  0.39558185511E+02 -0.31167134626E+02 -0.79946842451E+02  0.94486707740E+02  0.00000000000E+00 0.  1.
<scales pt_clust_3="14000.00000" pt_clust_4="41.07099" pt_clust_5="103.88699" pt_clust_6="64.43705"></scales>
<clustering>
<clus scale="   41.071">  2  4  1 -1</clus>
<clus scale="   64.437">  2  6  1 -1</clus>
<clus scale="  103.887">  1  5  2 -1</clus>
<clus scale="  103.887">  1  3  2 -1</clus>
</clustering>
</event>
<event>
 6    0  0.6549018E+002  0.1198580E+03  0.7546771E-02  0.1243332E+00
         21   -1    0    0  506  501  0.00000000000E+00  0.00000000000E+00  0.12330996046E+03  0.12330996046E+03  0.00000000000E+00 0. -1.
         21   -1    0    0  503  502 -0.00000000000E+00 -0.00000000000E+00 -0.37142605150E+03  0.37142605150E+03  0.00000000000E+00 0. -1.
         21    1    1    2  503  505 -0.40059799344E+02  0.86911262900E+02 -0.74885292733E+02  0.12151609856E+03  0.00000000000E+00 0. -1.
         21    1    1    2  504  502  0.62636053462E+02 -0.25363242117E+02 -0.14623699724E+03  0.16109571256E+03  0.00000000000E+00 0. -1.
         21    1    1    2  505  501 -0.58764958632E+02 -0.66253789803E+01  0.72061501075E+02  0.93220576842E+02  0.00000000000E+00 0. -1.
         21    1    1    2  506  504  0.36188704515E+02 -0.54922641802E+02 -0.99055302144E+02  0.11890362400E+03  0.00000000000E+00 0. -1.
<scales pt_clust_3="111.11601" pt_clust_4="44.33151" pt_clust_5="59.13726" pt_clust_6="44.33151"></scales>
<clustering>
<clus scale="   44.332">  4  6 -1 -1</clus>
<clus scale="   59.137">  1  5  2 -1</clus>
<clus scale="  111.116">  1  3  2 -1</clus>
<clus scale="   59.137">  1  3  2 -1</clus>
</clustering>
</event>
<event>
 6    0  0.6549018E+002  0.9645265E+02  0.7546771E-02  0.1287937E+00
         21   -1    0    0  503  501  0.00000000000E+00  0.00000000000E+00  0.13560125998E+02  0.13560125998E+02  0.00000000000E+00 0.  1.
         21   -1    0    0  504  502 -0.00000000000E+00 -0.00000000000E+00 -0.22893613942E+04  0.22893613942E+04  0.00000000000E+00 0.  1.
         21    1    1    2  503  505  0.78708480489E+02  0.13999079672E+02 -0.22522981056E+03  0.23899679223E+03  0.00000000000E+00 0.  1.
         21    1    1    2  504  506 -0.11157984815E+03  0.41720708246E+02 -0.16011053472E+04  0.16055307574E+04  0.00000000000E+00 0.  1.
         21    1    1    2  505  502  0.12499912795E+02 -0.31001558538E+02 -0.38460479680E+03  0.38605465180E+03  0.00000000000E+00 0. -1.
         21    1    1    2  506  501  0.20371454868E+02 -0.24718229380E+02 -0.64861313586E+02  0.72339318750E+02  0.00000000000E+00 0. -1.
<scales pt_clust_3="14000.00000" pt_clust_4="96.45265" pt_clust_5="35.68827" pt_clust_6="32.03103"></scales>
<clustering>
<clus scale="   32.031">  1  6  2 -1</clus>
<clus scale="   35.688">  2  5  1 -1</clus>
<clus scale="   96.453">  2  4  1 -1</clus>
<clus scale="   32.031">  1  3  2 -1</clus>
</clustering>
</event>
<event>
 6    0  0.6549018E+002  0.1179252E+03  0.7546771E-02  0.1246560E+00
         21   -1    0    0  504  501  0.00000000000E+00  0.00000000000E+00  0.35075983405E+03  0.35075983405E+03  0.00000000000E+00 0.  1.
         21   -1    0    0  506  502 -0.00000000000E+00 -0.00000000000E+00 -0.26084765332E+03  0.26084765332E+03  0.00000000000E+00 0.  1.
         21    1    1    2  503  505 -0.82926324541E+02  0.82123102519E+02 -0.12648980794E+03  0.17210651000E+03  0.00000000000E+00 0.  1.
         21    1    1    2  504  503  0.49895065322E+02  0.91952319716E+01  0.13211561306E+03  0.14152245422E+03  0.00000000000E+00 0.  1.
         21    1    1    2  505  502  0.21282267585E+02  0.22268552031E+02 -0.86901250839E+02  0.92198973533E+02  0.00000000000E+00 0. -1.
         21    1    1    2  506  501  0.11748991634E+02 -0.11358688652E+03  0.17118762645E+03  0.20577954963E+03  0.00000000000E+00 0.  1.
<scales pt_clust_3="117.92521" pt_clust_4="51.42318" pt_clust_5="30.80298" pt_clust_6="14000.00000"></scales>
<clustering>
<clus scale="   30.803">  2  5  1 -1</clus>
<clus scale="   51.423">  1  4  2 -1</clus>
<clus scale="  117.925">  2  3  1 -1</clus>
<clus scale="   51.423">  1  3  2 -1</clus>
</clustering>
</event>
<event>
 6    0  0.6549018E+002  0.5930414E+02  0.7546771E-02  0.1400775E+00
         21   -1    0    0  506  501  0.00000000000E+00  0.00000000000E+00  0.20955022286E+03  0.20955022286E+03  0.00000000000E+00 0. -1.
         21   -1    0    0  503  502 -0.00000000000E+00 -0.00000000000E+00 -0.77039560073E+03  0.77039560073E+03  0.00000000000E+00 0. -1.
         21    1    1    2  503  504  0.31506833482E+02  0.72757610264E+01 -0.86211494550E+02  0.92076267556E+02  0.00000000000E+00 0. -1.
         21    1    1    2  504  501 -0.51724074022E+02 -0.21865415447E+02  0.96532871914E+01  0.56979489114E+02  0.00000000000E+00 0. -1.
         21    1    1    2  505  502 -0.41927409639E+02 -0.64072688055E+02 -0.64061789074E+03  0.64517788165E+03  0.00000000000E+00 0. -1.
         21    1    1    2  506  505  0.62144650179E+02  0.78662342476E+02  0.15633072024E+03  0.18571218527E+03  0.00000000000E+00 0. -1.
<scales pt_clust_3="32.33601" pt_clust_4="55.04974" pt_clust_5="14000.00000" pt_clust_6="59.30414"></scales>
<clustering>
<clus scale="   32.336">  2  3  1 -1</clus>
<clus scale="   55.050">  1  4  2 -1</clus>
<clus scale="   59.304">  1  6  2 -1</clus>
<clus scale="   55.050">  1  3  2 -1</clus>
</clustering>
</event>
<event>
 6    0  0.6549018E+002  0.1576551E+03  0.7546771E-02  0.1191370E+00
         21   -1    0    0  503  501  0.00000000000E+00  0.00000000000E+00  0.30208033901E+03  0.30208033901E+03  0.00000000000E+00 0.  1.
         21   -1    0    0  506  502 -0.00000000000E+00 -0.00000000000E+00 -0.39292925124E+03  0.39292925124E+03  0.00000000000E+00 0.  1.
         21    1    1    2  503  502  0.77373427040E+02  0.14644516112E+03 -0.12993436145E+03  0.21051311292E+03  0.00000000000E+00 0.  1.
         21    1    1    2  504  505 -0.81646470248E+02 -0.30838859013E+02 -0.58987761521E+02  0.10534105248E+03  0.00000000000E+00 0.  1.
         21    1    1    2  505  501  0.24031317468E+02 -0.15912396192E+03  0.20583101533E+03  0.26127446554E+03  0.00000000000E+00 0.  1.
         21    1    1    2  506  504 -0.19758274260E+02  0.43517659808E+02 -0.10775780459E+03  0.11788095930E+03  0.00000000000E+00 0.  1.
<scales pt_clust_3="157.65508" pt_clust_4="89.29050" pt_clust_5="14000.00000" pt_clust_6="47.79306"></scales>
<clustering>
<clus scale="   47.793">  2  6  1 -1</clus>
<clus scale="   89.291">  2  4  1 -1</clus>
<clus scale="  157.655">  2  3  1 -1</clus>
<clus scale="  157.655">  1  3  2 -1</clus>
</clustering>
</event>
<event>
 6    0  0.6549018E+002  0.1081591E+03  0.7546771E-02  0.1264017E+00
         21   -1    0    0  503  501  0.00000000000E+00  0.00000000000E+00  0.37161430731E+03  0.37161430731E+03  0.00000000000E+00 0.  1.
         21   -1    0    0  505  502 -0.00000000000E+00 -0.00000000000E+00 -0.40235144321E+03  0.40235144321E+03  0.00000000000E+00 0. -1.
         21    1    1    2  503  506  0.66010290340E+02 -0.87920051559E+02  0.33832773249E+03  0.35574281225E+03  0.00000000000E+00 0.  1.
         21    1    1    2  504  501 -0.21639020751E+02  0.61821514506E+02 -0.21816289721E+03  0.22778322282E+03  0.00000000000E+00 0. -1.
         21    1    1    2  505  504 -0.63612289306E+02 -0.21086999149E+01 -0.14129600411E+03  0.15496945100E+03  0.00000000000E+00 0. -1.
         21    1    1    2  506  502  0.19241019717E+02  0.28207236968E+02 -0.96059670641E+01  0.35470264453E+02  0.00000000000E+00 0. -1.
<scales pt_clust_3="14000.00000" pt_clust_4="108.15910" pt_clust_5="56.80833" pt_clust_6="34.14477"></scales>
<clustering>
<clus scale="   34.145">  2  6  1 -1</clus>
<clus scale="   56.808">  2  5  1 -1</clus>
<clus scale="  108.159">  2  4  1 -1</clus>
<clus scale="  108.159">  1  3  2 -1</clus>
</clustering>
</event>
<event>
 6    0  0.6549018E+002  0.6479534E+03  0.7546771E-02  0.9810627E-01
         21   -1    0    0  505  501  0.00000000000E+00  0.00000000000E+00  0.10103517356E+04  0.10103517356E+04  0.00000000000E+00 0.  1.
         21   -1    0    0  504  502 -0.00000000000E+00 -0.00000000000E+00 -0.47406590252E+03  0.47406590252E+03  0.00000000000E+00 0.  1.
         21    1    1    2  503  501  0.56261680549E+03 -0.37640040654E+01  0.42982629383E+03  0.70802717491E+03  0.00000000000E+00 0.  1.
         21    1    1    2  504  503  0.77719299554E+02 -0.15287591358E+02  0.10871961445E+03  0.13451377081E+03  0.00000000000E+00 0.  1.
         21    1    1    2  505  506 -0.34555762717E+03  0.10734335157E+02  0.18758200797E+02  0.34623282592E+03  0.00000000000E+00 0.  1.
         21    1    1    2  506  502 -0.29477847787E+03  0.83172602657E+01 -0.21018276027E+02  0.29564386644E+03  0.00000000000E+00 0. -1.
<scales pt_clust_3="36.47512" pt_clust_4="36.47512" pt_clust_5="641.87271" pt_clust_6="37.02682"></scales>
<clustering>
<clus scale="   36.475">  3  4 -1 -1</clus>
<clus scale="   37.027">  5  6 -1 -1</clus>
<clus scale="  641.873">  2  5  1 -1</clus>
<clus scale="  647.953">  1  3  2 -1</clus>
</clustering>
</event>
<event>
 6    0  0.6549018E+002  0.1004531E+03  0.7546771E-02  0.1279346E+00
         21   -1    0    0  505  501  0.00000000000E+00  0.00000000000E+00  0.36440188293E+03  0.36440188293E+03  0.00000000000E+00 0.  1.
         21   -1    0    0  504  502 -0.00000000000E+00 -0.00000000000E+00 -0.20050952788E+04  0.20050952788E+04  0.00000000000E+00 0.  1.
         21    1    1    2  503  502 -0.90730034906E+02 -0.39253713284E+02 -0.15623698019E+04  0.15654942322E+04  0.00000000000E+00 0.  1.
         21    1    1    2  504  506  0.10367619452E+03  0.58782128113E+02 -0.18259372740E+03  0.21804715358E+03  0.00000000000E+00 0. -1.
         21    1    1    2  505  503 -0.46633574691E+02 -0.41090486569E+01 -0.23755748935E+03  0.24212627968E+03  0.00000000000E+00 0.  1.
         21    1    1    2  506  501  0.33687415079E+02 -0.15419366172E+02  0.34182762278E+03  0.34382949624E+03  0.00000000000E+00 0.  1.
<scales pt_clust_3="100.45310" pt_clust_4="14000.00000" pt_clust_5="43.44750" pt_clust_6="37.04860"></scales>
<clustering>
<clus scale="   37.049">  1  6  2 -1</clus>
<clus scale="   43.447">  1  5  2 -1</clus>
<clus scale="  100.453">  2  3  1 -1</clus>
<clus scale="   37.049">  1  3  2 -1</clus>
</clustering>
</event>
<event>
 6    0  0.6549018E+002  0.9958950E+02  0.7546771E-02  0.1281162E+00
         21   -1    0    0  503  501  0.00000000000E+00  0.00000000000E+00  0.54967620910E+02  0.54967620910E+02  0.00000000000E+00 0. -1.
         21   -1    0    0  505  502 -0.00000000000E+00 -0.00000000000E+00 -0.74359806143E+03  0.74359806143E+03  0.00000000000E+00 0. -1.
         21    1    1    2  503  502 -0.10356425073E+03 -0.73513985841E+02 -0.22082560191E+03  0.25474262816E+03  0.00000000000E+00 0. -1.
         21    1    1    2  504  501  0.25263641411E+02 -0.20106164142E+02  0.15012862808E+02  0.35607519761E+02  0.00000000000E+00 0. -1.
         21    1    1    2  505  506  0.41109275006E+02  0.85516620076E+02 -0.44332532380E+03  0.45336564440E+03  0.00000000000E+00 0. -1.
         21    1    1    2  506  504  0.37191334315E+02  0.81035299072E+01 -0.39492377626E+02  0.54849890024E+02  0.00000000000E+00 0. -1.
<scales pt_clust_3="99.58950" pt_clust_4="32.28791" pt_clust_5="14000.00000" pt_clust_6="43.82837"></scales>
<clustering>
<clus scale="   32.288">  1  4  2 -1</clus>
<clus scale="   43.828">  1  6  2 -1</clus>
<clus scale="   99.589">  1  3  2 -1</clus>
<clus scale="   32.288">  1  3  2 -1</clus>
</clustering>
</event>
<event>
 6    0  0.6549018E+002  0.1249382E+03  0.7546771E-02  0.1235166E+00
         21   -1    0    0  503  501  0.00000000000E+00  0.00000000000E+00  0.72046502830E+03  0.72046502830E+03  0.00000000000E+00 0.  1.
         21   -1    0    0  504  502 -0.00000000000E+00 -0.00000000000E+00 -0.70452397430E+02  0.70452397430E+02  0.00000000000E+00 0.  1.
         21    1    1    2  503  505  0.27585971539E+02 -0.50482550520E+02  0.32877954770E+03  0.33377457171E+03  0.00000000000E+00 0.  1.
         21    1    1    2  504  501 -0.37690625009E+02 -0.52501391349E+02  0.45782545259E+02  0.79202403736E+02  0.00000000000E+00 0.  1.
         21    1    1    2  505  506  0.20337492939E+02 -0.54974771784E+02  0.18836876419E+03  0.19727805371E+03  0.00000000000E+00 0.  1.
         21    1    1    2  506  502 -0.10232839469E+02  0.15795871365E+03  0.87081773713E+02  0.18066239657E+03  0.00000000000E+00 0.  1.
<scales pt_clust_3="33.69185" pt_clust_4="64.62955" pt_clust_5="33.69185" pt_clust_6="120.22036"></scales>
<clustering>
<clus scale="   33.692">  3  5 -1 -1</clus>
<clus scale="   64.630">  2  4  1 -1</clus>
<clus scale="  120.220">  2  6  1 -1</clus>
<clus scale="  124.938">  1  3  2 -1</clus>
</clustering>
</event>
<event>
 6    0  0.6549018E+002  0.1007781E+03  0.7546771E-02  0.1278668E+00
         21   -1    0    0  504  501  0.00000000000E+00  0.00000000000E+00  0.36289983768E+03  0.36289983768E+03  0.00000000000E+00 0.  1.
         21   -1    0    0  503  502 -0.00000000000E+00 -0.00000000000E+00 -0.41513707241E+03  0.41513707241E+03  0.00000000000E+00 0.  1.
         21    1    1    2  503  505  0.58236581390E+02  0.83704040407E+02 -0.37208050572E+03  0.38580016657E+03  0.00000000000E+00 0.  1.
         21    1    1    2  504  502 -0.38091160533E+02 -0.22955616650E+02 -0.18412412998E+01  0.44511650341E+02  0.00000000000E+00 0. -1.
         21    1    1    2  505  506 -0.58449405956E+02 -0.26471170405E+02  0.25813319191E+03  0.26598834690E+03  0.00000000000E+00 0.  1.
         21    1    1    2  506  501  0.38303985100E+02 -0.34277253352E+02  0.63551320364E+02  0.81736746276E+02  0.00000000000E+00 0.  1.
<scales pt_clust_3="100.77809" pt_clust_4="44.47355" pt_clust_5="14000.00000" pt_clust_6="49.45371"></scales>
<clustering>
<clus scale="   44.474">  1  4  2 -1</clus>
<clus scale="   49.454">  1  6  2 -1</clus>
<clus scale="  100.778">  2  3  1 -1</clus>
<clus scale="   44.474">  1  3  2 -1</clus>
</clustering>
</event>
<event>
 6    0  0.6549018E+002  0.3964763E+03  0.7546771E-02  0.1045007E+00
         21   -1    0    0  505  501  0.00000000000E+00  0.00000000000E+00  0.30051668805E+03  0.30051668805E+03  0.00000000000E+00 0. -1.
         21   -1    0    0  506  502 -0.00000000000E+00 -0.00000000000E+00 -0.15167845565E+04  0.15167845565E+04  0.00000000000E+00 0. -1.
         21    1    1    2  503  501 -0.48982340748E+01 -0.12249421187E+03  0.91376851435E+02  0.15290046964E+03  0.00000000000E+00 0. -1.
         21    1    1    2  504  502 -0.32375871097E+03  0.25931476132E+03 -0.11973430107E+04  0.12671598690E+04  0.00000000000E+00 0. -1.
         21    1    1    2  505  504  0.28005521175E+02  0.20108089917E+02  0.12318693334E+02  0.36611401255E+02  0.00000000000E+00 0. -1.
         21    1    1    2  506  503  0.30065142387E+03 -0.15692863937E+03 -0.12262040257E+03  0.36062950469E+03  0.00000000000E+00 0. -1.
<scales pt_clust_3="113.84426" pt_clust_4="396.47634" pt_clust_5="34.47672" pt_clust_6="14000.00000"></scales>
<clustering>
<clus scale="   34.477">  1  5  2 -1</clus>
<clus scale="  113.844">  1  3  2 -1</clus>
<clus scale="  396.476">  2  4  1 -1</clus>
<clus scale="   34.477">  1  3  2 -1</clus>
</clustering>
</event>
<event>
 6    0  0.6549018E+002  0.1242847E+03  0.7546771E-02  0.1236191E+00
         21   -1    0    0  503  501  0.00000000000E+00  0.00000000000E+00  0.44836617869E+03  0.44836617869E+03  0.00000000000E+00 0.  1.
         21   -1    0    0  506  502 -0.00000000000E+00 -0.00000000000E+00 -0.66499483547E+03  0.66499483547E+03  0.00000000000E+00 0. -1.
         21    1    1    2  503  504 -0.67283382350E+02  0.10543067351E+03  0.41408528302E+03  0.43256132753E+03  0.00000000000E+00 0.  1.
         21    1    1    2  504  502  0.66181149689E+02 -0.60207652605E+02 -0.44073267744E+03  0.44972235764E+03  0.00000000000E+00 0. -1.
         21    1    1    2  505  501 -0.56201799720E+02 -0.26400168802E+02 -0.13848400246E+03  0.15176768477E+03  0.00000000000E+00 0.  1.
         21    1    1    2  506  505  0.57304032381E+02 -0.18822852099E+02 -0.51497259913E+02  0.79309644223E+02  0.00000000000E+00 0. -1.
<scales pt_clust_3="14000.00000" pt_clust_4="124.28465" pt_clust_5="52.44297" pt_clust_6="60.31627"></scales>
<clustering>
<clus scale="   60.316">  2  6  1 -1</clus>
<clus scale="   52.443">  2  5  1 -1</clus>
<clus scale="  124.285">  2  4  1 -1</clus>
<clus scale="  124.285">  1  3  2 -1</clus>
</clustering>
</event>
<event>
 6    0  0.6549018E+002  0.1163699E+03  0.7546771E-02  0.1249209E+00
         21   -1    0    0  506  501  0.00000000000E+00  0.00000000000E+00  0.42020403425E+03  0.42020403425E+03  0.00000000000E+00 0. -1.
         21   -1    0    0  503  502 -0.00000000000E+00 -0.00000000000E+00 -0.29372870502E+03  0.29372870502E+03  0.00000000000E+00 0.  1.
         21    1    1    2  503  504 -0.32538944834E+02 -0.58901085557E+01 -0.46722551587E+02  0.57240485117E+02  0.00000000000E+00 0.  1.
         21    1    1    2  504  505 -0.44232403175E+02 -0.65219479275E+02 -0.20612080335E+03  0.22067141079E+03  0.00000000000E+00 0.  1.
         21    1    1    2  505  501 -0.35760556116E+02 -0.13701839813E+02  0.83565451495E+01  0.39196806436E+02  0.00000000000E+00 0.  1.
         21    1    1    2  506  502  0.11253190412E+03  0.84811427643E+02  0.37096213901E+03  0.39682403693E+03  0.00000000000E+00 0. -1.
<scales pt_clust_3="31.43469" pt_clust_4="31.43469" pt_clust_5="38.29566" pt_clust_6="105.76909"></scales>
<clustering>
<clus scale="   31.435">  3  4 -1 -1</clus>
<clus scale="   38.296">  1  5  2 -1</clus>
<clus scale="  105.769">  1  6  2 -1</clus>
<clus scale="   38.296">  1  3  2 -1</clus>
</clustering>
</event>
<event>
 6    0  0.6549018E+002  0.1196537E+03  0.7546771E-02  0.1243669E+00
         21   -1    0    0  506  501  0.00000000000E+00  0.00000000000E+00  0.21514909914E+02  0.21514909914E+02  0.00000000000E+00 0.  1.
         21   -1    0    0  505  502 -0.00000000000E+00 -0.00000000000E+00 -0.19540953458E+04  0.19540953458E+04  0.00000000000E+00 0.  1.
         21    1    1    2  503  504  0.29084152019E+02  0.45617012742E+02 -0.86693727032E+03  0.86862364141E+03  0.00000000000E+00 0.  1.
         21    1    1    2  504  502 -0.98450725290E+00  0.67300853064E+02 -0.86511166822E+03  0.86772609305E+03  0.00000000000E+00 0.  1.
         21    1    1    2  505  501 -0.26848475582E+02 -0.13507147616E+02 -0.34655011877E+02  0.45872143246E+02  0.00000000000E+00 0.  1.
         21    1    1    2  506  503 -0.12511691832E+01 -0.99410718190E+02 -0.16587648549E+03  0.19338837802E+03  0.00000000000E+00 0.  1.
<scales pt_clust_3="33.10168" pt_clust_4="33.10168" pt_clust_5="30.05468" pt_clust_6="113.75487"></scales>
<clustering>
<clus scale="   30.055">  1  5  2 -1</clus>
<clus scale="   33.102">  3  4 -1 -1</clus>
<clus scale="  113.755">  1  6  2 -1</clus>
<clus scale="   30.055">  1  3  2 -1</clus>
</clustering>
</event>
<event>
 6    0  0.6549018E+002  0.1280047E+03  0.7546771E-02  0.1230447E+00
         21   -1    0    0  504  501  0.00000000000E+00  0.00000000000E+00  0.13727019308E+03  0.13727019308E+03  0.00000000000E+00 0.  1.
         21   -1    0    0  505  502 -0.00000000000E+00 -0.00000000000E+00 -0.97132264395E+03  0.97132264395E+03  0.00000000000E+00 0. -1.
         21    1    1    2  503  502  0.12170083146E+03 -0.72771593173E+02  0.74535493755E+01  0.14199419900E+03  0.00000000000E+00 0.  1.
         21    1    1    2  504  503 -0.30940038331E+02 -0.46739750717E+00  0.53960920162E+02  0.62203579778E+02  0.00000000000E+00 0.  1.
         21    1    1    2  505  506 -0.28392721330E+02  0.54805967212E+02 -0.44053927914E+03  0.44484232840E+03  0.00000000000E+00 0. -1.
         21    1    1    2  506  501 -0.62368071795E+02  0.18433023468E+02 -0.45492764126E+03  0.45955272986E+03  0.00000000000E+00 0. -1.
<scales pt_clust_3="117.97145" pt_clust_4="30.94357" pt_clust_5="48.22701" pt_clust_6="48.22701"></scales>
<clustering>
<clus scale="   30.944">  1  4  2 -1</clus>
<clus scale="   48.227">  5  6 -1 -1</clus>
<clus scale="  117.971">  1  3  2 -1</clus>
<clus scale="   30.944">  1  3  2 -1</clus>
</clustering>
</event>
<event>
 6    0  0.6549018E+002  0.9996936E+02  0.7546771E-02  0.1280360E+00
         21   -1    0    0  505  501  0.00000000000E+00  0.00000000000E+00  0.52207701134E+03  0.52207701134E+03  0.00000000000E+00 0.  1.
         21   -1    0    0  504  502 -0.00000000000E+00 -0.00000000000E+00 -0.11008397019E+03  0.11008397019E+03  0.00000000000E+00 0. -1.
         21    1    1    2  503  501  0.23996655855E+02 -0.71129289148E+02  0.25043741912E+03  0.26144620128E+03  0.00000000000E+00 0.  1.
         21    1    1    2  504  503  0.10428449594E+03  0.75868515740E+01 -0.61853990064E+01  0.10474290225E+03  0.00000000000E+00 0. -1.
         21    1    1    2  505  506 -0.11312564486E+03  0.27522134297E+02  0.18862523502E+03  0.22166271380E+03  0.00000000000E+00 0. -1.
         21    1    1    2  506  502 -0.15155506939E+02  0.36020303277E+02 -0.20884213989E+02  0.44309164207E+02  0.00000000000E+00 0. -1.
<scales pt_clust_3="72.29972" pt_clust_4="99.96936" pt_clust_5="14000.00000" pt_clust_6="39.07879"></scales>
<clustering>
<clus scale="   39.079">  2  6  1 -1</clus>
<clus scale="   72.300">  1  3  2 -1</clus>
<clus scale="   99.969">  2  4  1 -1</clus>
<clus scale="   72.300">  1  3  2 -1</clus>
</clustering>
</event>
<event>
 6    0  0.6549018E+002  0.9854074E+02  0.7546771E-02  0.1283395E+00
         21   -1    0    0  506  501  0.00000000000E+00  0.00000000000E+00  0.67685667887E+03  0.67685667887E+03  0.00000000000E+00 0.  1.
         21   -1    0    0  505  502 -0.00000000000E+00 -0.00000000000E+00 -0.42417232441E+02  0.42417232441E+02  0.00000000000E+00 0.  1.
         21    1    1    2  503  502 -0.40494005764E+02  0.42649345036E+02  0.53083508525E+02  0.79224933020E+02  0.00000000000E+00 0.  1.
         21    1    1    2  504  501  0.42241096918E+02 -0.28258813685E+02  0.21451074731E+03  0.22044893180E+03  0.00000000000E+00 0.  1.
         21    1    1    2  505  504  0.28221701430E+02  0.89951566173E+02  0.18974026773E+03  0.21187052151E+03  0.00000000000E+00 0.  1.
         21    1    1    2  506  503 -0.29968792584E+02 -0.10434209752E+03  0.17710492286E+03  0.20772952498E+03  0.00000000000E+00 0.  1.
<scales pt_clust_3="51.69637" pt_clust_4="50.82195" pt_clust_5="98.54074" pt_clust_6="14000.00000"></scales>
<clustering>
<clus scale="   50.822">  1  4  2 -1</clus>
<clus scale="   51.696">  2  3  1 -1</clus>
<clus scale="   98.541">  1  5  2 -1</clus>
<clus scale="   50.822">  1  3  2 -1</clus>
</clustering>
</event>
<event>
 6    0  0.6864448E+002  0.1213402E+03  0.7546771E-02  0.1240902E+00
         21   -1    0    0  503  501  0.00000000000E+00  0.00000000000E+00  0.16225136164E+04  0.16225136164E+04  0.00000000000E+00 0.  1.
         21   -1    0    0  506  502 -0.00000000000E+00 -0.00000000000E+00 -0.34372365009E+03  0.34372365009E+03  0.00000000000E+00 0. -1.
         21    1    1    2  503  505  0.42974863098E+02  0.33067337141E+01  0.20838624802E+03  0.21279709047E+03  0.00000000000E+00 0. -1.
         21    1    1    2  504  501  0.43097090819E+01 -0.11575042814E+03  0.13672525445E+04  0.13721502307E+04  0.00000000000E+00 0.  1.
         21    1    1    2  505  502 -0.43519825056E+02 -0.74526779288E+00  0.17690099502E+02  0.46983722898E+02  0.00000000000E+00 0.  1.
         21    1    1    2  506  504 -0.37647471239E+01  0.11318896221E+03 -0.31453892576E+03  0.33430622236E+03  0.00000000000E+00 0. -1.
<scales pt_clust_3="43.10189" pt_clust_4="14000.00000" pt_clust_5="42.54085" pt_clust_6="121.34016"></scales>
<clustering>
<clus scale="   43.102">  1  3  2 -1</clus>
<clus scale="   42.541">  2  5  1 -1</clus>
<clus scale="  121.340">  2  6  1 -1</clus>
<clus scale="   43.102">  1  3  2 -1</clus>
</clustering>
</event>
<event>
 6    0  0.6549018E+002  0.1193382E+03  0.7546771E-02  0.1244193E+00
         21   -1    0    0  506  501  0.00000000000E+00  0.00000000000E+00  0.14203016231E+04  0.14203016231E+04  0.00000000000E+00 0.  1.
         21   -1    0    0  503  502 -0.00000000000E+00 -0.00000000000E+00 -0.23058588718E+03  0.23058588718E+03  0.00000000000E+00 0.  1.
         21    1    1    2  503  504  0.35779647711E+02 -0.99807876459E+02 -0.18417670742E+03  0.21251554049E+03  0.00000000000E+00 0.  1.
         21    1    1    2  504  505 -0.19269652737E+02  0.77883590667E+02  0.49963285542E+02  0.94517210676E+02  0.00000000000E+00 0. -1.
         21    1    1    2  505  501 -0.99309906650E+01  0.65559730003E+02  0.10537206591E+03  0.12449889577E+03  0.00000000000E+00 0. -1.
         21    1    1    2  506  502 -0.65790043091E+01 -0.43635444212E+02  0.12185570919E+04  0.12193558634E+04  0.00000000000E+00 0.  1.
<scales pt_clust_3="108.77172" pt_clust_4="39.61458" pt_clust_5="39.61458" pt_clust_6="44.12862"></scales>
<clustering>
<clus scale="   44.129">  1  6  2 -1</clus>
<clus scale="   39.615">  4  5 -1 -1</clus>
<clus scale="  108.772">  2  3  1 -1</clus>
<clus scale="   44.129">  1  3  2 -1</clus>
</clustering>
</event>
<event>
 6    0  0.6549018E+002  0.1000248E+03  0.7546771E-02  0.1280244E+00
         21   -1    0    0  504  501  0.00000000000E+00  0.00000000000E+00  0.70447274341E+03  0.70447274341E+03  0.00000000000E+00 0.  1.
         21   -1    0    0  506  502 -0.00000000000E+00 -0.00000000000E+00 -0.51397310343E+03  0.51397310343E+03  0.00000000000E+00 0.  1.
         21    1    1    2  503  502  0.38465195767E+02 -0.23623307090E+02 -0.26743925544E+03  0.27122202579E+03  0.00000000000E+00 0.  1.
         21    1    1    2  504  505  0.65411532923E+01  0.36715924410E+02  0.10305010178E+03  0.10959091782E+03  0.00000000000E+00 0.  1.
         21    1    1    2  505  503 -0.89213661479E+02  0.10706228365E+03 -0.21352487705E+03  0.25497898560E+03  0.00000000000E+00 0.  1.
         21    1    1    2  506  501  0.44207312420E+02 -0.12015490097E+03  0.56841367070E+03  0.58265391764E+03  0.00000000000E+00 0.  1.
<scales pt_clust_3="45.09714" pt_clust_4="37.29404" pt_clust_5="100.02476" pt_clust_6="14000.00000"></scales>
<clustering>
<clus scale="   37.294">  1  4  2 -1</clus>
<clus scale="   45.097">  2  3  1 -1</clus>
<clus scale="  100.025">  2  5  1 -1</clus>
<clus scale="   37.294">  1  3  2 -1</clus>
</clustering>
</event>
<event>
 6    0  0.6549018E+002  0.1577298E+03  0.7546771E-02  0.1191284E+00
         21   -1    0    0  504  501  0.00000000000E+00  0.00000000000E+00  0.22979782796E+03  0.22979782796E+03  0.00000000000E+00 0. -1.
         21   -1    0    0  505  502 -0.00000000000E+00 -0.00000000000E+00 -0.41843147473E+03  0.41843147473E+03  0.00000000000E+00 0. -1.
         21    1    1    2  503  501 -0.20370307891E+02 -0.28542749499E+02  0.78991967258E+02  0.86425510608E+02  0.00000000000E+00 0. -1.
         21    1    1    2  504  506 -0.33560430313E+02 -0.13601236359E+03  0.81885216973E+02  0.16226784737E+03  0.00000000000E+00 0. -1.
         21    1    1    2  505  503  0.32529188609E+02  0.32697232971E+02 -0.16769665544E+03  0.17392361945E+03  0.00000000000E+00 0. -1.
         21    1    1    2  506  502  0.21401549594E+02  0.13185788011E+03 -0.18181417556E+03  0.22561232526E+03  0.00000000000E+00 0. -1.
<scales pt_clust_3="35.06619" pt_clust_4="14000.00000" pt_clust_5="45.38994" pt_clust_6="157.72982"></scales>
<clustering>
<clus scale="   35.066">  1  3  2 -1</clus>
<clus scale="   45.390">  2  5  1 -1</clus>
<clus scale="  157.730">  2  6  1 -1</clus>
<clus scale="   35.066">  1  3  2 -1</clus>
</clustering>
</event>
<event>
 6    0  0.6549018E+002  0.8029496E+02  0.7546771E-02  0.1328216E+00
         21   -1    0    0  504  501  0.00000000000E+00  0.00000000000E+00  0.79369636729E+02  0.79369636729E+02  0.00000000000E+00 0. -1.
         21   -1    0    0  506  502 -0.00000000000E+00 -0.00000000000E+00 -0.92881357441E+03  0.92881357441E+03  0.00000000000E+00 0. -1.
         21    1    1    2  503  502 -0.26595253828E+02  0.88388658327E+02 -0.69238101681E+03  0.69850650311E+03  0.00000000000E+00 0. -1.
         21    1    1    2  504  505  0.13226416967E+02 -0.40599946259E+02  0.12679389028E+02  0.44542795693E+02  0.00000000000E+00 0. -1.
         21    1    1    2  505  503 -0.45414026408E+02 -0.10522288182E+02  0.28765720141E+02  0.54777906116E+02  0.00000000000E+00 0. -1.
         21    1    1    2  506  501  0.58782863270E+02 -0.37266423885E+02 -0.19850803004E+03  0.21035600622E+03  0.00000000000E+00 0. -1.
<scales pt_clust_3="80.29496" pt_clust_4="42.70004" pt_clust_5="55.87913" pt_clust_6="14000.00000"></scales>
<clustering>
<clus scale="   42.700">  1  4  2 -1</clus>
<clus scale="   55.879">  1  5  2 -1</clus>
<clus scale="   80.295">  2  3  1 -1</clus>
<clus scale="   42.700">  1  3  2 -1</clus>
</clustering>
</event>
<event>
 6    0  0.6549018E+002  0.1035294E+03  0.7546771E-02  0.1273045E+00
         21   -1    0    0  504  501  0.00000000000E+00  0.00000000000E+00  0.85968255411E+03  0.85968255411E+03  0.00000000000E+00 0.  1.
         21   -1    0    0  503  502 -0.00000000000E+00 -0.00000000000E+00 -0.15041464139E+03  0.15041464139E+03  0.00000000000E+00 0. -1.
         21    1    1    2  503  506  0.70669743804E+02  0.10902820937E+02 -0.33251703134E+01  0.71583105209E+02  0.00000000000E+00 0. -1.
         21    1    1    2  504  502 -0.67772372865E+02  0.44136968642E+02 -0.76122286277E+02  0.11106650707E+03  0.00000000000E+00 0. -1.
         21    1    1    2  505  501 -0.70212239419E+02 -0.50409452406E+02  0.73798685612E+03  0.74303127206E+03  0.00000000000E+00 0.  1.
         21    1    1    2  506  505  0.67314868480E+02 -0.46303371739E+01  0.50728513192E+02  0.84416311170E+02  0.00000000000E+00 0. -1.
<scales pt_clust_3="53.29112" pt_clust_4="80.87748" pt_clust_5="87.79911" pt_clust_6="53.29112"></scales>
<clustering>
<clus scale="   53.291">  3  6 -1 -1</clus>
<clus scale="   80.877">  2  4  1 -1</clus>
<clus scale="   87.799">  1  5  2 -1</clus>
<clus scale="   87.799">  1  3  2 -1</clus>
</clustering>
</event>
<event>
 6    0  0.6549018E+002  0.1714578E+03  0.7546771E-02  0.1176336E+00
         21   -1    0    0  504  501  0.00000000000E+00  0.00000000000E+00  0.25827857035E+03  0.25827857035E+03  0.00000000000E+00 0. -1.
         21   -1    0    0  505  502 -0.00000000000E+00 -0.00000000000E+00 -0.20968087344E+03  0.20968087344E+03  0.00000000000E+00 0. -1.
         21    1    1    2  503  501 -0.40597115877E+02  0.25582720646E+02  0.79344728578E+02  0.92726411374E+02  0.00000000000E+00 0.  1.
         21    1    1    2  504  506  0.77499935587E+02  0.33254103243E+02 -0.56302418125E+02  0.10140038306E+03  0.00000000000E+00 0. -1.
         21    1    1    2  505  503 -0.13345804729E+03 -0.62407241406E+02  0.74972417407E+02  0.16530752414E+03  0.00000000000E+00 0. -1.
         21    1    1    2  506  502  0.96555227578E+02  0.35704175171E+01 -0.49417030959E+02  0.10852512521E+03  0.00000000000E+00 0. -1.
<scales pt_clust_3="47.98543" pt_clust_4="32.90988" pt_clust_5="167.80023" pt_clust_6="32.90988"></scales>
<clustering>
<clus scale="   32.910">  4  6 -1 -1</clus>
<clus scale="   47.985">  1  3  2 -1</clus>
<clus scale="  167.800">  1  5  2 -1</clus>
<clus scale="   47.985">  1  3  2 -1</clus>
</clustering>
</event>
<event>
 6    0  0.6549018E+002  0.1211053E+03  0.7546771E-02  0.1241285E+00
         21   -1    0    0  504  501  0.00000000000E+00  0.00000000000E+00  0.16638558355E+04  0.16638558355E+04  0.00000000000E+00 0. -1.
         21   -1    0    0  505  502 -0.00000000000E+00 -0.00000000000E+00 -0.16590679000E+03  0.16590679000E+03  0.00000000000E+00 0. -1.
         21    1    1    2  503  501 -0.66621614795E+02 -0.55808582430E+02  0.83935858667E+03  0.84384588312E+03  0.00000000000E+00 0. -1.
         21    1    1    2  504  506  0.10168141659E+03 -0.64148935426E+02  0.78637790689E+03  0.79551518454E+03  0.00000000000E+00 0. -1.
         21    1    1    2  505  503 -0.16479017656E+02  0.38013864197E+02 -0.51640113639E+01  0.41752591626E+02  0.00000000000E+00 0. -1.
         21    1    1    2  506  502 -0.18580784135E+02  0.81943653659E+02 -0.12262343673E+03  0.14864896619E+03  0.00000000000E+00 0. -1.
<scales pt_clust_3="86.72495" pt_clust_4="14000.00000" pt_clust_5="41.43202" pt_clust_6="121.10529"></scales>
<clustering>
<clus scale="   41.432">  2  5  1 -1</clus>
<clus scale="   86.725">  1  3  2 -1</clus>
<clus scale="  121.105">  2  6  1 -1</clus>
<clus scale="   86.725">  1  3  2 -1</clus>
</clustering>
</event>
<event>
 6    0  0.7780957E+002  0.1119401E+03  0.7546771E-02  0.1257019E+00
         21   -1    0    0  504  501  0.00000000000E+00  0.00000000000E+00  0.68446699398E+03  0.68446699398E+03  0.00000000000E+00 0.  1.
         21   -1    0    0  505  502 -0.00000000000E+00 -0.00000000000E+00 -0.20031808754E+03  0.20031808754E+03  0.00000000000E+00 0. -1.
         21    1    1    2  503  501 -0.33659879074E+02 -0.25734851410E+02  0.50385924752E+02  0.65833209321E+02  0.00000000000E+00 0.  1.
         21    1    1    2  504  506  0.10106402191E+03 -0.66364947856E+02  0.59035745545E+03  0.60261112505E+03  0.00000000000E+00 0.  1.
         21    1    1    2  505  503 -0.28833748499E+02  0.15921920261E+02  0.52498927592E+01  0.33353470153E+02  0.00000000000E+00 0.  1.
         21    1    1    2  506  502 -0.38570394339E+02  0.76177879005E+02 -0.16184436652E+03  0.18298727700E+03  0.00000000000E+00 0. -1.
<scales pt_clust_3="42.93766" pt_clust_4="111.94014" pt_clust_5="32.93771" pt_clust_6="14000.00000"></scales>
<clustering>
<clus scale="   32.938">  2  5  1 -1</clus>
<clus scale="   42.938">  1  3  2 -1</clus>
<clus scale="  111.940">  1  4  2 -1</clus>
<clus scale="   42.938">  1  3  2 -1</clus>
</clustering>
</event>
<event>
 6    0  0.6549018E+002  0.1577611E+03  0.7546771E-02  0.1191248E+00
         21   -1    0    0  502  501  0.00000000000E+00  0.00000000000E+00  0.19497606676E+03  0.19497606676E+03  0.00000000000E+00 0. -1.
         21   -1    0    0  505  502 -0.00000000000E+00 -0.00000000000E+00 -0.60233810573E+03  0.60233810573E+03  0.00000000000E+00 0. -1.
         21    1    1    2  503  501 -0.62128787659E+02  0.64049221532E+02  0.47043665071E+02  0.10087316520E+03  0.00000000000E+00 0. -1.
         21    1    1    2  504  506  0.10804063672E+03 -0.58784470625E+02 -0.50658535758E+03  0.52130328762E+03  0.00000000000E+00 0. -1.
         21    1    1    2  505  504  0.48685541852E+01 -0.34291969420E+02 -0.47964770344E+02  0.59163005169E+02  0.00000000000E+00 0. -1.
         21    1    1    2  506  503 -0.50780403243E+02  0.29027218513E+02  0.10014442388E+03  0.11597471449E+03  0.00000000000E+00 0. -1.
<scales pt_clust_3="51.12533" pt_clust_4="144.71216" pt_clust_5="34.63585" pt_clust_6="51.12533"></scales>
<clustering>
<clus scale="   34.636">  2  5  1 -1</clus>
<clus scale="   51.125">  3  6 -1 -1</clus>
<clus scale="  144.712">  2  4  1 -1</clus>
<clus scale="  157.761">  1  3  2 -1</clus>
</clustering>
</event>
<event>
 6    0  0.6549018E+002  0.7673120E+02  0.7546771E-02  0.1338592E+00
         21   -1    0    0  506  501  0.00000000000E+00  0.00000000000E+00  0.18361830806E+03  0.18361830806E+03  0.00000000000E+00 0.  1.
         21   -1    0    0  503  502 -0.00000000000E+00 -0.00000000000E+00 -0.16014964893E+03  0.16014964893E+03  0.00000000000E+00 0.  1.
         21    1    1    2  503  504  0.84214356333E+02 -0.42147983205E+02  0.95276331183E+01  0.94653505448E+02  0.00000000000E+00 0.  1.
         21    1    1    2  504  501  0.34389782626E+02  0.71255466759E+02  0.50540506271E+02  0.93884724350E+02  0.00000000000E+00 0.  1.
         21    1    1    2  505  502 -0.56893205692E+02  0.18712347476E+02 -0.47448635262E+02  0.76409173469E+02  0.00000000000E+00 0.  1.
         21    1    1    2  506  505 -0.61710933267E+02 -0.47819831030E+02  0.10849155010E+02  0.78820553721E+02  0.00000000000E+00 0.  1.
<scales pt_clust_3="68.60097" pt_clust_4="14000.00000" pt_clust_5="59.89148" pt_clust_6="76.73120"></scales>
<clustering>
<clus scale="   59.891">  2  5  1 -1</clus>
<clus scale="   68.601">  2  3  1 -1</clus>
<clus scale="   76.731">  2  6  1 -1</clus>
<clus scale="   76.731">  1  3  2 -1</clus>
</clustering>
</event>
<event>
 6    0  0.6549018E+002  0.1803961E+03  0.7546771E-02  0.1167420E+00
         21   -1    0    0  503  501  0.00000000000E+00  0.00000000000E+00  0.28603652286E+03  0.28603652286E+03  0.00000000000E+00 0.  1.
         21   -1    0    0  506  502 -0.00000000000E+00 -0.00000000000E+00 -0.14419837000E+03  0.14419837000E+03  0.00000000000E+00 0.  1.
         21    1    1    2  503  505  0.55788037101E+02 -0.55324879464E+02  0.76801531879E+02  0.10987093642E+03  0.00000000000E+00 0.  1.
         21    1    1    2  504  501 -0.33953381118E+02 -0.21034673151E+02  0.41276376263E+02  0.57437172644E+02  0.00000000000E+00 0.  1.
         21    1    1    2  505  502  0.82770528625E+02 -0.50708775971E+02  0.13733946902E+02  0.98035512275E+02  0.00000000000E+00 0.  1.
         21    1    1    2  506  504 -0.10460518461E+03  0.12706832859E+03  0.10026297812E+02  0.16489127152E+03  0.00000000000E+00 0.  1.
<scales pt_clust_3="61.33745" pt_clust_4="39.94108" pt_clust_5="61.33745" pt_clust_6="167.20035"></scales>
<clustering>
<clus scale="   39.941">  1  4  2 -1</clus>
<clus scale="   61.337">  3  5 -1 -1</clus>
<clus scale="  167.200">  2  6  1 -1</clus>
<clus scale="   39.941">  1  3  2 -1</clus>
</clustering>
</event>
<event>
 6    0  0.6549018E+002  0.1253776E+03  0.7546771E-02  0.1234480E+00
         21   -1    0    0  505  501  0.00000000000E+00  0.00000000000E+00  0.40534718794E+03  0.40534718794E+03  0.00000000000E+00 0.  1.
         21   -1    0    0  504  502 -0.00000000000E+00 -0.00000000000E+00 -0.41258044362E+03  0.41258044362E+03  0.00000000000E+00 0. -1.
         21    1    1    2  503  501 -0.46510729947E+02 -0.13109504879E+02  0.19533792695E+02  0.52121743787E+02  0.00000000000E+00 0.  1.
         21    1    1    2  504  506 -0.28560320572E+01  0.34734058799E+02 -0.11733860273E+03  0.12240489962E+03  0.00000000000E+00 0. -1.
         21    1    1    2  505  502 -0.24162790209E+02 -0.75637936113E+02  0.35494977571E+03  0.36372280804E+03  0.00000000000E+00 0.  1.
         21    1    1    2  506  503  0.73529552213E+02  0.54013382193E+02 -0.26437822136E+03  0.27967818012E+03  0.00000000000E+00 0. -1.
<scales pt_clust_3="48.32295" pt_clust_4="34.36850" pt_clust_5="112.37142" pt_clust_6="34.36850"></scales>
<clustering>
<clus scale="   34.369">  4  6 -1 -1</clus>
<clus scale="   48.323">  1  3  2 -1</clus>
<clus scale="  112.371">  1  5  2 -1</clus>
<clus scale="   48.323">  1  3  2 -1</clus>
</clustering>
</event>
<event>
 6    0  0.6549018E+002  0.1300385E+03  0.7546771E-02  0.1227399E+00
         21   -1    0    0  504  501  0.00000000000E+00  0.00000000000E+00  0.30538633163E+03  0.30538633163E+03  0.00000000000E+00 0. -1.
         21   -1    0    0  503  502 -0.00000000000E+00 -0.00000000000E+00 -0.34492979079E+03  0.34492979079E+03  0.00000000000E+00 0. -1.
         21    1    1    2  503  506  0.55007020424E+01  0.83077542696E+02 -0.23523250132E+03  0.24953249388E+03  0.00000000000E+00 0. -1.
         21    1    1    2  504  502 -0.74600337023E+02 -0.13630835391E+03  0.12665131912E+03  0.20046379789E+03  0.00000000000E+00 0. -1.
         21    1    1    2  505  501  0.30879433723E+02 -0.22771820818E+02  0.10208325623E+03  0.10905542836E+03  0.00000000000E+00 0. -1.
         21    1    1    2  506  505  0.38220201258E+02  0.76002632034E+02 -0.33045533200E+02  0.91264402287E+02  0.00000000000E+00 0. -1.
<scales pt_clust_3="82.52749" pt_clust_4="130.03849" pt_clust_5="38.36789" pt_clust_6="14000.00000"></scales>
<clustering>
<clus scale="   38.368">  1  5  2 -1</clus>
<clus scale="   82.527">  2  3  1 -1</clus>
<clus scale="  130.038">  1  4  2 -1</clus>
<clus scale="   38.368">  1  3  2 -1</clus>
</clustering>
</event>
<event>
 6    0  0.6549018E+002  0.1048027E+03  0.7546771E-02  0.1270509E+00
         21   -1    0    0  506  501  0.00000000000E+00  0.00000000000E+00  0.89734630019E+03  0.89734630019E+03  0.00000000000E+00 0. -1.
         21   -1    0    0  504  502 -0.00000000000E+00 -0.00000000000E+00 -0.50729266546E+02  0.50729266546E+02  0.00000000000E+00 0. -1.
         21    1    1    2  503  502 -0.60728376480E+02  0.28076444953E+02  0.40607116512E+02  0.78263403852E+02  0.00000000000E+00 0. -1.
         21    1    1    2  504  501 -0.58964547431E+01 -0.96624323276E+02  0.42856006548E+03  0.43935720974E+03  0.00000000000E+00 0. -1.
         21    1    1    2  505  503 -0.24971025982E+02  0.32893933570E+02  0.92127000570E+00  0.41308736881E+02  0.00000000000E+00 0. -1.
         21    1    1    2  506  505  0.91595857205E+02  0.35653944753E+02  0.37652858164E+03  0.38914621626E+03  0.00000000000E+00 0. -1.
<scales pt_clust_3="30.54132" pt_clust_4="96.80407" pt_clust_5="30.54132" pt_clust_6="97.32668"></scales>
<clustering>
<clus scale="   30.541">  3  5 -1 -1</clus>
<clus scale="   96.804">  1  4  2 -1</clus>
<clus scale="   97.327">  1  6  2 -1</clus>
<clus scale="   96.804">  1  3  2 -1</clus>
</clustering>
</event>
<event>
 6    0  0.6549018E+002  0.7470980E+02  0.7546771E-02  0.1344772E+00
         21   -1    0    0  503  501  0.00000000000E+00  0.00000000000E+00  0.17136157452E+03  0.17136157452E+03  0.00000000000E+00 0. -1.
         21   -1    0    0  504  502 -0.00000000000E+00 -0.00000000000E+00 -0.33721027133E+04  0.33721027133E+04  0.00000000000E+00 0.  1.
         21    1    1    2  503  506  0.74238507196E+02  0.76259547571E+01  0.15538204511E+03  0.17237485629E+03  0.00000000000E+00 0. -1.
         21    1    1    2  504  505  0.32278617206E+02  0.96810407003E+01 -0.29144557897E+03  0.29338738415E+03  0.00000000000E+00 0.  1.
         21    1    1    2  505  501 -0.85070622652E+02  0.59943434510E+02 -0.45324151082E+03  0.46503558284E+03  0.00000000000E+00 0. -1.
         21    1    1    2  506  502 -0.21446501750E+02 -0.77250429967E+02 -0.26114360941E+04  0.26126664645E+04  0.00000000000E+00 0.  1.
<scales pt_clust_3="74.70980" pt_clust_4="33.69913" pt_clust_5="14000.00000" pt_clust_6="69.29368"></scales>
<clustering>
<clus scale="   33.699">  2  4  1 -1</clus>
<clus scale="   69.294">  2  6  1 -1</clus>
<clus scale="   74.710">  1  3  2 -1</clus>
<clus scale="   74.710">  1  3  2 -1</clus>
</clustering>
</event>
<event>
 6    0  0.6549018E+002  0.8245786E+02  0.7546771E-02  0.1322218E+00
         21   -1    0    0  503  501  0.00000000000E+00  0.00000000000E+00  0.17004971592E+03  0.17004971592E+03  0.00000000000E+00 0.  1.
         21   -1    0    0  505  502 -0.00000000000E+00 -0.00000000000E+00 -0.29785611651E+03  0.29785611651E+03  0.00000000000E+00 0. -1.
         21    1    1    2  503  502  0.43072083227E+02 -0.13213716201E+02 -0.20554757899E+03  0.21042721754E+03  0.00000000000E+00 0. -1.
         21    1    1    2  504  501  0.55800418704E+02 -0.13063233331E+02  0.39350922010E+02  0.69518557635E+02  0.00000000000E+00 0.  1.
         21    1    1    2  505  506  0.37178341011E+02  0.10598723418E+01 -0.14371999828E+02  0.39873634757E+02  0.00000000000E+00 0. -1.
         21    1    1    2  506  504 -0.13605084294E+03  0.25217077190E+02  0.52762256220E+02  0.14808642250E+03  0.00000000000E+00 0.  1.
<scales pt_clust_3="82.45786" pt_clust_4="59.31487" pt_clust_5="37.19345" pt_clust_6="14000.00000"></scales>
<clustering>
<clus scale="   37.193">  2  5  1 -1</clus>
<clus scale="   59.315">  1  4  2 -1</clus>
<clus scale="   82.458">  2  3  1 -1</clus>
<clus scale="   59.315">  1  3  2 -1</clus>
</clustering>
</event>
<event>
 6    0  0.6549018E+002  0.9147942E+02  0.7546771E-02  0.1299308E+00
         21   -1    0    0  505  501  0.00000000000E+00  0.00000000000E+00  0.15422109480E+03  0.15422109480E+03  0.00000000000E+00 0. -1.
         21   -1    0    0  503  502 -0.00000000000E+00 -0.00000000000E+00 -0.12224229659E+04  0.12224229659E+04  0.00000000000E+00 0. -1.
         21    1    1    2  503  506  0.19857502003E+02  0.46576647532E+02 -0.24140774333E+03  0.24666050154E+03  0.00000000000E+00 0. -1.
         21    1    1    2  504  502  0.12338304994E+02 -0.54224362717E+02 -0.90421072625E+03  0.90591917561E+03  0.00000000000E+00 0. -1.
         21    1    1    2  505  504 -0.92497541165E+02  0.38214966774E+02  0.11025554011E+03  0.14890420723E+03  0.00000000000E+00 0. -1.
         21    1    1    2  506  501  0.60301734168E+02 -0.30567251589E+02 -0.32838941610E+02  0.75160176286E+02  0.00000000000E+00 0.  1.
<scales pt_clust_3="50.63304" pt_clust_4="32.66527" pt_clust_5="91.47942" pt_clust_6="14000.00000"></scales>
<clustering>
<clus scale="   50.633">  2  3  1 -1</clus>
<clus scale="   32.665">  2  4  1 -1</clus>
<clus scale="   91.479">  1  5  2 -1</clus>
<clus scale="   91.479">  1  3  2 -1</clus>
</clustering>
</event>
<event>
 6    0  0.6549018E+002  0.1888735E+03  0.7546771E-02  0.1159481E+00
         21   -1    0    0  505  501  0.00000000000E+00  0.00000000000E+00  0.34034568387E+03  0.34034568387E+03  0.00000000000E+00 0. -1.
         21   -1    0    0  506  502 -0.00000000000E+00 -0.00000000000E+00 -0.30133295195E+03  0.30133295195E+03  0.00000000000E+00 0. -1.
         21    1    1    2  503  504 -0.61932774742E+01 -0.50443660305E+02 -0.12534818584E+02  0.52345403120E+02  0.00000000000E+00 0. -1.
         21    1    1    2  504  502 -0.50228687506E+02 -0.13032766017E+03 -0.20219552294E+03  0.24574631137E+03  0.00000000000E+00 0. -1.
         21    1    1    2  505  503  0.14221603168E+02  0.64297746129E+02  0.19626783981E+03  0.20702057651E+03  0.00000000000E+00 0. -1.
         21    1    1    2  506  501  0.42200361811E+02  0.11647357434E+03  0.57475233639E+02  0.13656634483E+03  0.00000000000E+00 0. -1.
<scales pt_clust_3="50.06277" pt_clust_4="50.06277" pt_clust_5="65.85176" pt_clust_6="169.66250"></scales>
<clustering>
<clus scale="   50.063">  3  4 -1 -1</clus>
<clus scale="   65.852">  1  5  2 -1</clus>
<clus scale="  169.662">  1  6  2 -1</clus>
<clus scale="   65.852">  1  3  2 -1</clus>
</clustering>
</event>
<event>
 6    0  0.6549018E+002  0.9138194E+02  0.7546771E-02  0.1299539E+00
         21   -1    0    0  506  501  0.00000000000E+00  0.00000000000E+00  0.28665702101E+03  0.28665702101E+03  0.00000000000E+00 0. -1.
         21   -1    0    0  505  502 -0.00000000000E+00 -0.00000000000E+00 -0.27428970896E+03  0.27428970896E+03  0.00000000000E+00 0. -1.
         21    1    1    2  503  501 -0.27774878393E+02  0.12064660684E+02  0.12341947008E+03  0.12708015385E+03  0.00000000000E+00 0. -1.
         21    1    1    2  504  503  0.97440473647E+02  0.47893372599E+02  0.10271704163E+03  0.14946307800E+03  0.00000000000E+00 0. -1.
         21    1    1    2  505  504  0.25783017702E+02 -0.78607874201E+02 -0.13889792555E+03  0.16166816511E+03  0.00000000000E+00 0. -1.
         21    1    1    2  506  502 -0.95448612957E+02  0.18649840919E+02 -0.74871274112E+02  0.12273533301E+03  0.00000000000E+00 0. -1.
<scales pt_clust_3="30.28201" pt_clust_4="91.38194" pt_clust_5="81.32471" pt_clust_6="14000.00000"></scales>
<clustering>
<clus scale="   30.282">  1  3  2 -1</clus>
<clus scale="   81.325">  2  5  1 -1</clus>
<clus scale="   91.382">  1  4  2 -1</clus>
<clus scale="   30.282">  1  3  2 -1</clus>
</clustering>
</event>
<event>
 6    0  0.6549018E+002  0.1017239E+03  0.7546771E-02  0.1276712E+00
         21   -1    0    0  506  501  0.00000000000E+00  0.00000000000E+00  0.38691038504E+03  0.38691038504E+03  0.00000000000E+00 0.  1.
         21   -1    0    0  505  502 -0.00000000000E+00 -0.00000000000E+00 -0.20199935262E+03  0.20199935262E+03  0.00000000000E+00 0.  1.
         21    1    1    2  503  502  0.34761491732E+02 -0.32744468801E+02 -0.80697048946E+02  0.93768732812E+02  0.00000000000E+00 0.  1.
         21    1    1    2  504  503  0.22563124917E+02 -0.44608054351E+02 -0.39613444453E+02  0.63782427834E+02  0.00000000000E+00 0.  1.
         21    1    1    2  505  501  0.63402311648E+02  0.80827974036E+02  0.29237897903E+03  0.30990076136E+03  0.00000000000E+00 0.  1.
         21    1    1    2  506  504 -0.12072692830E+03 -0.34754508843E+01  0.12842546784E+02  0.12145781565E+03  0.00000000000E+00 0.  1.
<scales pt_clust_3="32.09412" pt_clust_4="101.72391" pt_clust_5="100.02309" pt_clust_6="14000.00000"></scales>
<clustering>
<clus scale="   32.094">  3  4 -1 -1</clus>
<clus scale="  101.724">  2  3  1 -1</clus>
<clus scale="  100.023">  1  5  2 -1</clus>
<clus scale="  100.023">  1  3  2 -1</clus>
</clustering>
</event>
<event>
 6    0  0.6549018E+002  0.7610821E+02  0.7546771E-02  0.1340473E+00
         21   -1    0    0  504  501  0.00000000000E+00  0.00000000000E+00  0.14324036032E+03  0.14324036032E+03  0.00000000000E+00 0.  1.
         21   -1    0    0  503  502 -0.00000000000E+00 -0.00000000000E+00 -0.67567174500E+03  0.67567174500E+03  0.00000000000E+00 0. -1.
         21    1    1    2  503  505  0.70904130973E+01  0.42829419413E+02 -0.11702383853E+03  0.12481671326E+03  0.00000000000E+00 0.  1.
         21    1    1    2  504  506  0.74214392616E+01  0.65760845077E+02  0.69938930005E+02  0.96286138339E+02  0.00000000000E+00 0.  1.
         21    1    1    2  505  501 -0.57476047942E+02 -0.12283193484E+03 -0.28310737578E+02  0.13853764169E+03  0.00000000000E+00 0.  1.
         21    1    1    2  506  502  0.42964195583E+02  0.14241670347E+02 -0.45703573858E+03  0.45927161203E+03  0.00000000000E+00 0. -1.
<scales pt_clust_3="43.41236" pt_clust_4="67.20785" pt_clust_5="14000.00000" pt_clust_6="76.10821"></scales>
<clustering>
<clus scale="   43.412">  2  3  1 -1</clus>
<clus scale="   67.208">  1  4  2 -1</clus>
<clus scale="   76.108">  2  6  1 -1</clus>
<clus scale="   67.208">  1  3  2 -1</clus>
</clustering>
</event>
<event>
 6    0  0.6549018E+002  0.1163128E+03  0.7546771E-02  0.1249307E+00
         21   -1    0    0  504  501  0.00000000000E+00  0.00000000000E+00  0.12438361150E+03  0.12438361150E+03  0.00000000000E+00 0. -1.
         21   -1    0    0  506  502 -0.00000000000E+00 -0.00000000000E+00 -0.94616830065E+03  0.94616830065E+03  0.00000000000E+00 0.  1.
         21    1    1    2  503  501  0.73981322296E+02  0.11222857621E+02  0.69773342365E+02  0.10231083954E+03  0.00000000000E+00 0. -1.
         21    1    1    2  504  502 -0.37457178336E+02 -0.11580345672E+02 -0.15614733998E+03  0.16099421231E+03  0.00000000000E+00 0. -1.
         21    1    1    2  505  503  0.47092615998E+02 -0.61426589678E+02 -0.14338438361E+02  0.78718048855E+02  0.00000000000E+00 0. -1.
         21    1    1    2  506  505 -0.83616759958E+02  0.61784077728E+02 -0.72107225317E+03  0.72852881144E+03  0.00000000000E+00 0.  1.
<scales pt_clust_3="74.02698" pt_clust_4="39.20644" pt_clust_5="14000.00000" pt_clust_6="116.31283"></scales>
<clustering>
<clus scale="   39.206">  2  4  1 -1</clus>
<clus scale="   74.027">  1  3  2 -1</clus>
<clus scale="  116.313">  2  6  1 -1</clus>
<clus scale="   74.027">  1  3  2 -1</clus>
</clustering>
</event>
<event>
 6    0  0.6549018E+002  0.1946144E+03  0.7546771E-02  0.1154364E+00
         21   -1    0    0  505  501  0.00000000000E+00  0.00000000000E+00  0.77704740216E+02  0.77704740216E+02  0.00000000000E+00 0. -1.
         21   -1    0    0  504  502 -0.00000000000E+00 -0.00000000000E+00 -0.11648359927E+04  0.11648359927E+04  0.00000000000E+00 0.  1.
         21    1    1    2  503  506 -0.49036772147E+02 -0.31278794064E+02 -0.68531017348E+02  0.89885862734E+02  0.00000000000E+00 0. -1.
         21    1    1    2  504  503  0.60626116654E+02  0.64471791772E+02 -0.64941132978E+03  0.65541377252E+03  0.00000000000E+00 0.  1.
         21    1    1    2  505  502  0.44171983496E+02  0.11992781100E+03 -0.28820102830E+03  0.31526762709E+03  0.00000000000E+00 0. -1.
         21    1    1    2  506  501 -0.55761328002E+02 -0.15312080871E+03 -0.80987877031E+02  0.18197347055E+03  0.00000000000E+00 0. -1.
<scales pt_clust_3="48.40927" pt_clust_4="88.49937" pt_clust_5="176.94353" pt_clust_6="48.40927"></scales>
<clustering>
<clus scale="   48.409">  3  6 -1 -1</clus>
<clus scale="   88.499">  2  4  1 -1</clus>
<clus scale="  176.944">  2  5  1 -1</clus>
<clus scale="  194.614">  1  3  2 -1</clus>
</clustering>
</event>
<event>
 6    0  0.6549018E+002  0.9917500E+02  0.7546771E-02  0.1282040E+00
         21   -1    0    0  506  501  0.00000000000E+00  0.00000000000E+00  0.16418124835E+04  0.16418124835E+04  0.00000000000E+00 0. -1.
         21   -1    0    0  505  502 -0.00000000000E+00 -0.00000000000E+00 -0.87143005616E+02  0.87143005616E+02  0.00000000000E+00 0. -1.
         21    1    1    2  503  502 -0.65331031382E+01  0.95682139493E+02 -0.37482821858E+02  0.10296948669E+03  0.00000000000E+00 0. -1.
         21    1    1    2  504  501 -0.40131512483E+02  0.72997453745E+02  0.68898753251E+03  0.69400503349E+03  0.00000000000E+00 0. -1.
         21    1    1    2  505  504 -0.84557134960E+01 -0.17327157700E+03  0.72275108193E+03  0.74327899534E+03  0.00000000000E+00 0. -1.
         21    1    1    2  506  503  0.55120329117E+02  0.45919837600E+01  0.18041368531E+03  0.18870197361E+03  0.00000000000E+00 0. -1.
<scales pt_clust_3="14000.00000" pt_clust_4="76.46451" pt_clust_5="99.17500" pt_clust_6="55.31127"></scales>
<clustering>
<clus scale="   55.311">  1  6  2 -1</clus>
<clus scale="   76.465">  1  4  2 -1</clus>
<clus scale="   99.175">  1  5  2 -1</clus>
<clus scale="   55.311">  1  3  2 -1</clus>
</clustering>
</event>
<event>
 6    0  0.6549018E+002  0.8685612E+02  0.7546771E-02  0.1310649E+00
         21   -1    0    0  504  501  0.00000000000E+00  0.00000000000E+00  0.83637376268E+03  0.83637376268E+03  0.00000000000E+00 0. -1.
         21   -1    0    0  506  502 -0.00000000000E+00 -0.00000000000E+00 -0.70776042304E+03  0.70776042304E+03  0.00000000000E+00 0. -1.
         21    1    1    2  503  502  0.29514405775E+02 -0.23225370951E+02 -0.52182288552E+03  0.52317266926E+03  0.00000000000E+00 0. -1.
         21    1    1    2  504  503  0.48456210581E+02  0.18971331296E+01 -0.12352849310E+03  0.13270603628E+03  0.00000000000E+00 0. -1.
         21    1    1    2  505  501  0.75436266832E+00  0.87675561882E+02  0.78020125006E+03  0.78511245297E+03  0.00000000000E+00 0. -1.
         21    1    1    2  506  505 -0.78724979024E+02 -0.66347324061E+02 -0.62365318006E+01  0.10314302721E+03  0.00000000000E+00 0. -1.
<scales pt_clust_3="37.55686" pt_clust_4="70.30825" pt_clust_5="86.85612" pt_clust_6="14000.00000"></scales>
<clustering>
<clus scale="   37.557">  2  3  1 -1</clus>
<clus scale="   70.308">  2  4  1 -1</clus>
<clus scale="   86.856">  1  5  2 -1</clus>
<clus scale="   86.856">  1  3  2 -1</clus>
</clustering>
</event>
<event>
 6    0  0.6549018E+002  0.1737007E+03  0.7546771E-02  0.1174043E+00
         21   -1    0    0  506  501  0.00000000000E+00  0.00000000000E+00  0.26676139630E+03  0.26676139630E+03  0.00000000000E+00 0.  1.
         21   -1    0    0  503  502 -0.00000000000E+00 -0.00000000000E+00 -0.21628985122E+03  0.21628985122E+03  0.00000000000E+00 0. -1.
         21    1    1    2  503  504 -0.26959570231E+02 -0.48041930753E+02  0.10018891017E+02  0.55993068453E+02  0.00000000000E+00 0. -1.
         21    1    1    2  504  505 -0.92193458762E+02 -0.38153214688E+02 -0.18346687045E+02  0.10144901456E+03  0.00000000000E+00 0. -1.
         21    1    1    2  505  501 -0.14191331030E+02 -0.33833207054E+02  0.12812312773E+03  0.13327271152E+03  0.00000000000E+00 0.  1.
         21    1    1    2  506  502  0.13334436002E+03  0.12002835250E+03 -0.69323786629E+02  0.19233645298E+03  0.00000000000E+00 0.  1.
<scales pt_clust_3="42.77841" pt_clust_4="42.77841" pt_clust_5="36.68896" pt_clust_6="164.56101"></scales>
<clustering>
<clus scale="   36.689">  1  5  2 -1</clus>
<clus scale="   42.778">  3  4 -1 -1</clus>
<clus scale="  164.561">  2  6  1 -1</clus>
<clus scale="   36.689">  1  3  2 -1</clus>
</clustering>
</event>
<event>
 6    0  0.6549018E+002  0.1235299E+03  0.7546771E-02  0.1237385E+00
         21   -1    0    0  506  501  0.00000000000E+00  0.00000000000E+00  0.20262945629E+04  0.20262945629E+04  0.00000000000E+00 0.  1.
         21   -1    0    0  505  502 -0.00000000000E+00 -0.00000000000E+00 -0.28128564302E+02  0.28128564302E+02  0.00000000000E+00 0.  1.
         21    1    1    2  503  502 -0.22851603478E+01 -0.48100132362E+02  0.97395726747E+02  0.10864976889E+03  0.00000000000E+00 0.  1.
         21    1    1    2  504  501  0.12910431762E+03  0.52819504623E+01  0.14834446877E+04  0.14890614377E+04  0.00000000000E+00 0.  1.
         21    1    1    2  505  504 -0.26669801256E+02  0.75326061844E+02  0.16650027865E+03  0.18468252945E+03  0.00000000000E+00 0.  1.
         21    1    1    2  506  503 -0.10014935601E+03 -0.32507879944E+02  0.25082530548E+03  0.27202939113E+03  0.00000000000E+00 0.  1.
<scales pt_clust_3="48.15438" pt_clust_4="14000.00000" pt_clust_5="62.33259" pt_clust_6="123.52991"></scales>
<clustering>
<clus scale="   48.154">  2  3  1 -1</clus>
<clus scale="   62.333">  2  5  1 -1</clus>
<clus scale="  123.530">  2  6  1 -1</clus>
<clus scale="  123.530">  1  3  2 -1</clus>
</clustering>
</event>
<event>
 6    0  0.6549018E+002  0.1715514E+03  0.7546771E-02  0.1176240E+00
         21   -1    0    0  504  501  0.00000000000E+00  0.00000000000E+00  0.21563896464E+03  0.21563896464E+03  0.00000000000E+00 0.  1.
         21   -1    0    0  503  502 -0.00000000000E+00 -0.00000000000E+00 -0.24073652157E+04  0.24073652157E+04  0.00000000000E+00 0. -1.
         21    1    1    2  503  505  0.27858390691E+02 -0.39428088615E+02 -0.18574658896E+04  0.18580931610E+04  0.00000000000E+00 0. -1.
         21    1    1    2  504  502  0.38454847531E+01  0.38922793325E+02 -0.20489568976E+03  0.20859533857E+03  0.00000000000E+00 0. -1.
         21    1    1    2  505  506  0.11553831015E+03 -0.93357249593E+02 -0.28565731219E+03  0.32197014950E+03  0.00000000000E+00 0. -1.
         21    1    1    2  506  501 -0.14724218559E+03  0.93862544882E+02  0.15629264046E+03  0.23434553124E+03  0.00000000000E+00 0.  1.
<scales pt_clust_3="31.79090" pt_clust_4="39.11229" pt_clust_5="14000.00000" pt_clust_6="171.55143"></scales>
<clustering>
<clus scale="   39.112">  2  4  1 -1</clus>
<clus scale="   31.791">  2  3  1 -1</clus>
<clus scale="  171.551">  1  6  2 -1</clus>
<clus scale="  171.551">  1  3  2 -1</clus>
</clustering>
</event>
<event>
 6    0  0.6549018E+002  0.1240561E+03  0.7546771E-02  0.1236552E+00
         21   -1    0    0  504  501  0.00000000000E+00  0.00000000000E+00  0.34389607408E+03  0.34389607408E+03  0.00000000000E+00 0. -1.
         21   -1    0    0  503  502 -0.00000000000E+00 -0.00000000000E+00 -0.13022398978E+04  0.13022398978E+04  0.00000000000E+00 0.  1.
         21    1    1    2  503  501 -0.35240698027E+02 -0.41178801887E+02 -0.98495362648E+02  0.11242302694E+03  0.00000000000E+00 0.  1.
         21    1    1    2  504  506 -0.24008122862E+02 -0.66218696730E+02  0.18244825240E+03  0.19557267335E+03  0.00000000000E+00 0. -1.
         21    1    1    2  505  502  0.15972155157E+03  0.54871251589E+02 -0.11614518755E+04  0.11736661738E+04  0.00000000000E+00 0.  1.
         21    1    1    2  506  505 -0.10047273068E+03  0.52526247029E+02  0.11915516201E+03  0.16447409787E+03  0.00000000000E+00 0. -1.
<scales pt_clust_3="54.19964" pt_clust_4="70.71475" pt_clust_5="124.05613" pt_clust_6="14000.00000"></scales>
<clustering>
<clus scale="   54.200">  2  3  1 -1</clus>
<clus scale="   70.715">  1  4  2 -1</clus>
<clus scale="  124.056">  2  5  1 -1</clus>
<clus scale="   70.715">  1  3  2 -1</clus>
</clustering>
</event>
<event>
 6    0  0.6549018E+002  0.1029769E+03  0.7546771E-02  0.1274158E+00
         21   -1    0    0  504  501  0.00000000000E+00  0.00000000000E+00  0.36157380448E+03  0.36157380448E+03  0.00000000000E+00 0.  1.
         21   -1    0    0  506  502 -0.00000000000E+00 -0.00000000000E+00 -0.14427016526E+03  0.14427016526E+03  0.00000000000E+00 0.  1.
         21    1    1    2  503  501  0.11876825949E+03 -0.23975877978E+02  0.27534723891E+03  0.30082693390E+03  0.00000000000E+00 0.  1.
         21    1    1    2  504  505 -0.59292139348E+02  0.14518924182E+02  0.22806446908E+01  0.61086482041E+02  0.00000000000E+00 0.  1.
         21    1    1    2  505  502 -0.64818092230E+02 -0.33270932985E+02 -0.68612018240E+02  0.10007971377E+03  0.00000000000E+00 0.  1.
         21    1    1    2  506  503  0.53419720887E+01  0.42727886781E+02  0.82877738590E+01  0.43850840016E+02  0.00000000000E+00 0. -1.
<scales pt_clust_3="14000.00000" pt_clust_4="102.97694" pt_clust_5="61.44206" pt_clust_6="43.06053"></scales>
<clustering>
<clus scale="   43.061">  2  6  1 -1</clus>
<clus scale="   61.442">  2  5  1 -1</clus>
<clus scale="  102.977">  2  4  1 -1</clus>
<clus scale="  102.977">  1  3  2 -1</clus>
</clustering>
</event>
<event>
 6    0  0.6549018E+002  0.9763312E+02  0.7546771E-02  0.1285353E+00
         21   -1    0    0  505  501  0.00000000000E+00  0.00000000000E+00  0.14982139306E+03  0.14982139306E+03  0.00000000000E+00 0. -1.
         21   -1    0    0  506  502 -0.00000000000E+00 -0.00000000000E+00 -0.28888614417E+03  0.28888614417E+03  0.00000000000E+00 0.  1.
         21    1    1    2  503  501 -0.33769692441E+02  0.97460349010E+02  0.10069649722E+03  0.14414817484E+03  0.00000000000E+00 0. -1.
         21    1    1    2  504  503  0.31758074779E+01 -0.56428917970E+02 -0.16532446421E+03  0.17471830758E+03  0.00000000000E+00 0.  1.
         21    1    1    2  505  502 -0.23940129790E+02 -0.22631358730E+02 -0.12354220816E+02  0.35184300253E+02  0.00000000000E+00 0.  1.
         21    1    1    2  506  504  0.54534014753E+02 -0.18400072310E+02 -0.62082563303E+02  0.84656754559E+02  0.00000000000E+00 0.  1.
<scales pt_clust_3="14000.00000" pt_clust_4="97.63312" pt_clust_5="32.94402" pt_clust_6="53.88429"></scales>
<clustering>
<clus scale="   32.944">  2  5  1 -1</clus>
<clus scale="   53.884">  2  6  1 -1</clus>
<clus scale="   97.633">  2  4  1 -1</clus>
<clus scale="   97.633">  1  3  2 -1</clus>
</clustering>
</event>
<event>
 6    0  0.6549018E+002  0.6643603E+02  0.7546771E-02  0.1372650E+00
         21   -1    0    0  503  501  0.00000000000E+00  0.00000000000E+00  0.19200018742E+03  0.19200018742E+03  0.00000000000E+00 0. -1.
         21   -1    0    0  506  502 -0.00000000000E+00 -0.00000000000E+00 -0.36350482819E+03  0.36350482819E+03  0.00000000000E+00 0. -1.
         21    1    1    2  503  504 -0.62836998189E+02  0.28368555746E+02  0.14238508178E+03  0.15819852973E+03  0.00000000000E+00 0. -1.
         21    1    1    2  504  505  0.75627380296E+02 -0.37774595783E+02 -0.17542438844E+03  0.19473093436E+03  0.00000000000E+00 0. -1.
         21    1    1    2  505  502 -0.50172214879E+02  0.26425316418E+02 -0.14962729347E+03  0.16001211031E+03  0.00000000000E+00 0. -1.
         21    1    1    2  506  501  0.37381832772E+02 -0.17019276381E+02  0.11161959372E+02  0.42563441202E+02  0.00000000000E+00 0.  1.
<scales pt_clust_3="31.56301" pt_clust_4="14000.00000" pt_clust_5="66.43603" pt_clust_6="41.07380"></scales>
<clustering>
<clus scale="   41.074">  1  6  2 -1</clus>
<clus scale="   31.563">  1  3  2 -1</clus>
<clus scale="   66.436">  2  5  1 -1</clus>
<clus scale="   41.074">  1  3  2 -1</clus>
</clustering>
</event>
<event>
 6    0  0.6549018E+002  0.1757087E+03  0.7546771E-02  0.1172022E+00
         21   -1    0    0  503  501  0.00000000000E+00  0.00000000000E+00  0.41664804600E+03  0.41664804600E+03  0.00000000000E+00 0. -1.
         21   -1    0    0  504  502 -0.00000000000E+00 -0.00000000000E+00 -0.16065299614E+03  0.16065299614E+03  0.00000000000E+00 0. -1.
         21    1    1    2  503  502  0.11557619357E+03 -0.40710278224E+01  0.26222513756E+03  0.28659457873E+03  0.00000000000E+00 0. -1.
         21    1    1    2  504  505 -0.85491937270E+02  0.47553205895E+02 -0.23293494112E+02  0.10056224737E+03  0.00000000000E+00 0.  1.
         21    1    1    2  505  506 -0.92747528920E+02  0.79217958008E+01 -0.28262856176E+02  0.97281282931E+02  0.00000000000E+00 0. -1.
         21    1    1    2  506  501  0.62663272616E+02 -0.51403973873E+02  0.45326262584E+02  0.92862933104E+02  0.00000000000E+00 0. -1.
<scales pt_clust_3="170.98636" pt_clust_4="39.46973" pt_clust_5="39.46973" pt_clust_6="81.04970"></scales>
<clustering>
<clus scale="   39.470">  4  5 -1 -1</clus>
<clus scale="   81.050">  1  6  2 -1</clus>
<clus scale="  170.986">  1  3  2 -1</clus>
<clus scale="   81.050">  1  3  2 -1</clus>
</clustering>
</event>
<event>
 6    0  0.6549018E+002  0.4349849E+03  0.7546771E-02  0.1032297E+00
         21   -1    0    0  503  501  0.00000000000E+00  0.00000000000E+00  0.21011482450E+03  0.21011482450E+03  0.00000000000E+00 0. -1.
         21   -1    0    0  504  502 -0.00000000000E+00 -0.00000000000E+00 -0.81631976961E+03  0.81631976961E+03  0.00000000000E+00 0. -1.
         21    1    1    2  503  502 -0.34892684544E+03  0.17970349478E+03 -0.31054888041E+03  0.50048366270E+03  0.00000000000E+00 0. -1.
         21    1    1    2  504  505  0.24508115722E+03 -0.93291690166E+02 -0.26924161664E+03  0.37584459715E+03  0.00000000000E+00 0. -1.
         21    1    1    2  505  506  0.22532822656E+02 -0.39152537151E+02 -0.32823262209E+02  0.55839195950E+02  0.00000000000E+00 0. -1.
         21    1    1    2  506  501  0.81312865564E+02 -0.47259267461E+02  0.64088141395E+01  0.94267138314E+02  0.00000000000E+00 0.  1.
<scales pt_clust_3="392.48349" pt_clust_4="92.01466" pt_clust_5="32.01231" pt_clust_6="92.01466"></scales>
<clustering>
<clus scale="   32.012">  4  5 -1 -1</clus>
<clus scale="   92.015">  4  6 -1 -1</clus>
<clus scale="  392.483">  2  3  1 -1</clus>
<clus scale="  434.985">  1  3  2 -1</clus>
</clustering>
</event>
<event>
 6    0  0.6549018E+002  0.9162948E+02  0.7546771E-02  0.1298953E+00
         21   -1    0    0  505  501  0.00000000000E+00  0.00000000000E+00  0.85202194659E+03  0.85202194659E+03  0.00000000000E+00 0.  1.
         21   -1    0    0  503  502 -0.00000000000E+00 -0.00000000000E+00 -0.14263655074E+03  0.14263655074E+03  0.00000000000E+00 0.  1.
         21    1    1    2  503  506  0.12310872027E+03  0.56169313527E+02  0.95609053165E+02  0.16568596753E+03  0.00000000000E+00 0.  1.
         21    1    1    2  504  502 -0.81036255642E+02 -0.25972452963E+02 -0.71181288355E+02  0.11094241233E+03  0.00000000000E+00 0.  1.
         21    1    1    2  505  504 -0.10138981759E+03 -0.83518525242E+02  0.49208171772E+03  0.50931292550E+03  0.00000000000E+00 0.  1.
         21    1    1    2  506  501  0.59317352957E+02  0.53321664678E+02  0.19287591332E+03  0.20871719197E+03  0.00000000000E+00 0.  1.
<scales pt_clust_3="14000.00000" pt_clust_4="91.62948" pt_clust_5="70.14204" pt_clust_6="79.76057"></scales>
<clustering>
<clus scale="   79.761">  1  6  2 -1</clus>
<clus scale="   70.142">  1  5  2 -1</clus>
<clus scale="   91.629">  2  4  1 -1</clus>
<clus scale="   79.761">  1  3  2 -1</clus>
</clustering>
</event>
<event>
 6    0  0.6549018E+002  0.7757187E+02  0.7546771E-02  0.1336087E+00
         21   -1    0    0  504  501  0.00000000000E+00  0.00000000000E+00  0.32857799415E+02  0.32857799415E+02  0.00000000000E+00 0. -1.
         21   -1    0    0  503  502 -0.00000000000E+00 -0.00000000000E+00 -0.12613792318E+04  0.12613792318E+04  0.00000000000E+00 0. -1.
         21    1    1    2  503  506 -0.77505666486E+02  0.61378724156E+02 -0.72831168542E+03  0.73499141984E+03  0.00000000000E+00 0. -1.
         21    1    1    2  504  505  0.32640806353E+02 -0.34216335050E+02 -0.37204384373E+02  0.60169311449E+02  0.00000000000E+00 0. -1.
         21    1    1    2  505  502  0.19745906716E+02 -0.64802744468E+02 -0.44539624446E+03  0.45051871337E+03  0.00000000000E+00 0. -1.
         21    1    1    2  506  501  0.25118953416E+02  0.37640355362E+02 -0.17609118165E+02  0.48557586586E+02  0.00000000000E+00 0. -1.
<scales pt_clust_3="14000.00000" pt_clust_4="50.11341" pt_clust_5="77.57187" pt_clust_6="45.25216"></scales>
<clustering>
<clus scale="   45.252">  1  6  2 -1</clus>
<clus scale="   50.113">  1  4  2 -1</clus>
<clus scale="   77.572">  2  5  1 -1</clus>
<clus scale="   45.252">  1  3  2 -1</clus>
</clustering>
</event>
<event>
 6    0  0.6549018E+002  0.2508722E+03  0.7546771E-02  0.1112755E+00
         21   -1    0    0  504  501  0.00000000000E+00  0.00000000000E+00  0.39948252306E+03  0.39948252306E+03  0.00000000000E+00 0. -1.
         21   -1    0    0  506  502 -0.00000000000E+00 -0.00000000000E+00 -0.61456950407E+03  0.61456950407E+03  0.00000000000E+00 0. -1.
         21    1    1    2  503  502 -0.21885259270E+02  0.42701883044E+02 -0.69690079021E+02  0.84611597921E+02  0.00000000000E+00 0. -1.
         21    1    1    2  504  505  0.35911956956E+02 -0.12560276107E+01  0.67049704446E+02  0.76071736696E+02  0.00000000000E+00 0.  1.
         21    1    1    2  505  503  0.26536640487E+03 -0.36235542380E+02 -0.42494725495E+03  0.50230718973E+03  0.00000000000E+00 0. -1.
         21    1    1    2  506  501 -0.27939310255E+03 -0.52103130529E+01  0.21250064852E+03  0.35106150279E+03  0.00000000000E+00 0. -1.
<scales pt_clust_3="47.59076" pt_clust_4="35.93392" pt_clust_5="14000.00000" pt_clust_6="250.87223"></scales>
<clustering>
<clus scale="   35.934">  1  4  2 -1</clus>
<clus scale="   47.591">  2  3  1 -1</clus>
<clus scale="  250.872">  1  6  2 -1</clus>
<clus scale="   35.934">  1  3  2 -1</clus>
</clustering>
</event>
<event>
 6    0  0.6549018E+002  0.2124881E+03  0.7546771E-02  0.1139611E+00
         21   -1    0    0  504  501  0.00000000000E+00  0.00000000000E+00  0.79817995348E+03  0.79817995348E+03  0.00000000000E+00 0. -1.
         21   -1    0    0  505  502 -0.00000000000E+00 -0.00000000000E+00 -0.78031539498E+03  0.78031539498E+03  0.00000000000E+00 0.  1.
         21    1    1    2  503  501 -0.60927258363E+02 -0.14858080114E+02 -0.66921498685E+02  0.91713577744E+02  0.00000000000E+00 0.  1.
         21    1    1    2  504  506  0.17077462805E+02 -0.52160632470E+02  0.74224755072E+03  0.74427400725E+03  0.00000000000E+00 0. -1.
         21    1    1    2  505  503 -0.82704508680E+02 -0.10056133092E+03 -0.31414909359E+03  0.34006215614E+03  0.00000000000E+00 0.  1.
         21    1    1    2  506  502  0.12655430424E+03  0.16758004350E+03 -0.34331239994E+03  0.40244560733E+03  0.00000000000E+00 0.  1.
<scales pt_clust_3="57.66368" pt_clust_4="54.88507" pt_clust_5="57.66368" pt_clust_6="194.64692"></scales>
<clustering>
<clus scale="   54.885">  1  4  2 -1</clus>
<clus scale="   57.664">  3  5 -1 -1</clus>
<clus scale="  194.647">  1  6  2 -1</clus>
<clus scale="   54.885">  1  3  2 -1</clus>
</clustering>
</event>
<event>
 6    0  0.6549018E+002  0.8677304E+02  0.7546771E-02  0.1310860E+00
         21   -1    0    0  503  501  0.00000000000E+00  0.00000000000E+00  0.29988314429E+04  0.29988314429E+04  0.00000000000E+00 0.  1.
         21   -1    0    0  506  502 -0.00000000000E+00 -0.00000000000E+00 -0.16757166142E+04  0.16757166142E+04  0.00000000000E+00 0.  1.
         21    1    1    2  503  504 -0.85035248943E+02  0.68493437056E+02  0.27193056017E+04  0.27214968859E+04  0.00000000000E+00 0.  1.
         21    1    1    2  504  502  0.74845429514E+02 -0.19033780651E+02 -0.15352851487E+04  0.15372262719E+04  0.00000000000E+00 0.  1.
         21    1    1    2  505  501  0.32438098953E+02  0.50237641273E+00  0.27104977567E+03  0.27298436500E+03  0.00000000000E+00 0. -1.
         21    1    1    2  506  505 -0.22248279524E+02 -0.49962032818E+02 -0.13195540003E+03  0.14284053438E+03  0.00000000000E+00 0. -1.
<scales pt_clust_3="14000.00000" pt_clust_4="86.77304" pt_clust_5="32.44199" pt_clust_6="54.66456"></scales>
<clustering>
<clus scale="   32.442">  1  5  2 -1</clus>
<clus scale="   54.665">  2  6  1 -1</clus>
<clus scale="   86.773">  2  4  1 -1</clus>
<clus scale="   32.442">  1  3  2 -1</clus>
</clustering>
</event>
<event>
 6    0  0.6549018E+002  0.1112630E+03  0.7546771E-02  0.1258249E+00
         21   -1    0    0  502  501  0.00000000000E+00  0.00000000000E+00  0.37657511392E+03  0.37657511392E+03  0.00000000000E+00 0. -1.
         21   -1    0    0  503  502 -0.00000000000E+00 -0.00000000000E+00 -0.58700703418E+03  0.58700703418E+03  0.00000000000E+00 0. -1.
         21    1    1    2  503  505 -0.58429164836E+02  0.25645845222E+02 -0.30564375477E+03  0.31223353681E+03  0.00000000000E+00 0. -1.
         21    1    1    2  504  506  0.40930394145E+02 -0.87930510526E+02 -0.85203781568E+02  0.12909979179E+03  0.00000000000E+00 0. -1.
         21    1    1    2  505  504  0.88996379761E+02 -0.24914968262E+02 -0.14829428447E+03  0.17473495947E+03  0.00000000000E+00 0. -1.
         21    1    1    2  506  501 -0.71497609070E+02  0.87199633567E+02  0.32870990055E+03  0.34751386003E+03  0.00000000000E+00 0. -1.
<scales pt_clust_3="63.80969" pt_clust_4="111.26302" pt_clust_5="55.96220" pt_clust_6="14000.00000"></scales>
<clustering>
<clus scale="   63.810">  2  3  1 -1</clus>
<clus scale="   55.962">  2  5  1 -1</clus>
<clus scale="  111.263">  2  4  1 -1</clus>
<clus scale="  111.263">  1  3  2 -1</clus>
</clustering>
</event>
<event>
 6    0  0.6549018E+002  0.1808401E+03  0.7546771E-02  0.1166992E+00
         21   -1    0    0  504  501  0.00000000000E+00  0.00000000000E+00  0.13045187758E+03  0.13045187758E+03  0.00000000000E+00 0. -1.
         21   -1    0    0  503  502 -0.00000000000E+00 -0.00000000000E+00 -0.19893606686E+04  0.19893606686E+04  0.00000000000E+00 0. -1.
         21    1    1    2  503  506  0.12094151206E+03  0.83126037348E+02 -0.56990756607E+03  0.58849929591E+03  0.00000000000E+00 0. -1.
         21    1    1    2  504  505 -0.40354299066E+01  0.71684926004E+02  0.93535535038E+02  0.11791484057E+03  0.00000000000E+00 0. -1.
         21    1    1    2  505  502  0.35145678582E+02  0.12601539986E+02 -0.53197597236E+03  0.53328458884E+03  0.00000000000E+00 0.  1.
         21    1    1    2  506  501 -0.15205176074E+03 -0.16741250334E+03 -0.85056078763E+03  0.88011382087E+03  0.00000000000E+00 0. -1.
<scales pt_clust_3="180.84012" pt_clust_4="71.88780" pt_clust_5="37.33654" pt_clust_6="14000.00000"></scales>
<clustering>
<clus scale="   37.337">  2  5  1 -1</clus>
<clus scale="   71.888">  1  4  2 -1</clus>
<clus scale="  180.840">  2  3  1 -1</clus>
<clus scale="   71.888">  1  3  2 -1</clus>
</clustering>
</event>
<event>
 6    0  0.6549018E+002  0.1886679E+03  0.7546771E-02  0.1159668E+00
         21   -1    0    0  504  501  0.00000000000E+00  0.00000000000E+00  0.57697940877E+03  0.57697940877E+03  0.00000000000E+00 0. -1.
         21   -1    0    0  503  502 -0.00000000000E+00 -0.00000000000E+00 -0.65126196198E+03  0.65126196198E+03  0.00000000000E+00 0.  1.
         21    1    1    2  503  505 -0.52395439490E+02 -0.35016037288E+02 -0.23093616377E+03  0.23938027630E+03  0.00000000000E+00 0.  1.
         21    1    1    2  504  502  0.20383088334E+03  0.12771686935E+03  0.41733697311E+03  0.48169365456E+03  0.00000000000E+00 0. -1.
         21    1    1    2  505  506 -0.12307360025E+03 -0.23841065242E+01 -0.35366527982E+03  0.37447553350E+03  0.00000000000E+00 0.  1.
         21    1    1    2  506  501 -0.28361843597E+02 -0.90316725541E+02  0.92981917256E+02  0.13269190639E+03  0.00000000000E+00 0. -1.
<scales pt_clust_3="38.34436" pt_clust_4="180.89673" pt_clust_5="38.34436" pt_clust_6="94.66523"></scales>
<clustering>
<clus scale="   38.344">  3  5 -1 -1</clus>
<clus scale="   94.665">  1  6  2 -1</clus>
<clus scale="  180.897">  1  4  2 -1</clus>
<clus scale="   94.665">  1  3  2 -1</clus>
</clustering>
</event>
<event>
 6    0  0.6549018E+002  0.1368070E+03  0.7546771E-02  0.1217691E+00
         21   -1    0    0  504  501  0.00000000000E+00  0.00000000000E+00  0.24789679946E+03  0.24789679946E+03  0.00000000000E+00 0. -1.
         21   -1    0    0  506  502 -0.00000000000E+00 -0.00000000000E+00 -0.25150751036E+03  0.25150751036E+03  0.00000000000E+00 0.  1.
         21    1    1    2  503  502  0.54618375017E+02 -0.15137994714E+02 -0.12470805132E+03  0.13698329766E+03  0.00000000000E+00 0.  1.
         21    1    1    2  504  505  0.27994440633E+02  0.51659751655E+02  0.10763132058E+03  0.12262511903E+03  0.00000000000E+00 0. -1.
         21    1    1    2  505  503  0.52671113102E+02 -0.45320443305E+02 -0.54344446986E+02  0.88212854250E+02  0.00000000000E+00 0.  1.
         21    1    1    2  506  501 -0.13528392875E+03  0.87986863636E+01  0.67810466833E+02  0.15158303887E+03  0.00000000000E+00 0. -1.
<scales pt_clust_3="53.33356" pt_clust_4="58.75729" pt_clust_5="53.33356" pt_clust_6="123.40539"></scales>
<clustering>
<clus scale="   53.334">  3  5 -1 -1</clus>
<clus scale="   58.757">  1  4  2 -1</clus>
<clus scale="  123.405">  1  6  2 -1</clus>
<clus scale="   58.757">  1  3  2 -1</clus>
</clustering>
</event>
<event>
 6    0  0.6549018E+002  0.1028586E+03  0.7546771E-02  0.1274397E+00
         21   -1    0    0  503  501  0.00000000000E+00  0.00000000000E+00  0.31012901349E+02  0.31012901349E+02  0.00000000000E+00 0.  1.
         21   -1    0    0  505  502 -0.00000000000E+00 -0.00000000000E+00 -0.99205781260E+03  0.99205781260E+03  0.00000000000E+00 0.  1.
         21    1    1    2  503  504  0.16743053727E+01 -0.31488891892E+02 -0.18985306521E+02  0.36807546437E+02  0.00000000000E+00 0.  1.
         21    1    1    2  504  502 -0.56124970295E+02 -0.20393016318E+02 -0.33997266142E+03  0.34517719785E+03  0.00000000000E+00 0.  1.
         21    1    1    2  505  506  0.20997750264E+02 -0.80188415377E+02 -0.25884929016E+03  0.27179779707E+03  0.00000000000E+00 0.  1.
         21    1    1    2  506  501  0.33452914659E+02  0.13207032359E+03 -0.34323765315E+03  0.36928817259E+03  0.00000000000E+00 0.  1.
<scales pt_clust_3="31.53337" pt_clust_4="60.89958" pt_clust_5="102.85857" pt_clust_6="14000.00000"></scales>
<clustering>
<clus scale="   31.533">  1  3  2 -1</clus>
<clus scale="   60.900">  2  4  1 -1</clus>
<clus scale="  102.859">  2  5  1 -1</clus>
<clus scale="   31.533">  1  3  2 -1</clus>
</clustering>
</event>
<event>
 6    0  0.6549018E+002  0.2181872E+03  0.7546771E-02  0.1135242E+00
         21   -1    0    0  504  501  0.00000000000E+00  0.00000000000E+00  0.89494229054E+03  0.89494229054E+03  0.00000000000E+00 0.  1.
         21   -1    0    0  506  502 -0.00000000000E+00 -0.00000000000E+00 -0.25110393530E+03  0.25110393530E+03  0.00000000000E+00 0.  1.
         21    1    1    2  503  501  0.39116463891E+02 -0.10180919647E+03  0.24129663306E+03  0.26480044441E+03  0.00000000000E+00 0.  1.
         21    1    1    2  504  505 -0.11282887609E+03  0.10224963832E+03  0.35109005727E+03  0.38268730333E+03  0.00000000000E+00 0.  1.
         21    1    1    2  505  502 -0.36137418979E+02  0.21071111056E+03 -0.78053715563E+02  0.22759057028E+03  0.00000000000E+00 0.  1.
         21    1    1    2  506  503  0.10984983118E+03 -0.21115155241E+03  0.12950538047E+03  0.27096790782E+03  0.00000000000E+00 0.  1.
<scales pt_clust_3="109.06517" pt_clust_4="100.62870" pt_clust_5="14000.00000" pt_clust_6="218.18721"></scales>
<clustering>
<clus scale="  109.065">  1  3  2 -1</clus>
<clus scale="  100.629">  1  4  2 -1</clus>
<clus scale="  218.187">  1  6  2 -1</clus>
<clus scale="  109.065">  1  3  2 -1</clus>
</clustering>
</event>
<event>
 6    0  0.6549018E+002  0.2589712E+03  0.7546771E-02  0.1107763E+00
         21   -1    0    0  506  501  0.00000000000E+00  0.00000000000E+00  0.84268647644E+03  0.84268647644E+03  0.00000000000E+00 0. -1.
         21   -1    0    0  504  502 -0.00000000000E+00 -0.00000000000E+00 -0.34349474235E+03  0.34349474235E+03  0.00000000000E+00 0. -1.
         21    1    1    2  503  501 -0.15373622098E+03 -0.21456905898E+03  0.71423630076E+03  0.76145137733E+03  0.00000000000E+00 0. -1.
         21    1    1    2  504  503  0.35122267436E+02  0.16894256805E+02 -0.13674651881E+03  0.14219212352E+03  0.00000000000E+00 0. -1.
         21    1    1    2  505  502  0.31125983861E+02 -0.13577711194E+02  0.12959468312E+02  0.36347337337E+02  0.00000000000E+00 0.  1.
         21    1    1    2  506  505  0.87487969683E+02  0.21125251337E+03 -0.91257516175E+02  0.24619038061E+03  0.00000000000E+00 0. -1.
<scales pt_clust_3="14000.00000" pt_clust_4="49.48683" pt_clust_5="33.95852" pt_clust_6="258.97116"></scales>
<clustering>
<clus scale="   33.959">  2  5  1 -1</clus>
<clus scale="   49.487">  2  4  1 -1</clus>
<clus scale="  258.971">  2  6  1 -1</clus>
<clus scale="  258.971">  1  3  2 -1</clus>
</clustering>
</event>
<event>
 6    0  0.6549018E+002  0.1332914E+03  0.7546771E-02  0.1222652E+00
         21   -1    0    0  503  501  0.00000000000E+00  0.00000000000E+00  0.84984929135E+02  0.84984929135E+02  0.00000000000E+00 0.  1.
         21   -1    0    0  504  502 -0.00000000000E+00 -0.00000000000E+00 -0.17816317254E+04  0.17816317254E+04  0.00000000000E+00 0.  1.
         21    1    1    2  503  506 -0.12816053586E+03  0.58212977149E+02  0.13285356131E+02  0.14138732032E+03  0.00000000000E+00 0.  1.
         21    1    1    2  504  501  0.39949886028E+02  0.52266865422E+01 -0.10749165747E+04  0.10756713969E+04  0.00000000000E+00 0.  1.
         21    1    1    2  505  502  0.21645828328E+01 -0.49381826621E+02 -0.22048221220E+03  0.22595498693E+03  0.00000000000E+00 0.  1.
         21    1    1    2  506  505  0.86046066998E+02 -0.14057837070E+02 -0.41453336546E+03  0.42360295031E+03  0.00000000000E+00 0.  1.
<scales pt_clust_3="14000.00000" pt_clust_4="40.29034" pt_clust_5="49.96893" pt_clust_6="133.29142"></scales>
<clustering>
<clus scale="   40.290">  2  4  1 -1</clus>
<clus scale="   49.969">  2  5  1 -1</clus>
<clus scale="  133.291">  2  6  1 -1</clus>
<clus scale="  133.291">  1  3  2 -1</clus>
</clustering>
</event>
<event>
 6    0  0.6549018E+002  0.8527950E+02  0.7546771E-02  0.1314703E+00
         21   -1    0    0  506  501  0.00000000000E+00  0.00000000000E+00  0.17501214488E+03  0.17501214488E+03  0.00000000000E+00 0. -1.
         21   -1    0    0  504  502 -0.00000000000E+00 -0.00000000000E+00 -0.49301695683E+03  0.49301695683E+03  0.00000000000E+00 0.  1.
         21    1    1    2  503  502 -0.34982579931E+02 -0.45136520957E+02 -0.77361951667E+02  0.96155904595E+02  0.00000000000E+00 0.  1.
         21    1    1    2  504  505  0.78350993384E+02  0.76073287117E+02 -0.37094497472E+03  0.38668617437E+03  0.00000000000E+00 0.  1.
         21    1    1    2  505  501 -0.87609321119E+01 -0.56877156685E+02  0.11404134598E+02  0.58667019440E+02  0.00000000000E+00 0.  1.
         21    1    1    2  506  503 -0.34607481342E+02  0.25940390525E+02  0.11889797984E+03  0.12652000330E+03  0.00000000000E+00 0. -1.
<scales pt_clust_3="14000.00000" pt_clust_4="85.27950" pt_clust_5="50.80028" pt_clust_6="43.25022"></scales>
<clustering>
<clus scale="   43.250">  1  6  2 -1</clus>
<clus scale="   50.800">  1  5  2 -1</clus>
<clus scale="   85.280">  2  4  1 -1</clus>
<clus scale="   43.250">  1  3  2 -1</clus>
</clustering>
</event>
<event>
 6    0  0.6549018E+002  0.1366421E+03  0.7546771E-02  0.1217920E+00
         21   -1    0    0  505  501  0.00000000000E+00  0.00000000000E+00  0.10307705778E+03  0.10307705778E+03  0.00000000000E+00 0.  1.
         21   -1    0    0  506  502 -0.00000000000E+00 -0.00000000000E+00 -0.26205168258E+03  0.26205168258E+03  0.00000000000E+00 0.  1.
         21    1    1    2  503  501  0.54130820932E+02  0.43947758819E+02 -0.48330281267E+02  0.84837299387E+02  0.00000000000E+00 0.  1.
         21    1    1    2  504  502 -0.14114287124E+03 -0.45823478001E+02 -0.72264346716E+02  0.16505525452E+03  0.00000000000E+00 0.  1.
         21    1    1    2  505  504  0.31271852817E+02 -0.86735415926E+01  0.16412157969E+02  0.36366441007E+02  0.00000000000E+00 0. -1.
         21    1    1    2  506  503  0.55740197492E+02  0.10549260775E+02 -0.54792154786E+02  0.78869745438E+02  0.00000000000E+00 0.  1.
<scales pt_clust_3="30.24350" pt_clust_4="132.46456" pt_clust_5="32.45241" pt_clust_6="30.24350"></scales>
<clustering>
<clus scale="   30.244">  3  6 -1 -1</clus>
<clus scale="   32.452">  1  5  2 -1</clus>
<clus scale="  132.465">  1  4  2 -1</clus>
<clus scale="   32.452">  1  3  2 -1</clus>
</clustering>
</event>
<event>
 6    0  0.6549018E+002  0.6854246E+02  0.7546771E-02  0.1365121E+00
         21   -1    0    0  504  501  0.00000000000E+00  0.00000000000E+00  0.21908919009E+02  0.21908919009E+02  0.00000000000E+00 0. -1.
         21   -1    0    0  503  502 -0.00000000000E+00 -0.00000000000E+00 -0.26617053490E+04  0.26617053490E+04  0.00000000000E+00 0. -1.
         21    1    1    2  503  506  0.28477739414E+02 -0.20193158309E+02 -0.14927513117E+04  0.14931594771E+04  0.00000000000E+00 0. -1.
         21    1    1    2  504  505  0.25428675668E+02 -0.53168666283E+02 -0.62832318122E+02  0.86147691908E+02  0.00000000000E+00 0. -1.
         21    1    1    2  505  502 -0.19479727722E+02 -0.45396812738E+02 -0.67540565788E+03  0.67720981468E+03  0.00000000000E+00 0. -1.
         21    1    1    2  506  501 -0.34426687360E+02  0.11875863733E+03 -0.40880714227E+03  0.42709728436E+03  0.00000000000E+00 0. -1.
<scales pt_clust_3="34.91053" pt_clust_4="14000.00000" pt_clust_5="57.16059" pt_clust_6="68.54246"></scales>
<clustering>
<clus scale="   34.911">  2  3  1 -1</clus>
<clus scale="   57.161">  2  5  1 -1</clus>
<clus scale="   68.542">  2  6  1 -1</clus>
<clus scale="   68.542">  1  3  2 -1</clus>
</clustering>
</event>
<event>
 6    0  0.6549018E+002  0.9925442E+02  0.7546771E-02  0.1281872E+00
         21   -1    0    0  503  501  0.00000000000E+00  0.00000000000E+00  0.13033498927E+04  0.13033498927E+04  0.00000000000E+00 0.  1.
         21   -1    0    0  506  502 -0.00000000000E+00 -0.00000000000E+00 -0.35109627022E+04  0.35109627022E+04  0.00000000000E+00 0.  1.
         21    1    1    2  503  505 -0.61525141397E+01  0.40861538605E+02  0.11864483823E+04  0.11871677568E+04  0.00000000000E+00 0.  1.
         21    1    1    2  504  501 -0.11620277869E+02 -0.13674189937E+03  0.68120944986E+02  0.15321175231E+03  0.00000000000E+00 0.  1.
         21    1    1    2  505  502 -0.58449988999E+01  0.71040391931E+02 -0.34143183526E+04  0.34150623295E+04  0.00000000000E+00 0.  1.
         21    1    1    2  506  504  0.23617790908E+02  0.24839968834E+02 -0.47863784206E+02  0.58870756217E+02  0.00000000000E+00 0. -1.
<scales pt_clust_3="41.32432" pt_clust_4="14000.00000" pt_clust_5="99.25442" pt_clust_6="34.27571"></scales>
<clustering>
<clus scale="   34.276">  2  6  1 -1</clus>
<clus scale="   41.324">  1  3  2 -1</clus>
<clus scale="   99.254">  2  5  1 -1</clus>
<clus scale="   41.324">  1  3  2 -1</clus>
</clustering>
</event>
<event>
 6    0  0.6549018E+002  0.1555286E+03  0.7546771E-02  0.1193839E+00
         21   -1    0    0  504  501  0.00000000000E+00  0.00000000000E+00  0.10534416162E+04  0.10534416162E+04  0.00000000000E+00 0. -1.
         21   -1    0    0  506  502 -0.00000000000E+00 -0.00000000000E+00 -0.70297070601E+02  0.70297070601E+02  0.00000000000E+00 0.  1.
         21    1    1    2  503  505  0.50886123929E+02  0.11995751798E+03  0.35498052669E+03  0.37814068553E+03  0.00000000000E+00 0. -1.
         21    1    1    2  504  503 -0.42430657916E+02  0.23578969266E+02  0.42939973196E+03  0.43213476871E+03  0.00000000000E+00 0. -1.
         21    1    1    2  505  502 -0.59761758661E+02 -0.15327078120E+03  0.78353609782E+02  0.18221604851E+03  0.00000000000E+00 0.  1.
         21    1    1    2  506  501  0.51306292647E+02  0.97342939540E+01  0.12041067718E+03  0.13124718406E+03  0.00000000000E+00 0. -1.
<scales pt_clust_3="155.52859" pt_clust_4="48.54203" pt_clust_5="14000.00000" pt_clust_6="45.12478"></scales>
<clustering>
<clus scale="   48.542">  1  4  2 -1</clus>
<clus scale="   45.125">  1  6  2 -1</clus>
<clus scale="  155.529">  1  3  2 -1</clus>
<clus scale="   48.542">  1  3  2 -1</clus>
</clustering>
</event>
<event>
 6    0  0.6549018E+002  0.3020298E+03  0.7546771E-02  0.1084230E+00
         21   -1    0    0  504  501  0.00000000000E+00  0.00000000000E+00  0.11003052910E+04  0.11003052910E+04  0.00000000000E+00 0.  1.
         21   -1    0    0  506  502 -0.00000000000E+00 -0.00000000000E+00 -0.20877729334E+03  0.20877729334E+03  0.00000000000E+00 0.  1.
         21    1    1    2  503  505 -0.24732755653E+02  0.92745110607E+02  0.31295050564E+01  0.96037276854E+02  0.00000000000E+00 0.  1.
         21    1    1    2  504  503 -0.31710499959E+02 -0.13655032032E+02  0.37158901196E+02  0.50722772455E+02  0.00000000000E+00 0.  1.
         21    1    1    2  505  502 -0.20328143900E+01  0.20443007519E+03 -0.54388857818E+02  0.21155126053E+03  0.00000000000E+00 0.  1.
         21    1    1    2  506  501  0.58476070001E+02 -0.28352015376E+03  0.90562844918E+03  0.95077127445E+03  0.00000000000E+00 0.  1.
<scales pt_clust_3="37.28575" pt_clust_4="34.52558" pt_clust_5="37.28575" pt_clust_6="297.09984"></scales>
<clustering>
<clus scale="   34.526">  1  4  2 -1</clus>
<clus scale="   37.286">  3  5 -1 -1</clus>
<clus scale="  297.100">  1  6  2 -1</clus>
<clus scale="   34.526">  1  3  2 -1</clus>
</clustering>
</event>
<event>
 6    0  0.6549018E+002  0.1165053E+03  0.7546771E-02  0.1248976E+00
         21   -1    0    0  503  501  0.00000000000E+00  0.00000000000E+00  0.18591483154E+03  0.18591483154E+03  0.00000000000E+00 0.  1.
         21   -1    0    0  506  502 -0.00000000000E+00 -0.00000000000E+00 -0.33457313023E+03  0.33457313023E+03  0.00000000000E+00 0.  1.
         21    1    1    2  503  504  0.33463307506E+02  0.14410052567E+02  0.11184977168E+00  0.36434256883E+02  0.00000000000E+00 0.  1.
         21    1    1    2  504  505  0.12094127100E+03 -0.65360010031E+02  0.86517324084E+02  0.16243142956E+03  0.00000000000E+00 0.  1.
         21    1    1    2  505  502 -0.97831112905E+02  0.59165194153E+02 -0.23837209431E+03  0.26437227956E+03  0.00000000000E+00 0.  1.
         21    1    1    2  506  501 -0.56573465603E+02 -0.82152366894E+01  0.30846217696E+01  0.57249995770E+02  0.00000000000E+00 0.  1.
<scales pt_clust_3="36.43409" pt_clust_4="116.50528" pt_clust_5="14000.00000" pt_clust_6="50.86338"></scales>
<clustering>
<clus scale="   36.434">  1  3  2 -1</clus>
<clus scale="   50.863">  1  6  2 -1</clus>
<clus scale="  116.505">  1  4  2 -1</clus>
<clus scale="   36.434">  1  3  2 -1</clus>
</clustering>
</event>
<event>
 6    0  0.6549018E+002  0.1236365E+03  0.7546771E-02  0.1237216E+00
         21   -1    0    0  506  501  0.00000000000E+00  0.00000000000E+00  0.13068082976E+04  0.13068082976E+04  0.00000000000E+00 0. -1.
         21   -1    0    0  505  502 -0.00000000000E+00 -0.00000000000E+00 -0.47080678064E+03  0.47080678064E+03  0.00000000000E+00 0.  1.
         21    1    1    2  503  504  0.33361559051E+02 -0.39348188364E+00 -0.34566605068E+03  0.34727246801E+03  0.00000000000E+00 0.  1.
         21    1    1    2  504  501 -0.31522687334E+02 -0.10367821183E+03  0.12822826686E+03  0.16788490060E+03  0.00000000000E+00 0.  1.
         21    1    1    2  505  503  0.23649645212E+02 -0.21805509876E+02 -0.98377235937E+02  0.10350297836E+03  0.00000000000E+00 0.  1.
         21    1    1    2  506  502 -0.25488516929E+02  0.12587720359E+03  0.11518165367E+04  0.11589547312E+04  0.00000000000E+00 0. -1.
<scales pt_clust_3="59.29070" pt_clust_4="14000.00000" pt_clust_5="32.16809" pt_clust_6="123.63653"></scales>
<clustering>
<clus scale="   32.168">  2  5  1 -1</clus>
<clus scale="   59.291">  2  3  1 -1</clus>
<clus scale="  123.637">  1  6  2 -1</clus>
<clus scale="  123.637">  1  3  2 -1</clus>
</clustering>
</event>
<event>
 6    0  0.6549018E+002  0.1539823E+03  0.7546771E-02  0.1195663E+00
         21   -1    0    0  505  501  0.00000000000E+00  0.00000000000E+00  0.10627423943E+02  0.10627423943E+02  0.00000000000E+00 0. -1.
         21   -1    0    0  506  502 -0.00000000000E+00 -0.00000000000E+00 -0.31326484697E+04  0.31326484697E+04  0.00000000000E+00 0. -1.
         21    1    1    2  503  501 -0.23793156307E+02  0.20259526308E+02 -0.29779495149E+03  0.29943011844E+03  0.00000000000E+00 0. -1.
         21    1    1    2  504  502  0.89513452529E+02  0.14481719320E+02 -0.51501243365E+03  0.52293420733E+03  0.00000000000E+00 0.  1.
         21    1    1    2  505  504  0.47479048843E+02 -0.33687460721E+02 -0.19099849441E+03  0.19967355847E+03  0.00000000000E+00 0. -1.
         21    1    1    2  506  503 -0.11319934507E+03 -0.10537849061E+01 -0.21182151663E+04  0.21212380095E+04  0.00000000000E+00 0. -1.
<scales pt_clust_3="30.60673" pt_clust_4="54.19453" pt_clust_5="54.19453" pt_clust_6="150.09762"></scales>
<clustering>
<clus scale="   30.607">  3  6 -1 -1</clus>
<clus scale="   54.195">  4  5 -1 -1</clus>
<clus scale="  150.098">  2  3  1 -1</clus>
<clus scale="  153.982">  1  3  2 -1</clus>
</clustering>
</event>
<event>
 6    0  0.6549018E+002  0.2053194E+03  0.7546771E-02  0.1145327E+00
         21   -1    0    0  506  501  0.00000000000E+00  0.00000000000E+00  0.13826594782E+03  0.13826594782E+03  0.00000000000E+00 0. -1.
         21   -1    0    0  501  502 -0.00000000000E+00 -0.00000000000E+00 -0.65599740654E+03  0.65599740654E+03  0.00000000000E+00 0. -1.
         21    1    1    2  503  502  0.40435269390E+01 -0.87055271064E+02 -0.13228252440E+03  0.15840971117E+03  0.00000000000E+00 0. -1.
         21    1    1    2  504  505  0.44280425770E+02  0.20926752318E+03 -0.71968806131E+02  0.22568376419E+03  0.00000000000E+00 0. -1.
         21    1    1    2  505  503  0.21729234403E+02 -0.10447155986E+03 -0.32027795790E+03  0.33758619161E+03  0.00000000000E+00 0. -1.
         21    1    1    2  506  504 -0.70053187112E+02 -0.17740692250E+02  0.67978297119E+01  0.72583687388E+02  0.00000000000E+00 0. -1.
<scales pt_clust_3="56.10486" pt_clust_4="195.70868" pt_clust_5="56.10486" pt_clust_6="72.26466"></scales>
<clustering>
<clus scale="   56.105">  3  5 -1 -1</clus>
<clus scale="   72.265">  1  6  2 -1</clus>
<clus scale="  195.709">  1  4  2 -1</clus>
<clus scale="   72.265">  1  3  2 -1</clus>
</clustering>
</event>
<event>
 6    0  0.6549018E+002  0.8035788E+02  0.7546771E-02  0.1328039E+00
         21   -1    0    0  503  501  0.00000000000E+00  0.00000000000E+00  0.49032807444E+03  0.49032807444E+03  0.00000000000E+00 0.  1.
         21   -1    0    0  504  502 -0.00000000000E+00 -0.00000000000E+00 -0.50697062843E+03  0.50697062843E+03  0.00000000000E+00 0. -1.
         21    1    1    2  503  505 -0.13906467657E+02 -0.77674489616E+02  0.41314313203E+03  0.42061141654E+03  0.00000000000E+00 0.  1.
         21    1    1    2  504  501 -0.36005826462E+02 -0.13049011481E+02 -0.36801439118E+03  0.37000174101E+03  0.00000000000E+00 0. -1.
         21    1    1    2  505  506  0.84843342943E+02  0.85246717494E+02  0.15925370425E+02  0.12132193993E+03  0.00000000000E+00 0. -1.
         21    1    1    2  506  502 -0.34931048824E+02  0.54767836024E+01 -0.77696665270E+02  0.85363605387E+02  0.00000000000E+00 0. -1.
<scales pt_clust_3="14000.00000" pt_clust_4="66.82078" pt_clust_5="80.35788" pt_clust_6="35.35779"></scales>
<clustering>
<clus scale="   35.358">  2  6  1 -1</clus>
<clus scale="   66.821">  2  4  1 -1</clus>
<clus scale="   80.358">  2  5  1 -1</clus>
<clus scale="   80.358">  1  3  2 -1</clus>
</clustering>
</event>
<event>
 6    0  0.6549018E+002  0.9348725E+02  0.7546771E-02  0.1294620E+00
         21   -1    0    0  505  501  0.00000000000E+00  0.00000000000E+00  0.50684449862E+02  0.50684449862E+02  0.00000000000E+00 0.  1.
         21   -1    0    0  506  502 -0.00000000000E+00 -0.00000000000E+00 -0.97907087910E+03  0.97907087910E+03  0.00000000000E+00 0. -1.
         21    1    1    2  503  501  0.51739158122E+02 -0.80492514869E+02 -0.19773406644E+02  0.97708612944E+02  0.00000000000E+00 0.  1.
         21    1    1    2  504  502 -0.21598350823E+02 -0.47459714786E+02 -0.12779729129E+03  0.13802558077E+03  0.00000000000E+00 0.  1.
         21    1    1    2  505  504 -0.54781617139E+01  0.58842225706E+02 -0.19879599225E+03  0.20739398332E+03  0.00000000000E+00 0. -1.
         21    1    1    2  506  503 -0.24662645586E+02  0.69110003949E+02 -0.58201973905E+03  0.58662715192E+03  0.00000000000E+00 0. -1.
<scales pt_clust_3="93.48725" pt_clust_4="52.14320" pt_clust_5="48.63410" pt_clust_6="14000.00000"></scales>
<clustering>
<clus scale="   52.143">  2  4  1 -1</clus>
<clus scale="   48.634">  2  5  1 -1</clus>
<clus scale="   93.487">  1  3  2 -1</clus>
<clus scale="   93.487">  1  3  2 -1</clus>
</clustering>
</event>
<event>
 6    0  0.6549018E+002  0.2271752E+03  0.7546771E-02  0.1128644E+00
         21   -1    0    0  504  501  0.00000000000E+00  0.00000000000E+00  0.20080614170E+04  0.20080614170E+04  0.00000000000E+00 0. -1.
         21   -1    0    0  505  502 -0.00000000000E+00 -0.00000000000E+00 -0.18792775735E+04  0.18792775735E+04  0.00000000000E+00 0.  1.
         21    1    1    2  503  502  0.12123724259E+01 -0.60502017530E+02 -0.74948293646E+03  0.75192196139E+03  0.00000000000E+00 0.  1.
         21    1    1    2  504  506  0.54340417516E+02  0.23329285052E+03  0.18548246296E+04  0.18702280186E+04  0.00000000000E+00 0. -1.
         21    1    1    2  505  501  0.12565514177E+02 -0.28683034988E+02  0.13687153768E+03  0.14040807124E+03  0.00000000000E+00 0. -1.
         21    1    1    2  506  503 -0.68118304118E+02 -0.14410779801E+03 -0.11134293873E+04  0.11247809393E+04  0.00000000000E+00 0. -1.
<scales pt_clust_3="44.55717" pt_clust_4="215.35711" pt_clust_5="31.31467" pt_clust_6="44.55717"></scales>
<clustering>
<clus scale="   31.315">  1  5  2 -1</clus>
<clus scale="   44.557">  3  6 -1 -1</clus>
<clus scale="  215.357">  1  4  2 -1</clus>
<clus scale="   31.315">  1  3  2 -1</clus>
</clustering>
</event>
<event>
 6    0  0.6549018E+002  0.5836938E+02  0.7546771E-02  0.1404805E+00
         21   -1    0    0  503  501  0.00000000000E+00  0.00000000000E+00  0.49529601393E+02  0.49529601393E+02  0.00000000000E+00 0.  1.
         21   -1    0    0  504  502 -0.00000000000E+00 -0.00000000000E+00 -0.15443278771E+04  0.15443278771E+04  0.00000000000E+00 0. -1.
         21    1    1    2  503  505 -0.38320119475E+02 -0.11821656293E+02 -0.74291142777E+02  0.84423675644E+02  0.00000000000E+00 0.  1.
         21    1    1    2  504  506 -0.10041602790E+02  0.39353690396E+02 -0.48542716184E+03  0.48712326591E+03  0.00000000000E+00 0. -1.
         21    1    1    2  505  502 -0.37800221169E+02 -0.66758201040E+02 -0.92378863756E+03  0.92696869473E+03  0.00000000000E+00 0. -1.
         21    1    1    2  506  501  0.86161943434E+02  0.39226166938E+02 -0.11291333561E+02  0.95341842244E+02  0.00000000000E+00 0.  1.
<scales pt_clust_3="40.10216" pt_clust_4="40.58403" pt_clust_5="14000.00000" pt_clust_6="58.36938"></scales>
<clustering>
<clus scale="   40.102">  1  3  2 -1</clus>
<clus scale="   40.584">  2  4  1 -1</clus>
<clus scale="   58.369">  1  6  2 -1</clus>
<clus scale="   40.102">  1  3  2 -1</clus>
</clustering>
</event>
<event>
 6    0  0.6549018E+002  0.1240299E+03  0.7546771E-02  0.1236593E+00
         21   -1    0    0  506  501  0.00000000000E+00  0.00000000000E+00  0.23538639501E+03  0.23538639501E+03  0.00000000000E+00 0.  1.
         21   -1    0    0  504  502 -0.00000000000E+00 -0.00000000000E+00 -0.56161951104E+03  0.56161951104E+03  0.00000000000E+00 0.  1.
         21    1    1    2  503  501 -0.41938383999E+02 -0.65894637667E+02  0.12482297805E+03  0.14724709564E+03  0.00000000000E+00 0.  1.
         21    1    1    2  504  505 -0.12390720942E+02  0.96918913378E+02 -0.45737659468E+03  0.46769664859E+03  0.00000000000E+00 0.  1.
         21    1    1    2  505  503  0.64843115140E+02 -0.66968752277E+02  0.64155281856E+02  0.11316069791E+03  0.00000000000E+00 0.  1.
         21    1    1    2  506  502 -0.10514010200E+02  0.35944476566E+02 -0.57834781246E+02  0.68901463902E+02  0.00000000000E+00 0. -1.
<scales pt_clust_3="77.55571" pt_clust_4="124.02986" pt_clust_5="14000.00000" pt_clust_6="37.45063"></scales>
<clustering>
<clus scale="   37.451">  2  6  1 -1</clus>
<clus scale="   77.556">  1  3  2 -1</clus>
<clus scale="  124.030">  2  4  1 -1</clus>
<clus scale="   77.556">  1  3  2 -1</clus>
</clustering>
</event>
<event>
 6    0  0.6549018E+002  0.1237087E+03  0.7546771E-02  0.1237101E+00
         21   -1    0    0  506  501  0.00000000000E+00  0.00000000000E+00  0.45789557192E+03  0.45789557192E+03  0.00000000000E+00 0.  1.
         21   -1    0    0  505  502 -0.00000000000E+00 -0.00000000000E+00 -0.90031379571E+03  0.90031379571E+03  0.00000000000E+00 0.  1.
         21    1    1    2  503  501 -0.38626423776E+02  0.32299094795E+02  0.17693659066E+03  0.18396137978E+03  0.00000000000E+00 0.  1.
         21    1    1    2  504  503 -0.53230748413E+02 -0.46762122211E+02 -0.23901810647E+02  0.74776367941E+02  0.00000000000E+00 0.  1.
         21    1    1    2  505  504  0.12730177228E+03  0.47749015915E+02 -0.83959613487E+03  0.85053358513E+03  0.00000000000E+00 0.  1.
         21    1    1    2  506  502 -0.35444600087E+02 -0.33285988499E+02  0.24414313107E+03  0.24893803477E+03  0.00000000000E+00 0.  1.
<scales pt_clust_3="68.99724" pt_clust_4="14000.00000" pt_clust_5="123.70873" pt_clust_6="48.62383"></scales>
<clustering>
<clus scale="   48.624">  1  6  2 -1</clus>
<clus scale="   68.997">  1  3  2 -1</clus>
<clus scale="  123.709">  2  5  1 -1</clus>
<clus scale="   48.624">  1  3  2 -1</clus>
</clustering>
</event>
<event>
 6    0  0.6549018E+002  0.1522322E+03  0.7546771E-02  0.1197757E+00
         21   -1    0    0  506  501  0.00000000000E+00  0.00000000000E+00  0.11077807469E+03  0.11077807469E+03  0.00000000000E+00 0.  1.
         21   -1    0    0  501  502 -0.00000000000E+00 -0.00000000000E+00 -0.67272760287E+03  0.67272760287E+03  0.00000000000E+00 0. -1.
         21    1    1    2  503  502 -0.35032312774E+02  0.10341828141E+03 -0.46535089343E+03  0.47798960018E+03  0.00000000000E+00 0. -1.
         21    1    1    2  504  503 -0.33746633207E+02  0.34407312907E+02 -0.11976040019E+03  0.12909396534E+03  0.00000000000E+00 0. -1.
         21    1    1    2  505  504  0.34645166982E+02 -0.99455772512E+02 -0.22510032183E+02  0.10769605299E+03  0.00000000000E+00 0.  1.
         21    1    1    2  506  505  0.34133778999E+02 -0.38369821804E+02  0.45671797617E+02  0.68726059042E+02  0.00000000000E+00 0.  1.
<scales pt_clust_3="33.01016" pt_clust_4="33.01016" pt_clust_5="143.89532" pt_clust_6="51.35521"></scales>
<clustering>
<clus scale="   33.010">  3  4 -1 -1</clus>
<clus scale="   51.355">  1  6  2 -1</clus>
<clus scale="  143.895">  1  5  2 -1</clus>
<clus scale="   51.355">  1  3  2 -1</clus>
</clustering>
</event>
<event>
 6    0  0.6549018E+002  0.1185900E+03  0.7546771E-02  0.1245441E+00
         21   -1    0    0  506  501  0.00000000000E+00  0.00000000000E+00  0.29271459759E+04  0.29271459759E+04  0.00000000000E+00 0. -1.
         21   -1    0    0  503  502 -0.00000000000E+00 -0.00000000000E+00 -0.44186233777E+02  0.44186233777E+02  0.00000000000E+00 0.  1.
         21    1    1    2  503  505 -0.10912998872E+03  0.56332647415E+02  0.11797719299E+03  0.17029779701E+03  0.00000000000E+00 0.  1.
         21    1    1    2  504  502  0.11433881575E+03 -0.19453854960E+02  0.18395787261E+03  0.21746796582E+03  0.00000000000E+00 0. -1.
         21    1    1    2  505  501 -0.20369097613E+02  0.32992895882E+02  0.59970438761E+03  0.60095655736E+03  0.00000000000E+00 0. -1.
         21    1    1    2  506  504  0.15160270582E+02 -0.69871688337E+02  0.19813202889E+04  0.19826098895E+04  0.00000000000E+00 0. -1.
<scales pt_clust_3="118.59001" pt_clust_4="14000.00000" pt_clust_5="38.77411" pt_clust_6="41.82594"></scales>
<clustering>
<clus scale="   38.774">  1  5  2 -1</clus>
<clus scale="   41.826">  1  6  2 -1</clus>
<clus scale="  118.590">  2  3  1 -1</clus>
<clus scale="   38.774">  1  3  2 -1</clus>
</clustering>
</event>
<event>
 6    0  0.6549018E+002  0.1997704E+03  0.7546771E-02  0.1149933E+00
         21   -1    0    0  502  501  0.00000000000E+00  0.00000000000E+00  0.13893485592E+04  0.13893485592E+04  0.00000000000E+00 0. -1.
         21   -1    0    0  503  502 -0.00000000000E+00 -0.00000000000E+00 -0.37918698568E+02  0.37918698568E+02  0.00000000000E+00 0. -1.
         21    1    1    2  503  506  0.68628382429E+02  0.57145811596E+02  0.19753120494E+03  0.21678116981E+03  0.00000000000E+00 0. -1.
         21    1    1    2  504  505 -0.15824796495E+03 -0.10757772730E+03  0.84973211900E+03  0.87101094131E+03  0.00000000000E+00 0. -1.
         21    1    1    2  505  501 -0.17265274359E+02  0.26367770452E+02  0.12958800158E+03  0.13336565963E+03  0.00000000000E+00 0. -1.
         21    1    1    2  506  504  0.10688485688E+03  0.24064145249E+02  0.17457853515E+03  0.20610948705E+03  0.00000000000E+00 0. -1.
<scales pt_clust_3="49.77442" pt_clust_4="192.19082" pt_clust_5="31.51744" pt_clust_6="49.77442"></scales>
<clustering>
<clus scale="   31.517">  1  5  2 -1</clus>
<clus scale="   49.774">  3  6 -1 -1</clus>
<clus scale="  192.191">  1  4  2 -1</clus>
<clus scale="   31.517">  1  3  2 -1</clus>
</clustering>
</event>
<event>
 6    0  0.6549018E+002  0.2812271E+03  0.7546771E-02  0.1095021E+00
         21   -1    0    0  503  501  0.00000000000E+00  0.00000000000E+00  0.85874726772E+02  0.85874726772E+02  0.00000000000E+00 0. -1.
         21   -1    0    0  505  502 -0.00000000000E+00 -0.00000000000E+00 -0.12603089146E+04  0.12603089146E+04  0.00000000000E+00 0. -1.
         21    1    1    2  503  506 -0.11979804758E+03  0.15677635203E+03 -0.24691236298E+03  0.31606346159E+03  0.00000000000E+00 0. -1.
         21    1    1    2  504  501  0.28874860627E+02  0.12317330317E+02  0.21139666320E+01  0.31463360553E+02  0.00000000000E+00 0. -1.
         21    1    1    2  505  504  0.75009222247E+02 -0.25073826173E+03 -0.82179329112E+03  0.86246175141E+03  0.00000000000E+00 0. -1.
         21    1    1    2  506  502  0.15913964708E+02  0.81644579378E+02 -0.10784250037E+03  0.13619506783E+03  0.00000000000E+00 0. -1.
<scales pt_clust_3="70.37368" pt_clust_4="31.39226" pt_clust_5="260.84164" pt_clust_6="70.37368"></scales>
<clustering>
<clus scale="   31.392">  1  4  2 -1</clus>
<clus scale="   70.374">  3  6 -1 -1</clus>
<clus scale="  260.842">  2  5  1 -1</clus>
<clus scale="   31.392">  1  3  2 -1</clus>
</clustering>
</event>
<event>
 6    0  0.6549018E+002  0.2214052E+03  0.7546771E-02  0.1132840E+00
         21   -1    0    0  504  501  0.00000000000E+00  0.00000000000E+00  0.67658113996E+03  0.67658113996E+03  0.00000000000E+00 0. -1.
         21   -1    0    0  506  502 -0.00000000000E+00 -0.00000000000E+00 -0.29569833705E+03  0.29569833705E+03  0.00000000000E+00 0.  1.
         21    1    1    2  503  501  0.11119395362E+01 -0.94200791137E+02  0.62083651794E+02  0.11282466610E+03  0.00000000000E+00 0. -1.
         21    1    1    2  504  505  0.19480648870E+03 -0.32981867301E+02  0.50379931417E+03  0.54115720504E+03  0.00000000000E+00 0. -1.
         21    1    1    2  505  502 -0.21258773936E+02  0.38787326665E+02  0.61964390155E+01  0.44663050002E+02  0.00000000000E+00 0.  1.
         21    1    1    2  506  503 -0.17465965430E+03  0.88395331773E+02 -0.19119660208E+03  0.27363455587E+03  0.00000000000E+00 0.  1.
<scales pt_clust_3="90.64526" pt_clust_4="221.40523" pt_clust_5="44.23112" pt_clust_6="14000.00000"></scales>
<clustering>
<clus scale="   44.231">  2  5  1 -1</clus>
<clus scale="   90.645">  1  3  2 -1</clus>
<clus scale="  221.405">  1  4  2 -1</clus>
<clus scale="   90.645">  1  3  2 -1</clus>
</clustering>
</event>
<event>
 6    0  0.6549018E+002  0.1583426E+03  0.7546771E-02  0.1190581E+00
         21   -1    0    0  503  501  0.00000000000E+00  0.00000000000E+00  0.21255779449E+03  0.21255779449E+03  0.00000000000E+00 0. -1.
         21   -1    0    0  505  502 -0.00000000000E+00 -0.00000000000E+00 -0.15490380221E+04  0.15490380221E+04  0.00000000000E+00 0. -1.
         21    1    1    2  503  502  0.36934185768E+02  0.37806062818E+02 -0.39385158602E+03  0.39738206335E+03  0.00000000000E+00 0. -1.
         21    1    1    2  504  501 -0.11067430478E+03  0.39275521611E+02  0.11868959327E+03  0.16696882310E+03  0.00000000000E+00 0. -1.
         21    1    1    2  505  506  0.10666754463E+03 -0.53396357763E+02 -0.11197660508E+04  0.11261017470E+04  0.00000000000E+00 0. -1.
         21    1    1    2  506  504 -0.32927425609E+02 -0.23685226666E+02  0.58447815935E+02  0.71143183138E+02  0.00000000000E+00 0. -1.
<scales pt_clust_3="52.85293" pt_clust_4="39.22694" pt_clust_5="143.58706" pt_clust_6="39.22694"></scales>
<clustering>
<clus scale="   39.227">  4  6 -1 -1</clus>
<clus scale="   52.853">  2  3  1 -1</clus>
<clus scale="  143.587">  2  5  1 -1</clus>
<clus scale="  158.343">  1  3  2 -1</clus>
</clustering>
</event>
<event>
 6    0  0.6549018E+002  0.8336955E+02  0.7546771E-02  0.1319752E+00
         21   -1    0    0  504  501  0.00000000000E+00  0.00000000000E+00  0.31760218936E+03  0.31760218936E+03  0.00000000000E+00 0. -1.
         21   -1    0    0  505  502 -0.00000000000E+00 -0.00000000000E+00 -0.72276108986E+02  0.72276108986E+02  0.00000000000E+00 0. -1.
         21    1    1    2  503  501  0.50169428766E+01  0.92303373654E+02  0.80131589552E+02  0.12233623399E+03  0.00000000000E+00 0. -1.
         21    1    1    2  504  502 -0.75520408896E+02 -0.52611209452E+02  0.14749842316E+03  0.17385930046E+03  0.00000000000E+00 0. -1.
         21    1    1    2  505  506  0.28082546032E+02 -0.11258681489E+02 -0.14252191315E+02  0.33444166274E+02  0.00000000000E+00 0. -1.
         21    1    1    2  506  503  0.42420919988E+02 -0.28433482713E+02  0.31948258974E+02  0.60238597621E+02  0.00000000000E+00 0. -1.
<scales pt_clust_3="83.36955" pt_clust_4="14000.00000" pt_clust_5="30.25537" pt_clust_6="59.74128"></scales>
<clustering>
<clus scale="   30.255">  2  5  1 -1</clus>
<clus scale="   59.741">  2  6  1 -1</clus>
<clus scale="   83.370">  2  3  1 -1</clus>
<clus scale="   83.370">  1  3  2 -1</clus>
</clustering>
</event>
<event>
 6    0  0.6549018E+002  0.7963269E+02  0.7546771E-02  0.1330097E+00
         21   -1    0    0  504  501  0.00000000000E+00  0.00000000000E+00  0.88841934745E+02  0.88841934745E+02  0.00000000000E+00 0.  1.
         21   -1    0    0  503  502 -0.00000000000E+00 -0.00000000000E+00 -0.63271119030E+03  0.63271119030E+03  0.00000000000E+00 0. -1.
         21    1    1    2  503  501  0.36996013447E+02  0.41175499330E+02 -0.26748389047E+03  0.27315153014E+03  0.00000000000E+00 0. -1.
         21    1    1    2  504  506  0.55629345151E+02  0.24267939354E+02  0.50022062925E+02  0.78649626202E+02  0.00000000000E+00 0.  1.
         21    1    1    2  505  502 -0.16081421780E+02  0.34912289839E+02 -0.13587197788E+03  0.14120437132E+03  0.00000000000E+00 0. -1.
         21    1    1    2  506  505 -0.76543936818E+02 -0.10035572852E+03 -0.19053545012E+03  0.22854759737E+03  0.00000000000E+00 0. -1.
<scales pt_clust_3="79.63269" pt_clust_4="60.67993" pt_clust_5="38.43800" pt_clust_6="14000.00000"></scales>
<clustering>
<clus scale="   38.438">  2  5  1 -1</clus>
<clus scale="   60.680">  1  4  2 -1</clus>
<clus scale="   79.633">  2  3  1 -1</clus>
<clus scale="   60.680">  1  3  2 -1</clus>
</clustering>
</event>
<event>
 6    0  0.6549018E+002  0.9464505E+02  0.7546771E-02  0.1291978E+00
         21   -1    0    0  504  501  0.00000000000E+00  0.00000000000E+00  0.86767432855E+02  0.86767432855E+02  0.00000000000E+00 0. -1.
         21   -1    0    0  503  502 -0.00000000000E+00 -0.00000000000E+00 -0.12045078568E+04  0.12045078568E+04  0.00000000000E+00 0.  1.
         21    1    1    2  503  505 -0.99034553106E+02  0.50467871953E+02 -0.75212231651E+03  0.76029127826E+03  0.00000000000E+00 0.  1.
         21    1    1    2  504  506  0.63845737730E+02 -0.31845291159E+02  0.85001566294E+01  0.71851607206E+02  0.00000000000E+00 0. -1.
         21    1    1    2  505  501 -0.41665035009E+02  0.25958167393E+01  0.27295413361E+02  0.49877379616E+02  0.00000000000E+00 0. -1.
         21    1    1    2  506  502  0.76853850385E+02 -0.21218397533E+02 -0.40141367740E+03  0.40925502455E+03  0.00000000000E+00 0. -1.
<scales pt_clust_3="14000.00000" pt_clust_4="41.56857" pt_clust_5="41.74582" pt_clust_6="94.64505"></scales>
<clustering>
<clus scale="   41.746">  1  5  2 -1</clus>
<clus scale="   41.569">  1  4  2 -1</clus>
<clus scale="   94.645">  2  6  1 -1</clus>
<clus scale="   41.746">  1  3  2 -1</clus>
</clustering>
</event>
<event>
 6    0  0.6549018E+002  0.2346696E+03  0.7546771E-02  0.1123396E+00
         21   -1    0    0  506  501  0.00000000000E+00  0.00000000000E+00  0.10596891924E+03  0.10596891924E+03  0.00000000000E+00 0.  1.
         21   -1    0    0  503  502 -0.00000000000E+00 -0.00000000000E+00 -0.97071782102E+03  0.97071782102E+03  0.00000000000E+00 0.  1.
         21    1    1    2  503  501  0.10644248523E+02  0.12638718475E+03 -0.13664717036E+03  0.18643891671E+03  0.00000000000E+00 0.  1.
         21    1    1    2  504  505 -0.12867615157E+03  0.53453895221E+01 -0.31751202975E+03  0.34263685471E+03  0.00000000000E+00 0. -1.
         21    1    1    2  505  502 -0.10081433106E+03 -0.11690013853E+00 -0.16466641492E+03  0.19307659417E+03  0.00000000000E+00 0.  1.
         21    1    1    2  506  504  0.21884623410E+03 -0.13161567414E+03 -0.24592328674E+03  0.35453437467E+03  0.00000000000E+00 0.  1.
<scales pt_clust_3="126.83462" pt_clust_4="37.53327" pt_clust_5="37.53327" pt_clust_6="230.80334"></scales>
<clustering>
<clus scale="   37.533">  4  5 -1 -1</clus>
<clus scale="  126.835">  1  3  2 -1</clus>
<clus scale="  230.803">  1  6  2 -1</clus>
<clus scale="  126.835">  1  3  2 -1</clus>
</clustering>
</event>
<event>
 6    0  0.6549018E+002  0.2252538E+03  0.7546771E-02  0.1130026E+00
         21   -1    0    0  505  501  0.00000000000E+00  0.00000000000E+00  0.10412180934E+04  0.10412180934E+04  0.00000000000E+00 0. -1.
         21   -1    0    0  501  502 -0.00000000000E+00 -0.00000000000E+00 -0.55535877026E+03  0.55535877026E+03  0.00000000000E+00 0. -1.
         21    1    1    2  503  502  0.55486017979E+02 -0.44966372601E+02 -0.11406862039E+03  0.13458203080E+03  0.00000000000E+00 0.  1.
         21    1    1    2  504  506 -0.13620438355E+03  0.14273588765E+03  0.64798518659E+03  0.67735512824E+03  0.00000000000E+00 0. -1.
         21    1    1    2  505  504 -0.39063002713E+02 -0.85148555327E+01  0.35373017431E+03  0.35598238322E+03  0.00000000000E+00 0.  1.
         21    1    1    2  506  503  0.11978136829E+03 -0.89254659514E+02 -0.40178741736E+03  0.42865732140E+03  0.00000000000E+00 0. -1.
<scales pt_clust_3="33.85419" pt_clust_4="219.86836" pt_clust_5="39.98026" pt_clust_6="33.85419"></scales>
<clustering>
<clus scale="   33.854">  3  6 -1 -1</clus>
<clus scale="   39.980">  1  5  2 -1</clus>
<clus scale="  219.868">  1  4  2 -1</clus>
<clus scale="   39.980">  1  3  2 -1</clus>
</clustering>
</event>
<event>
 6    0  0.6549018E+002  0.1445770E+03  0.7546771E-02  0.1207300E+00
         21   -1    0    0  506  501  0.00000000000E+00  0.00000000000E+00  0.17769679302E+03  0.17769679302E+03  0.00000000000E+00 0.  1.
         21   -1    0    0  505  502 -0.00000000000E+00 -0.00000000000E+00 -0.39892141950E+03  0.39892141950E+03  0.00000000000E+00 0.  1.
         21    1    1    2  503  504 -0.43748730115E+01  0.13332052603E+03 -0.10299942379E+02  0.13378935305E+03  0.00000000000E+00 0.  1.
         21    1    1    2  504  501  0.64433427246E+02  0.14985201361E+02  0.77494696916E+02  0.10189038648E+03  0.00000000000E+00 0.  1.
         21    1    1    2  505  503 -0.31756898205E+02 -0.13073868676E+02 -0.21885055170E+02  0.40723239871E+02  0.00000000000E+00 0.  1.
         21    1    1    2  506  502 -0.28301656029E+02 -0.13523185872E+03 -0.26653432584E+03  0.30021523312E+03  0.00000000000E+00 0.  1.
<scales pt_clust_3="144.57701" pt_clust_4="65.02869" pt_clust_5="34.34278" pt_clust_6="14000.00000"></scales>
<clustering>
<clus scale="   34.343">  2  5  1 -1</clus>
<clus scale="   65.029">  1  4  2 -1</clus>
<clus scale="  144.577">  1  3  2 -1</clus>
<clus scale="   65.029">  1  3  2 -1</clus>
</clustering>
</event>
<event>
 6    0  0.6549018E+002  0.2330029E+03  0.7546771E-02  0.1124544E+00
         21   -1    0    0  503  501  0.00000000000E+00  0.00000000000E+00  0.14244106662E+04  0.14244106662E+04  0.00000000000E+00 0.  1.
         21   -1    0    0  504  502 -0.00000000000E+00 -0.00000000000E+00 -0.31461559342E+04  0.31461559342E+04  0.00000000000E+00 0.  1.
         21    1    1    2  503  505  0.59653750745E+02 -0.15846341356E+03  0.11330791390E+04  0.11456603155E+04  0.00000000000E+00 0.  1.
         21    1    1    2  504  501 -0.97569444425E+02  0.14345424327E+03 -0.26449103617E+03  0.31631380718E+03  0.00000000000E+00 0.  1.
         21    1    1    2  505  506 -0.82186894590E+01 -0.60308982268E+02  0.25486057182E+03  0.26202792078E+03  0.00000000000E+00 0.  1.
         21    1    1    2  506  502  0.46134383139E+02  0.75318152554E+02 -0.28451939426E+04  0.28465645569E+04  0.00000000000E+00 0.  1.
<scales pt_clust_3="41.11535" pt_clust_4="222.68303" pt_clust_5="41.11535" pt_clust_6="88.32443"></scales>
<clustering>
<clus scale="   41.115">  3  5 -1 -1</clus>
<clus scale="   88.324">  2  6  1 -1</clus>
<clus scale="  222.683">  2  4  1 -1</clus>
<clus scale="  233.003">  1  3  2 -1</clus>
</clustering>
</event>
<event>
 6    0  0.6549018E+002  0.1152426E+03  0.7546771E-02  0.1251158E+00
         21   -1    0    0  505  501  0.00000000000E+00  0.00000000000E+00  0.45402274071E+03  0.45402274071E+03  0.00000000000E+00 0.  1.
         21   -1    0    0  504  502 -0.00000000000E+00 -0.00000000000E+00 -0.83191516870E+02  0.83191516870E+02  0.00000000000E+00 0.  1.
         21    1    1    2  503  501 -0.30257759104E+01  0.35026519304E+02  0.10334648898E+03  0.10916276452E+03  0.00000000000E+00 0. -1.
         21    1    1    2  504  506  0.91531017400E+01  0.55940805343E+02 -0.25891256696E+02  0.62317815649E+02  0.00000000000E+00 0.  1.
         21    1    1    2  505  502 -0.13908673924E+02 -0.13897716860E+03  0.28359474207E+03  0.31612352385E+03  0.00000000000E+00 0.  1.
         21    1    1    2  506  503  0.77813480940E+01  0.48009843955E+02  0.97812494959E+01  0.49610153562E+02  0.00000000000E+00 0.  1.
<scales pt_clust_3="35.15697" pt_clust_4="31.76281" pt_clust_5="110.02290" pt_clust_6="31.76281"></scales>
<clustering>
<clus scale="   31.763">  4  6 -1 -1</clus>
<clus scale="   35.157">  1  3  2 -1</clus>
<clus scale="  110.023">  1  5  2 -1</clus>
<clus scale="   35.157">  1  3  2 -1</clus>
</clustering>
</event>
<event>
 6    0  0.1181451E+003  0.6313298E+02  0.7546771E-02  0.1385135E+00
         21   -1    0    0  505  501  0.00000000000E+00  0.00000000000E+00  0.86969278131E+03  0.86969278131E+03  0.00000000000E+00 0.  1.
         21   -1    0    0  504  502 -0.00000000000E+00 -0.00000000000E+00 -0.22265628396E+04  0.22265628396E+04  0.00000000000E+00 0. -1.
         21    1    1    2  503  502 -0.11263820293E+03  0.44859583374E+02 -0.70929576545E+02  0.14046619454E+03  0.00000000000E+00 0.  1.
         21    1    1    2  504  506  0.62433321719E+02  0.13085378064E+01 -0.19937587137E+04  0.19947364338E+04  0.00000000000E+00 0. -1.
         21    1    1    2  505  503  0.99773453811E+01 -0.32347755358E+02  0.83050876194E+03  0.83119836884E+03  0.00000000000E+00 0.  1.
         21    1    1    2  506  501  0.40227535832E+02 -0.13820365822E+02 -0.12269052999E+03  0.12985462371E+03  0.00000000000E+00 0.  1.
<scales pt_clust_3="14000.00000" pt_clust_4="63.13298" pt_clust_5="33.85151" pt_clust_6="44.44660"></scales>
<clustering>
<clus scale="   33.852">  1  5  2 -1</clus>
<clus scale="   44.447">  1  6  2 -1</clus>
<clus scale="   63.133">  2  4  1 -1</clus>
<clus scale="   33.852">  1  3  2 -1</clus>
</clustering>
</event>
<event>
 6    0  0.6549018E+002  0.9630491E+02  0.7546771E-02  0.1288264E+00
         21   -1    0    0  504  501  0.00000000000E+00  0.00000000000E+00  0.12232221340E+03  0.12232221340E+03  0.00000000000E+00 0. -1.
         21   -1    0    0  505  502 -0.00000000000E+00 -0.00000000000E+00 -0.91487806377E+03  0.91487806377E+03  0.00000000000E+00 0. -1.
         21    1    1    2  503  506 -0.17727461720E+01  0.60455993020E+02 -0.13565648891E+03  0.14852862588E+03  0.00000000000E+00 0. -1.
         21    1    1    2  504  502  0.39275862015E+02 -0.13609217000E+03  0.27458026319E+02  0.14428310809E+03  0.00000000000E+00 0. -1.
         21    1    1    2  505  503 -0.37772846671E+01  0.44445077599E+02 -0.69565335501E+03  0.69708193431E+03  0.00000000000E+00 0. -1.
         21    1    1    2  506  501 -0.33725831176E+02  0.31191099380E+02  0.11295967227E+02  0.47306608889E+02  0.00000000000E+00 0. -1.
<scales pt_clust_3="14000.00000" pt_clust_4="96.30491" pt_clust_5="44.60530" pt_clust_6="48.71634"></scales>
<clustering>
<clus scale="   44.605">  2  5  1 -1</clus>
<clus scale="   48.716">  1  6  2 -1</clus>
<clus scale="   96.305">  1  4  2 -1</clus>
<clus scale="   48.716">  1  3  2 -1</clus>
</clustering>
</event>
<event>
 6    0  0.6549018E+002  0.1809204E+03  0.7546771E-02  0.1166915E+00
         21   -1    0    0  504  501  0.00000000000E+00  0.00000000000E+00  0.26232486091E+04  0.26232486091E+04  0.00000000000E+00 0. -1.
         21   -1    0    0  506  502 -0.00000000000E+00 -0.00000000000E+00 -0.84823303584E+02  0.84823303584E+02  0.00000000000E+00 0.  1.
         21    1    1    2  503  501  0.85506597852E+02  0.10359014914E+03  0.23920722351E+04  0.23958405363E+04  0.00000000000E+00 0. -1.
         21    1    1    2  504  502  0.34611433154E+01  0.36467944880E+02  0.12330414613E+03  0.12863049004E+03  0.00000000000E+00 0.  1.
         21    1    1    2  505  503 -0.70250852123E+02 -0.47849972783E+02  0.27697003227E+02  0.89397573273E+02  0.00000000000E+00 0.  1.
         21    1    1    2  506  505 -0.18716889045E+02 -0.92208121236E+02 -0.46480789587E+01  0.94203313081E+02  0.00000000000E+00 0.  1.
<scales pt_clust_3="164.57730" pt_clust_4="36.63182" pt_clust_5="71.44004" pt_clust_6="71.44004"></scales>
<clustering>
<clus scale="   36.632">  1  4  2 -1</clus>
<clus scale="   71.440">  5  6 -1 -1</clus>
<clus scale="  164.577">  1  3  2 -1</clus>
<clus scale="   36.632">  1  3  2 -1</clus>
</clustering>
</event>
<event>
 6    0  0.6549018E+002  0.1481954E+03  0.7546771E-02  0.1202708E+00
         21   -1    0    0  504  501  0.00000000000E+00  0.00000000000E+00  0.12223577390E+03  0.12223577390E+03  0.00000000000E+00 0. -1.
         21   -1    0    0  503  502 -0.00000000000E+00 -0.00000000000E+00 -0.14489954338E+04  0.14489954338E+04  0.00000000000E+00 0. -1.
         21    1    1    2  503  505 -0.38675376868E+01  0.13545986042E+03 -0.71911781408E+03  0.73177507621E+03  0.00000000000E+00 0. -1.
         21    1    1    2  504  506  0.30250443726E+02 -0.47899857527E+02 -0.16469980232E+03  0.17417092347E+03  0.00000000000E+00 0. -1.
         21    1    1    2  505  501 -0.68555146913E+02  0.48828530865E+01  0.95321542110E+02  0.11751530459E+03  0.00000000000E+00 0. -1.
         21    1    1    2  506  502  0.42172240873E+02 -0.92442855980E+02 -0.53826358557E+03  0.54776990340E+03  0.00000000000E+00 0. -1.
<scales pt_clust_3="140.93252" pt_clust_4="34.21727" pt_clust_5="68.72882" pt_clust_6="34.21727"></scales>
<clustering>
<clus scale="   34.217">  4  6 -1 -1</clus>
<clus scale="   68.729">  1  5  2 -1</clus>
<clus scale="  140.933">  2  3  1 -1</clus>
<clus scale="   68.729">  1  3  2 -1</clus>
</clustering>
</event>
<event>
 6    0  0.6549018E+002  0.1901815E+03  0.7546771E-02  0.1158298E+00
         21   -1    0    0  504  501  0.00000000000E+00  0.00000000000E+00  0.73872907805E+03  0.73872907805E+03  0.00000000000E+00 0.  1.
         21   -1    0    0  506  502 -0.00000000000E+00 -0.00000000000E+00 -0.12357602517E+03  0.12357602517E+03  0.00000000000E+00 0.  1.
         21    1    1    2  503  505  0.30042848254E+02 -0.17697582090E+03  0.10016837771E+03  0.20556438847E+03  0.00000000000E+00 0.  1.
         21    1    1    2  504  502 -0.42870226708E+02  0.23988007667E+02  0.51866507100E+02  0.71438192926E+02  0.00000000000E+00 0. -1.
         21    1    1    2  505  501  0.83205075384E+02  0.18013003955E+03  0.46939732239E+03  0.50961138329E+03  0.00000000000E+00 0.  1.
         21    1    1    2  506  503 -0.70377696929E+02 -0.27142226319E+02 -0.62791543110E+01  0.75691138540E+02  0.00000000000E+00 0.  1.
<scales pt_clust_3="14000.00000" pt_clust_4="49.12515" pt_clust_5="190.18147" pt_clust_6="77.06244"></scales>
<clustering>
<clus scale="   49.125">  1  4  2 -1</clus>
<clus scale="   77.062">  2  6  1 -1</clus>
<clus scale="  190.181">  1  5  2 -1</clus>
<clus scale="   49.125">  1  3  2 -1</clus>
</clustering>
</event>
<event>
 6    0  0.6549018E+002  0.2215394E+03  0.7546771E-02  0.1132741E+00
         21   -1    0    0  506  501  0.00000000000E+00  0.00000000000E+00  0.20255719981E+04  0.20255719981E+04  0.00000000000E+00 0. -1.
         21   -1    0    0  503  502 -0.00000000000E+00 -0.00000000000E+00 -0.13274545610E+04  0.13274545610E+04  0.00000000000E+00 0. -1.
         21    1    1    2  503  504  0.31021407013E+02  0.96462731469E+02 -0.11756990853E+03  0.15520976015E+03  0.00000000000E+00 0. -1.
         21    1    1    2  504  501 -0.19394660685E+02  0.42401965399E+02 -0.19992037565E+02  0.50732249100E+02  0.00000000000E+00 0. -1.
         21    1    1    2  505  502 -0.39807046568E+02 -0.23519539194E+03 -0.11421076261E+04  0.11667524600E+04  0.00000000000E+00 0. -1.
         21    1    1    2  506  505  0.28180300240E+02  0.96330695068E+02  0.19777870093E+04  0.19803320899E+04  0.00000000000E+00 0. -1.
<scales pt_clust_3="43.27766" pt_clust_4="43.27766" pt_clust_5="212.15435" pt_clust_6="100.36798"></scales>
<clustering>
<clus scale="   43.278">  3  4 -1 -1</clus>
<clus scale="  100.368">  1  6  2 -1</clus>
<clus scale="  212.154">  2  5  1 -1</clus>
<clus scale="  100.368">  1  3  2 -1</clus>
</clustering>
</event>
<event>
 6    0  0.6549018E+002  0.9931239E+02  0.7546771E-02  0.1281749E+00
         21   -1    0    0  504  501  0.00000000000E+00  0.00000000000E+00  0.44407908029E+02  0.44407908029E+02  0.00000000000E+00 0. -1.
         21   -1    0    0  505  502 -0.00000000000E+00 -0.00000000000E+00 -0.10849714781E+04  0.10849714781E+04  0.00000000000E+00 0. -1.
         21    1    1    2  503  501  0.21414201177E+02 -0.23853469815E+02 -0.42931902263E+02  0.53578953575E+02  0.00000000000E+00 0. -1.
         21    1    1    2  504  506  0.33129891845E+02  0.52695407382E+02 -0.23930038198E+03  0.24726315639E+03  0.00000000000E+00 0. -1.
         21    1    1    2  505  503 -0.73067047783E+02 -0.87918822513E+02 -0.63141836468E+02  0.13059634121E+03  0.00000000000E+00 0. -1.
         21    1    1    2  506  502  0.18522954761E+02  0.59076884946E+02 -0.69518944941E+03  0.69794093501E+03  0.00000000000E+00 0. -1.
<scales pt_clust_3="32.05551" pt_clust_4="99.31239" pt_clust_5="14000.00000" pt_clust_6="61.34468"></scales>
<clustering>
<clus scale="   32.056">  1  3  2 -1</clus>
<clus scale="   61.345">  2  6  1 -1</clus>
<clus scale="   99.312">  2  4  1 -1</clus>
<clus scale="   32.056">  1  3  2 -1</clus>
</clustering>
</event>
<event>
 6    0  0.6549018E+002  0.1599270E+03  0.7546771E-02  0.1188779E+00
         21   -1    0    0  504  501  0.00000000000E+00  0.00000000000E+00  0.14680470078E+03  0.14680470078E+03  0.00000000000E+00 0.  1.
         21   -1    0    0  506  502 -0.00000000000E+00 -0.00000000000E+00 -0.41735602816E+03  0.41735602816E+03  0.00000000000E+00 0. -1.
         21    1    1    2  503  501  0.61713163960E+02  0.62470851794E+01 -0.55594173812E+01  0.62277185235E+02  0.00000000000E+00 0.  1.
         21    1    1    2  504  505 -0.13765892607E+03 -0.77039569230E+02  0.44372671554E+02  0.16387192906E+03  0.00000000000E+00 0.  1.
         21    1    1    2  505  502  0.31095891983E+02  0.25188616482E+02 -0.24135191177E+03  0.24464702371E+03  0.00000000000E+00 0. -1.
         21    1    1    2  506  503  0.44849870124E+02  0.45603867569E+02 -0.68012669784E+02  0.93364590925E+02  0.00000000000E+00 0. -1.
<scales pt_clust_3="63.03638" pt_clust_4="144.25440" pt_clust_5="40.01776" pt_clust_6="63.03638"></scales>
<clustering>
<clus scale="   40.018">  2  5  1 -1</clus>
<clus scale="   63.036">  3  6 -1 -1</clus>
<clus scale="  144.254">  1  4  2 -1</clus>
<clus scale="  144.254">  1  3  2 -1</clus>
</clustering>
</event>
<event>
 6    0  0.6549018E+002  0.1207486E+03  0.7546771E-02  0.1241867E+00
         21   -1    0    0  506  501  0.00000000000E+00  0.00000000000E+00  0.14624621347E+04  0.14624621347E+04  0.00000000000E+00 0.  1.
         21   -1    0    0  504  502 -0.00000000000E+00 -0.00000000000E+00 -0.68088466448E+02  0.68088466448E+02  0.00000000000E+00 0. -1.
         21    1    1    2  503  502  0.32423602250E+02 -0.14151885743E+02  0.31805086491E+02  0.47572359408E+02  0.00000000000E+00 0. -1.
         21    1    1    2  504  505 -0.16780366836E+01 -0.10710606676E+03 -0.59783135652E+01  0.10728590577E+03  0.00000000000E+00 0. -1.
         21    1    1    2  505  501 -0.20162682501E+02  0.32904669115E+02  0.19532879349E+03  0.19910446650E+03  0.00000000000E+00 0.  1.
         21    1    1    2  506  503 -0.10582883065E+02  0.88353283388E+02  0.11732181018E+04  0.11765878694E+04  0.00000000000E+00 0.  1.
<scales pt_clust_3="35.37748" pt_clust_4="14000.00000" pt_clust_5="37.68659" pt_clust_6="120.74864"></scales>
<clustering>
<clus scale="   35.377">  2  3  1 -1</clus>
<clus scale="   37.687">  1  5  2 -1</clus>
<clus scale="  120.749">  1  6  2 -1</clus>
<clus scale="   37.687">  1  3  2 -1</clus>
</clustering>
</event>
<event>
 6    0  0.6549018E+002  0.1747327E+03  0.7546771E-02  0.1173000E+00
         21   -1    0    0  503  501  0.00000000000E+00  0.00000000000E+00  0.47431671991E+03  0.47431671991E+03  0.00000000000E+00 0.  1.
         21   -1    0    0  505  502 -0.00000000000E+00 -0.00000000000E+00 -0.78675745141E+03  0.78675745141E+03  0.00000000000E+00 0.  1.
         21    1    1    2  503  502 -0.67277573316E+02  0.17255124504E+02  0.35602841755E+03  0.36273991412E+03  0.00000000000E+00 0.  1.
         21    1    1    2  504  501  0.13212238137E+02 -0.17577985389E+03  0.29509184436E+02  0.17872859938E+03  0.00000000000E+00 0.  1.
         21    1    1    2  505  506  0.14874892687E+01  0.82880861214E+02 -0.31975746094E+03  0.33032753988E+03  0.00000000000E+00 0. -1.
         21    1    1    2  506  504  0.52577845910E+02  0.75643868176E+02 -0.37822087255E+03  0.38927811794E+03  0.00000000000E+00 0.  1.
<scales pt_clust_3="69.45510" pt_clust_4="167.11109" pt_clust_5="48.41924" pt_clust_6="48.41924"></scales>
<clustering>
<clus scale="   48.419">  5  6 -1 -1</clus>
<clus scale="   69.455">  1  3  2 -1</clus>
<clus scale="  167.111">  1  4  2 -1</clus>
<clus scale="   69.455">  1  3  2 -1</clus>
</clustering>
</event>
<event>
 6    0  0.6549018E+002  0.8777889E+02  0.7546771E-02  0.1308321E+00
         21   -1    0    0  503  501  0.00000000000E+00  0.00000000000E+00  0.93783868982E+03  0.93783868982E+03  0.00000000000E+00 0. -1.
         21   -1    0    0  506  502 -0.00000000000E+00 -0.00000000000E+00 -0.78928539035E+03  0.78928539035E+03  0.00000000000E+00 0.  1.
         21    1    1    2  503  505 -0.39409724588E+02 -0.25418321722E+02  0.89027154144E+03  0.89150582442E+03  0.00000000000E+00 0. -1.
         21    1    1    2  504  502 -0.63858081790E+02 -0.67481442395E+02 -0.40268154723E+03  0.41326024266E+03  0.00000000000E+00 0.  1.
         21    1    1    2  505  504  0.88267101552E+02  0.38523386480E+01 -0.19729226186E+02  0.90527145627E+02  0.00000000000E+00 0.  1.
         21    1    1    2  506  501  0.15000704827E+02  0.89047425469E+02 -0.31930746855E+03  0.33183086746E+03  0.00000000000E+00 0.  1.
<scales pt_clust_3="46.89582" pt_clust_4="14000.00000" pt_clust_5="60.52237" pt_clust_6="87.77889"></scales>
<clustering>
<clus scale="   46.896">  1  3  2 -1</clus>
<clus scale="   60.522">  1  5  2 -1</clus>
<clus scale="   87.779">  1  6  2 -1</clus>
<clus scale="   46.896">  1  3  2 -1</clus>
</clustering>
</event>
<event>
 6    0  0.6549018E+002  0.1400680E+03  0.7546771E-02  0.1213237E+00
         21   -1    0    0  505  501  0.00000000000E+00  0.00000000000E+00  0.31245483472E+04  0.31245483472E+04  0.00000000000E+00 0.  1.
         21   -1    0    0  506  502 -0.00000000000E+00 -0.00000000000E+00 -0.35684821882E+02  0.35684821882E+02  0.00000000000E+00 0. -1.
         21    1    1    2  503  502  0.62335074495E+02 -0.29867001883E+02  0.10367238577E+03  0.12460201798E+03  0.00000000000E+00 0. -1.
         21    1    1    2  504  501 -0.39732598020E+02 -0.21545016101E+02  0.25579764871E+04  0.25583757691E+04  0.00000000000E+00 0.  1.
         21    1    1    2  505  503  0.84179148840E+02  0.25235668616E+01  0.10689140662E+03  0.13608185147E+03  0.00000000000E+00 0. -1.
         21    1    1    2  506  504 -0.10678162531E+03  0.48888451123E+02  0.32032324578E+03  0.34117353054E+03  0.00000000000E+00 0. -1.
<scales pt_clust_3="33.95672" pt_clust_4="45.19809" pt_clust_5="33.95672" pt_clust_6="134.95983"></scales>
<clustering>
<clus scale="   33.957">  3  5 -1 -1</clus>
<clus scale="   45.198">  1  4  2 -1</clus>
<clus scale="  134.960">  1  6  2 -1</clus>
<clus scale="   45.198">  1  3  2 -1</clus>
</clustering>
</event>
<event>
 6    0  0.6549018E+002  0.1314084E+03  0.7546771E-02  0.1225381E+00
         21   -1    0    0  504  501  0.00000000000E+00  0.00000000000E+00  0.40281887449E+03  0.40281887449E+03  0.00000000000E+00 0.  1.
         21   -1    0    0  506  502 -0.00000000000E+00 -0.00000000000E+00 -0.71665426691E+03  0.71665426691E+03  0.00000000000E+00 0. -1.
         21    1    1    2  503  502  0.28091601859E+02 -0.27827396910E+02 -0.95037547473E+02  0.10293511327E+03  0.00000000000E+00 0. -1.
         21    1    1    2  504  503 -0.67282077864E+02  0.20721689712E+03  0.50220478230E+02  0.22357955382E+03  0.00000000000E+00 0. -1.
         21    1    1    2  505  501  0.23968239296E+02 -0.85035486555E+02  0.25003216520E+03  0.26518219039E+03  0.00000000000E+00 0.  1.
         21    1    1    2  506  505  0.15222236708E+02 -0.94354013651E+02 -0.51905048838E+03  0.52777628392E+03  0.00000000000E+00 0. -1.
<scales pt_clust_3="39.54114" pt_clust_4="131.40837" pt_clust_5="88.77106" pt_clust_6="14000.00000"></scales>
<clustering>
<clus scale="   39.541">  2  3  1 -1</clus>
<clus scale="   88.771">  1  5  2 -1</clus>
<clus scale="  131.408">  1  4  2 -1</clus>
<clus scale="   88.771">  1  3  2 -1</clus>
</clustering>
</event>
<event>
 6    0  0.6549018E+002  0.8839063E+02  0.7546771E-02  0.1306796E+00
         21   -1    0    0  504  501  0.00000000000E+00  0.00000000000E+00  0.19653733753E+03  0.19653733753E+03  0.00000000000E+00 0. -1.
         21   -1    0    0  506  502 -0.00000000000E+00 -0.00000000000E+00 -0.75081221825E+03  0.75081221825E+03  0.00000000000E+00 0. -1.
         21    1    1    2  503  501 -0.27190318147E+02  0.37016190534E+02  0.12317749131E+02  0.47552483702E+02  0.00000000000E+00 0. -1.
         21    1    1    2  504  505  0.10576094656E+03 -0.81652819385E+02  0.13470771631E+03  0.18973331169E+03  0.00000000000E+00 0. -1.
         21    1    1    2  505  502 -0.21002649879E+02  0.48300773968E+02 -0.29095876817E+03  0.29568747156E+03  0.00000000000E+00 0. -1.
         21    1    1    2  506  503 -0.57567978534E+02 -0.36641451169E+01 -0.41034157799E+03  0.41437628882E+03  0.00000000000E+00 0. -1.
<scales pt_clust_3="45.92942" pt_clust_4="14000.00000" pt_clust_5="53.30531" pt_clust_6="88.39063"></scales>
<clustering>
<clus scale="   45.929">  1  3  2 -1</clus>
<clus scale="   53.305">  2  5  1 -1</clus>
<clus scale="   88.391">  2  6  1 -1</clus>
<clus scale="   45.929">  1  3  2 -1</clus>
</clustering>
</event>
<event>
 6    0  0.6549018E+002  0.1018971E+03  0.7546771E-02  0.1276356E+00
         21   -1    0    0  503  501  0.00000000000E+00  0.00000000000E+00  0.43669850062E+03  0.43669850062E+03  0.00000000000E+00 0.  1.
         21   -1    0    0  506  502 -0.00000000000E+00 -0.00000000000E+00 -0.32459105656E+03  0.32459105656E+03  0.00000000000E+00 0. -1.
         21    1    1    2  503  505  0.13081768721E+03 -0.77382897600E+02  0.31007930355E+03  0.34532673603E+03  0.00000000000E+00 0.  1.
         21    1    1    2  504  501 -0.53124912816E+02  0.20466155926E+02  0.65463017482E+02  0.86755556352E+02  0.00000000000E+00 0.  1.
         21    1    1    2  505  502 -0.36401822413E+02 -0.61675712543E+02 -0.87955329174E+02  0.11342453933E+03  0.00000000000E+00 0. -1.
         21    1    1    2  506  504 -0.41290951984E+02  0.11859245422E+03 -0.17547954780E+03  0.21578272547E+03  0.00000000000E+00 0. -1.
<scales pt_clust_3="101.89710" pt_clust_4="56.93083" pt_clust_5="71.97544" pt_clust_6="14000.00000"></scales>
<clustering>
<clus scale="   56.931">  1  4  2 -1</clus>
<clus scale="   71.975">  2  5  1 -1</clus>
<clus scale="  101.897">  1  3  2 -1</clus>
<clus scale="   56.931">  1  3  2 -1</clus>
</clustering>
</event>
<event>
 6    0  0.6549018E+002  0.2241267E+03  0.7546771E-02  0.1130843E+00
         21   -1    0    0  504  501  0.00000000000E+00  0.00000000000E+00  0.33971651837E+03  0.33971651837E+03  0.00000000000E+00 0. -1.
         21   -1    0    0  503  502 -0.00000000000E+00 -0.00000000000E+00 -0.62617531627E+03  0.62617531627E+03  0.00000000000E+00 0.  1.
         21    1    1    2  503  501  0.75792185183E+01  0.15142552431E+03 -0.51183442220E+03  0.53381795559E+03  0.00000000000E+00 0.  1.
         21    1    1    2  504  505  0.25073122354E+02 -0.19598552097E+02  0.20725144756E+02  0.37977576727E+02  0.00000000000E+00 0. -1.
         21    1    1    2  505  506  0.23997025630E+01 -0.19431270104E+03  0.24433799545E+03  0.31219263345E+03  0.00000000000E+00 0. -1.
         21    1    1    2  506  502 -0.35052043435E+02  0.62485728823E+02 -0.39687515907E+02  0.81903668870E+02  0.00000000000E+00 0. -1.
<scales pt_clust_3="210.67711" pt_clust_4="30.94646" pt_clust_5="30.94646" pt_clust_6="71.64574"></scales>
<clustering>
<clus scale="   30.946">  4  5 -1 -1</clus>
<clus scale="   71.646">  2  6  1 -1</clus>
<clus scale="  210.677">  2  3  1 -1</clus>
<clus scale="  224.127">  1  3  2 -1</clus>
</clustering>
</event>
<event>
 6    0  0.6549018E+002  0.7962468E+02  0.7546771E-02  0.1330120E+00
         21   -1    0    0  503  501  0.00000000000E+00  0.00000000000E+00  0.17590801075E+03  0.17590801075E+03  0.00000000000E+00 0.  1.
         21   -1    0    0  505  502 -0.00000000000E+00 -0.00000000000E+00 -0.39543244323E+03  0.39543244323E+03  0.00000000000E+00 0.  1.
         21    1    1    2  503  504 -0.30534492451E+02  0.73404757456E+02  0.13096581590E+03  0.15320789334E+03  0.00000000000E+00 0.  1.
         21    1    1    2  504  502 -0.35204603629E+02  0.34303567998E+02 -0.26350388562E+02  0.55771335571E+02  0.00000000000E+00 0. -1.
         21    1    1    2  505  506 -0.19905485695E+02 -0.55181924580E+02 -0.88268882220E+02  0.10598428529E+03  0.00000000000E+00 0. -1.
         21    1    1    2  506  501  0.85644581775E+02 -0.52526400874E+02 -0.23587097760E+03  0.25637693978E+03  0.00000000000E+00 0.  1.
<scales pt_clust_3="79.62468" pt_clust_4="49.15383" pt_clust_5="54.49099" pt_clust_6="14000.00000"></scales>
<clustering>
<clus scale="   49.154">  2  4  1 -1</clus>
<clus scale="   54.491">  2  5  1 -1</clus>
<clus scale="   79.625">  1  3  2 -1</clus>
<clus scale="   79.625">  1  3  2 -1</clus>
</clustering>
</event>
<event>
 6    0  0.6549018E+002  0.1487182E+03  0.7546771E-02  0.1202057E+00
         21   -1    0    0  504  501  0.00000000000E+00  0.00000000000E+00  0.33513395126E+03  0.33513395126E+03  0.00000000000E+00 0.  1.
         21   -1    0    0  503  502 -0.00000000000E+00 -0.00000000000E+00 -0.11068375119E+03  0.11068375119E+03  0.00000000000E+00 0.  1.
         21    1    1    2  503  501 -0.13813418780E+03  0.59186516385E+02  0.78348825547E+02  0.16947753841E+03  0.00000000000E+00 0.  1.
         21    1    1    2  504  505 -0.14081078071E+01 -0.62505238812E+02  0.10686589524E+03  0.12381117563E+03  0.00000000000E+00 0.  1.
         21    1    1    2  505  506  0.38936557139E+02  0.15060478273E+02 -0.49153327918E+01  0.42036103341E+02  0.00000000000E+00 0.  1.
         21    1    1    2  506  502  0.10060573847E+03 -0.11741755846E+02  0.44150812085E+02  0.11049288507E+03  0.00000000000E+00 0.  1.
<scales pt_clust_3="140.97700" pt_clust_4="62.52110" pt_clust_5="30.40272" pt_clust_6="30.40272"></scales>
<clustering>
<clus scale="   30.403">  5  6 -1 -1</clus>
<clus scale="   62.521">  1  4  2 -1</clus>
<clus scale="  140.977">  1  3  2 -1</clus>
<clus scale="   62.521">  1  3  2 -1</clus>
</clustering>
</event>
<event>
 6    0  0.6549018E+002  0.4760641E+03  0.7546771E-02  0.1020222E+00
         21   -1    0    0  504  501  0.00000000000E+00  0.00000000000E+00  0.74397410446E+03  0.74397410446E+03  0.00000000000E+00 0. -1.
         21   -1    0    0  506  502 -0.00000000000E+00 -0.00000000000E+00 -0.50426665676E+03  0.50426665676E+03  0.00000000000E+00 0.  1.
         21    1    1    2  503  501 -0.19002545429E+03  0.16797790383E+03 -0.18100434389E+03  0.31159079248E+03  0.00000000000E+00 0.  1.
         21    1    1    2  504  505 -0.66797929922E+01 -0.32564263322E+02  0.60113779198E+02  0.68692920520E+02  0.00000000000E+00 0. -1.
         21    1    1    2  505  502  0.33878618157E+03 -0.30412013990E+03  0.44038296993E+03  0.63340531772E+03  0.00000000000E+00 0. -1.
         21    1    1    2  506  503 -0.14208093428E+03  0.16870649940E+03 -0.79784957543E+02  0.23455173049E+03  0.00000000000E+00 0.  1.
<scales pt_clust_3="75.64996" pt_clust_4="33.24231" pt_clust_5="469.07090" pt_clust_6="75.64996"></scales>
<clustering>
<clus scale="   33.242">  1  4  2 -1</clus>
<clus scale="   75.650">  3  6 -1 -1</clus>
<clus scale="  469.071">  1  5  2 -1</clus>
<clus scale="   33.242">  1  3  2 -1</clus>
</clustering>
</event>
<event>
 6    0  0.6549018E+002  0.1425247E+03  0.7546771E-02  0.1209972E+00
         21   -1    0    0  505  501  0.00000000000E+00  0.00000000000E+00  0.34988077401E+03  0.34988077401E+03  0.00000000000E+00 0. -1.
         21   -1    0    0  503  502 -0.00000000000E+00 -0.00000000000E+00 -0.22630547738E+03  0.22630547738E+03  0.00000000000E+00 0. -1.
         21    1    1    2  503  504 -0.33942866358E+02  0.13538476449E+03 -0.15185214476E+03  0.20625282180E+03  0.00000000000E+00 0. -1.
         21    1    1    2  504  501  0.34006338848E+02 -0.21097681705E+02  0.23470238984E+03  0.23808980460E+03  0.00000000000E+00 0. -1.
         21    1    1    2  505  506 -0.15680679679E+02 -0.61262517833E+02  0.43079659977E+02  0.76516906042E+02  0.00000000000E+00 0. -1.
         21    1    1    2  506  502  0.15617207189E+02 -0.53024564954E+02 -0.23546084417E+01  0.55326718951E+02  0.00000000000E+00 0. -1.
<scales pt_clust_3="132.85565" pt_clust_4="40.01929" pt_clust_5="47.95894" pt_clust_6="47.95894"></scales>
<clustering>
<clus scale="   40.019">  1  4  2 -1</clus>
<clus scale="   47.959">  5  6 -1 -1</clus>
<clus scale="  132.856">  2  3  1 -1</clus>
<clus scale="   40.019">  1  3  2 -1</clus>
</clustering>
</event>
<event>
 6    0  0.6549018E+002  0.1057871E+03  0.7546771E-02  0.1268576E+00
         21   -1    0    0  505  501  0.00000000000E+00  0.00000000000E+00  0.93910084487E+03  0.93910084487E+03  0.00000000000E+00 0.  1.
         21   -1    0    0  503  502 -0.00000000000E+00 -0.00000000000E+00 -0.70485538285E+02  0.70485538285E+02  0.00000000000E+00 0.  1.
         21    1    1    2  503  504 -0.17922370966E+01  0.41681968256E+02  0.37451637810E+02  0.56064460812E+02  0.00000000000E+00 0.  1.
         21    1    1    2  504  501  0.33988847818E+02 -0.45576072749E+02  0.63767499843E+03  0.64020451717E+03  0.00000000000E+00 0.  1.
         21    1    1    2  505  506 -0.54398777732E+02 -0.78653072165E+02  0.20581930928E+03  0.22695180293E+03  0.00000000000E+00 0.  1.
         21    1    1    2  506  502  0.22202167011E+02  0.82547176658E+02 -0.12330638937E+02  0.86365602243E+02  0.00000000000E+00 0.  1.
<scales pt_clust_3="41.72048" pt_clust_4="56.14357" pt_clust_5="105.78713" pt_clust_6="14000.00000"></scales>
<clustering>
<clus scale="   41.720">  2  3  1 -1</clus>
<clus scale="   56.144">  1  4  2 -1</clus>
<clus scale="  105.787">  1  5  2 -1</clus>
<clus scale="   56.144">  1  3  2 -1</clus>
</clustering>
</event>
<event>
 6    0  0.6549018E+002  0.1579206E+03  0.7546771E-02  0.1191065E+00
         21   -1    0    0  505  501  0.00000000000E+00  0.00000000000E+00  0.36720291413E+03  0.36720291413E+03  0.00000000000E+00 0. -1.
         21   -1    0    0  506  502 -0.00000000000E+00 -0.00000000000E+00 -0.28754545497E+03  0.28754545497E+03  0.00000000000E+00 0. -1.
         21    1    1    2  503  501 -0.15295474641E+02  0.26049895225E+02  0.13957810387E+03  0.14280964836E+03  0.00000000000E+00 0. -1.
         21    1    1    2  504  503  0.46797554511E+02  0.13319894795E+02  0.12602306826E+03  0.13508976438E+03  0.00000000000E+00 0. -1.
         21    1    1    2  505  502 -0.16679262100E+03 -0.47880139802E+02 -0.16542831423E+03  0.23974739489E+03  0.00000000000E+00 0. -1.
         21    1    1    2  506  504  0.13529054113E+03  0.85103497819E+01 -0.20515398729E+02  0.13710156147E+03  0.00000000000E+00 0. -1.
<scales pt_clust_3="30.20842" pt_clust_4="47.39038" pt_clust_5="14000.00000" pt_clust_6="157.92061"></scales>
<clustering>
<clus scale="   30.208">  1  3  2 -1</clus>
<clus scale="   47.390">  1  4  2 -1</clus>
<clus scale="  157.921">  1  6  2 -1</clus>
<clus scale="   30.208">  1  3  2 -1</clus>
</clustering>
</event>
<event>
 6    0  0.6549018E+002  0.1170007E+03  0.7546771E-02  0.1248129E+00
         21   -1    0    0  503  501  0.00000000000E+00  0.00000000000E+00  0.13954556192E+04  0.13954556192E+04  0.00000000000E+00 0. -1.
         21   -1    0    0  505  502 -0.00000000000E+00 -0.00000000000E+00 -0.31728671746E+03  0.31728671746E+03  0.00000000000E+00 0.  1.
         21    1    1    2  503  506 -0.35614619865E+02 -0.18039250423E-01  0.28988411832E+03  0.29206369772E+03  0.00000000000E+00 0. -1.
         21    1    1    2  504  502 -0.32507030053E+02  0.47961057657E+02 -0.20165112031E+03  0.20980978142E+03  0.00000000000E+00 0.  1.
         21    1    1    2  505  501  0.13607837858E+03 -0.63323443367E+02  0.10837038263E+04  0.10940480642E+04  0.00000000000E+00 0. -1.
         21    1    1    2  506  504 -0.67956728661E+02  0.15380424961E+02 -0.93767922593E+02  0.11682079331E+03  0.00000000000E+00 0.  1.
<scales pt_clust_3="35.61462" pt_clust_4="58.01321" pt_clust_5="117.00069" pt_clust_6="14000.00000"></scales>
<clustering>
<clus scale="   35.615">  1  3  2 -1</clus>
<clus scale="   58.013">  2  4  1 -1</clus>
<clus scale="  117.001">  1  5  2 -1</clus>
<clus scale="   35.615">  1  3  2 -1</clus>
</clustering>
</event>
<event>
 6    0  0.6549018E+002  0.1073691E+03  0.7546771E-02  0.1265521E+00
         21   -1    0    0  506  501  0.00000000000E+00  0.00000000000E+00  0.15787745286E+04  0.15787745286E+04  0.00000000000E+00 0. -1.
         21   -1    0    0  503  502 -0.00000000000E+00 -0.00000000000E+00 -0.27072105824E+02  0.27072105824E+02  0.00000000000E+00 0. -1.
         21    1    1    2  503  504 -0.33718152344E+01  0.93910593733E+02  0.34000315950E+03  0.35275021931E+03  0.00000000000E+00 0. -1.
         21    1    1    2  504  501  0.23049762156E+02  0.41564946547E+02  0.71101185940E+03  0.71259862512E+03  0.00000000000E+00 0. -1.
         21    1    1    2  505  502 -0.36978103086E+02 -0.11032147430E+03  0.15678399079E+03  0.19524197184E+03  0.00000000000E+00 0. -1.
         21    1    1    2  506  505  0.17300156164E+02 -0.25154065984E+02  0.34390341305E+03  0.34525581812E+03  0.00000000000E+00 0. -1.
<scales pt_clust_3="14000.00000" pt_clust_4="42.69575" pt_clust_5="107.36907" pt_clust_6="30.52904"></scales>
<clustering>
<clus scale="   30.529">  1  6  2 -1</clus>
<clus scale="   42.696">  1  4  2 -1</clus>
<clus scale="  107.369">  2  5  1 -1</clus>
<clus scale="   30.529">  1  3  2 -1</clus>
</clustering>
</event>
<event>
 6    0  0.6549018E+002  0.1001856E+03  0.7546771E-02  0.1279906E+00
         21   -1    0    0  504  501  0.00000000000E+00  0.00000000000E+00  0.25109376952E+03  0.25109376952E+03  0.00000000000E+00 0.  1.
         21   -1    0    0  506  502 -0.00000000000E+00 -0.00000000000E+00 -0.12631883887E+03  0.12631883887E+03  0.00000000000E+00 0.  1.
         21    1    1    2  503  502 -0.21630132873E+02  0.39053927028E+02 -0.22184996151E+02  0.49852240859E+02  0.00000000000E+00 0. -1.
         21    1    1    2  504  505  0.64302213900E+02  0.23824988754E+02  0.73332629918E+02  0.10039959867E+03  0.00000000000E+00 0.  1.
         21    1    1    2  505  503 -0.12717199353E+02  0.73552331497E+02  0.33602718276E+02  0.81858507826E+02  0.00000000000E+00 0.  1.
         21    1    1    2  506  501 -0.29954881674E+02 -0.13643124728E+03  0.40024578615E+02  0.14530226104E+03  0.00000000000E+00 0.  1.
<scales pt_clust_3="44.64383" pt_clust_4="67.89086" pt_clust_5="100.18560" pt_clust_6="14000.00000"></scales>
<clustering>
<clus scale="   44.644">  2  3  1 -1</clus>
<clus scale="   67.891">  1  4  2 -1</clus>
<clus scale="  100.186">  1  5  2 -1</clus>
<clus scale="   67.891">  1  3  2 -1</clus>
</clustering>
</event>
<event>
 6    0  0.6549018E+002  0.1426606E+03  0.7546771E-02  0.1209793E+00
         21   -1    0    0  505  501  0.00000000000E+00  0.00000000000E+00  0.12283325971E+03  0.12283325971E+03  0.00000000000E+00 0.  1.
         21   -1    0    0  504  502 -0.00000000000E+00 -0.00000000000E+00 -0.26599137715E+03  0.26599137715E+03  0.00000000000E+00 0.  1.
         21    1    1    2  503  502  0.62916676686E+02  0.12051299533E+03 -0.16176115415E+03  0.21130206161E+03  0.00000000000E+00 0.  1.
         21    1    1    2  504  506 -0.16983059976E+02 -0.45380483935E+02 -0.14399940272E+02  0.50548698580E+02  0.00000000000E+00 0.  1.
         21    1    1    2  505  503  0.24774797093E+02 -0.21634254318E+02  0.16450232775E+02  0.36775558313E+02  0.00000000000E+00 0.  1.
         21    1    1    2  506  501 -0.70708413803E+02 -0.53498257080E+02  0.16552744203E+02  0.90198318353E+02  0.00000000000E+00 0.  1.
<scales pt_clust_3="134.21537" pt_clust_4="37.04956" pt_clust_5="32.89121" pt_clust_6="37.04956"></scales>
<clustering>
<clus scale="   32.891">  1  5  2 -1</clus>
<clus scale="   37.050">  4  6 -1 -1</clus>
<clus scale="  134.215">  2  3  1 -1</clus>
<clus scale="   32.891">  1  3  2 -1</clus>
</clustering>
</event>
<event>
 6    0  0.6549018E+002  0.9382958E+02  0.7546771E-02  0.1293834E+00
         21   -1    0    0  506  501  0.00000000000E+00  0.00000000000E+00  0.73007191089E+03  0.73007191089E+03  0.00000000000E+00 0.  1.
         21   -1    0    0  505  502 -0.00000000000E+00 -0.00000000000E+00 -0.26921246935E+03  0.26921246935E+03  0.00000000000E+00 0.  1.
         21    1    1    2  503  502  0.20916956153E+02  0.26969446115E+02 -0.42025307151E+02  0.54138678591E+02  0.00000000000E+00 0.  1.
         21    1    1    2  504  501  0.25137462647E+02  0.53869116548E+02  0.29118386413E+03  0.29718986604E+03  0.00000000000E+00 0.  1.
         21    1    1    2  505  504 -0.10741015835E+03 -0.66126759853E+02 -0.19726935874E+03  0.23414715540E+03  0.00000000000E+00 0.  1.
         21    1    1    2  506  503  0.61355739552E+02 -0.14711802810E+02  0.40897024329E+03  0.41380868021E+03  0.00000000000E+00 0.  1.
<scales pt_clust_3="34.13019" pt_clust_4="59.89765" pt_clust_5="14000.00000" pt_clust_6="93.82958"></scales>
<clustering>
<clus scale="   34.130">  2  3  1 -1</clus>
<clus scale="   59.898">  1  4  2 -1</clus>
<clus scale="   93.830">  1  6  2 -1</clus>
<clus scale="   59.898">  1  3  2 -1</clus>
</clustering>
</event>
<event>
 6    0  0.6549018E+002  0.1865990E+03  0.7546771E-02  0.1161565E+00
         21   -1    0    0  505  501  0.00000000000E+00  0.00000000000E+00  0.18882490177E+04  0.18882490177E+04  0.00000000000E+00 0. -1.
         21   -1    0    0  506  502 -0.00000000000E+00 -0.00000000000E+00 -0.89401491517E+02  0.89401491517E+02  0.00000000000E+00 0. -1.
         21    1    1    2  503  504  0.23468542525E+03  0.18011678830E+03  0.54769293629E+03  0.62248442448E+03  0.00000000000E+00 0. -1.
         21    1    1    2  504  501 -0.17113811636E+01 -0.32447880034E+02  0.99682191754E+02  0.10484432792E+03  0.00000000000E+00 0. -1.
         21    1    1    2  505  502 -0.12750076275E+03 -0.81028946567E+02  0.11079269861E+04  0.11181790291E+04  0.00000000000E+00 0. -1.
         21    1    1    2  506  503 -0.10547328134E+03 -0.66639961701E+02  0.43545412060E+02  0.13214272770E+03  0.00000000000E+00 0. -1.
<scales pt_clust_3="186.59899" pt_clust_4="32.49298" pt_clust_5="14000.00000" pt_clust_6="125.69215"></scales>
<clustering>
<clus scale="   32.493">  1  4  2 -1</clus>
<clus scale="  125.692">  2  6  1 -1</clus>
<clus scale="  186.599">  2  3  1 -1</clus>
<clus scale="   32.493">  1  3  2 -1</clus>
</clustering>
</event>
<event>
 6    0  0.6549018E+002  0.7104304E+02  0.7546771E-02  0.1356582E+00
         21   -1    0    0  504  501  0.00000000000E+00  0.00000000000E+00  0.15729724643E+03  0.15729724643E+03  0.00000000000E+00 0. -1.
         21   -1    0    0  503  502 -0.00000000000E+00 -0.00000000000E+00 -0.26168061204E+03  0.26168061204E+03  0.00000000000E+00 0.  1.
         21    1    1    2  503  501  0.65765909665E+02 -0.33098242552E+02  0.33926449068E+02  0.81065729383E+02  0.00000000000E+00 0. -1.
         21    1    1    2  504  506 -0.74208693594E+02 -0.35497540368E+02  0.50615458496E+02  0.96586387322E+02  0.00000000000E+00 0. -1.
         21    1    1    2  505  502  0.67984585976E+02  0.20620617476E+02 -0.11363888254E+03  0.13401831748E+03  0.00000000000E+00 0.  1.
         21    1    1    2  506  505 -0.59541802047E+02  0.47975165445E+02 -0.75286390636E+02  0.10730742428E+03  0.00000000000E+00 0.  1.
<scales pt_clust_3="70.05924" pt_clust_4="14000.00000" pt_clust_5="71.04304" pt_clust_6="63.31841"></scales>
<clustering>
<clus scale="   71.043">  2  5  1 -1</clus>
<clus scale="   63.318">  2  6  1 -1</clus>
<clus scale="   70.059">  2  3  1 -1</clus>
<clus scale="   71.043">  1  3  2 -1</clus>
</clustering>
</event>
<event>
 6    0  0.6549018E+002  0.1746940E+03  0.7546771E-02  0.1173039E+00
         21   -1    0    0  506  501  0.00000000000E+00  0.00000000000E+00  0.24460086210E+03  0.24460086210E+03  0.00000000000E+00 0.  1.
         21   -1    0    0  503  502 -0.00000000000E+00 -0.00000000000E+00 -0.11051826830E+04  0.11051826830E+04  0.00000000000E+00 0. -1.
         21    1    1    2  503  501 -0.43475564779E+02 -0.12834231660E+03 -0.12795624491E+01  0.13551203726E+03  0.00000000000E+00 0.  1.
         21    1    1    2  504  502 -0.11314397355E+02  0.96819603637E+02 -0.70608828491E+03  0.71278518315E+03  0.00000000000E+00 0. -1.
         21    1    1    2  505  504  0.37454360042E+02  0.64339990280E+02 -0.32106375040E+03  0.32958215252E+03  0.00000000000E+00 0.  1.
         21    1    1    2  506  505  0.17335602092E+02 -0.32817277320E+02  0.16784977690E+03  0.17190417213E+03  0.00000000000E+00 0.  1.
<scales pt_clust_3="160.26650" pt_clust_4="60.78788" pt_clust_5="60.78788" pt_clust_6="37.11464"></scales>
<clustering>
<clus scale="   37.115">  1  6  2 -1</clus>
<clus scale="   60.788">  4  5 -1 -1</clus>
<clus scale="  160.266">  1  3  2 -1</clus>
<clus scale="   37.115">  1  3  2 -1</clus>
</clustering>
</event>
<event>
 6    0  0.6549018E+002  0.1020575E+03  0.7546771E-02  0.1276028E+00
         21   -1    0    0  504  501  0.00000000000E+00  0.00000000000E+00  0.15770452072E+04  0.15770452072E+04  0.00000000000E+00 0.  1.
         21   -1    0    0  505  502 -0.00000000000E+00 -0.00000000000E+00 -0.60105089650E+03  0.60105089650E+03  0.00000000000E+00 0.  1.
         21    1    1    2  503  502 -0.56804929684E+02 -0.19044265860E+02 -0.91618399294E+01  0.60608773370E+02  0.00000000000E+00 0. -1.
         21    1    1    2  504  503 -0.37900795403E+02 -0.78009709065E+02  0.10088101066E+04  0.10125313903E+04  0.00000000000E+00 0.  1.
         21    1    1    2  505  506  0.10238582415E+03  0.43041505995E+02 -0.55743621315E+03  0.56839296262E+03  0.00000000000E+00 0.  1.
         21    1    1    2  506  501 -0.76800990667E+01  0.54012468930E+02  0.53378225715E+03  0.53656297745E+03  0.00000000000E+00 0.  1.
<scales pt_clust_3="14000.00000" pt_clust_4="52.08475" pt_clust_5="102.05750" pt_clust_6="54.55576"></scales>
<clustering>
<clus scale="   54.556">  1  6  2 -1</clus>
<clus scale="   52.085">  1  4  2 -1</clus>
<clus scale="  102.058">  2  5  1 -1</clus>
<clus scale="   54.556">  1  3  2 -1</clus>
</clustering>
</event>
<event>
 6    0  0.6549018E+002  0.1359688E+03  0.7546771E-02  0.1218859E+00
         21   -1    0    0  503  501  0.00000000000E+00  0.00000000000E+00  0.19542342386E+03  0.19542342386E+03  0.00000000000E+00 0.  1.
         21   -1    0    0  506  502 -0.00000000000E+00 -0.00000000000E+00 -0.49666110345E+03  0.49666110345E+03  0.00000000000E+00 0.  1.
         21    1    1    2  503  505  0.25585772299E+02  0.89453697526E+02  0.13841990557E+03  0.16678329054E+03  0.00000000000E+00 0.  1.
         21    1    1    2  504  501  0.28570874936E+02  0.48520801244E+02 -0.93512516736E+01  0.57078971222E+02  0.00000000000E+00 0.  1.
         21    1    1    2  505  502 -0.30018533088E+02 -0.38355005686E+02 -0.35350396626E+02  0.60181968492E+02  0.00000000000E+00 0.  1.
         21    1    1    2  506  504 -0.24138114147E+02 -0.99619493084E+02 -0.39495593686E+03  0.40804029705E+03  0.00000000000E+00 0.  1.
<scales pt_clust_3="14000.00000" pt_clust_4="52.73732" pt_clust_5="48.70543" pt_clust_6="135.96881"></scales>
<clustering>
<clus scale="   48.705">  2  5  1 -1</clus>
<clus scale="   52.737">  1  4  2 -1</clus>
<clus scale="  135.969">  2  6  1 -1</clus>
<clus scale="   52.737">  1  3  2 -1</clus>
</clustering>
</event>
<event>
 6    0  0.6549018E+002  0.1321812E+03  0.7546771E-02  0.1224255E+00
         21   -1    0    0  505  501  0.00000000000E+00  0.00000000000E+00  0.45903778772E+03  0.45903778772E+03  0.00000000000E+00 0. -1.
         21   -1    0    0  506  502 -0.00000000000E+00 -0.00000000000E+00 -0.57532749969E+03  0.57532749969E+03  0.00000000000E+00 0.  1.
         21    1    1    2  503  501  0.21829845931E+02  0.24181670755E+02  0.42443429555E+03  0.42568270650E+03  0.00000000000E+00 0. -1.
         21    1    1    2  504  503  0.40800620157E+02  0.63685953306E+00 -0.60115141326E+02  0.72656220738E+02  0.00000000000E+00 0.  1.
         21    1    1    2  505  502 -0.13555405156E+03 -0.18586870116E+02 -0.17698228171E+03  0.22370315302E+03  0.00000000000E+00 0.  1.
         21    1    1    2  506  504  0.72923585470E+02 -0.62316601726E+01 -0.30362658449E+03  0.31232320714E+03  0.00000000000E+00 0.  1.
<scales pt_clust_3="32.57753" pt_clust_4="41.81349" pt_clust_5="120.56221" pt_clust_6="41.81349"></scales>
<clustering>
<clus scale="   32.578">  1  3  2 -1</clus>
<clus scale="   41.813">  4  6 -1 -1</clus>
<clus scale="  120.562">  1  5  2 -1</clus>
<clus scale="   32.578">  1  3  2 -1</clus>
</clustering>
</event>
<event>
 6    0  0.6549018E+002  0.1100586E+03  0.7546771E-02  0.1260461E+00
         21   -1    0    0  504  501  0.00000000000E+00  0.00000000000E+00  0.78743823574E+02  0.78743823574E+02  0.00000000000E+00 0.  1.
         21   -1    0    0  503  502 -0.00000000000E+00 -0.00000000000E+00 -0.35628735264E+03  0.35628735264E+03  0.00000000000E+00 0.  1.
         21    1    1    2  503  506  0.15617044517E+02 -0.28242851251E+02 -0.28436704200E+02  0.43013914865E+02  0.00000000000E+00 0.  1.
         21    1    1    2  504  502  0.88256108752E+02  0.12505284052E+02 -0.11944864008E+03  0.14904194201E+03  0.00000000000E+00 0.  1.
         21    1    1    2  505  501  0.34342901062E+02  0.12195748758E+02  0.18037127832E+02  0.40663363382E+02  0.00000000000E+00 0.  1.
         21    1    1    2  506  505 -0.13821605433E+03  0.35418184403E+01 -0.14769531261E+03  0.20231195595E+03  0.00000000000E+00 0.  1.
<scales pt_clust_3="32.27307" pt_clust_4="14000.00000" pt_clust_5="36.64714" pt_clust_6="110.05863"></scales>
<clustering>
<clus scale="   32.273">  2  3  1 -1</clus>
<clus scale="   36.647">  1  5  2 -1</clus>
<clus scale="  110.059">  1  6  2 -1</clus>
<clus scale="   36.647">  1  3  2 -1</clus>
</clustering>
</event>
<event>
 6    0  0.6549018E+002  0.1702208E+03  0.7546771E-02  0.1177618E+00
         21   -1    0    0  503  501  0.00000000000E+00  0.00000000000E+00  0.57965605319E+03  0.57965605319E+03  0.00000000000E+00 0. -1.
         21   -1    0    0  504  502 -0.00000000000E+00 -0.00000000000E+00 -0.17117829873E+03  0.17117829873E+03  0.00000000000E+00 0.  1.
         21    1    1    2  503  505  0.41081982863E+02 -0.21037601495E+02  0.36240445459E+03  0.36533176524E+03  0.00000000000E+00 0. -1.
         21    1    1    2  504  501 -0.16266391565E+03 -0.17525933300E+02 -0.89543886533E+02  0.18650687764E+03  0.00000000000E+00 0.  1.
         21    1    1    2  505  506  0.85013337563E+02 -0.88535999835E+01  0.73699744559E+02  0.11285967457E+03  0.00000000000E+00 0. -1.
         21    1    1    2  506  502  0.36568595220E+02  0.47417134779E+02  0.61917441850E+02  0.86136034459E+02  0.00000000000E+00 0. -1.
<scales pt_clust_3="46.15528" pt_clust_4="155.03919" pt_clust_5="55.32712" pt_clust_6="55.32712"></scales>
<clustering>
<clus scale="   46.155">  1  3  2 -1</clus>
<clus scale="   55.327">  5  6 -1 -1</clus>
<clus scale="  155.039">  2  4  1 -1</clus>
<clus scale="   46.155">  1  3  2 -1</clus>
</clustering>
</event>
<event>
 6    0  0.6549018E+002  0.1469023E+03  0.7546771E-02  0.1204332E+00
         21   -1    0    0  503  501  0.00000000000E+00  0.00000000000E+00  0.17948346479E+04  0.17948346479E+04  0.00000000000E+00 0.  1.
         21   -1    0    0  505  502 -0.00000000000E+00 -0.00000000000E+00 -0.41143080819E+03  0.41143080819E+03  0.00000000000E+00 0. -1.
         21    1    1    2  503  502  0.65263220791E+01  0.35724724212E+02  0.14454939456E+04  0.14459500668E+04  0.00000000000E+00 0.  1.
         21    1    1    2  504  506  0.63559901812E+02  0.66736195055E+02 -0.20300495771E+03  0.22294527065E+03  0.00000000000E+00 0. -1.
         21    1    1    2  505  504  0.14556831167E+02  0.48684640329E+02 -0.17219345650E+03  0.17953462618E+03  0.00000000000E+00 0. -1.
         21    1    1    2  506  501 -0.84643055059E+02 -0.15114555960E+03  0.31310830831E+03  0.35783549250E+03  0.00000000000E+00 0.  1.
<scales pt_clust_3="36.31596" pt_clust_4="31.43347" pt_clust_5="31.43347" pt_clust_6="140.67078"></scales>
<clustering>
<clus scale="   31.433">  4  5 -1 -1</clus>
<clus scale="   36.316">  1  3  2 -1</clus>
<clus scale="  140.671">  1  6  2 -1</clus>
<clus scale="   36.316">  1  3  2 -1</clus>
</clustering>
</event>
<event>
 6    0  0.6549018E+002  0.1306162E+03  0.7546771E-02  0.1226544E+00
         21   -1    0    0  503  501  0.00000000000E+00  0.00000000000E+00  0.45944357254E+02  0.45944357254E+02  0.00000000000E+00 0.  1.
         21   -1    0    0  504  502 -0.00000000000E+00 -0.00000000000E+00 -0.72692462650E+03  0.72692462650E+03  0.00000000000E+00 0.  1.
         21    1    1    2  503  505  0.14372662874E+03 -0.74946901047E+02 -0.28908627113E+03  0.33142910847E+03  0.00000000000E+00 0.  1.
         21    1    1    2  504  506 -0.30187882126E+02 -0.62266148576E+01 -0.12383129165E+03  0.12760982623E+03  0.00000000000E+00 0.  1.
         21    1    1    2  505  502 -0.56982360877E+01  0.46401424793E+02 -0.10836128914E+03  0.11801580870E+03  0.00000000000E+00 0.  1.
         21    1    1    2  506  501 -0.10784051053E+03  0.34772091111E+02 -0.15970141733E+03  0.19581424036E+03  0.00000000000E+00 0.  1.
<scales pt_clust_3="130.61624" pt_clust_4="30.82335" pt_clust_5="46.63924" pt_clust_6="14000.00000"></scales>
<clustering>
<clus scale="   30.823">  2  4  1 -1</clus>
<clus scale="   46.639">  2  5  1 -1</clus>
<clus scale="  130.616">  2  3  1 -1</clus>
<clus scale="  130.616">  1  3  2 -1</clus>
</clustering>
</event>
<event>
 6    0  0.6549018E+002  0.1055933E+03  0.7546771E-02  0.1268955E+00
         21   -1    0    0  503  501  0.00000000000E+00  0.00000000000E+00  0.88854101427E+03  0.88854101427E+03  0.00000000000E+00 0. -1.
         21   -1    0    0  504  502 -0.00000000000E+00 -0.00000000000E+00 -0.16851328625E+03  0.16851328625E+03  0.00000000000E+00 0.  1.
         21    1    1    2  503  502 -0.38236443164E+02 -0.68321677612E+02 -0.12853586049E+03  0.15050363667E+03  0.00000000000E+00 0.  1.
         21    1    1    2  504  505  0.29898418563E+02 -0.40206178561E+02  0.12402352347E+02  0.51616572637E+02  0.00000000000E+00 0. -1.
         21    1    1    2  505  506 -0.33319709838E+02  0.10467571701E+03  0.34666740190E+03  0.36365573877E+03  0.00000000000E+00 0. -1.
         21    1    1    2  506  501  0.41657734439E+02  0.38521391642E+01  0.48949383425E+03  0.49127835245E+03  0.00000000000E+00 0. -1.
<scales pt_clust_3="14000.00000" pt_clust_4="51.93384" pt_clust_5="105.59326" pt_clust_6="41.83546"></scales>
<clustering>
<clus scale="   41.835">  1  6  2 -1</clus>
<clus scale="   51.934">  2  4  1 -1</clus>
<clus scale="  105.593">  1  5  2 -1</clus>
<clus scale="   41.835">  1  3  2 -1</clus>
</clustering>
</event>
<event>
 6    0  0.6549018E+002  0.1643187E+03  0.7546771E-02  0.1183906E+00
         21   -1    0    0  504  501  0.00000000000E+00  0.00000000000E+00  0.79021391398E+03  0.79021391398E+03  0.00000000000E+00 0. -1.
         21   -1    0    0  505  502 -0.00000000000E+00 -0.00000000000E+00 -0.15115012885E+04  0.15115012885E+04  0.00000000000E+00 0.  1.
         21    1    1    2  503  502 -0.16614970486E+03 -0.76736766835E+02 -0.12900367313E+04  0.13029539608E+04  0.00000000000E+00 0.  1.
         21    1    1    2  504  506  0.75536202951E+02  0.44352014603E+02  0.71057613421E+03  0.71595479023E+03  0.00000000000E+00 0. -1.
         21    1    1    2  505  501 -0.31551411820E+02  0.41835549542E+02  0.38335656292E+02  0.64925552263E+02  0.00000000000E+00 0.  1.
         21    1    1    2  506  503  0.12216491373E+03 -0.94507973098E+01 -0.18016243373E+03  0.21788089922E+03  0.00000000000E+00 0.  1.
<scales pt_clust_3="164.31866" pt_clust_4="95.99025" pt_clust_5="52.39947" pt_clust_6="14000.00000"></scales>
<clustering>
<clus scale="   52.399">  1  5  2 -1</clus>
<clus scale="   95.990">  1  4  2 -1</clus>
<clus scale="  164.319">  2  3  1 -1</clus>
<clus scale="   52.399">  1  3  2 -1</clus>
</clustering>
</event>
<event>
 6    0  0.6549018E+002  0.2504602E+03  0.7546771E-02  0.1113014E+00
         21   -1    0    0  502  501  0.00000000000E+00  0.00000000000E+00  0.15577684407E+03  0.15577684407E+03  0.00000000000E+00 0.  1.
         21   -1    0    0  503  502 -0.00000000000E+00 -0.00000000000E+00 -0.54000001899E+03  0.54000001899E+03  0.00000000000E+00 0.  1.
         21    1    1    2  503  506 -0.51991634539E+02 -0.70698559773E+02 -0.99732883811E+02  0.13284601812E+03  0.00000000000E+00 0.  1.
         21    1    1    2  504  501  0.11078931176E+03  0.18201438172E+03  0.81810367124E+01  0.21323798000E+03  0.00000000000E+00 0.  1.
         21    1    1    2  505  504  0.31989168074E+02  0.67539237507E+01 -0.18208563370E+02  0.37422909295E+02  0.00000000000E+00 0.  1.
         21    1    1    2  506  505 -0.90786845295E+02 -0.11806974570E+03 -0.27446276445E+03  0.31226995565E+03  0.00000000000E+00 0.  1.
<scales pt_clust_3="35.06443" pt_clust_4="32.08951" pt_clust_5="32.08951" pt_clust_6="241.05154"></scales>
<clustering>
<clus scale="   32.090">  4  5 -1 -1</clus>
<clus scale="   35.064">  3  6 -1 -1</clus>
<clus scale="  241.052">  2  3  1 -1</clus>
<clus scale="  250.460">  1  3  2 -1</clus>
</clustering>
</event>
<event>
 6    0  0.6549018E+002  0.8698925E+02  0.7546771E-02  0.1310311E+00
         21   -1    0    0  505  501  0.00000000000E+00  0.00000000000E+00  0.25709924194E+03  0.25709924194E+03  0.00000000000E+00 0.  1.
         21   -1    0    0  503  502 -0.00000000000E+00 -0.00000000000E+00 -0.83748741831E+02  0.83748741831E+02  0.00000000000E+00 0.  1.
         21    1    1    2  503  506  0.76381104750E+00  0.98508066615E+02  0.15258240291E+02  0.99685688503E+02  0.00000000000E+00 0.  1.
         21    1    1    2  504  502 -0.16220094535E+02 -0.25252974155E+02 -0.37297950218E+01  0.30244264602E+02  0.00000000000E+00 0.  1.
         21    1    1    2  505  504  0.50565627306E+02 -0.83487549898E+02  0.10513783144E+03  0.14346085617E+03  0.00000000000E+00 0.  1.
         21    1    1    2  506  501 -0.35109343819E+02  0.10232457438E+02  0.56684223406E+02  0.67457174502E+02  0.00000000000E+00 0.  1.
<scales pt_clust_3="14000.00000" pt_clust_4="30.01340" pt_clust_5="86.98925" pt_clust_6="37.32867"></scales>
<clustering>
<clus scale="   30.013">  2  4  1 -1</clus>
<clus scale="   37.329">  1  6  2 -1</clus>
<clus scale="   86.989">  1  5  2 -1</clus>
<clus scale="   37.329">  1  3  2 -1</clus>
</clustering>
</event>
<event>
 6    0  0.6549018E+002  0.9012291E+02  0.7546771E-02  0.1302554E+00
         21   -1    0    0  503  501  0.00000000000E+00  0.00000000000E+00  0.11740458044E+03  0.11740458044E+03  0.00000000000E+00 0.  1.
         21   -1    0    0  506  502 -0.00000000000E+00 -0.00000000000E+00 -0.39086835764E+03  0.39086835764E+03  0.00000000000E+00 0.  1.
         21    1    1    2  503  502  0.72308041286E+02 -0.35316102450E+02  0.36455182650E+02  0.88343988301E+02  0.00000000000E+00 0.  1.
         21    1    1    2  504  505  0.89032535929E+01  0.11958506206E+03 -0.12298498067E+03  0.17177066240E+03  0.00000000000E+00 0.  1.
         21    1    1    2  505  501 -0.62002771321E+02 -0.72625811639E+01 -0.23923638720E+02  0.66853789917E+02  0.00000000000E+00 0.  1.
         21    1    1    2  506  504 -0.19208523558E+02 -0.77006378445E+02 -0.16301034047E+03  0.18130449746E+03  0.00000000000E+00 0.  1.
<scales pt_clust_3="51.24422" pt_clust_4="14000.00000" pt_clust_5="62.42667" pt_clust_6="90.12291"></scales>
<clustering>
<clus scale="   62.427">  1  5  2 -1</clus>
<clus scale="   51.244">  1  3  2 -1</clus>
<clus scale="   90.123">  2  6  1 -1</clus>
<clus scale="   62.427">  1  3  2 -1</clus>
</clustering>
</event>
<event>
 6    0  0.6549018E+002  0.8805508E+02  0.7546771E-02  0.1307631E+00
         21   -1    0    0  504  501  0.00000000000E+00  0.00000000000E+00  0.62939787025E+02  0.62939787025E+02  0.00000000000E+00 0.  1.
         21   -1    0    0  503  502 -0.00000000000E+00 -0.00000000000E+00 -0.47516591563E+03  0.47516591563E+03  0.00000000000E+00 0.  1.
         21    1    1    2  503  505  0.43899671015E+02 -0.25117931622E+02 -0.90252667613E+02  0.10345837625E+03  0.00000000000E+00 0.  1.
         21    1    1    2  504  502 -0.39687695634E+02  0.12162117883E+03 -0.29849371796E+03  0.32475425168E+03  0.00000000000E+00 0.  1.
         21    1    1    2  505  506 -0.64217992332E+01 -0.63771500205E+02 -0.37453417219E+02  0.74234777600E+02  0.00000000000E+00 0.  1.
         21    1    1    2  506  501  0.22098238517E+01 -0.32731747004E+02  0.13973674190E+02  0.35658297124E+02  0.00000000000E+00 0. -1.
<scales pt_clust_3="53.93297" pt_clust_4="88.05508" pt_clust_5="14000.00000" pt_clust_6="32.80626"></scales>
<clustering>
<clus scale="   32.806">  1  6  2 -1</clus>
<clus scale="   53.933">  2  3  1 -1</clus>
<clus scale="   88.055">  2  4  1 -1</clus>
<clus scale="   32.806">  1  3  2 -1</clus>
</clustering>
</event>
<event>
 6    0  0.6549018E+002  0.6173744E+02  0.7546771E-02  0.1390682E+00
         21   -1    0    0  503  501  0.00000000000E+00  0.00000000000E+00  0.20462303314E+04  0.20462303314E+04  0.00000000000E+00 0. -1.
         21   -1    0    0  504  502 -0.00000000000E+00 -0.00000000000E+00 -0.24276683989E+02  0.24276683989E+02  0.00000000000E+00 0. -1.
         21    1    1    2  503  502 -0.64676492580E+02  0.11036726378E+02  0.50212548997E+02  0.82620567042E+02  0.00000000000E+00 0. -1.
         21    1    1    2  504  506  0.46881175338E+02  0.27221629978E+02  0.12183422320E+03  0.13335081433E+03  0.00000000000E+00 0. -1.
         21    1    1    2  505  501 -0.49693427084E+02 -0.39121828786E+02  0.94707551377E+03  0.94918490452E+03  0.00000000000E+00 0. -1.
         21    1    1    2  506  505  0.67488744326E+02  0.86347242996E+00  0.90283136142E+03  0.90535072947E+03  0.00000000000E+00 0. -1.
<scales pt_clust_3="42.12470" pt_clust_4="54.21127" pt_clust_5="14000.00000" pt_clust_6="61.73744"></scales>
<clustering>
<clus scale="   54.211">  2  4  1 -1</clus>
<clus scale="   42.125">  2  3  1 -1</clus>
<clus scale="   61.737">  2  6  1 -1</clus>
<clus scale="   61.737">  1  3  2 -1</clus>
</clustering>
</event>
<event>
 6    0  0.6549018E+002  0.2344495E+03  0.7546771E-02  0.1123547E+00
         21   -1    0    0  503  501  0.00000000000E+00  0.00000000000E+00  0.52253701813E+03  0.52253701813E+03  0.00000000000E+00 0. -1.
         21   -1    0    0  505  502 -0.00000000000E+00 -0.00000000000E+00 -0.14569150062E+03  0.14569150062E+03  0.00000000000E+00 0. -1.
         21    1    1    2  503  506  0.12964583923E+02  0.94347323851E+02  0.10933926190E+03  0.14499852464E+03  0.00000000000E+00 0.  1.
         21    1    1    2  504  501 -0.28475555229E+02 -0.39478269582E+02  0.13591912098E+03  0.14437242972E+03  0.00000000000E+00 0.  1.
         21    1    1    2  505  504 -0.39772220587E+02 -0.19790863367E+03  0.78079708171E+02  0.21643959351E+03  0.00000000000E+00 0. -1.
         21    1    1    2  506  502  0.55283191893E+02  0.14303957940E+03  0.53507426459E+02  0.16241797089E+03  0.00000000000E+00 0. -1.
<scales pt_clust_3="63.62082" pt_clust_4="48.67639" pt_clust_5="219.06849" pt_clust_6="63.62082"></scales>
<clustering>
<clus scale="   48.676">  1  4  2 -1</clus>
<clus scale="   63.621">  3  6 -1 -1</clus>
<clus scale="  219.068">  2  5  1 -1</clus>
<clus scale="   48.676">  1  3  2 -1</clus>
</clustering>
</event>
<event>
 6    0  0.6854266E+002  0.8089175E+02  0.7546771E-02  0.1326540E+00
         21   -1    0    0  505  501  0.00000000000E+00  0.00000000000E+00  0.68990018030E+03  0.68990018030E+03  0.00000000000E+00 0.  1.
         21   -1    0    0  504  502 -0.00000000000E+00 -0.00000000000E+00 -0.72605312634E+03  0.72605312634E+03  0.00000000000E+00 0.  1.
         21    1    1    2  503  506 -0.26554390037E+02  0.61841151875E+02 -0.50507738296E+02  0.84145679172E+02  0.00000000000E+00 0.  1.
         21    1    1    2  504  503  0.44119580309E+02 -0.70573762455E+02 -0.62642223720E+03  0.63192722094E+03  0.00000000000E+00 0.  1.
         21    1    1    2  505  502  0.47284630417E+02 -0.33706483865E+02  0.61568543231E+03  0.61841775111E+03  0.00000000000E+00 0.  1.
         21    1    1    2  506  501 -0.64849820689E+02  0.42439094444E+02  0.25091597135E+02  0.81462655416E+02  0.00000000000E+00 0.  1.
<scales pt_clust_3="14000.00000" pt_clust_4="80.89175" pt_clust_5="58.06861" pt_clust_6="35.10855"></scales>
<clustering>
<clus scale="   58.069">  1  5  2 -1</clus>
<clus scale="   35.109">  1  6  2 -1</clus>
<clus scale="   80.892">  2  4  1 -1</clus>
<clus scale="   58.069">  1  3  2 -1</clus>
</clustering>
</event>
<event>
 6    0  0.6549018E+002  0.1840354E+03  0.7546771E-02  0.1163954E+00
         21   -1    0    0  503  501  0.00000000000E+00  0.00000000000E+00  0.30922437766E+03  0.30922437766E+03  0.00000000000E+00 0.  1.
         21   -1    0    0  501  502 -0.00000000000E+00 -0.00000000000E+00 -0.33778322111E+03  0.33778322111E+03  0.00000000000E+00 0. -1.
         21    1    1    2  503  505 -0.13039239109E+03  0.38059342688E+02  0.16467911962E+03  0.21347107921E+03  0.00000000000E+00 0.  1.
         21    1    1    2  504  506 -0.19579351583E+01  0.57506174723E+02 -0.20815376915E+02  0.61188835235E+02  0.00000000000E+00 0.  1.
         21    1    1    2  505  504 -0.34197713667E+02  0.68979174462E+02  0.71027893636E+01  0.77317913488E+02  0.00000000000E+00 0.  1.
         21    1    1    2  506  502  0.16654803992E+03 -0.16454469187E+03 -0.17952537552E+03  0.29502977084E+03  0.00000000000E+00 0. -1.
<scales pt_clust_3="135.83331" pt_clust_4="35.54236" pt_clust_5="35.54236" pt_clust_6="179.38427"></scales>
<clustering>
<clus scale="   35.542">  4  5 -1 -1</clus>
<clus scale="  135.833">  1  3  2 -1</clus>
<clus scale="  179.384">  2  6  1 -1</clus>
<clus scale="  135.833">  1  3  2 -1</clus>
</clustering>
</event>
<event>
 6    0  0.6549018E+002  0.1571887E+03  0.7546771E-02  0.1191908E+00
         21   -1    0    0  503  501  0.00000000000E+00  0.00000000000E+00  0.44643249216E+03  0.44643249216E+03  0.00000000000E+00 0.  1.
         21   -1    0    0  505  502 -0.00000000000E+00 -0.00000000000E+00 -0.24535046901E+03  0.24535046901E+03  0.00000000000E+00 0. -1.
         21    1    1    2  503  502  0.16973176402E+02 -0.38615021939E+02  0.58010356722E+02  0.71724543383E+02  0.00000000000E+00 0.  1.
         21    1    1    2  504  501 -0.14868277948E+03  0.13248947094E+03  0.31216267849E+03  0.37027768859E+03  0.00000000000E+00 0.  1.
         21    1    1    2  505  506  0.42884000596E+02 -0.45364050969E+02 -0.13024044984E+02  0.63769588168E+02  0.00000000000E+00 0. -1.
         21    1    1    2  506  504  0.88825602486E+02 -0.48510398029E+02 -0.15606696708E+03  0.18601114103E+03  0.00000000000E+00 0. -1.
<scales pt_clust_3="42.18067" pt_clust_4="157.18874" pt_clust_5="65.07360" pt_clust_6="14000.00000"></scales>
<clustering>
<clus scale="   42.181">  1  3  2 -1</clus>
<clus scale="   65.074">  2  5  1 -1</clus>
<clus scale="  157.189">  1  4  2 -1</clus>
<clus scale="   42.181">  1  3  2 -1</clus>
</clustering>
</event>
<event>
 6    0  0.6549018E+002  0.2796352E+03  0.7546771E-02  0.1095888E+00
         21   -1    0    0  506  501  0.00000000000E+00  0.00000000000E+00  0.74150315437E+02  0.74150315437E+02  0.00000000000E+00 0.  1.
         21   -1    0    0  504  502 -0.00000000000E+00 -0.00000000000E+00 -0.18531175032E+04  0.18531175032E+04  0.00000000000E+00 0.  1.
         21    1    1    2  503  502  0.17311559875E+02  0.52865358330E+02 -0.27681696391E+03  0.28235096551E+03  0.00000000000E+00 0.  1.
         21    1    1    2  504  501  0.29540792201E+02 -0.27062146251E+03 -0.32056050429E+03  0.42055638301E+03  0.00000000000E+00 0.  1.
         21    1    1    2  505  503 -0.77683797903E+02  0.20977695762E+03 -0.11688434898E+04  0.11900572457E+04  0.00000000000E+00 0.  1.
         21    1    1    2  506  505  0.30831445827E+02  0.79791465623E+01 -0.12746229752E+02  0.34303224405E+02  0.00000000000E+00 0.  1.
<scales pt_clust_3="37.02301" pt_clust_4="269.75889" pt_clust_5="37.02301" pt_clust_6="31.84721"></scales>
<clustering>
<clus scale="   31.847">  1  6  2 -1</clus>
<clus scale="   37.023">  3  5 -1 -1</clus>
<clus scale="  269.759">  1  4  2 -1</clus>
<clus scale="   31.847">  1  3  2 -1</clus>
</clustering>
</event>
<event>
 6    0  0.6549018E+002  0.1488268E+03  0.7546771E-02  0.1201922E+00
         21   -1    0    0  503  501  0.00000000000E+00  0.00000000000E+00  0.76493133206E+02  0.76493133206E+02  0.00000000000E+00 0.  1.
         21   -1    0    0  504  502 -0.00000000000E+00 -0.00000000000E+00 -0.84648062790E+03  0.84648062790E+03  0.00000000000E+00 0.  1.
         21    1    1    2  503  505  0.27841516490E+02  0.17833552273E+02  0.30793374543E+02  0.45182048901E+02  0.00000000000E+00 0.  1.
         21    1    1    2  504  501 -0.16092871784E+03  0.12079934097E+02 -0.18542992719E+03  0.24582155099E+03  0.00000000000E+00 0.  1.
         21    1    1    2  505  506  0.49671646903E+02 -0.41539240629E+01 -0.13857059397E+03  0.14726281643E+03  0.00000000000E+00 0.  1.
         21    1    1    2  506  502  0.83415554445E+02 -0.25759562307E+02 -0.47678034808E+03  0.48470734479E+03  0.00000000000E+00 0.  1.
<scales pt_clust_3="33.06336" pt_clust_4="141.51657" pt_clust_5="35.39768" pt_clust_6="35.39768"></scales>
<clustering>
<clus scale="   33.063">  1  3  2 -1</clus>
<clus scale="   35.398">  5  6 -1 -1</clus>
<clus scale="  141.517">  1  4  2 -1</clus>
<clus scale="   33.063">  1  3  2 -1</clus>
</clustering>
</event>
<event>
 6    0  0.6549018E+002  0.1279057E+03  0.7546771E-02  0.1230597E+00
         21   -1    0    0  504  501  0.00000000000E+00  0.00000000000E+00  0.12144859674E+03  0.12144859674E+03  0.00000000000E+00 0. -1.
         21   -1    0    0  503  502 -0.00000000000E+00 -0.00000000000E+00 -0.40809263557E+03  0.40809263557E+03  0.00000000000E+00 0. -1.
         21    1    1    2  503  506  0.26743146572E+00 -0.34307907217E+02 -0.54480602489E+02  0.64383538771E+02  0.00000000000E+00 0.  1.
         21    1    1    2  504  505 -0.15053698004E+03  0.82861312604E+02 -0.91615394171E+01  0.17207938078E+03  0.00000000000E+00 0. -1.
         21    1    1    2  505  502  0.11094428812E+03 -0.17705744527E+02 -0.21483069864E+03  0.24243423342E+03  0.00000000000E+00 0. -1.
         21    1    1    2  506  501  0.39325260459E+02 -0.30847660860E+02 -0.81711982830E+01  0.50644079339E+02  0.00000000000E+00 0. -1.
<scales pt_clust_3="34.30895" pt_clust_4="127.90575" pt_clust_5="14000.00000" pt_clust_6="51.83367"></scales>
<clustering>
<clus scale="   34.309">  2  3  1 -1</clus>
<clus scale="   51.834">  1  6  2 -1</clus>
<clus scale="  127.906">  1  4  2 -1</clus>
<clus scale="   51.834">  1  3  2 -1</clus>
</clustering>
</event>
<event>
 6    0  0.6549018E+002  0.1566695E+03  0.7546771E-02  0.1192509E+00
         21   -1    0    0  506  501  0.00000000000E+00  0.00000000000E+00  0.71172931404E+03  0.71172931404E+03  0.00000000000E+00 0. -1.
         21   -1    0    0  505  502 -0.00000000000E+00 -0.00000000000E+00 -0.63029556129E+02  0.63029556129E+02  0.00000000000E+00 0. -1.
         21    1    1    2  503  501  0.29499725797E+02  0.31464031729E+02  0.30463834428E+03  0.30767635580E+03  0.00000000000E+00 0. -1.
         21    1    1    2  504  503  0.12570816323E+02  0.38830931293E+02  0.65893987579E+02  0.77510542813E+02  0.00000000000E+00 0. -1.
         21    1    1    2  505  504  0.68834609609E+02  0.64738766463E+02  0.68924228499E+02  0.11696093637E+03  0.00000000000E+00 0. -1.
         21    1    1    2  506  502 -0.11090515173E+03 -0.13503372949E+03  0.20924319755E+03  0.27261103517E+03  0.00000000000E+00 0. -1.
<scales pt_clust_3="43.13026" pt_clust_4="31.44799" pt_clust_5="31.44799" pt_clust_6="149.18330"></scales>
<clustering>
<clus scale="   31.448">  4  5 -1 -1</clus>
<clus scale="   43.130">  1  3  2 -1</clus>
<clus scale="  149.183">  1  6  2 -1</clus>
<clus scale="   43.130">  1  3  2 -1</clus>
</clustering>
</event>
<event>
 6    0  0.6549018E+002  0.1229750E+03  0.7546771E-02  0.1238268E+00
         21   -1    0    0  502  501  0.00000000000E+00  0.00000000000E+00  0.22673839118E+04  0.22673839118E+04  0.00000000000E+00 0. -1.
         21   -1    0    0  504  502 -0.00000000000E+00 -0.00000000000E+00 -0.15484493136E+03  0.15484493136E+03  0.00000000000E+00 0. -1.
         21    1    1    2  503  505 -0.14258568208E+03 -0.59453119494E+01  0.17923072556E+04  0.17979797891E+04  0.00000000000E+00 0. -1.
         21    1    1    2  504  506  0.76628739568E+02 -0.70002640576E+01 -0.10504685522E+03  0.13021447391E+03  0.00000000000E+00 0. -1.
         21    1    1    2  505  501  0.35284793408E+02 -0.13623679067E+02  0.44659707440E+03  0.44819590375E+03  0.00000000000E+00 0. -1.
         21    1    1    2  506  503  0.30672149105E+02  0.26569255074E+02 -0.21318494401E+02  0.45838676350E+02  0.00000000000E+00 0.  1.
<scales pt_clust_3="109.51155" pt_clust_4="40.62256" pt_clust_5="37.82355" pt_clust_6="40.62256"></scales>
<clustering>
<clus scale="   37.824">  1  5  2 -1</clus>
<clus scale="   40.623">  4  6 -1 -1</clus>
<clus scale="  109.512">  1  3  2 -1</clus>
<clus scale="   37.824">  1  3  2 -1</clus>
</clustering>
</event>
<event>
 6    0  0.6549018E+002  0.1964701E+03  0.7546771E-02  0.1152752E+00
         21   -1    0    0  503  501  0.00000000000E+00  0.00000000000E+00  0.78148684057E+03  0.78148684057E+03  0.00000000000E+00 0. -1.
         21   -1    0    0  504  502 -0.00000000000E+00 -0.00000000000E+00 -0.47071827615E+03  0.47071827615E+03  0.00000000000E+00 0. -1.
         21    1    1    2  503  506  0.16424599841E+03 -0.19029195340E+03  0.47204925540E+03  0.53480676421E+03  0.00000000000E+00 0. -1.
         21    1    1    2  504  505 -0.23696411274E+02  0.28010931960E+02 -0.41496070618E+02  0.55390036047E+02  0.00000000000E+00 0. -1.
         21    1    1    2  505  501 -0.69710121519E+02  0.14211923621E+03  0.24399626574E+03  0.29084627561E+03  0.00000000000E+00 0. -1.
         21    1    1    2  506  502 -0.70839465614E+02  0.20161785234E+02 -0.36378088610E+03  0.37116204085E+03  0.00000000000E+00 0. -1.
<scales pt_clust_3="14000.00000" pt_clust_4="36.68967" pt_clust_5="196.47007" pt_clust_6="101.72809"></scales>
<clustering>
<clus scale="   36.690">  2  4  1 -1</clus>
<clus scale="  101.728">  2  6  1 -1</clus>
<clus scale="  196.470">  1  5  2 -1</clus>
<clus scale="  196.470">  1  3  2 -1</clus>
</clustering>
</event>
<event>
 6    0  0.6549018E+002  0.9064180E+02  0.7546771E-02  0.1301305E+00
         21   -1    0    0  506  501  0.00000000000E+00  0.00000000000E+00  0.20283995852E+03  0.20283995852E+03  0.00000000000E+00 0. -1.
         21   -1    0    0  503  502 -0.00000000000E+00 -0.00000000000E+00 -0.46091173737E+03  0.46091173737E+03  0.00000000000E+00 0. -1.
         21    1    1    2  503  505  0.20162474798E+02 -0.10177436969E+03  0.34647183891E+02  0.10938452846E+03  0.00000000000E+00 0. -1.
         21    1    1    2  504  502  0.65845436595E+02  0.65634377510E+02 -0.38253920826E+03  0.39367466122E+03  0.00000000000E+00 0. -1.
         21    1    1    2  505  501 -0.48614834519E+02 -0.12569262162E+02 -0.19742113987E+01  0.50252223804E+02  0.00000000000E+00 0. -1.
         21    1    1    2  506  504 -0.37393076875E+02  0.48709254341E+02  0.91794456912E+02  0.11044028240E+03  0.00000000000E+00 0. -1.
<scales pt_clust_3="14000.00000" pt_clust_4="90.64180" pt_clust_5="50.21343" pt_clust_6="77.08781"></scales>
<clustering>
<clus scale="   50.213">  1  5  2 -1</clus>
<clus scale="   77.088">  1  6  2 -1</clus>
<clus scale="   90.642">  2  4  1 -1</clus>
<clus scale="   50.213">  1  3  2 -1</clus>
</clustering>
</event>
<event>
 6    0  0.6549018E+002  0.1925564E+03  0.7546771E-02  0.1156176E+00
         21   -1    0    0  503  501  0.00000000000E+00  0.00000000000E+00  0.11272684285E+04  0.11272684285E+04  0.00000000000E+00 0.  1.
         21   -1    0    0  506  502 -0.00000000000E+00 -0.00000000000E+00 -0.58564898195E+02  0.58564898195E+02  0.00000000000E+00 0.  1.
         21    1    1    2  503  504  0.34186133287E+00 -0.35025709357E+02  0.50580759268E+03  0.50701897203E+03  0.00000000000E+00 0.  1.
         21    1    1    2  504  505  0.57144844278E+02 -0.23418944221E+02  0.10035756796E+03  0.11783726755E+03  0.00000000000E+00 0.  1.
         21    1    1    2  505  502  0.44217521665E+02 -0.10467775355E+03  0.24873610694E+03  0.27346347509E+03  0.00000000000E+00 0.  1.
         21    1    1    2  506  501 -0.10170422728E+03  0.16312240713E+03  0.21380226268E+03  0.28751361199E+03  0.00000000000E+00 0.  1.
<scales pt_clust_3="35.02738" pt_clust_4="48.04908" pt_clust_5="48.04908" pt_clust_6="180.30855"></scales>
<clustering>
<clus scale="   35.027">  1  3  2 -1</clus>
<clus scale="   48.049">  4  5 -1 -1</clus>
<clus scale="  180.309">  2  6  1 -1</clus>
<clus scale="   35.027">  1  3  2 -1</clus>
</clustering>
</event>
<event>
 6    0  0.6549018E+002  0.1686782E+03  0.7546771E-02  0.1179233E+00
         21   -1    0    0  505  501  0.00000000000E+00  0.00000000000E+00  0.14204997976E+04  0.14204997976E+04  0.00000000000E+00 0. -1.
         21   -1    0    0  506  502 -0.00000000000E+00 -0.00000000000E+00 -0.27852637809E+03  0.27852637809E+03  0.00000000000E+00 0.  1.
         21    1    1    2  503  501 -0.10858237536E+03  0.33613328637E+02  0.85456058825E+03  0.86208687909E+03  0.00000000000E+00 0. -1.
         21    1    1    2  504  502  0.75902983346E+02 -0.13094517166E+03 -0.23584363795E+03  0.28023226514E+03  0.00000000000E+00 0.  1.
         21    1    1    2  505  504  0.26624917289E+01  0.10424558374E+03  0.51410387696E+03  0.52457318546E+03  0.00000000000E+00 0.  1.
         21    1    1    2  506  503  0.30016900284E+02 -0.69137407135E+01  0.91525922281E+01  0.32133845985E+02  0.00000000000E+00 0. -1.
<scales pt_clust_3="14000.00000" pt_clust_4="168.67822" pt_clust_5="104.16080" pt_clust_6="30.80283"></scales>
<clustering>
<clus scale="   30.803">  2  6  1 -1</clus>
<clus scale="  104.161">  1  5  2 -1</clus>
<clus scale="  168.678">  2  4  1 -1</clus>
<clus scale="  104.161">  1  3  2 -1</clus>
</clustering>
</event>
<event>
 6    0  0.6549018E+002  0.1413236E+03  0.7546771E-02  0.1211559E+00
         21   -1    0    0  505  501  0.00000000000E+00  0.00000000000E+00  0.58477504794E+02  0.58477504794E+02  0.00000000000E+00 0.  1.
         21   -1    0    0  503  502 -0.00000000000E+00 -0.00000000000E+00 -0.88478342704E+03  0.88478342704E+03  0.00000000000E+00 0.  1.
         21    1    1    2  503  506  0.90852340830E+01  0.36808361432E+02 -0.25450298136E+03  0.25731141535E+03  0.00000000000E+00 0.  1.
         21    1    1    2  504  501  0.59507482774E+02 -0.85421655301E+02 -0.12087624446E+03  0.15952763452E+03  0.00000000000E+00 0.  1.
         21    1    1    2  505  502 -0.15525551958E+02 -0.49216825143E+02  0.97250799207E+01  0.52515862558E+02  0.00000000000E+00 0.  1.
         21    1    1    2  506  504 -0.53067164899E+02  0.97830119012E+02 -0.46065177635E+03  0.47390601941E+03  0.00000000000E+00 0.  1.
<scales pt_clust_3="32.86473" pt_clust_4="129.62125" pt_clust_5="51.60754" pt_clust_6="32.86473"></scales>
<clustering>
<clus scale="   32.865">  3  6 -1 -1</clus>
<clus scale="   51.608">  1  5  2 -1</clus>
<clus scale="  129.621">  1  4  2 -1</clus>
<clus scale="   51.608">  1  3  2 -1</clus>
</clustering>
</event>
<event>
 6    0  0.6549018E+002  0.7260452E+02  0.7546771E-02  0.1351454E+00
         21   -1    0    0  504  501  0.00000000000E+00  0.00000000000E+00  0.79220616148E+03  0.79220616148E+03  0.00000000000E+00 0. -1.
         21   -1    0    0  505  502 -0.00000000000E+00 -0.00000000000E+00 -0.48853327670E+03  0.48853327670E+03  0.00000000000E+00 0. -1.
         21    1    1    2  503  506  0.73550390085E+02  0.18042107698E+02 -0.23270248143E+02  0.79225513444E+02  0.00000000000E+00 0. -1.
         21    1    1    2  504  503 -0.64386932907E+02  0.34722825948E+02  0.75208256574E+03  0.75563187960E+03  0.00000000000E+00 0. -1.
         21    1    1    2  505  501 -0.20381049705E+02  0.34006925775E+02 -0.73390125394E+02  0.83414439356E+02  0.00000000000E+00 0. -1.
         21    1    1    2  506  502  0.11217592527E+02 -0.86771859421E+02 -0.35174930742E+03  0.36246760578E+03  0.00000000000E+00 0. -1.
<scales pt_clust_3="72.60452" pt_clust_4="14000.00000" pt_clust_5="39.64667" pt_clust_6="57.53303"></scales>
<clustering>
<clus scale="   39.647">  2  5  1 -1</clus>
<clus scale="   57.533">  2  6  1 -1</clus>
<clus scale="   72.605">  2  3  1 -1</clus>
<clus scale="   72.605">  1  3  2 -1</clus>
</clustering>
</event>
<event>
 6    0  0.6549018E+002  0.7376172E+02  0.7546771E-02  0.1347749E+00
         21   -1    0    0  504  501  0.00000000000E+00  0.00000000000E+00  0.24393755019E+04  0.24393755019E+04  0.00000000000E+00 0. -1.
         21   -1    0    0  505  502 -0.00000000000E+00 -0.00000000000E+00 -0.38412780840E+03  0.38412780840E+03  0.00000000000E+00 0.  1.
         21    1    1    2  503  502 -0.53514949639E+02 -0.10557719901E+02 -0.50817618450E+02  0.74550289264E+02  0.00000000000E+00 0.  1.
         21    1    1    2  504  506  0.38169630173E+02 -0.27491457898E+02  0.22231614893E+04  0.22236590810E+04  0.00000000000E+00 0. -1.
         21    1    1    2  505  501  0.90427714023E+02  0.73448823715E+02 -0.30141517677E+03  0.32314549348E+03  0.00000000000E+00 0.  1.
         21    1    1    2  506  503 -0.75082394557E+02 -0.35399645916E+02  0.18431899936E+03  0.20214844652E+03  0.00000000000E+00 0. -1.
<scales pt_clust_3="52.81498" pt_clust_4="47.03936" pt_clust_5="14000.00000" pt_clust_6="73.76172"></scales>
<clustering>
<clus scale="   47.039">  1  4  2 -1</clus>
<clus scale="   52.815">  2  3  1 -1</clus>
<clus scale="   73.762">  1  6  2 -1</clus>
<clus scale="   47.039">  1  3  2 -1</clus>
</clustering>
</event>
<event>
 6    0  0.6549018E+002  0.9340854E+02  0.7546771E-02  0.1294801E+00
         21   -1    0    0  504  501  0.00000000000E+00  0.00000000000E+00  0.25138575260E+03  0.25138575260E+03  0.00000000000E+00 0.  1.
         21   -1    0    0  506  502 -0.00000000000E+00 -0.00000000000E+00 -0.44423380816E+03  0.44423380816E+03  0.00000000000E+00 0. -1.
         21    1    1    2  503  502 -0.55362437951E+02  0.62437383400E+02 -0.15287811896E+03  0.17416987581E+03  0.00000000000E+00 0. -1.
         21    1    1    2  504  503 -0.30326660382E+02  0.62367960094E+02 -0.13213705762E+02  0.70597951784E+02  0.00000000000E+00 0. -1.
         21    1    1    2  505  501  0.66078254334E+02 -0.76358316218E+02  0.19683878216E+03  0.22122937037E+03  0.00000000000E+00 0.  1.
         21    1    1    2  506  505  0.19610844000E+02 -0.48447027275E+02 -0.22359501300E+03  0.22962236279E+03  0.00000000000E+00 0. -1.
<scales pt_clust_3="48.25263" pt_clust_4="93.40854" pt_clust_5="14000.00000" pt_clust_6="52.26566"></scales>
<clustering>
<clus scale="   52.266">  2  6  1 -1</clus>
<clus scale="   48.253">  2  3  1 -1</clus>
<clus scale="   93.409">  2  4  1 -1</clus>
<clus scale="   93.409">  1  3  2 -1</clus>
</clustering>
</event>
<event>
 6    0  0.6549018E+002  0.2311046E+03  0.7546771E-02  0.1125865E+00
         21   -1    0    0  503  501  0.00000000000E+00  0.00000000000E+00  0.52639476431E+03  0.52639476431E+03  0.00000000000E+00 0. -1.
         21   -1    0    0  501  502 -0.00000000000E+00 -0.00000000000E+00 -0.27835487492E+03  0.27835487492E+03  0.00000000000E+00 0. -1.
         21    1    1    2  503  506 -0.27276765576E+02 -0.12930522211E+02  0.28475873781E+03  0.28635425456E+03  0.00000000000E+00 0. -1.
         21    1    1    2  504  505  0.15067909990E+02  0.76271584591E+02 -0.25256608955E+02  0.81745292363E+02  0.00000000000E+00 0. -1.
         21    1    1    2  505  502  0.76506246316E+02  0.13426801444E+03 -0.12597935077E+03  0.19937879087E+03  0.00000000000E+00 0. -1.
         21    1    1    2  506  504 -0.64297390730E+02 -0.19760907682E+03  0.11451711131E+03  0.23727130143E+03  0.00000000000E+00 0. -1.
<scales pt_clust_3="30.18643" pt_clust_4="41.58891" pt_clust_5="41.58891" pt_clust_6="223.52550"></scales>
<clustering>
<clus scale="   30.186">  1  3  2 -1</clus>
<clus scale="   41.589">  4  5 -1 -1</clus>
<clus scale="  223.525">  1  6  2 -1</clus>
<clus scale="   30.186">  1  3  2 -1</clus>
</clustering>
</event>
<event>
 6    0  0.6549018E+002  0.1180812E+03  0.7546771E-02  0.1246296E+00
         21   -1    0    0  504  501  0.00000000000E+00  0.00000000000E+00  0.17402114575E+03  0.17402114575E+03  0.00000000000E+00 0. -1.
         21   -1    0    0  503  502 -0.00000000000E+00 -0.00000000000E+00 -0.36541475268E+03  0.36541475268E+03  0.00000000000E+00 0. -1.
         21    1    1    2  503  506  0.44023393340E+02  0.92049244303E+02 -0.15179034000E+03  0.18289732052E+03  0.00000000000E+00 0. -1.
         21    1    1    2  504  505  0.27850428808E+02  0.18287807525E+02  0.31390254345E+01  0.33465560948E+02  0.00000000000E+00 0. -1.
         21    1    1    2  505  502  0.40754629957E+02 -0.93980505834E+01 -0.13809034021E+03  0.14428515265E+03  0.00000000000E+00 0. -1.
         21    1    1    2  506  501 -0.11262845211E+03 -0.10093900125E+03  0.95348047840E+02  0.17878786431E+03  0.00000000000E+00 0. -1.
<scales pt_clust_3="118.08123" pt_clust_4="33.31802" pt_clust_5="42.28497" pt_clust_6="14000.00000"></scales>
<clustering>
<clus scale="   33.318">  1  4  2 -1</clus>
<clus scale="   42.285">  2  5  1 -1</clus>
<clus scale="  118.081">  2  3  1 -1</clus>
<clus scale="   33.318">  1  3  2 -1</clus>
</clustering>
</event>
<event>
 6    0  0.6549018E+002  0.1559442E+03  0.7546771E-02  0.1193353E+00
         21   -1    0    0  505  501  0.00000000000E+00  0.00000000000E+00  0.81625160144E+03  0.81625160144E+03  0.00000000000E+00 0.  1.
         21   -1    0    0  503  502 -0.00000000000E+00 -0.00000000000E+00 -0.20223699096E+03  0.20223699096E+03  0.00000000000E+00 0. -1.
         21    1    1    2  503  506  0.68870601021E+02 -0.78325484484E+02 -0.91740211594E+02  0.13890395109E+03  0.00000000000E+00 0. -1.
         21    1    1    2  504  501 -0.64738744944E+02  0.83169292491E+02  0.67706382611E+03  0.68521796601E+03  0.00000000000E+00 0.  1.
         21    1    1    2  505  502 -0.55018873866E+02  0.85531350547E+01  0.94757292833E+02  0.10990530991E+03  0.00000000000E+00 0.  1.
         21    1    1    2  506  504  0.50887017790E+02 -0.13396943062E+02 -0.66066296871E+02  0.84461365400E+02  0.00000000000E+00 0. -1.
<scales pt_clust_3="33.57457" pt_clust_4="148.60797" pt_clust_5="55.67973" pt_clust_6="33.57457"></scales>
<clustering>
<clus scale="   33.575">  3  6 -1 -1</clus>
<clus scale="   55.680">  1  5  2 -1</clus>
<clus scale="  148.608">  1  4  2 -1</clus>
<clus scale="   55.680">  1  3  2 -1</clus>
</clustering>
</event>
<event>
 6    0  0.6549018E+002  0.7072167E+02  0.7546771E-02  0.1357656E+00
         21   -1    0    0  504  501  0.00000000000E+00  0.00000000000E+00  0.19214000400E+03  0.19214000400E+03  0.00000000000E+00 0. -1.
         21   -1    0    0  503  502 -0.00000000000E+00 -0.00000000000E+00 -0.46254708183E+03  0.46254708183E+03  0.00000000000E+00 0. -1.
         21    1    1    2  503  505  0.37393822985E+01 -0.84090393760E+02 -0.37393030428E+03  0.38328716357E+03  0.00000000000E+00 0. -1.
         21    1    1    2  504  506  0.16960916602E+02  0.91203326024E+02  0.14385354180E+03  0.17117114493E+03  0.00000000000E+00 0. -1.
         21    1    1    2  505  501  0.16705234855E+02 -0.31004577212E+02  0.63824535648E+01  0.35792239287E+02  0.00000000000E+00 0. -1.
         21    1    1    2  506  502 -0.37405533756E+02  0.23891644948E+02 -0.46712768921E+02  0.64436538037E+02  0.00000000000E+00 0. -1.
<scales pt_clust_3="70.72167" pt_clust_4="14000.00000" pt_clust_5="35.21858" pt_clust_6="42.79970"></scales>
<clustering>
<clus scale="   35.219">  1  5  2 -1</clus>
<clus scale="   42.800">  2  6  1 -1</clus>
<clus scale="   70.722">  2  3  1 -1</clus>
<clus scale="   35.219">  1  3  2 -1</clus>
</clustering>
</event>
<event>
 6    0  0.6549018E+002  0.7652297E+02  0.7546771E-02  0.1339219E+00
         21   -1    0    0  503  501  0.00000000000E+00  0.00000000000E+00  0.54013605255E+03  0.54013605255E+03  0.00000000000E+00 0.  1.
         21   -1    0    0  506  502 -0.00000000000E+00 -0.00000000000E+00 -0.14001704629E+03  0.14001704629E+03  0.00000000000E+00 0.  1.
         21    1    1    2  503  505  0.67158757114E+02  0.29910222933E+02  0.26855548747E+03  0.27843665338E+03  0.00000000000E+00 0.  1.
         21    1    1    2  504  501 -0.52074463198E+02 -0.70708200220E+02  0.24256598378E+03  0.25797219963E+03  0.00000000000E+00 0.  1.
         21    1    1    2  505  502  0.24911214342E+02  0.44477395522E+02 -0.66605040630E+02  0.83875137852E+02  0.00000000000E+00 0.  1.
         21    1    1    2  506  504 -0.39995508257E+02 -0.36794182343E+01 -0.44397424371E+02  0.59869107978E+02  0.00000000000E+00 0.  1.
<scales pt_clust_3="14000.00000" pt_clust_4="76.52297" pt_clust_5="42.36745" pt_clust_6="40.16440"></scales>
<clustering>
<clus scale="   40.164">  2  6  1 -1</clus>
<clus scale="   42.367">  2  5  1 -1</clus>
<clus scale="   76.523">  2  4  1 -1</clus>
<clus scale="   76.523">  1  3  2 -1</clus>
</clustering>
</event>
<event>
 6    0  0.6549018E+002  0.9471638E+02  0.7546771E-02  0.1291816E+00
         21   -1    0    0  504  501  0.00000000000E+00  0.00000000000E+00  0.35904021558E+03  0.35904021558E+03  0.00000000000E+00 0. -1.
         21   -1    0    0  506  502 -0.00000000000E+00 -0.00000000000E+00 -0.29202291849E+03  0.29202291849E+03  0.00000000000E+00 0. -1.
         21    1    1    2  503  502 -0.50349419901E+02  0.25148218857E+02 -0.20734851762E+03  0.21485088958E+03  0.00000000000E+00 0. -1.
         21    1    1    2  504  503 -0.58031270338E+02  0.25255463081E+02  0.42073694274E+02  0.75997779588E+02  0.00000000000E+00 0.  1.
         21    1    1    2  505  501  0.11565685129E+03 -0.20753758183E+02  0.27995347966E+03  0.30361353149E+03  0.00000000000E+00 0. -1.
         21    1    1    2  506  505 -0.72761610540E+01 -0.29649923755E+02 -0.47661359233E+02  0.56600933405E+02  0.00000000000E+00 0. -1.
<scales pt_clust_3="56.76012" pt_clust_4="14000.00000" pt_clust_5="94.71638" pt_clust_6="30.52967"></scales>
<clustering>
<clus scale="   30.530">  2  6  1 -1</clus>
<clus scale="   56.760">  2  3  1 -1</clus>
<clus scale="   94.716">  1  5  2 -1</clus>
<clus scale="   94.716">  1  3  2 -1</clus>
</clustering>
</event>
<event>
 6    0  0.6549018E+002  0.8750430E+02  0.7546771E-02  0.1309010E+00
         21   -1    0    0  504  501  0.00000000000E+00  0.00000000000E+00  0.69083142440E+03  0.69083142440E+03  0.00000000000E+00 0.  1.
         21   -1    0    0  506  502 -0.00000000000E+00 -0.00000000000E+00 -0.95338711436E+03  0.95338711436E+03  0.00000000000E+00 0. -1.
         21    1    1    2  503  505 -0.44490915347E+02 -0.98632010733E+02  0.18091465684E+03  0.21080281818E+03  0.00000000000E+00 0.  1.
         21    1    1    2  504  502 -0.25541036749E+02  0.35976801500E+02 -0.18281520242E+03  0.18806401315E+03  0.00000000000E+00 0. -1.
         21    1    1    2  505  501 -0.11523970753E+02  0.31743131532E+02  0.48923873571E+03  0.49040286380E+03  0.00000000000E+00 0.  1.
         21    1    1    2  506  503  0.81555922849E+02  0.30912077700E+02 -0.74989388010E+03  0.75494884364E+03  0.00000000000E+00 0. -1.
<scales pt_clust_3="87.50430" pt_clust_4="44.54633" pt_clust_5="33.77023" pt_clust_6="14000.00000"></scales>
<clustering>
<clus scale="   33.770">  1  5  2 -1</clus>
<clus scale="   44.546">  2  4  1 -1</clus>
<clus scale="   87.504">  1  3  2 -1</clus>
<clus scale="   33.770">  1  3  2 -1</clus>
</clustering>
</event>
<event>
 6    0  0.6549018E+002  0.1210780E+03  0.7546771E-02  0.1241329E+00
         21   -1    0    0  504  501  0.00000000000E+00  0.00000000000E+00  0.25022427638E+03  0.25022427638E+03  0.00000000000E+00 0.  1.
         21   -1    0    0  503  502 -0.00000000000E+00 -0.00000000000E+00 -0.84520962985E+02  0.84520962985E+02  0.00000000000E+00 0.  1.
         21    1    1    2  503  505 -0.40800116156E+02  0.21415634210E+02  0.27225845156E+02  0.53521262237E+02  0.00000000000E+00 0.  1.
         21    1    1    2  504  502  0.21017472938E+01 -0.40306108928E+02  0.51368712423E+02  0.65327975436E+02  0.00000000000E+00 0.  1.
         21    1    1    2  505  506 -0.67888612567E+02 -0.14803198348E+02 -0.69132784578E+01  0.69826870305E+02  0.00000000000E+00 0.  1.
         21    1    1    2  506  501  0.10658698143E+03  0.33693673066E+02  0.94022034273E+02  0.14606913139E+03  0.00000000000E+00 0.  1.
<scales pt_clust_3="41.97087" pt_clust_4="40.36087" pt_clust_5="41.97087" pt_clust_6="108.23436"></scales>
<clustering>
<clus scale="   40.361">  1  4  2 -1</clus>
<clus scale="   41.971">  3  5 -1 -1</clus>
<clus scale="  108.234">  1  6  2 -1</clus>
<clus scale="   40.361">  1  3  2 -1</clus>
</clustering>
</event>
<event>
 6    0  0.6549018E+002  0.1928182E+03  0.7546771E-02  0.1155944E+00
         21   -1    0    0  505  501  0.00000000000E+00  0.00000000000E+00  0.38913038410E+03  0.38913038410E+03  0.00000000000E+00 0.  1.
         21   -1    0    0  503  502 -0.00000000000E+00 -0.00000000000E+00 -0.22511145529E+03  0.22511145529E+03  0.00000000000E+00 0.  1.
         21    1    1    2  503  504 -0.60781491550E+02 -0.79902477798E+02 -0.10069286955E+03  0.14218948503E+03  0.00000000000E+00 0.  1.
         21    1    1    2  504  506 -0.55143036533E+02 -0.58657899753E+02 -0.23248016075E+02  0.83797219124E+02  0.00000000000E+00 0.  1.
         21    1    1    2  505  502 -0.49462891364E+02  0.89332134773E+01  0.53349285293E+02  0.73297518146E+02  0.00000000000E+00 0.  1.
         21    1    1    2  506  501  0.16538741945E+03  0.12962716407E+03  0.23461052915E+03  0.31495761709E+03  0.00000000000E+00 0.  1.
<scales pt_clust_3="49.62710" pt_clust_4="49.62710" pt_clust_5="50.26311" pt_clust_6="184.68264"></scales>
<clustering>
<clus scale="   49.627">  3  4 -1 -1</clus>
<clus scale="   50.263">  1  5  2 -1</clus>
<clus scale="  184.683">  1  6  2 -1</clus>
<clus scale="   50.263">  1  3  2 -1</clus>
</clustering>
</event>
<event>
 6    0  0.6549018E+002  0.1026946E+03  0.7546771E-02  0.1274729E+00
         21   -1    0    0  504  501  0.00000000000E+00  0.00000000000E+00  0.86639377701E+03  0.86639377701E+03  0.00000000000E+00 0. -1.
         21   -1    0    0  503  502 -0.00000000000E+00 -0.00000000000E+00 -0.38073564789E+02  0.38073564789E+02  0.00000000000E+00 0. -1.
         21    1    1    2  503  501 -0.54042585200E+02  0.87234081059E+00  0.24785675087E+02  0.59461682478E+02  0.00000000000E+00 0. -1.
         21    1    1    2  504  505  0.10093059139E+03  0.73604351471E+02  0.52154105615E+03  0.53629251168E+03  0.00000000000E+00 0. -1.
         21    1    1    2  505  506 -0.16465441086E+02 -0.89716154749E+02  0.21582332021E+03  0.23430707356E+03  0.00000000000E+00 0. -1.
         21    1    1    2  506  502 -0.30422565101E+02  0.15239462468E+02  0.66170160780E+02  0.74406074089E+02  0.00000000000E+00 0.  1.
<scales pt_clust_3="70.11269" pt_clust_4="102.69463" pt_clust_5="14000.00000" pt_clust_6="34.02607"></scales>
<clustering>
<clus scale="   34.026">  2  6  1 -1</clus>
<clus scale="   70.113">  2  3  1 -1</clus>
<clus scale="  102.695">  1  4  2 -1</clus>
<clus scale="  102.695">  1  3  2 -1</clus>
</clustering>
</event>
<event>
 6    0  0.6549018E+002  0.9088208E+02  0.7546771E-02  0.1300730E+00
         21   -1    0    0  506  501  0.00000000000E+00  0.00000000000E+00  0.10086909451E+03  0.10086909451E+03  0.00000000000E+00 0.  1.
         21   -1    0    0  505  502 -0.00000000000E+00 -0.00000000000E+00 -0.69952866464E+03  0.69952866464E+03  0.00000000000E+00 0. -1.
         21    1    1    2  503  502 -0.26376653742E+02  0.39049886877E+02 -0.40454811577E+03  0.40728343877E+03  0.00000000000E+00 0. -1.
         21    1    1    2  504  501 -0.41596253476E+02  0.26656371840E+02  0.41375880929E+02  0.64442020341E+02  0.00000000000E+00 0.  1.
         21    1    1    2  505  504 -0.32380675951E+02  0.42044248087E+02 -0.14839594385E+03  0.15759943885E+03  0.00000000000E+00 0. -1.
         21    1    1    2  506  503  0.10035358317E+03 -0.10775050680E+03 -0.87091391438E+02  0.17107286118E+03  0.00000000000E+00 0.  1.
<scales pt_clust_3="47.12347" pt_clust_4="51.10974" pt_clust_5="90.88208" pt_clust_6="14000.00000"></scales>
<clustering>
<clus scale="   47.123">  2  3  1 -1</clus>
<clus scale="   51.110">  1  4  2 -1</clus>
<clus scale="   90.882">  2  5  1 -1</clus>
<clus scale="   51.110">  1  3  2 -1</clus>
</clustering>
</event>
<event>
 6    0  0.6549018E+002  0.2081761E+03  0.7546771E-02  0.1143018E+00
         21   -1    0    0  506  501  0.00000000000E+00  0.00000000000E+00  0.30619958625E+03  0.30619958625E+03  0.00000000000E+00 0.  1.
         21   -1    0    0  505  502 -0.00000000000E+00 -0.00000000000E+00 -0.37538395967E+03  0.37538395967E+03  0.00000000000E+00 0.  1.
         21    1    1    2  503  504 -0.10046132229E+03  0.48656179659E+01 -0.18016274812E+03  0.20633653900E+03  0.00000000000E+00 0.  1.
         21    1    1    2  504  502 -0.10097238776E+03 -0.90046460952E+01 -0.97480749173E+02  0.14063784413E+03  0.00000000000E+00 0.  1.
         21    1    1    2  505  501  0.20205694178E+03 -0.44658017633E+02  0.13735869444E+03  0.24837221503E+03  0.00000000000E+00 0.  1.
         21    1    1    2  506  503 -0.62323173188E+00  0.48797045762E+02  0.71100429446E+02  0.86236947768E+02  0.00000000000E+00 0.  1.
<scales pt_clust_3="51.99625" pt_clust_4="51.99625" pt_clust_5="201.55560" pt_clust_6="48.80103"></scales>
<clustering>
<clus scale="   48.801">  1  6  2 -1</clus>
<clus scale="   51.996">  3  4 -1 -1</clus>
<clus scale="  201.556">  1  5  2 -1</clus>
<clus scale="   48.801">  1  3  2 -1</clus>
</clustering>
</event>
<event>
 6    0  0.6549018E+002  0.1390044E+03  0.7546771E-02  0.1214675E+00
         21   -1    0    0  503  501  0.00000000000E+00  0.00000000000E+00  0.84535681265E+02  0.84535681265E+02  0.00000000000E+00 0. -1.
         21   -1    0    0  504  502 -0.00000000000E+00 -0.00000000000E+00 -0.17498262980E+04  0.17498262980E+04  0.00000000000E+00 0.  1.
         21    1    1    2  503  505  0.21974169896E+02 -0.20932355531E+02  0.40170032148E+02  0.50345398334E+02  0.00000000000E+00 0. -1.
         21    1    1    2  504  506 -0.16598835533E+02  0.28366549588E+02 -0.13009480302E+03  0.13418211598E+03  0.00000000000E+00 0. -1.
         21    1    1    2  505  502  0.25877835145E+02  0.11489078489E+03 -0.14961683125E+04  0.15007961800E+04  0.00000000000E+00 0.  1.
         21    1    1    2  506  501 -0.31253169508E+02 -0.12232497894E+03 -0.79197533445E+02  0.14903828495E+03  0.00000000000E+00 0. -1.
<scales pt_clust_3="30.34844" pt_clust_4="31.35172" pt_clust_5="139.00441" pt_clust_6="14000.00000"></scales>
<clustering>
<clus scale="   30.348">  1  3  2 -1</clus>
<clus scale="   31.352">  2  4  1 -1</clus>
<clus scale="  139.004">  2  5  1 -1</clus>
<clus scale="   30.348">  1  3  2 -1</clus>
</clustering>
</event>
<event>
 6    0  0.6549018E+002  0.1478271E+03  0.7546771E-02  0.1203169E+00
         21   -1    0    0  506  501  0.00000000000E+00  0.00000000000E+00  0.28829266541E+04  0.28829266541E+04  0.00000000000E+00 0. -1.
         21   -1    0    0  505  502 -0.00000000000E+00 -0.00000000000E+00 -0.42893905601E+02  0.42893905601E+02  0.00000000000E+00 0. -1.
         21    1    1    2  503  502  0.11412461022E+03 -0.30010195696E+02  0.65829918198E+02  0.13512444869E+03  0.00000000000E+00 0. -1.
         21    1    1    2  504  501  0.22199388901E+02 -0.44325077332E+02  0.32592181175E+03  0.32967036980E+03  0.00000000000E+00 0. -1.
         21    1    1    2  505  504  0.29928683733E+02 -0.75932554795E+01  0.84071156214E+02  0.89561950324E+02  0.00000000000E+00 0. -1.
         21    1    1    2  506  503 -0.16625268285E+03  0.81928528507E+02  0.23642098623E+04  0.23714637908E+04  0.00000000000E+00 0. -1.
<scales pt_clust_3="14000.00000" pt_clust_4="50.52782" pt_clust_5="30.87691" pt_clust_6="147.82706"></scales>
<clustering>
<clus scale="   30.877">  2  5  1 -1</clus>
<clus scale="   50.528">  1  4  2 -1</clus>
<clus scale="  147.827">  1  6  2 -1</clus>
<clus scale="   50.528">  1  3  2 -1</clus>
</clustering>
</event>
<event>
 6    0  0.6549018E+002  0.1271616E+03  0.7546771E-02  0.1231729E+00
         21   -1    0    0  504  501  0.00000000000E+00  0.00000000000E+00  0.75064362120E+03  0.75064362120E+03  0.00000000000E+00 0.  1.
         21   -1    0    0  505  502 -0.00000000000E+00 -0.00000000000E+00 -0.13729297039E+03  0.13729297039E+03  0.00000000000E+00 0.  1.
         21    1    1    2  503  506 -0.67097270303E+02  0.33100334777E+00  0.27633611542E+03  0.28436561313E+03  0.00000000000E+00 0.  1.
         21    1    1    2  504  503 -0.54213215399E+02  0.13552512846E+02  0.43214526981E+03  0.43574336202E+03  0.00000000000E+00 0.  1.
         21    1    1    2  505  501  0.92255051180E+02 -0.33425580185E+02 -0.48337914657E+02  0.10938380992E+03  0.00000000000E+00 0.  1.
         21    1    1    2  506  502  0.29055434522E+02  0.19542063992E+02 -0.46792819760E+02  0.58443806527E+02  0.00000000000E+00 0.  1.
<scales pt_clust_3="37.87063" pt_clust_4="37.87063" pt_clust_5="120.28302" pt_clust_6="35.01586"></scales>
<clustering>
<clus scale="   35.016">  2  6  1 -1</clus>
<clus scale="   37.871">  3  4 -1 -1</clus>
<clus scale="  120.283">  2  5  1 -1</clus>
<clus scale="  127.162">  1  3  2 -1</clus>
</clustering>
</event>
<event>
 6    0  0.6549018E+002  0.1414721E+03  0.7546771E-02  0.1211362E+00
         21   -1    0    0  506  501  0.00000000000E+00  0.00000000000E+00  0.64993429351E+03  0.64993429351E+03  0.00000000000E+00 0.  1.
         21   -1    0    0  505  502 -0.00000000000E+00 -0.00000000000E+00 -0.19824165336E+03  0.19824165336E+03  0.00000000000E+00 0. -1.
         21    1    1    2  503  501 -0.19116778463E+02  0.35296018495E+02  0.36363430459E+03  0.36584309152E+03  0.00000000000E+00 0.  1.
         21    1    1    2  504  502 -0.55193209598E+02 -0.27972307702E+02 -0.41803904968E+02  0.74674673448E+02  0.00000000000E+00 0.  1.
         21    1    1    2  505  503 -0.83846620825E+02  0.69068344717E+02 -0.79326278850E+02  0.13451152583E+03  0.00000000000E+00 0. -1.
         21    1    1    2  506  504  0.15815660889E+03 -0.76392055510E+02  0.20918851938E+03  0.27314665606E+03  0.00000000000E+00 0.  1.
<scales pt_clust_3="40.14050" pt_clust_4="61.98311" pt_clust_5="14000.00000" pt_clust_6="141.47213"></scales>
<clustering>
<clus scale="   40.141">  1  3  2 -1</clus>
<clus scale="   61.983">  2  4  1 -1</clus>
<clus scale="  141.472">  1  6  2 -1</clus>
<clus scale="   40.141">  1  3  2 -1</clus>
</clustering>
</event>
<event>
 6    0  0.6549018E+002  0.1839208E+03  0.7546771E-02  0.1164062E+00
         21   -1    0    0  504  501  0.00000000000E+00  0.00000000000E+00  0.77514374435E+03  0.77514374435E+03  0.00000000000E+00 0. -1.
         21   -1    0    0  501  502 -0.00000000000E+00 -0.00000000000E+00 -0.23945027303E+03  0.23945027303E+03  0.00000000000E+00 0. -1.
         21    1    1    2  503  502  0.17448143383E+03 -0.55570017503E+02 -0.10586637280E+03  0.21151710684E+03  0.00000000000E+00 0. -1.
         21    1    1    2  504  505 -0.42660953851E+02  0.18027923388E+03  0.56454924814E+03  0.59416867363E+03  0.00000000000E+00 0. -1.
         21    1    1    2  505  506 -0.11573092543E+03 -0.88584502249E+02  0.84778432621E+02  0.16860677263E+03  0.00000000000E+00 0. -1.
         21    1    1    2  506  503 -0.16089554544E+02 -0.36124714128E+02 -0.77678366377E+01  0.40301464270E+02  0.00000000000E+00 0. -1.
<scales pt_clust_3="183.11690" pt_clust_4="170.42263" pt_clust_5="36.02524" pt_clust_6="36.02524"></scales>
<clustering>
<clus scale="   36.025">  5  6 -1 -1</clus>
<clus scale="  183.117">  2  3  1 -1</clus>
<clus scale="  170.423">  1  4  2 -1</clus>
<clus scale="  170.423">  1  3  2 -1</clus>
</clustering>
</event>
<event>
 6    0  0.6549018E+002  0.1605879E+03  0.7546771E-02  0.1188035E+00
         21   -1    0    0  505  501  0.00000000000E+00  0.00000000000E+00  0.12903203960E+04  0.12903203960E+04  0.00000000000E+00 0.  1.
         21   -1    0    0  504  502 -0.00000000000E+00 -0.00000000000E+00 -0.46608418838E+02  0.46608418838E+02  0.00000000000E+00 0.  1.
         21    1    1    2  503  506  0.64621073821E+02 -0.57357281706E+02  0.96400899328E+02  0.12945607107E+03  0.00000000000E+00 0.  1.
         21    1    1    2  504  503 -0.17965215149E+01 -0.79195873780E+02  0.45430054118E+02  0.91318693215E+02  0.00000000000E+00 0.  1.
         21    1    1    2  505  502 -0.99370785062E+01  0.35462917521E+02  0.61430152817E+03  0.61540452676E+03  0.00000000000E+00 0.  1.
         21    1    1    2  506  501 -0.52887473800E+02  0.10109023796E+03  0.48757949559E+03  0.50074952383E+03  0.00000000000E+00 0.  1.
<scales pt_clust_3="74.92381" pt_clust_4="74.92381" pt_clust_5="36.82885" pt_clust_6="140.55843"></scales>
<clustering>
<clus scale="   36.829">  1  5  2 -1</clus>
<clus scale="   74.924">  3  4 -1 -1</clus>
<clus scale="  140.558">  1  6  2 -1</clus>
<clus scale="   36.829">  1  3  2 -1</clus>
</clustering>
</event>
<event>
 6    0  0.6549018E+002  0.1247017E+03  0.7546771E-02  0.1235536E+00
         21   -1    0    0  504  501  0.00000000000E+00  0.00000000000E+00  0.31635153804E+03  0.31635153804E+03  0.00000000000E+00 0. -1.
         21   -1    0    0  506  502 -0.00000000000E+00 -0.00000000000E+00 -0.19800006482E+04  0.19800006482E+04  0.00000000000E+00 0.  1.
         21    1    1    2  503  501 -0.43425819298E+02  0.59481380308E+02 -0.39019565637E+02  0.83344843197E+02  0.00000000000E+00 0. -1.
         21    1    1    2  504  505  0.71684086731E+02 -0.11856113335E+03  0.27408665071E+03  0.30711372931E+03  0.00000000000E+00 0. -1.
         21    1    1    2  505  502 -0.40782639789E+02  0.10552345418E+03 -0.15058322837E+04  0.15100759219E+04  0.00000000000E+00 0.  1.
         21    1    1    2  506  503  0.12524372357E+02 -0.46443701146E+02 -0.39288391153E+03  0.39581769190E+03  0.00000000000E+00 0.  1.
<scales pt_clust_3="14000.00000" pt_clust_4="124.70168" pt_clust_5="67.80916" pt_clust_6="48.10278"></scales>
<clustering>
<clus scale="   48.103">  2  6  1 -1</clus>
<clus scale="   67.809">  2  5  1 -1</clus>
<clus scale="  124.702">  1  4  2 -1</clus>
<clus scale="  124.702">  1  3  2 -1</clus>
</clustering>
</event>
<event>
 6    0  0.6549018E+002  0.1289056E+03  0.7546771E-02  0.1229089E+00
         21   -1    0    0  505  501  0.00000000000E+00  0.00000000000E+00  0.37680270410E+03  0.37680270410E+03  0.00000000000E+00 0. -1.
         21   -1    0    0  506  502 -0.00000000000E+00 -0.00000000000E+00 -0.51377609176E+03  0.51377609176E+03  0.00000000000E+00 0. -1.
         21    1    1    2  503  504 -0.68969333642E+02  0.76675371450E+02  0.15812836148E+03  0.18878681171E+03  0.00000000000E+00 0. -1.
         21    1    1    2  504  502  0.27139147263E+02  0.10750772142E+03 -0.22349779365E+03  0.24949089611E+03  0.00000000000E+00 0. -1.
         21    1    1    2  505  503 -0.30493572905E+02  0.79251360215E+01  0.14822330643E+03  0.15153486179E+03  0.00000000000E+00 0. -1.
         21    1    1    2  506  501  0.72323759284E+02 -0.19210822889E+03 -0.21982726193E+03  0.30076622624E+03  0.00000000000E+00 0. -1.
<scales pt_clust_3="14000.00000" pt_clust_4="110.90762" pt_clust_5="31.50660" pt_clust_6="128.90563"></scales>
<clustering>
<clus scale="   31.507">  1  5  2 -1</clus>
<clus scale="  110.908">  2  4  1 -1</clus>
<clus scale="  128.906">  2  6  1 -1</clus>
<clus scale="   31.507">  1  3  2 -1</clus>
</clustering>
</event>
<event>
 6    0  0.6549018E+002  0.9689636E+02  0.7546771E-02  0.1286961E+00
         21   -1    0    0  504  501  0.00000000000E+00  0.00000000000E+00  0.29597990571E+03  0.29597990571E+03  0.00000000000E+00 0. -1.
         21   -1    0    0  506  502 -0.00000000000E+00 -0.00000000000E+00 -0.98702155962E+02  0.98702155962E+02  0.00000000000E+00 0. -1.
         21    1    1    2  503  502 -0.31869475632E+02  0.40357253743E+02 -0.28980750795E+02  0.59027581039E+02  0.00000000000E+00 0. -1.
         21    1    1    2  504  503  0.42242705743E+02  0.91193966025E+02  0.11891169765E+03  0.15569450044E+03  0.00000000000E+00 0. -1.
         21    1    1    2  505  501 -0.81910830249E+01 -0.95918889544E+02  0.10744134371E+03  0.14426076927E+03  0.00000000000E+00 0. -1.
         21    1    1    2  506  505 -0.21821470862E+01 -0.35632330224E+02 -0.94540811907E-01  0.35699210930E+02  0.00000000000E+00 0. -1.
<scales pt_clust_3="39.13878" pt_clust_4="14000.00000" pt_clust_5="96.89636" pt_clust_6="35.69909"></scales>
<clustering>
<clus scale="   35.699">  2  6  1 -1</clus>
<clus scale="   39.139">  2  3  1 -1</clus>
<clus scale="   96.896">  2  5  1 -1</clus>
<clus scale="   96.896">  1  3  2 -1</clus>
</clustering>
</event>
<event>
 6    0  0.6549018E+002  0.2548316E+03  0.7546771E-02  0.1110289E+00
         21   -1    0    0  503  501  0.00000000000E+00  0.00000000000E+00  0.36282200601E+03  0.36282200601E+03  0.00000000000E+00 0. -1.
         21   -1    0    0  506  502 -0.00000000000E+00 -0.00000000000E+00 -0.70432977586E+03  0.70432977586E+03  0.00000000000E+00 0.  1.
         21    1    1    2  503  504 -0.24542094336E+03  0.73443063556E+02  0.27117374336E+03  0.37304225245E+03  0.00000000000E+00 0. -1.
         21    1    1    2  504  505  0.24567109847E+03 -0.24718185547E+02 -0.41978437994E+03  0.48701560854E+03  0.00000000000E+00 0.  1.
         21    1    1    2  505  502 -0.22555518697E+02 -0.21044286037E+02 -0.42274321356E+02  0.52332892569E+02  0.00000000000E+00 0.  1.
         21    1    1    2  506  501  0.22305363587E+02 -0.27680591972E+02 -0.15062281192E+03  0.15476102832E+03  0.00000000000E+00 0. -1.
<scales pt_clust_3="254.83157" pt_clust_4="14000.00000" pt_clust_5="30.84823" pt_clust_6="36.77022"></scales>
<clustering>
<clus scale="   30.848">  2  5  1 -1</clus>
<clus scale="   36.770">  2  6  1 -1</clus>
<clus scale="  254.832">  1  3  2 -1</clus>
<clus scale="  254.832">  1  3  2 -1</clus>
</clustering>
</event>
<event>
 6    0  0.6549018E+002  0.1195739E+03  0.7546771E-02  0.1243802E+00
         21   -1    0    0  504  501  0.00000000000E+00  0.00000000000E+00  0.33799865656E+03  0.33799865656E+03  0.00000000000E+00 0.  1.
         21   -1    0    0  505  502 -0.00000000000E+00 -0.00000000000E+00 -0.34406167346E+03  0.34406167346E+03  0.00000000000E+00 0. -1.
         21    1    1    2  503  501  0.45758322691E+00 -0.34933373649E+02  0.48682040979E+01  0.35273919375E+02  0.00000000000E+00 0. -1.
         21    1    1    2  504  502  0.10645291820E+03  0.43336158912E+02  0.29593720056E+03  0.31747294867E+03  0.00000000000E+00 0.  1.
         21    1    1    2  505  506 -0.65002204630E+02  0.19053427074E+02 -0.20278947303E+03  0.21380339113E+03  0.00000000000E+00 0. -1.
         21    1    1    2  506  503 -0.41908296794E+02 -0.27456212337E+02 -0.10407894853E+03  0.11551007083E+03  0.00000000000E+00 0.  1.
<scales pt_clust_3="34.93637" pt_clust_4="107.32778" pt_clust_5="45.54716" pt_clust_6="45.54716"></scales>
<clustering>
<clus scale="   34.936">  1  3  2 -1</clus>
<clus scale="   45.547">  5  6 -1 -1</clus>
<clus scale="  107.328">  1  4  2 -1</clus>
<clus scale="   34.936">  1  3  2 -1</clus>
</clustering>
</event>
<event>
 6    0  0.6549018E+002  0.1333296E+03  0.7546771E-02  0.1222597E+00
         21   -1    0    0  504  501  0.00000000000E+00  0.00000000000E+00  0.72204285441E+02  0.72204285441E+02  0.00000000000E+00 0.  1.
         21   -1    0    0  503  502 -0.00000000000E+00 -0.00000000000E+00 -0.48624971238E+03  0.48624971238E+03  0.00000000000E+00 0. -1.
         21    1    1    2  503  505  0.57625738690E+02 -0.37227155605E+02 -0.21152774640E+03  0.22237485103E+03  0.00000000000E+00 0. -1.
         21    1    1    2  504  502  0.38038931336E+02  0.19337435470E+02 -0.13584441348E+03  0.14238890892E+03  0.00000000000E+00 0. -1.
         21    1    1    2  505  506  0.28126116168E+02 -0.26862016824E+02 -0.46338647406E+02  0.60497244582E+02  0.00000000000E+00 0. -1.
         21    1    1    2  506  501 -0.12379078619E+03  0.44751736960E+02 -0.20334619657E+02  0.13319299330E+03  0.00000000000E+00 0.  1.
<scales pt_clust_3="34.17982" pt_clust_4="42.67197" pt_clust_5="34.17982" pt_clust_6="125.36367"></scales>
<clustering>
<clus scale="   34.180">  3  5 -1 -1</clus>
<clus scale="   42.672">  2  4  1 -1</clus>
<clus scale="  125.364">  1  6  2 -1</clus>
<clus scale="  125.364">  1  3  2 -1</clus>
</clustering>
</event>
<event>
 6    0  0.6549018E+002  0.8978240E+02  0.7546771E-02  0.1303380E+00
         21   -1    0    0  502  501  0.00000000000E+00  0.00000000000E+00  0.20589000457E+04  0.20589000457E+04  0.00000000000E+00 0.  1.
         21   -1    0    0  503  502 -0.00000000000E+00 -0.00000000000E+00 -0.24990728231E+03  0.24990728231E+03  0.00000000000E+00 0. -1.
         21    1    1    2  503  505  0.23668113452E+02 -0.27621236659E+02 -0.20431159568E+03  0.20752431289E+03  0.00000000000E+00 0. -1.
         21    1    1    2  504  506 -0.99190895090E+01 -0.62916196121E+02  0.29113338162E+03  0.29801926442E+03  0.00000000000E+00 0.  1.
         21    1    1    2  505  504 -0.51125256568E+02 -0.38082349278E+01 -0.22254685535E+02  0.55888867770E+02  0.00000000000E+00 0.  1.
         21    1    1    2  506  501  0.37376232625E+02  0.94345667709E+02  0.17444256630E+04  0.17473748829E+04  0.00000000000E+00 0.  1.
<scales pt_clust_3="36.37461" pt_clust_4="14000.00000" pt_clust_5="41.34540" pt_clust_6="89.78240"></scales>
<clustering>
<clus scale="   36.375">  2  3  1 -1</clus>
<clus scale="   41.345">  2  5  1 -1</clus>
<clus scale="   89.782">  1  6  2 -1</clus>
<clus scale="   89.782">  1  3  2 -1</clus>
</clustering>
</event>
<event>
 6    0  0.6549018E+002  0.1777687E+03  0.7546771E-02  0.1169980E+00
         21   -1    0    0  505  501  0.00000000000E+00  0.00000000000E+00  0.24620022006E+03  0.24620022006E+03  0.00000000000E+00 0. -1.
         21   -1    0    0  506  502 -0.00000000000E+00 -0.00000000000E+00 -0.33238112585E+03  0.33238112585E+03  0.00000000000E+00 0. -1.
         21    1    1    2  503  501  0.58919135349E+02  0.55362291303E+02 -0.31493043682E+01  0.80909615786E+02  0.00000000000E+00 0.  1.
         21    1    1    2  504  502  0.12528065540E+03 -0.59259398883E+02 -0.27746112689E+02  0.14133918686E+03  0.00000000000E+00 0. -1.
         21    1    1    2  505  504  0.25476050715E+02 -0.78572436738E+02  0.61095367981E+02  0.10273899437E+03  0.00000000000E+00 0. -1.
         21    1    1    2  506  503 -0.20967584146E+03  0.82469544318E+02 -0.11638085670E+03  0.25359354889E+03  0.00000000000E+00 0. -1.
<scales pt_clust_3="80.84830" pt_clust_4="14000.00000" pt_clust_5="74.77828" pt_clust_6="177.76874"></scales>
<clustering>
<clus scale="   80.848">  1  3  2 -1</clus>
<clus scale="   74.778">  1  5  2 -1</clus>
<clus scale="  177.769">  1  6  2 -1</clus>
<clus scale="   80.848">  1  3  2 -1</clus>
</clustering>
</event>
<event>
 6    0  0.6549018E+002  0.7213573E+02  0.7546771E-02  0.1352977E+00
         21   -1    0    0  504  501  0.00000000000E+00  0.00000000000E+00  0.29977483763E+03  0.29977483763E+03  0.00000000000E+00 0.  1.
         21   -1    0    0  503  502 -0.00000000000E+00 -0.00000000000E+00 -0.85326476107E+03  0.85326476107E+03  0.00000000000E+00 0. -1.
         21    1    1    2  503  505  0.10884411901E+03 -0.28174245028E+02 -0.69902405727E+03  0.70800809527E+03  0.00000000000E+00 0. -1.
         21    1    1    2  504  502 -0.46218746012E+02 -0.11658969590E+02 -0.13272616564E+03  0.14102602277E+03  0.00000000000E+00 0.  1.
         21    1    1    2  505  506 -0.53002101551E+02  0.43865899333E+00  0.52398572232E+02  0.74532043863E+02  0.00000000000E+00 0.  1.
         21    1    1    2  506  501 -0.96232714487E+01  0.39394555624E+02  0.22586172723E+03  0.22947343680E+03  0.00000000000E+00 0.  1.
<scales pt_clust_3="14000.00000" pt_clust_4="47.70618" pt_clust_5="72.13573" pt_clust_6="40.55291"></scales>
<clustering>
<clus scale="   40.553">  1  6  2 -1</clus>
<clus scale="   47.706">  2  4  1 -1</clus>
<clus scale="   72.136">  1  5  2 -1</clus>
<clus scale="   40.553">  1  3  2 -1</clus>
</clustering>
</event>
<event>
 6    0  0.6549018E+002  0.1410616E+03  0.7546771E-02  0.1211908E+00
         21   -1    0    0  506  501  0.00000000000E+00  0.00000000000E+00  0.46845615077E+03  0.46845615077E+03  0.00000000000E+00 0.  1.
         21   -1    0    0  503  502 -0.00000000000E+00 -0.00000000000E+00 -0.78002202220E+02  0.78002202220E+02  0.00000000000E+00 0. -1.
         21    1    1    2  503  504 -0.25274973683E+02 -0.41520318706E+02  0.47246084221E+02  0.67786087321E+02  0.00000000000E+00 0. -1.
         21    1    1    2  504  505 -0.80062271668E+02 -0.91077350923E+01  0.63304237260E+02  0.10247118931E+03  0.00000000000E+00 0. -1.
         21    1    1    2  505  501 -0.34021961577E+02  0.26161008957E+02  0.21726820470E+03  0.22146639708E+03  0.00000000000E+00 0.  1.
         21    1    1    2  506  502  0.13935920693E+03  0.24467044841E+02  0.62635422368E+02  0.15473467929E+03  0.00000000000E+00 0. -1.
<scales pt_clust_3="40.62576" pt_clust_4="40.62576" pt_clust_5="42.91727" pt_clust_6="129.58141"></scales>
<clustering>
<clus scale="   42.917">  1  5  2 -1</clus>
<clus scale="   40.626">  3  4 -1 -1</clus>
<clus scale="  129.581">  2  6  1 -1</clus>
<clus scale="   42.917">  1  3  2 -1</clus>
</clustering>
</event>
<event>
 6    0  0.6549018E+002  0.2756895E+03  0.7546771E-02  0.1098067E+00
         21   -1    0    0  503  501  0.00000000000E+00  0.00000000000E+00  0.10088623734E+04  0.10088623734E+04  0.00000000000E+00 0.  1.
         21   -1    0    0  505  502 -0.00000000000E+00 -0.00000000000E+00 -0.28171722109E+03  0.28171722109E+03  0.00000000000E+00 0. -1.
         21    1    1    2  503  506  0.23923353978E+03 -0.84979941217E+02  0.76666327095E+03  0.80760562652E+03  0.00000000000E+00 0.  1.
         21    1    1    2  504  502 -0.20960617972E+03  0.39551365354E+02 -0.10865861657E+03  0.23938620686E+03  0.00000000000E+00 0. -1.
         21    1    1    2  505  501  0.19908549628E+02  0.24579457141E+02  0.14623054415E+03  0.14961240625E+03  0.00000000000E+00 0. -1.
         21    1    1    2  506  504 -0.49535909687E+02  0.20849118722E+02 -0.77090046205E+02  0.93975354875E+02  0.00000000000E+00 0.  1.
<scales pt_clust_3="264.91541" pt_clust_4="38.37986" pt_clust_5="31.63068" pt_clust_6="38.37986"></scales>
<clustering>
<clus scale="   31.631">  1  5  2 -1</clus>
<clus scale="   38.380">  4  6 -1 -1</clus>
<clus scale="  264.915">  1  3  2 -1</clus>
<clus scale="   31.631">  1  3  2 -1</clus>
</clustering>
</event>
<event>
 6    0  0.6549018E+002  0.1287413E+03  0.7546771E-02  0.1229335E+00
         21   -1    0    0  504  501  0.00000000000E+00  0.00000000000E+00  0.43384444749E+03  0.43384444749E+03  0.00000000000E+00 0. -1.
         21   -1    0    0  503  502 -0.00000000000E+00 -0.00000000000E+00 -0.19832707856E+03  0.19832707856E+03  0.00000000000E+00 0.  1.
         21    1    1    2  503  501 -0.94777613988E+02  0.53934700271E+02  0.21251799512E+03  0.23886323756E+03  0.00000000000E+00 0. -1.
         21    1    1    2  504  505  0.13683015402E+02 -0.35567669911E+02  0.14899756918E+03  0.15379388699E+03  0.00000000000E+00 0. -1.
         21    1    1    2  505  506 -0.45403780339E+02  0.17153066149E+02  0.10922081833E+02  0.49749601194E+02  0.00000000000E+00 0. -1.
         21    1    1    2  506  502  0.12649837892E+03 -0.35520096510E+02 -0.13692027721E+03  0.18976480031E+03  0.00000000000E+00 0.  1.
<scales pt_clust_3="14000.00000" pt_clust_4="38.10884" pt_clust_5="45.91276" pt_clust_6="128.74130"></scales>
<clustering>
<clus scale="   38.109">  1  4  2 -1</clus>
<clus scale="   45.913">  1  5  2 -1</clus>
<clus scale="  128.741">  2  6  1 -1</clus>
<clus scale="   38.109">  1  3  2 -1</clus>
</clustering>
</event>
<event>
 6    0  0.6549018E+002  0.1521555E+03  0.7546771E-02  0.1197849E+00
         21   -1    0    0  505  501  0.00000000000E+00  0.00000000000E+00  0.73611457816E+03  0.73611457816E+03  0.00000000000E+00 0.  1.
         21   -1    0    0  504  502 -0.00000000000E+00 -0.00000000000E+00 -0.17746712222E+04  0.17746712222E+04  0.00000000000E+00 0. -1.
         21    1    1    2  503  501  0.35181716201E+02  0.51787666110E+02  0.49454011846E+02  0.79783549706E+02  0.00000000000E+00 0.  1.
         21    1    1    2  504  503 -0.23108840940E+02  0.23653742985E+02 -0.13442162625E+03  0.13842937438E+03  0.00000000000E+00 0.  1.
         21    1    1    2  505  506 -0.15225357501E+03  0.44704715278E+02  0.65473364609E+03  0.67368821423E+03  0.00000000000E+00 0.  1.
         21    1    1    2  506  502  0.14018069975E+03 -0.12014612437E+03 -0.16083226757E+04  0.16188846620E+04  0.00000000000E+00 0. -1.
<scales pt_clust_3="62.66926" pt_clust_4="33.06839" pt_clust_5="14000.00000" pt_clust_6="152.15552"></scales>
<clustering>
<clus scale="   33.068">  2  4  1 -1</clus>
<clus scale="   62.669">  1  3  2 -1</clus>
<clus scale="  152.156">  2  6  1 -1</clus>
<clus scale="   62.669">  1  3  2 -1</clus>
</clustering>
</event>
<event>
 6    0  0.6549018E+002  0.8954289E+02  0.7546771E-02  0.1303962E+00
         21   -1    0    0  506  501  0.00000000000E+00  0.00000000000E+00  0.16254052568E+04  0.16254052568E+04  0.00000000000E+00 0.  1.
         21   -1    0    0  504  502 -0.00000000000E+00 -0.00000000000E+00 -0.18913744203E+03  0.18913744203E+03  0.00000000000E+00 0. -1.
         21    1    1    2  503  502 -0.61468062594E+01 -0.47268110413E+02 -0.56252439796E+02  0.73731909457E+02  0.00000000000E+00 0.  1.
         21    1    1    2  504  501 -0.30907723288E+02  0.19678608173E+02  0.17733429522E+02  0.40706381577E+02  0.00000000000E+00 0. -1.
         21    1    1    2  505  503  0.77104608188E+02 -0.52599081018E+02 -0.91823146433E+02  0.13093232660E+03  0.00000000000E+00 0. -1.
         21    1    1    2  506  505 -0.40050078640E+02  0.80188583257E+02  0.15666099715E+04  0.15691720812E+04  0.00000000000E+00 0.  1.
<scales pt_clust_3="43.70538" pt_clust_4="36.64062" pt_clust_5="89.54289" pt_clust_6="14000.00000"></scales>
<clustering>
<clus scale="   36.641">  2  4  1 -1</clus>
<clus scale="   43.705">  2  3  1 -1</clus>
<clus scale="   89.543">  2  5  1 -1</clus>
<clus scale="   89.543">  1  3  2 -1</clus>
</clustering>
</event>
<event>
 6    0  0.6549018E+002  0.8779460E+02  0.7546771E-02  0.1308282E+00
         21   -1    0    0  503  501  0.00000000000E+00  0.00000000000E+00  0.25255070770E+03  0.25255070770E+03  0.00000000000E+00 0.  1.
         21   -1    0    0  504  502 -0.00000000000E+00 -0.00000000000E+00 -0.10698838825E+03  0.10698838825E+03  0.00000000000E+00 0.  1.
         21    1    1    2  503  505 -0.10295900002E+01 -0.43182595189E+02  0.11984286682E+03  0.12738959656E+03  0.00000000000E+00 0.  1.
         21    1    1    2  504  506  0.35415173023E+02  0.21021407691E+02  0.91174296338E+01  0.42181294251E+02  0.00000000000E+00 0.  1.
         21    1    1    2  505  502  0.11478942717E+02 -0.66347259690E+02  0.51050542910E+02  0.84497827935E+02  0.00000000000E+00 0.  1.
         21    1    1    2  506  501 -0.45864525740E+02  0.88508447189E+02 -0.34448519918E+02  0.10547037721E+03  0.00000000000E+00 0.  1.
<scales pt_clust_3="42.30806" pt_clust_4="41.18415" pt_clust_5="14000.00000" pt_clust_6="87.79460"></scales>
<clustering>
<clus scale="   41.184">  2  4  1 -1</clus>
<clus scale="   42.308">  1  3  2 -1</clus>
<clus scale="   87.795">  2  6  1 -1</clus>
<clus scale="   42.308">  1  3  2 -1</clus>
</clustering>
</event>
<event>
 6    0  0.6549018E+002  0.1211043E+03  0.7546771E-02  0.1241286E+00
         21   -1    0    0  504  501  0.00000000000E+00  0.00000000000E+00  0.20690235432E+03  0.20690235432E+03  0.00000000000E+00 0.  1.
         21   -1    0    0  506  502 -0.00000000000E+00 -0.00000000000E+00 -0.12670806335E+03  0.12670806335E+03  0.00000000000E+00 0.  1.
         21    1    1    2  503  505  0.13995425984E+02 -0.59568511921E+02 -0.30552209237E+02  0.68393837809E+02  0.00000000000E+00 0.  1.
         21    1    1    2  504  502 -0.84527583950E+01  0.14638937800E+03  0.74640439498E+02  0.16453721258E+03  0.00000000000E+00 0.  1.
         21    1    1    2  505  501 -0.18992147462E+02 -0.45513777933E+02  0.27247420961E+02  0.56343833700E+02  0.00000000000E+00 0.  1.
         21    1    1    2  506  503  0.13449479872E+02 -0.41307088144E+02  0.88586397532E+01  0.44335533582E+02  0.00000000000E+00 0.  1.
<scales pt_clust_3="30.47515" pt_clust_4="115.57707" pt_clust_5="49.31740" pt_clust_6="30.47515"></scales>
<clustering>
<clus scale="   30.475">  3  6 -1 -1</clus>
<clus scale="   49.317">  1  5  2 -1</clus>
<clus scale="  115.577">  1  4  2 -1</clus>
<clus scale="   49.317">  1  3  2 -1</clus>
</clustering>
</event>
<event>
 6    0  0.6549018E+002  0.9054246E+02  0.7546771E-02  0.1301543E+00
         21   -1    0    0  505  501  0.00000000000E+00  0.00000000000E+00  0.78078942746E+02  0.78078942746E+02  0.00000000000E+00 0.  1.
         21   -1    0    0  503  502 -0.00000000000E+00 -0.00000000000E+00 -0.10480742673E+04  0.10480742673E+04  0.00000000000E+00 0.  1.
         21    1    1    2  503  501 -0.31453462642E+02 -0.33618178510E+01  0.56913850210E+02  0.65113811724E+02  0.00000000000E+00 0.  1.
         21    1    1    2  504  502 -0.90715736287E+02  0.28922528767E+02 -0.39608487634E+03  0.40736849012E+03  0.00000000000E+00 0.  1.
         21    1    1    2  505  506  0.31893491420E+02 -0.65204044595E+02 -0.27989117355E+03  0.28915018807E+03  0.00000000000E+00 0.  1.
         21    1    1    2  506  504  0.90275707508E+02  0.39643333679E+02 -0.35093312484E+03  0.36452072009E+03  0.00000000000E+00 0.  1.
<scales pt_clust_3="31.63261" pt_clust_4="14000.00000" pt_clust_5="70.12170" pt_clust_6="90.54246"></scales>
<clustering>
<clus scale="   31.633">  1  3  2 -1</clus>
<clus scale="   70.122">  1  5  2 -1</clus>
<clus scale="   90.542">  1  6  2 -1</clus>
<clus scale="   31.633">  1  3  2 -1</clus>
</clustering>
</event>
<event>
 6    0  0.6549018E+002  0.7561492E+02  0.7546771E-02  0.1341977E+00
         21   -1    0    0  502  501  0.00000000000E+00  0.00000000000E+00  0.96723457818E+03  0.96723457818E+03  0.00000000000E+00 0. -1.
         21   -1    0    0  506  502 -0.00000000000E+00 -0.00000000000E+00 -0.14641492132E+03  0.14641492132E+03  0.00000000000E+00 0. -1.
         21    1    1    2  503  505  0.60182715060E+02  0.40907114491E+02  0.39529053587E+02  0.82812422289E+02  0.00000000000E+00 0. -1.
         21    1    1    2  504  501 -0.53718895636E+02  0.56477909238E+02  0.73388944666E+03  0.73801706884E+03  0.00000000000E+00 0. -1.
         21    1    1    2  505  504 -0.40763265571E+02 -0.64979362774E+02  0.15631616449E+03  0.17412267137E+03  0.00000000000E+00 0. -1.
         21    1    1    2  506  503  0.34299446148E+02 -0.32405660954E+02 -0.10891500788E+03  0.11869733699E+03  0.00000000000E+00 0. -1.
<scales pt_clust_3="14000.00000" pt_clust_4="74.96331" pt_clust_5="75.61492" pt_clust_6="47.18664"></scales>
<clustering>
<clus scale="   47.187">  2  6  1 -1</clus>
<clus scale="   74.963">  1  4  2 -1</clus>
<clus scale="   75.615">  1  5  2 -1</clus>
<clus scale="   74.963">  1  3  2 -1</clus>
</clustering>
</event>
<event>
 6    0  0.6549018E+002  0.6413284E+02  0.7546771E-02  0.1381263E+00
         21   -1    0    0  505  501  0.00000000000E+00  0.00000000000E+00  0.36386389602E+02  0.36386389602E+02  0.00000000000E+00 0.  1.
         21   -1    0    0  504  502 -0.00000000000E+00 -0.00000000000E+00 -0.53316651049E+03  0.53316651049E+03  0.00000000000E+00 0.  1.
         21    1    1    2  503  506  0.10175098696E+03 -0.30656549227E+02 -0.25367320166E+03  0.27503305365E+03  0.00000000000E+00 0.  1.
         21    1    1    2  504  503 -0.21624404596E+02 -0.26978151232E+02 -0.64844393109E+02  0.73486262904E+02  0.00000000000E+00 0.  1.
         21    1    1    2  505  502 -0.50548331438E+02  0.52542513833E+01 -0.14193901078E+03  0.15076280626E+03  0.00000000000E+00 0.  1.
         21    1    1    2  506  501 -0.29578250930E+02  0.52380449076E+02 -0.36323515338E+02  0.70270777283E+02  0.00000000000E+00 0.  1.
<scales pt_clust_3="14000.00000" pt_clust_4="34.57507" pt_clust_5="57.46116" pt_clust_6="64.13284"></scales>
<clustering>
<clus scale="   34.575">  2  4  1 -1</clus>
<clus scale="   57.461">  2  5  1 -1</clus>
<clus scale="   64.133">  1  6  2 -1</clus>
<clus scale="   64.133">  1  3  2 -1</clus>
</clustering>
</event>
<event>
 6    0  0.6549018E+002  0.9846878E+02  0.7546771E-02  0.1283549E+00
         21   -1    0    0  506  501  0.00000000000E+00  0.00000000000E+00  0.24114942576E+03  0.24114942576E+03  0.00000000000E+00 0.  1.
         21   -1    0    0  505  502 -0.00000000000E+00 -0.00000000000E+00 -0.48263594950E+03  0.48263594950E+03  0.00000000000E+00 0.  1.
         21    1    1    2  503  502  0.11111054097E+03 -0.55535293064E+02 -0.27945624868E+03  0.30581941733E+03  0.00000000000E+00 0.  1.
         21    1    1    2  504  501 -0.25387346305E+01  0.10823286942E+03 -0.97510215781E+02  0.14570189216E+03  0.00000000000E+00 0.  1.
         21    1    1    2  505  504 -0.42142805672E+02  0.22348541306E+02 -0.45157204558E+02  0.65685968760E+02  0.00000000000E+00 0.  1.
         21    1    1    2  506  503 -0.66429000664E+02 -0.75046117665E+02  0.18063714529E+03  0.20657809701E+03  0.00000000000E+00 0.  1.
<scales pt_clust_3="91.55393" pt_clust_4="14000.00000" pt_clust_5="47.70192" pt_clust_6="98.46878"></scales>
<clustering>
<clus scale="   47.702">  2  5  1 -1</clus>
<clus scale="   91.554">  2  3  1 -1</clus>
<clus scale="   98.469">  1  6  2 -1</clus>
<clus scale="   98.469">  1  3  2 -1</clus>
</clustering>
</event>
<event>
 6    0  0.6549018E+002  0.1224675E+03  0.7546771E-02  0.1239081E+00
         21   -1    0    0  504  501  0.00000000000E+00  0.00000000000E+00  0.19939909654E+04  0.19939909654E+04  0.00000000000E+00 0.  1.
         21   -1    0    0  503  502 -0.00000000000E+00 -0.00000000000E+00 -0.64818604630E+02  0.64818604630E+02  0.00000000000E+00 0. -1.
         21    1    1    2  503  501 -0.66425472261E+02 -0.51713307767E+02  0.14384187071E+04  0.14408799348E+04  0.00000000000E+00 0.  1.
         21    1    1    2  504  505  0.10105206042E+03 -0.94345173042E+02  0.38936986484E+03  0.41318448935E+03  0.00000000000E+00 0.  1.
         21    1    1    2  505  506 -0.38324472924E+02  0.94101440133E+02  0.11238611987E+03  0.15150738002E+03  0.00000000000E+00 0. -1.
         21    1    1    2  506  502  0.36978847690E+01  0.51957040676E+02 -0.11002331033E+02  0.53237765878E+02  0.00000000000E+00 0. -1.
<scales pt_clust_3="82.88379" pt_clust_4="122.46749" pt_clust_5="14000.00000" pt_clust_6="52.08847"></scales>
<clustering>
<clus scale="   52.088">  2  6  1 -1</clus>
<clus scale="   82.884">  1  3  2 -1</clus>
<clus scale="  122.467">  1  4  2 -1</clus>
<clus scale="   82.884">  1  3  2 -1</clus>
</clustering>
</event>
<event>
 6    0  0.6549018E+002  0.2059454E+03  0.7546771E-02  0.1144818E+00
         21   -1    0    0  506  501  0.00000000000E+00  0.00000000000E+00  0.29795266371E+02  0.29795266371E+02  0.00000000000E+00 0. -1.
         21   -1    0    0  503  502 -0.00000000000E+00 -0.00000000000E+00 -0.17859799360E+04  0.17859799360E+04  0.00000000000E+00 0. -1.
         21    1    1    2  503  505 -0.37355033245E+02  0.97744106309E+02 -0.91486843540E+03  0.92083308092E+03  0.00000000000E+00 0. -1.
         21    1    1    2  504  502  0.66786677406E+02 -0.84163722881E+02 -0.29609626311E+03  0.31498728475E+03  0.00000000000E+00 0. -1.
         21    1    1    2  505  501 -0.18927432665E+02  0.78109808169E+02 -0.39923209793E+03  0.40724152276E+03  0.00000000000E+00 0. -1.
         21    1    1    2  506  504 -0.10504211496E+02 -0.91690191597E+02 -0.14598787319E+03  0.17271331395E+03  0.00000000000E+00 0.  1.
<scales pt_clust_3="192.15083" pt_clust_4="84.54355" pt_clust_5="46.61930" pt_clust_6="84.54355"></scales>
<clustering>
<clus scale="   46.619">  3  5 -1 -1</clus>
<clus scale="   84.544">  4  6 -1 -1</clus>
<clus scale="  192.151">  2  3  1 -1</clus>
<clus scale="  205.945">  1  3  2 -1</clus>
</clustering>
</event>
<event>
 6    0  0.6549018E+002  0.1452910E+03  0.7546771E-02  0.1206382E+00
         21   -1    0    0  503  501  0.00000000000E+00  0.00000000000E+00  0.13662988321E+03  0.13662988321E+03  0.00000000000E+00 0.  1.
         21   -1    0    0  505  502 -0.00000000000E+00 -0.00000000000E+00 -0.46607415381E+03  0.46607415381E+03  0.00000000000E+00 0.  1.
         21    1    1    2  503  504 -0.93325523672E+02  0.36027785488E+02  0.55454159787E+02  0.11438014921E+03  0.00000000000E+00 0.  1.
         21    1    1    2  504  502  0.12269639106E+03 -0.94402278871E+02 -0.34595727279E+03  0.37901534169E+03  0.00000000000E+00 0.  1.
         21    1    1    2  505  506 -0.54739711019E+02  0.26358037539E+02 -0.28714390182E+02  0.67198945742E+02  0.00000000000E+00 0.  1.
         21    1    1    2  506  501  0.25368843630E+02  0.32016455844E+02 -0.10226767413E+02  0.42109600374E+02  0.00000000000E+00 0.  1.
<scales pt_clust_3="14000.00000" pt_clust_4="145.29099" pt_clust_5="59.66472" pt_clust_6="40.84889"></scales>
<clustering>
<clus scale="   40.849">  1  6  2 -1</clus>
<clus scale="   59.665">  1  5  2 -1</clus>
<clus scale="  145.291">  2  4  1 -1</clus>
<clus scale="   40.849">  1  3  2 -1</clus>
</clustering>
</event>
<event>
 6    0  0.7800755E+002  0.1785739E+03  0.7546771E-02  0.1169190E+00
         21   -1    0    0  505  501  0.00000000000E+00  0.00000000000E+00  0.33202030680E+03  0.33202030680E+03  0.00000000000E+00 0.  1.
         21   -1    0    0  503  502 -0.00000000000E+00 -0.00000000000E+00 -0.79821233164E+03  0.79821233164E+03  0.00000000000E+00 0.  1.
         21    1    1    2  503  506 -0.27932776658E+02  0.13054642197E+02 -0.19501697068E+02  0.36482596991E+02  0.00000000000E+00 0. -1.
         21    1    1    2  504  502  0.14906703985E+03  0.11475293853E+03 -0.70627387419E+03  0.73089808088E+03  0.00000000000E+00 0.  1.
         21    1    1    2  505  504  0.11481707804E+02  0.30614638014E+02  0.21518365568E+01  0.32767607105E+02  0.00000000000E+00 0. -1.
         21    1    1    2  506  501 -0.13261597099E+03 -0.15842221874E+03  0.25743170987E+03  0.33008435346E+03  0.00000000000E+00 0.  1.
<scales pt_clust_3="30.83283" pt_clust_4="14000.00000" pt_clust_5="32.75056" pt_clust_6="178.57390"></scales>
<clustering>
<clus scale="   30.833">  2  3  1 -1</clus>
<clus scale="   32.751">  1  5  2 -1</clus>
<clus scale="  178.574">  1  6  2 -1</clus>
<clus scale="   32.751">  1  3  2 -1</clus>
</clustering>
</event>
<event>
 6    0  0.6549018E+002  0.8855155E+02  0.7546771E-02  0.1306398E+00
         21   -1    0    0  506  501  0.00000000000E+00  0.00000000000E+00  0.89088336989E+02  0.89088336989E+02  0.00000000000E+00 0.  1.
         21   -1    0    0  503  502 -0.00000000000E+00 -0.00000000000E+00 -0.68865786225E+03  0.68865786225E+03  0.00000000000E+00 0.  1.
         21    1    1    2  503  501 -0.80482497860E+02  0.88126554513E+01  0.33011657799E+02  0.87434918131E+02  0.00000000000E+00 0.  1.
         21    1    1    2  504  502  0.10435539658E+03 -0.43650265205E+02 -0.47536365530E+03  0.48863687870E+03  0.00000000000E+00 0.  1.
         21    1    1    2  505  504 -0.63315736827E+02  0.62799539370E+01 -0.13267688898E+03  0.14714440941E+03  0.00000000000E+00 0.  1.
         21    1    1    2  506  505  0.39442838112E+02  0.28557655817E+02 -0.24540638774E+02  0.54529992990E+02  0.00000000000E+00 0.  1.
<scales pt_clust_3="58.05497" pt_clust_4="88.55155" pt_clust_5="14000.00000" pt_clust_6="48.69576"></scales>
<clustering>
<clus scale="   48.696">  1  6  2 -1</clus>
<clus scale="   58.055">  1  3  2 -1</clus>
<clus scale="   88.552">  2  4  1 -1</clus>
<clus scale="   48.696">  1  3  2 -1</clus>
</clustering>
</event>
<event>
 6    0  0.6549018E+002  0.1485494E+03  0.7546771E-02  0.1202267E+00
         21   -1    0    0  504  501  0.00000000000E+00  0.00000000000E+00  0.53410982243E+03  0.53410982243E+03  0.00000000000E+00 0.  1.
         21   -1    0    0  505  502 -0.00000000000E+00 -0.00000000000E+00 -0.24978246035E+03  0.24978246035E+03  0.00000000000E+00 0.  1.
         21    1    1    2  503  501  0.10312380614E+03 -0.19452509055E+01  0.15653126962E+03  0.18745757323E+03  0.00000000000E+00 0.  1.
         21    1    1    2  504  506 -0.11412662135E+03 -0.30171716880E+02  0.22188345201E+03  0.25133142358E+03  0.00000000000E+00 0.  1.
         21    1    1    2  505  503  0.10993052800E+03  0.57350402626E+02 -0.17525037182E+03  0.21467762457E+03  0.00000000000E+00 0.  1.
         21    1    1    2  506  502 -0.98927712781E+02 -0.25233434841E+02  0.81163012273E+02  0.13042566140E+03  0.00000000000E+00 0.  1.
<scales pt_clust_3="103.14215" pt_clust_4="68.58843" pt_clust_5="128.94762" pt_clust_6="68.58843"></scales>
<clustering>
<clus scale="   68.588">  4  6 -1 -1</clus>
<clus scale="  103.142">  1  3  2 -1</clus>
<clus scale="  128.948">  2  5  1 -1</clus>
<clus scale="  103.142">  1  3  2 -1</clus>
</clustering>
</event>
<event>
 6    0  0.6549018E+002  0.1887691E+03  0.7546771E-02  0.1159576E+00
         21   -1    0    0  506  501  0.00000000000E+00  0.00000000000E+00  0.35512500616E+03  0.35512500616E+03  0.00000000000E+00 0.  1.
         21   -1    0    0  505  502 -0.00000000000E+00 -0.00000000000E+00 -0.10998770910E+04  0.10998770910E+04  0.00000000000E+00 0. -1.
         21    1    1    2  503  501 -0.71746144389E+02 -0.55893405091E+02  0.14320798336E+03  0.16964701137E+03  0.00000000000E+00 0.  1.
         21    1    1    2  504  503  0.18013412835E+03 -0.10335280485E+03  0.12469635556E+03  0.24223808032E+03  0.00000000000E+00 0.  1.
         21    1    1    2  505  504 -0.48344895652E+02  0.26999538000E+02 -0.69590958166E+02  0.88933151559E+02  0.00000000000E+00 0. -1.
         21    1    1    2  506  502 -0.60043088308E+02  0.13224667194E+03 -0.94306546563E+03  0.95418385396E+03  0.00000000000E+00 0. -1.
<scales pt_clust_3="91.22969" pt_clust_4="14000.00000" pt_clust_5="55.37331" pt_clust_6="188.76914"></scales>
<clustering>
<clus scale="   55.373">  2  5  1 -1</clus>
<clus scale="   91.230">  1  3  2 -1</clus>
<clus scale="  188.769">  2  6  1 -1</clus>
<clus scale="   91.230">  1  3  2 -1</clus>
</clustering>
</event>
<event>
 6    0  0.6549018E+002  0.1451449E+03  0.7546771E-02  0.1206569E+00
         21   -1    0    0  503  501  0.00000000000E+00  0.00000000000E+00  0.44554082661E+03  0.44554082661E+03  0.00000000000E+00 0. -1.
         21   -1    0    0  505  502 -0.00000000000E+00 -0.00000000000E+00 -0.84628296961E+02  0.84628296961E+02  0.00000000000E+00 0. -1.
         21    1    1    2  503  502  0.15772835345E+02  0.27832488453E+02 -0.62118119032E+01  0.32588592412E+02  0.00000000000E+00 0. -1.
         21    1    1    2  504  506 -0.16021291189E+01  0.36081694590E+02  0.53232251457E+02  0.64328283806E+02  0.00000000000E+00 0. -1.
         21    1    1    2  505  504 -0.86072094820E+02 -0.13289903029E+03  0.76608532337E+02  0.17589606302E+03  0.00000000000E+00 0. -1.
         21    1    1    2  506  501  0.71901388593E+02  0.68984847251E+02  0.23728355776E+03  0.25735618434E+03  0.00000000000E+00 0. -1.
<scales pt_clust_3="31.99109" pt_clust_4="33.79702" pt_clust_5="134.03938" pt_clust_6="33.79702"></scales>
<clustering>
<clus scale="   31.991">  2  3  1 -1</clus>
<clus scale="   33.797">  4  6 -1 -1</clus>
<clus scale="  134.039">  2  5  1 -1</clus>
<clus scale="  145.145">  1  3  2 -1</clus>
</clustering>
</event>
<event>
 6    0  0.6549018E+002  0.9078407E+02  0.7546771E-02  0.1300964E+00
         21   -1    0    0  505  501  0.00000000000E+00  0.00000000000E+00  0.56226159552E+03  0.56226159552E+03  0.00000000000E+00 0.  1.
         21   -1    0    0  506  502 -0.00000000000E+00 -0.00000000000E+00 -0.37318315980E+03  0.37318315980E+03  0.00000000000E+00 0. -1.
         21    1    1    2  503  501  0.27926803466E+02  0.86939845709E+02  0.51607871757E+03  0.52409511146E+03  0.00000000000E+00 0.  1.
         21    1    1    2  504  502 -0.39723238569E+02  0.11143791469E+02  0.64364522854E+01  0.41755810239E+02  0.00000000000E+00 0.  1.
         21    1    1    2  505  504 -0.32416923457E+02 -0.32156330880E+02 -0.27007646856E+02  0.53049972015E+02  0.00000000000E+00 0. -1.
         21    1    1    2  506  503  0.44213358560E+02 -0.65927306298E+02 -0.30642908728E+03  0.31654386160E+03  0.00000000000E+00 0. -1.
<scales pt_clust_3="14000.00000" pt_clust_4="41.25675" pt_clust_5="48.12213" pt_clust_6="90.78407"></scales>
<clustering>
<clus scale="   41.257">  2  4  1 -1</clus>
<clus scale="   48.122">  2  5  1 -1</clus>
<clus scale="   90.784">  2  6  1 -1</clus>
<clus scale="   90.784">  1  3  2 -1</clus>
</clustering>
</event>
<event>
 6    0  0.6549018E+002  0.1115060E+03  0.7546771E-02  0.1257806E+00
         21   -1    0    0  504  501  0.00000000000E+00  0.00000000000E+00  0.71525170728E+03  0.71525170728E+03  0.00000000000E+00 0.  1.
         21   -1    0    0  506  502 -0.00000000000E+00 -0.00000000000E+00 -0.72162934557E+03  0.72162934557E+03  0.00000000000E+00 0.  1.
         21    1    1    2  503  505 -0.64455280783E+02  0.85358827457E+02  0.16207658097E+02  0.10818179526E+03  0.00000000000E+00 0.  1.
         21    1    1    2  504  502 -0.33902778819E+02 -0.10617873202E+03  0.61443948032E+03  0.62446713006E+03  0.00000000000E+00 0.  1.
         21    1    1    2  505  501  0.82755400085E+01 -0.45175106101E+02  0.10530561533E+02  0.47118653418E+02  0.00000000000E+00 0.  1.
         21    1    1    2  506  503  0.90082519594E+02  0.65995010663E+02 -0.64755533824E+03  0.65711347411E+03  0.00000000000E+00 0.  1.
<scales pt_clust_3="103.25936" pt_clust_4="111.50604" pt_clust_5="45.92684" pt_clust_6="14000.00000"></scales>
<clustering>
<clus scale="   45.927">  1  5  2 -1</clus>
<clus scale="  103.259">  1  3  2 -1</clus>
<clus scale="  111.506">  1  4  2 -1</clus>
<clus scale="   45.927">  1  3  2 -1</clus>
</clustering>
</event>
<event>
 6    0  0.6549018E+002  0.1083989E+03  0.7546771E-02  0.1263564E+00
         21   -1    0    0  505  501  0.00000000000E+00  0.00000000000E+00  0.50069603779E+03  0.50069603779E+03  0.00000000000E+00 0. -1.
         21   -1    0    0  503  502 -0.00000000000E+00 -0.00000000000E+00 -0.49886577549E+03  0.49886577549E+03  0.00000000000E+00 0.  1.
         21    1    1    2  503  504 -0.89447287003E+02 -0.70178392850E+02 -0.29771640071E+03  0.31868617672E+03  0.00000000000E+00 0.  1.
         21    1    1    2  504  501  0.10420315175E+03  0.30093372594E+02  0.42136084924E+03  0.43509639528E+03  0.00000000000E+00 0. -1.
         21    1    1    2  505  506 -0.75014120469E+02  0.47466571902E+02  0.20456796969E+02  0.91097059558E+02  0.00000000000E+00 0. -1.
         21    1    1    2  506  502  0.60258255721E+02 -0.73815516465E+01 -0.14227098319E+03  0.15468218173E+03  0.00000000000E+00 0. -1.
<scales pt_clust_3="108.39894" pt_clust_4="14000.00000" pt_clust_5="83.28088" pt_clust_6="60.70869"></scales>
<clustering>
<clus scale="   60.709">  2  6  1 -1</clus>
<clus scale="   83.281">  2  5  1 -1</clus>
<clus scale="  108.399">  2  3  1 -1</clus>
<clus scale="  108.399">  1  3  2 -1</clus>
</clustering>
</event>
<event>
 6    0  0.6549018E+002  0.1041936E+03  0.7546771E-02  0.1271717E+00
         21   -1    0    0  504  501  0.00000000000E+00  0.00000000000E+00  0.20990068679E+03  0.20990068679E+03  0.00000000000E+00 0.  1.
         21   -1    0    0  503  502 -0.00000000000E+00 -0.00000000000E+00 -0.24825160277E+03  0.24825160277E+03  0.00000000000E+00 0.  1.
         21    1    1    2  503  506  0.38612714806E+02 -0.10931811438E+03 -0.92347848255E+02  0.14822117580E+03  0.00000000000E+00 0.  1.
         21    1    1    2  504  505  0.47897933229E+02  0.64917025070E+02  0.68999779485E+02  0.10615743837E+03  0.00000000000E+00 0.  1.
         21    1    1    2  505  502  0.44227411064E+02  0.38808629823E+02 -0.39193753415E+02  0.70698825626E+02  0.00000000000E+00 0. -1.
         21    1    1    2  506  501 -0.13073805910E+03  0.55924594913E+01  0.24190906203E+02  0.13307484978E+03  0.00000000000E+00 0.  1.
<scales pt_clust_3="104.19363" pt_clust_4="86.20843" pt_clust_5="58.84024" pt_clust_6="14000.00000"></scales>
<clustering>
<clus scale="   58.840">  2  5  1 -1</clus>
<clus scale="   86.208">  1  4  2 -1</clus>
<clus scale="  104.194">  2  3  1 -1</clus>
<clus scale="   86.208">  1  3  2 -1</clus>
</clustering>
</event>
<event>
 6    0  0.6549018E+002  0.1056320E+03  0.7546771E-02  0.1268879E+00
         21   -1    0    0  503  501  0.00000000000E+00  0.00000000000E+00  0.90458371519E+03  0.90458371519E+03  0.00000000000E+00 0. -1.
         21   -1    0    0  504  502 -0.00000000000E+00 -0.00000000000E+00 -0.33059508467E+02  0.33059508467E+02  0.00000000000E+00 0.  1.
         21    1    1    2  503  502  0.61687173179E+02  0.70478544969E+01  0.17738664335E+03  0.18793882203E+03  0.00000000000E+00 0.  1.
         21    1    1    2  504  505 -0.25196043964E+02  0.92710412781E+02  0.80762068773E+02  0.12550925473E+03  0.00000000000E+00 0.  1.
         21    1    1    2  505  506  0.67719028565E+01 -0.39972311708E+02  0.17362970212E+03  0.17830007804E+03  0.00000000000E+00 0. -1.
         21    1    1    2  506  501 -0.43263032071E+02 -0.59785955570E+02  0.43974579249E+03  0.44589506887E+03  0.00000000000E+00 0. -1.
<scales pt_clust_3="62.08848" pt_clust_4="95.13854" pt_clust_5="34.02045" pt_clust_6="34.02045"></scales>
<clustering>
<clus scale="   34.020">  5  6 -1 -1</clus>
<clus scale="   62.088">  1  3  2 -1</clus>
<clus scale="   95.139">  2  4  1 -1</clus>
<clus scale="   62.088">  1  3  2 -1</clus>
</clustering>
</event>
<event>
 6    0  0.6549018E+002  0.9598978E+02  0.7546771E-02  0.1288962E+00
         21   -1    0    0  506  501  0.00000000000E+00  0.00000000000E+00  0.19776817429E+03  0.19776817429E+03  0.00000000000E+00 0. -1.
         21   -1    0    0  504  502 -0.00000000000E+00 -0.00000000000E+00 -0.77798502708E+03  0.77798502708E+03  0.00000000000E+00 0. -1.
         21    1    1    2  503  502  0.37731542833E+02 -0.10543925672E+03 -0.55834141413E+03  0.56946136033E+03  0.00000000000E+00 0. -1.
         21    1    1    2  504  501 -0.29182787719E+01  0.51503877951E+02  0.44836990200E+02  0.68348529503E+02  0.00000000000E+00 0. -1.
         21    1    1    2  505  503 -0.52958507332E+01  0.76513598389E+02 -0.19226935044E+03  0.20700212533E+03  0.00000000000E+00 0. -1.
         21    1    1    2  506  505 -0.29517413328E+02 -0.22578219616E+02  0.12555692157E+03  0.13094118620E+03  0.00000000000E+00 0. -1.
<scales pt_clust_3="95.98978" pt_clust_4="42.70062" pt_clust_5="14000.00000" pt_clust_6="37.16253"></scales>
<clustering>
<clus scale="   37.163">  1  6  2 -1</clus>
<clus scale="   42.701">  1  4  2 -1</clus>
<clus scale="   95.990">  2  3  1 -1</clus>
<clus scale="   37.163">  1  3  2 -1</clus>
</clustering>
</event>
<event>
 6    0  0.6549018E+002  0.1787883E+03  0.7546771E-02  0.1168981E+00
         21   -1    0    0  505  501  0.00000000000E+00  0.00000000000E+00  0.39749329194E+03  0.39749329194E+03  0.00000000000E+00 0. -1.
         21   -1    0    0  501  502 -0.00000000000E+00 -0.00000000000E+00 -0.42438131504E+03  0.42438131504E+03  0.00000000000E+00 0. -1.
         21    1    1    2  503  502 -0.21992666653E+02  0.77493470966E+02 -0.12328052067E+03  0.14726507463E+03  0.00000000000E+00 0. -1.
         21    1    1    2  504  506  0.46802002794E+02 -0.15567577574E+03 -0.11592986531E+03  0.19966248594E+03  0.00000000000E+00 0. -1.
         21    1    1    2  505  504 -0.22884567481E+02 -0.28315608288E+02  0.32083424475E+03  0.32289331010E+03  0.00000000000E+00 0. -1.
         21    1    1    2  506  503 -0.19247686603E+01  0.10649791307E+03 -0.10851188187E+03  0.15205373632E+03  0.00000000000E+00 0. -1.
<scales pt_clust_3="32.99070" pt_clust_4="174.71720" pt_clust_5="36.40710" pt_clust_6="32.99070"></scales>
<clustering>
<clus scale="   32.991">  3  6 -1 -1</clus>
<clus scale="   36.407">  1  5  2 -1</clus>
<clus scale="  174.717">  1  4  2 -1</clus>
<clus scale="   36.407">  1  3  2 -1</clus>
</clustering>
</event>
<event>
 6    0  0.6549018E+002  0.8099258E+02  0.7546771E-02  0.1326258E+00
         21   -1    0    0  505  501  0.00000000000E+00  0.00000000000E+00  0.13120740777E+04  0.13120740777E+04  0.00000000000E+00 0. -1.
         21   -1    0    0  503  502 -0.00000000000E+00 -0.00000000000E+00 -0.41548789389E+02  0.41548789389E+02  0.00000000000E+00 0. -1.
         21    1    1    2  503  501 -0.40541838749E+01 -0.32406721958E+02  0.40240701824E+02  0.51826114250E+02  0.00000000000E+00 0. -1.
         21    1    1    2  504  502  0.23148718980E+02  0.11173699110E+03  0.74233945105E+02  0.13613117562E+03  0.00000000000E+00 0. -1.
         21    1    1    2  505  506  0.23483483007E+02 -0.26288389316E+02  0.90136269321E+03  0.90205169370E+03  0.00000000000E+00 0. -1.
         21    1    1    2  506  504 -0.42578018112E+02 -0.53041879825E+02  0.25468794818E+03  0.26361388353E+03  0.00000000000E+00 0. -1.
<scales pt_clust_3="32.65933" pt_clust_4="80.99258" pt_clust_5="35.45749" pt_clust_6="14000.00000"></scales>
<clustering>
<clus scale="   32.659">  2  3  1 -1</clus>
<clus scale="   35.457">  1  5  2 -1</clus>
<clus scale="   80.993">  2  4  1 -1</clus>
<clus scale="   35.457">  1  3  2 -1</clus>
</clustering>
</event>
<event>
 6    0  0.6549018E+002  0.9549602E+02  0.7546771E-02  0.1290063E+00
         21   -1    0    0  506  501  0.00000000000E+00  0.00000000000E+00  0.24778581897E+03  0.24778581897E+03  0.00000000000E+00 0. -1.
         21   -1    0    0  504  502 -0.00000000000E+00 -0.00000000000E+00 -0.35615940669E+03  0.35615940669E+03  0.00000000000E+00 0. -1.
         21    1    1    2  503  501 -0.81495759346E+02  0.43711398809E+02  0.60586440057E+02  0.11055750493E+03  0.00000000000E+00 0. -1.
         21    1    1    2  504  503  0.57686887331E+02 -0.18238142586E+02 -0.10357988079E+03  0.11995498539E+03  0.00000000000E+00 0. -1.
         21    1    1    2  505  502 -0.73567304977E+02 -0.64482829665E+01 -0.19597252123E+03  0.20942530361E+03  0.00000000000E+00 0. -1.
         21    1    1    2  506  505  0.97376176992E+02 -0.19024973257E+02  0.13059237425E+03  0.16400743173E+03  0.00000000000E+00 0. -1.
<scales pt_clust_3="14000.00000" pt_clust_4="60.50130" pt_clust_5="33.57216" pt_clust_6="95.49602"></scales>
<clustering>
<clus scale="   60.501">  2  4  1 -1</clus>
<clus scale="   33.572">  2  5  1 -1</clus>
<clus scale="   95.496">  1  6  2 -1</clus>
<clus scale="   95.496">  1  3  2 -1</clus>
</clustering>
</event>
<event>
 6    0  0.6549018E+002  0.1064785E+03  0.7546771E-02  0.1267234E+00
         21   -1    0    0  504  501  0.00000000000E+00  0.00000000000E+00  0.13497240536E+04  0.13497240536E+04  0.00000000000E+00 0. -1.
         21   -1    0    0  503  502 -0.00000000000E+00 -0.00000000000E+00 -0.22834935509E+03  0.22834935509E+03  0.00000000000E+00 0. -1.
         21    1    1    2  503  506 -0.21767938639E+02 -0.21112245263E+02 -0.28748355853E+02  0.41785619738E+02  0.00000000000E+00 0. -1.
         21    1    1    2  504  502 -0.45994798280E+02 -0.13131534587E+02  0.72839852083E+03  0.72996737175E+03  0.00000000000E+00 0. -1.
         21    1    1    2  505  501  0.15187846427E+03  0.18332475686E+02  0.59430246341E+03  0.61367627100E+03  0.00000000000E+00 0. -1.
         21    1    1    2  506  505 -0.84115727349E+02  0.15911304163E+02 -0.17257792987E+03  0.19264414620E+03  0.00000000000E+00 0. -1.
<scales pt_clust_3="30.32441" pt_clust_4="47.94123" pt_clust_5="14000.00000" pt_clust_6="106.47854"></scales>
<clustering>
<clus scale="   30.324">  2  3  1 -1</clus>
<clus scale="   47.941">  1  4  2 -1</clus>
<clus scale="  106.479">  2  6  1 -1</clus>
<clus scale="   47.941">  1  3  2 -1</clus>
</clustering>
</event>
<event>
 6    0  0.6549018E+002  0.8342365E+02  0.7546771E-02  0.1319607E+00
         21   -1    0    0  504  501  0.00000000000E+00  0.00000000000E+00  0.46189153386E+03  0.46189153386E+03  0.00000000000E+00 0. -1.
         21   -1    0    0  503  502 -0.00000000000E+00 -0.00000000000E+00 -0.26235423672E+03  0.26235423672E+03  0.00000000000E+00 0.  1.
         21    1    1    2  503  505  0.21456847571E+02  0.73620352592E+02  0.14907593839E+02  0.78119069231E+02  0.00000000000E+00 0.  1.
         21    1    1    2  504  506  0.75947420728E+01 -0.64766056831E+02  0.28105927059E+03  0.28852493100E+03  0.00000000000E+00 0. -1.
         21    1    1    2  505  501  0.44460114719E+02 -0.22247840281E+02  0.11932861310E+03  0.12927097935E+03  0.00000000000E+00 0. -1.
         21    1    1    2  506  502 -0.73511704363E+02  0.13393544520E+02 -0.21575818039E+03  0.22833079100E+03  0.00000000000E+00 0.  1.
<scales pt_clust_3="83.42365" pt_clust_4="14000.00000" pt_clust_5="49.71587" pt_clust_6="73.83358"></scales>
<clustering>
<clus scale="   49.716">  1  5  2 -1</clus>
<clus scale="   73.834">  2  6  1 -1</clus>
<clus scale="   83.424">  2  3  1 -1</clus>
<clus scale="   49.716">  1  3  2 -1</clus>
</clustering>
</event>
<event>
 6    0  0.6549018E+002  0.1068208E+03  0.7546771E-02  0.1266573E+00
         21   -1    0    0  504  501  0.00000000000E+00  0.00000000000E+00  0.11827884475E+04  0.11827884475E+04  0.00000000000E+00 0.  1.
         21   -1    0    0  505  502 -0.00000000000E+00 -0.00000000000E+00 -0.56250612805E+03  0.56250612805E+03  0.00000000000E+00 0.  1.
         21    1    1    2  503  506 -0.47057143035E+02 -0.10763723948E+03  0.65353494484E+03  0.66400909192E+03  0.00000000000E+00 0.  1.
         21    1    1    2  504  502  0.38652394313E+02  0.82555814006E+02 -0.36158843637E+03  0.37290168587E+03  0.00000000000E+00 0.  1.
         21    1    1    2  505  503  0.44256851696E+02 -0.14448993348E+02 -0.18577034655E+03  0.19151517952E+03  0.00000000000E+00 0.  1.
         21    1    1    2  506  501 -0.35852102973E+02  0.39530418821E+02  0.51410615758E+03  0.51686861828E+03  0.00000000000E+00 0.  1.
<scales pt_clust_3="106.82076" pt_clust_4="14000.00000" pt_clust_5="46.55580" pt_clust_6="53.21760"></scales>
<clustering>
<clus scale="   46.556">  2  5  1 -1</clus>
<clus scale="   53.218">  1  6  2 -1</clus>
<clus scale="  106.821">  1  3  2 -1</clus>
<clus scale="   53.218">  1  3  2 -1</clus>
</clustering>
</event>
<event>
 6    0  0.6549018E+002  0.1209505E+03  0.7546771E-02  0.1241537E+00
         21   -1    0    0  503  501  0.00000000000E+00  0.00000000000E+00  0.17682557334E+04  0.17682557334E+04  0.00000000000E+00 0. -1.
         21   -1    0    0  505  502 -0.00000000000E+00 -0.00000000000E+00 -0.12874904698E+03  0.12874904698E+03  0.00000000000E+00 0.  1.
         21    1    1    2  503  506 -0.22369991380E+02 -0.88974532823E+02  0.15753657459E+04  0.15780348910E+04  0.00000000000E+00 0. -1.
         21    1    1    2  504  501  0.33798100322E+00 -0.31468016687E+02  0.14689659036E+03  0.15022968603E+03  0.00000000000E+00 0. -1.
         21    1    1    2  505  504 -0.44303125103E+01  0.10556307990E+03 -0.88522729119E+02  0.13783854714E+03  0.00000000000E+00 0.  1.
         21    1    1    2  506  502  0.26462322887E+02  0.14879469609E+02  0.57670792368E+01  0.30901656126E+02  0.00000000000E+00 0. -1.
<scales pt_clust_3="120.95049" pt_clust_4="31.26282" pt_clust_5="14000.00000" pt_clust_6="30.35874"></scales>
<clustering>
<clus scale="   30.359">  2  6  1 -1</clus>
<clus scale="   31.263">  1  4  2 -1</clus>
<clus scale="  120.950">  1  3  2 -1</clus>
<clus scale="   31.263">  1  3  2 -1</clus>
</clustering>
</event>
<event>
 6    0  0.1341169E+003  0.1280778E+03  0.7546771E-02  0.1230336E+00
         21   -1    0    0  503  501  0.00000000000E+00  0.00000000000E+00  0.53910932784E+03  0.53910932784E+03  0.00000000000E+00 0.  1.
         21   -1    0    0  504  502 -0.00000000000E+00 -0.00000000000E+00 -0.12584049899E+04  0.12584049899E+04  0.00000000000E+00 0.  1.
         21    1    1    2  503  506 -0.51265480310E+02  0.36958403752E+02  0.49450373842E+03  0.49852584726E+03  0.00000000000E+00 0.  1.
         21    1    1    2  504  505  0.90430411672E+02 -0.12844217209E+02 -0.71041576841E+02  0.11571317518E+03  0.00000000000E+00 0.  1.
         21    1    1    2  505  501  0.68400925911E+02  0.26303341392E+02 -0.61954908041E+02  0.95963342294E+02  0.00000000000E+00 0.  1.
         21    1    1    2  506  502 -0.10756585727E+03 -0.50417527935E+02 -0.10808029156E+04  0.10873119530E+04  0.00000000000E+00 0.  1.
<scales pt_clust_3="63.19868" pt_clust_4="37.04421" pt_clust_5="37.04421" pt_clust_6="121.21713"></scales>
<clustering>
<clus scale="   37.044">  4  5 -1 -1</clus>
<clus scale="   63.199">  1  3  2 -1</clus>
<clus scale="  121.217">  2  6  1 -1</clus>
<clus scale="   63.199">  1  3  2 -1</clus>
</clustering>
</event>
<event>
 6    0  0.6549018E+002  0.1618907E+03  0.7546771E-02  0.1186579E+00
         21   -1    0    0  503  501  0.00000000000E+00  0.00000000000E+00  0.38698363478E+03  0.38698363478E+03  0.00000000000E+00 0.  1.
         21   -1    0    0  504  502 -0.00000000000E+00 -0.00000000000E+00 -0.13533791048E+03  0.13533791048E+03  0.00000000000E+00 0. -1.
         21    1    1    2  503  506 -0.31281117283E+02  0.64031999304E+02  0.11050584097E+03  0.13149200022E+03  0.00000000000E+00 0.  1.
         21    1    1    2  504  505 -0.18779773106E+01 -0.12584410394E+03 -0.15161210120E+02  0.12676800696E+03  0.00000000000E+00 0. -1.
         21    1    1    2  505  501  0.43632386758E+02 -0.64175990561E+02  0.97553847788E+02  0.12465591104E+03  0.00000000000E+00 0. -1.
         21    1    1    2  506  502 -0.10473292165E+02  0.12598809520E+03  0.58747245665E+02  0.13940562705E+03  0.00000000000E+00 0.  1.
<scales pt_clust_3="62.31111" pt_clust_4="138.99906" pt_clust_5="77.60376" pt_clust_6="62.31111"></scales>
<clustering>
<clus scale="   62.311">  3  6 -1 -1</clus>
<clus scale="   77.604">  1  5  2 -1</clus>
<clus scale="  138.999">  2  4  1 -1</clus>
<clus scale="   77.604">  1  3  2 -1</clus>
</clustering>
</event>
<event>
 6    0  0.6549018E+002  0.1071715E+03  0.7546771E-02  0.1265899E+00
         21   -1    0    0  505  501  0.00000000000E+00  0.00000000000E+00  0.26825087910E+02  0.26825087910E+02  0.00000000000E+00 0. -1.
         21   -1    0    0  503  502 -0.00000000000E+00 -0.00000000000E+00 -0.15251997582E+04  0.15251997582E+04  0.00000000000E+00 0.  1.
         21    1    1    2  503  504  0.28784428624E+02  0.99250197996E+02 -0.62048513261E+03  0.62903175192E+03  0.00000000000E+00 0.  1.
         21    1    1    2  504  501 -0.71470509513E+02 -0.38619553571E+02 -0.24028272386E+03  0.25364402424E+03  0.00000000000E+00 0.  1.
         21    1    1    2  505  506  0.57031745397E+02 -0.90289958204E+02 -0.17118584031E+03  0.20176592491E+03  0.00000000000E+00 0. -1.
         21    1    1    2  506  502 -0.14345664508E+02  0.29659313779E+02 -0.46642097347E+03  0.46758314499E+03  0.00000000000E+00 0.  1.
<scales pt_clust_3="14000.00000" pt_clust_4="81.25608" pt_clust_5="107.17150" pt_clust_6="32.94652"></scales>
<clustering>
<clus scale="   32.947">  2  6  1 -1</clus>
<clus scale="   81.256">  1  4  2 -1</clus>
<clus scale="  107.171">  1  5  2 -1</clus>
<clus scale="   81.256">  1  3  2 -1</clus>
</clustering>
</event>
<event>
 6    0  0.6549018E+002  0.1317967E+03  0.7546771E-02  0.1224814E+00
         21   -1    0    0  504  501  0.00000000000E+00  0.00000000000E+00  0.72831001228E+03  0.72831001228E+03  0.00000000000E+00 0.  1.
         21   -1    0    0  503  502 -0.00000000000E+00 -0.00000000000E+00 -0.25421945522E+03  0.25421945522E+03  0.00000000000E+00 0.  1.
         21    1    1    2  503  506  0.17164788998E+02 -0.34204040477E+02 -0.60625166975E+02  0.71693495082E+02  0.00000000000E+00 0.  1.
         21    1    1    2  504  502  0.10926366998E+03  0.11265902373E+02 -0.11054820537E+03  0.15584086705E+03  0.00000000000E+00 0.  1.
         21    1    1    2  505  501  0.49478733319E+02  0.48330572949E+01  0.55357298113E+03  0.55580081767E+03  0.00000000000E+00 0.  1.
         21    1    1    2  506  505 -0.17590719229E+03  0.18105080809E+02  0.91690948284E+02  0.19919428769E+03  0.00000000000E+00 0.  1.
<scales pt_clust_3="38.26939" pt_clust_4="14000.00000" pt_clust_5="49.79616" pt_clust_6="131.79673"></scales>
<clustering>
<clus scale="   38.269">  2  3  1 -1</clus>
<clus scale="   49.796">  1  5  2 -1</clus>
<clus scale="  131.797">  1  6  2 -1</clus>
<clus scale="   49.796">  1  3  2 -1</clus>
</clustering>
</event>
<event>
 6    0  0.6549018E+002  0.1759646E+03  0.7546771E-02  0.1171767E+00
         21   -1    0    0  506  501  0.00000000000E+00  0.00000000000E+00  0.37380957412E+03  0.37380957412E+03  0.00000000000E+00 0.  1.
         21   -1    0    0  503  502 -0.00000000000E+00 -0.00000000000E+00 -0.23346997595E+03  0.23346997595E+03  0.00000000000E+00 0.  1.
         21    1    1    2  503  501  0.93885501954E+02 -0.13802618886E+03  0.24223007554E+03  0.29417873102E+03  0.00000000000E+00 0.  1.
         21    1    1    2  504  505 -0.80889246293E+02  0.10118040765E+03 -0.14453148114E+03  0.19408733627E+03  0.00000000000E+00 0.  1.
         21    1    1    2  505  502 -0.40319331277E+02  0.13822902600E+02 -0.19858300085E+02  0.47022050074E+02  0.00000000000E+00 0.  1.
         21    1    1    2  506  504  0.27323075615E+02  0.23022878607E+02  0.62499303853E+02  0.71991432703E+02  0.00000000000E+00 0. -1.
<scales pt_clust_3="166.64656" pt_clust_4="32.41029" pt_clust_5="32.41029" pt_clust_6="35.72959"></scales>
<clustering>
<clus scale="   32.410">  4  5 -1 -1</clus>
<clus scale="   35.730">  1  6  2 -1</clus>
<clus scale="  166.647">  1  3  2 -1</clus>
<clus scale="   35.730">  1  3  2 -1</clus>
</clustering>
</event>
<event>
 6    0  0.6549018E+002  0.1022724E+03  0.7546771E-02  0.1275589E+00
         21   -1    0    0  506  501  0.00000000000E+00  0.00000000000E+00  0.67988015563E+03  0.67988015563E+03  0.00000000000E+00 0. -1.
         21   -1    0    0  505  502 -0.00000000000E+00 -0.00000000000E+00 -0.89609938453E+02  0.89609938453E+02  0.00000000000E+00 0.  1.
         21    1    1    2  503  502 -0.11515164742E+03  0.39236079089E+02  0.27022884680E+02  0.12461784825E+03  0.00000000000E+00 0.  1.
         21    1    1    2  504  501  0.87272110812E+02  0.35917001972E+02  0.21377766318E+03  0.23368213802E+03  0.00000000000E+00 0. -1.
         21    1    1    2  505  504  0.10586398443E+02 -0.36610691646E+02 -0.17401056201E+02  0.41895242352E+02  0.00000000000E+00 0. -1.
         21    1    1    2  506  503  0.17293138167E+02 -0.38542389414E+02  0.36687072553E+03  0.36929486546E+03  0.00000000000E+00 0.  1.
<scales pt_clust_3="14000.00000" pt_clust_4="102.27235" pt_clust_5="38.11056" pt_clust_6="43.00709"></scales>
<clustering>
<clus scale="   38.111">  2  5  1 -1</clus>
<clus scale="   43.007">  1  6  2 -1</clus>
<clus scale="  102.272">  1  4  2 -1</clus>
<clus scale="   43.007">  1  3  2 -1</clus>
</clustering>
</event>
<event>
 6    0  0.6549018E+002  0.1294249E+03  0.7546771E-02  0.1228312E+00
         21   -1    0    0  503  501  0.00000000000E+00  0.00000000000E+00  0.34474185620E+02  0.34474185620E+02  0.00000000000E+00 0.  1.
         21   -1    0    0  501  502 -0.00000000000E+00 -0.00000000000E+00 -0.14261228221E+04  0.14261228221E+04  0.00000000000E+00 0.  1.
         21    1    1    2  503  506  0.12161982389E+02  0.40167503818E+02  0.76261090011E+00  0.41975275508E+02  0.00000000000E+00 0.  1.
         21    1    1    2  504  502 -0.15725577073E+00 -0.49364874377E+02 -0.66538159748E+03  0.66721030104E+03  0.00000000000E+00 0.  1.
         21    1    1    2  505  504  0.63933075332E+01 -0.81612031353E+02 -0.49224719419E+03  0.49900771360E+03  0.00000000000E+00 0.  1.
         21    1    1    2  506  505 -0.18398034152E+02  0.90809401912E+02 -0.23478245575E+03  0.25240371761E+03  0.00000000000E+00 0.  1.
<scales pt_clust_3="41.96835" pt_clust_4="40.84234" pt_clust_5="40.84234" pt_clust_6="118.25652"></scales>
<clustering>
<clus scale="   40.842">  4  5 -1 -1</clus>
<clus scale="   41.968">  1  3  2 -1</clus>
<clus scale="  118.257">  1  6  2 -1</clus>
<clus scale="   41.968">  1  3  2 -1</clus>
</clustering>
</event>
<event>
 6    0  0.6549018E+002  0.7891691E+02  0.7546771E-02  0.1332153E+00
         21   -1    0    0  503  501  0.00000000000E+00  0.00000000000E+00  0.52295200158E+03  0.52295200158E+03  0.00000000000E+00 0. -1.
         21   -1    0    0  504  502 -0.00000000000E+00 -0.00000000000E+00 -0.35817215149E+03  0.35817215149E+03  0.00000000000E+00 0.  1.
         21    1    1    2  503  505 -0.47019319021E+02  0.74419764647E+01  0.32915151279E+03  0.33257618338E+03  0.00000000000E+00 0. -1.
         21    1    1    2  504  506  0.54706612570E+02 -0.23754747039E+02 -0.66249245381E+02  0.89140697660E+02  0.00000000000E+00 0. -1.
         21    1    1    2  505  502  0.46807594747E+01  0.80727453916E+02 -0.26660976504E+03  0.27860293994E+03  0.00000000000E+00 0.  1.
         21    1    1    2  506  501 -0.12368053023E+02 -0.64414683341E+02  0.16848734771E+03  0.18080433210E+03  0.00000000000E+00 0. -1.
<scales pt_clust_3="47.60462" pt_clust_4="56.89937" pt_clust_5="78.91691" pt_clust_6="14000.00000"></scales>
<clustering>
<clus scale="   47.605">  1  3  2 -1</clus>
<clus scale="   56.899">  2  4  1 -1</clus>
<clus scale="   78.917">  2  5  1 -1</clus>
<clus scale="   47.605">  1  3  2 -1</clus>
</clustering>
</event>
<event>
 6    0  0.6549018E+002  0.9540026E+02  0.7546771E-02  0.1290277E+00
         21   -1    0    0  503  501  0.00000000000E+00  0.00000000000E+00  0.49894698006E+02  0.49894698006E+02  0.00000000000E+00 0. -1.
         21   -1    0    0  504  502 -0.00000000000E+00 -0.00000000000E+00 -0.21186242043E+04  0.21186242043E+04  0.00000000000E+00 0. -1.
         21    1    1    2  503  505 -0.97550151742E+02 -0.44032238715E+02 -0.10656365732E+04  0.10709977480E+04  0.00000000000E+00 0. -1.
         21    1    1    2  504  506 -0.17622820428E+02  0.27140076980E+02 -0.23994887237E+03  0.24212106255E+03  0.00000000000E+00 0.  1.
         21    1    1    2  505  502  0.20854940995E+02  0.32925593983E+02 -0.75862163578E+03  0.75962214922E+03  0.00000000000E+00 0. -1.
         21    1    1    2  506  501  0.94318031176E+02 -0.16033432247E+02 -0.45224250015E+01  0.95777942567E+02  0.00000000000E+00 0. -1.
<scales pt_clust_3="14000.00000" pt_clust_4="32.35966" pt_clust_5="45.99554" pt_clust_6="95.40026"></scales>
<clustering>
<clus scale="   32.360">  2  4  1 -1</clus>
<clus scale="   45.996">  2  5  1 -1</clus>
<clus scale="   95.400">  1  6  2 -1</clus>
<clus scale="   95.400">  1  3  2 -1</clus>
</clustering>
</event>
<event>
 6    0  0.6549018E+002  0.1358502E+03  0.7546771E-02  0.1219025E+00
         21   -1    0    0  502  501  0.00000000000E+00  0.00000000000E+00  0.43890482157E+03  0.43890482157E+03  0.00000000000E+00 0. -1.
         21   -1    0    0  503  502 -0.00000000000E+00 -0.00000000000E+00 -0.18757607457E+03  0.18757607457E+03  0.00000000000E+00 0.  1.
         21    1    1    2  503  505  0.40535633513E+02  0.62141216303E+02 -0.96090083543E+02  0.12140005150E+03  0.00000000000E+00 0.  1.
         21    1    1    2  504  501  0.29548549849E+02 -0.99996146823E+01  0.10133968535E+03  0.10603226357E+03  0.00000000000E+00 0. -1.
         21    1    1    2  505  506 -0.12820571271E+02  0.58752205427E+02 -0.49700952387E+02  0.78015212352E+02  0.00000000000E+00 0. -1.
         21    1    1    2  506  504 -0.57263612091E+02 -0.11089380705E+03  0.29578009758E+03  0.32103336873E+03  0.00000000000E+00 0. -1.
<scales pt_clust_3="49.97021" pt_clust_4="31.19470" pt_clust_5="49.97021" pt_clust_6="123.80303"></scales>
<clustering>
<clus scale="   31.195">  1  4  2 -1</clus>
<clus scale="   49.970">  3  5 -1 -1</clus>
<clus scale="  123.803">  1  6  2 -1</clus>
<clus scale="   31.195">  1  3  2 -1</clus>
</clustering>
</event>
<event>
 6    0  0.6549018E+002  0.1539250E+03  0.7546771E-02  0.1195731E+00
         21   -1    0    0  504  501  0.00000000000E+00  0.00000000000E+00  0.40462714124E+03  0.40462714124E+03  0.00000000000E+00 0. -1.
         21   -1    0    0  503  502 -0.00000000000E+00 -0.00000000000E+00 -0.21300286170E+04  0.21300286170E+04  0.00000000000E+00 0. -1.
         21    1    1    2  503  505 -0.28749568037E+02 -0.57589927921E+02 -0.64142418892E+03  0.64464573805E+03  0.00000000000E+00 0. -1.
         21    1    1    2  504  506 -0.14029001658E+03  0.63925675864E+02  0.37805208246E+03  0.40827828480E+03  0.00000000000E+00 0. -1.
         21    1    1    2  505  501 -0.41119681348E+01 -0.59545194410E+02 -0.36307962577E+03  0.36795292241E+03  0.00000000000E+00 0. -1.
         21    1    1    2  506  502  0.17315155275E+03  0.53209446467E+02 -0.10989497436E+04  0.11137788130E+04  0.00000000000E+00 0. -1.
<scales pt_clust_3="127.78158" pt_clust_4="14000.00000" pt_clust_5="37.63697" pt_clust_6="153.92500"></scales>
<clustering>
<clus scale="   37.637">  3  5 -1 -1</clus>
<clus scale="  127.782">  2  3  1 -1</clus>
<clus scale="  153.925">  2  6  1 -1</clus>
<clus scale="  153.925">  1  3  2 -1</clus>
</clustering>
</event>
<event>
 6    0  0.6549018E+002  0.1405559E+03  0.7546771E-02  0.1212583E+00
         21   -1    0    0  504  501  0.00000000000E+00  0.00000000000E+00  0.11441827367E+04  0.11441827367E+04  0.00000000000E+00 0. -1.
         21   -1    0    0  506  502 -0.00000000000E+00 -0.00000000000E+00 -0.30842361010E+03  0.30842361010E+03  0.00000000000E+00 0.  1.
         21    1    1    2  503  501 -0.88708643065E+02 -0.79331238482E+02  0.99019937742E+03  0.99732516051E+03  0.00000000000E+00 0. -1.
         21    1    1    2  504  505  0.58540779291E+01  0.14865271426E+03 -0.59032049447E+02  0.16005212447E+03  0.00000000000E+00 0.  1.
         21    1    1    2  505  502 -0.82682955143E+02  0.13182626770E+02 -0.68796430218E+02  0.10836605340E+03  0.00000000000E+00 0.  1.
         21    1    1    2  506  503  0.16553752028E+03 -0.82504102550E+02 -0.26611771135E+02  0.18686300843E+03  0.00000000000E+00 0.  1.
<scales pt_clust_3="119.86807" pt_clust_4="140.55585" pt_clust_5="83.72725" pt_clust_6="14000.00000"></scales>
<clustering>
<clus scale="   83.727">  2  5  1 -1</clus>
<clus scale="  119.868">  1  3  2 -1</clus>
<clus scale="  140.556">  1  4  2 -1</clus>
<clus scale="  119.868">  1  3  2 -1</clus>
</clustering>
</event>
<event>
 6    0  0.6549018E+002  0.2115425E+03  0.7546771E-02  0.1140350E+00
         21   -1    0    0  506  501  0.00000000000E+00  0.00000000000E+00  0.16302594788E+03  0.16302594788E+03  0.00000000000E+00 0. -1.
         21   -1    0    0  501  502 -0.00000000000E+00 -0.00000000000E+00 -0.54468774036E+03  0.54468774036E+03  0.00000000000E+00 0. -1.
         21    1    1    2  503  505  0.23567948242E+03  0.19520848746E+02 -0.17015206096E+02  0.23709786842E+03  0.00000000000E+00 0. -1.
         21    1    1    2  504  502 -0.82065631110E+02 -0.30164197269E+01 -0.25197372292E+03  0.26501815719E+03  0.00000000000E+00 0. -1.
         21    1    1    2  505  504 -0.10208036661E+03 -0.77072373828E+01 -0.11410861107E+03  0.15329898198E+03  0.00000000000E+00 0. -1.
         21    1    1    2  506  503 -0.51533484701E+02 -0.87971916362E+01  0.14357476030E+01  0.52298680646E+02  0.00000000000E+00 0.  1.
<scales pt_clust_3="194.42747" pt_clust_4="73.14836" pt_clust_5="73.14836" pt_clust_6="52.27897"></scales>
<clustering>
<clus scale="   52.279">  1  6  2 -1</clus>
<clus scale="   73.148">  4  5 -1 -1</clus>
<clus scale="  194.427">  1  3  2 -1</clus>
<clus scale="   52.279">  1  3  2 -1</clus>
</clustering>
</event>
<event>
 6    0  0.6549018E+002  0.1270094E+03  0.7546771E-02  0.1231962E+00
         21   -1    0    0  503  501  0.00000000000E+00  0.00000000000E+00  0.12021695775E+03  0.12021695775E+03  0.00000000000E+00 0. -1.
         21   -1    0    0  504  502 -0.00000000000E+00 -0.00000000000E+00 -0.57282686088E+03  0.57282686088E+03  0.00000000000E+00 0. -1.
         21    1    1    2  503  505  0.11226931605E+03  0.45062883166E+02  0.74986650534E+02  0.14233081369E+03  0.00000000000E+00 0. -1.
         21    1    1    2  504  506 -0.56286477790E+02  0.77373616750E+01 -0.12376781828E+03  0.13618556160E+03  0.00000000000E+00 0. -1.
         21    1    1    2  505  502 -0.14438221613E+02 -0.47480205585E+02 -0.17516005951E+03  0.18205460339E+03  0.00000000000E+00 0. -1.
         21    1    1    2  506  501 -0.41544616652E+02 -0.53200392562E+01 -0.22866867587E+03  0.23247283995E+03  0.00000000000E+00 0. -1.
<scales pt_clust_3="118.36645" pt_clust_4="39.53989" pt_clust_5="49.62693" pt_clust_6="39.53989"></scales>
<clustering>
<clus scale="   39.540">  4  6 -1 -1</clus>
<clus scale="   49.627">  2  5  1 -1</clus>
<clus scale="  118.366">  1  3  2 -1</clus>
<clus scale="  118.366">  1  3  2 -1</clus>
</clustering>
</event>
<event>
 6    0  0.6549018E+002  0.1674389E+03  0.7546771E-02  0.1180545E+00
         21   -1    0    0  504  501  0.00000000000E+00  0.00000000000E+00  0.24815143465E+03  0.24815143465E+03  0.00000000000E+00 0. -1.
         21   -1    0    0  506  502 -0.00000000000E+00 -0.00000000000E+00 -0.96227085847E+03  0.96227085847E+03  0.00000000000E+00 0. -1.
         21    1    1    2  503  501 -0.23126511217E+02 -0.17135085893E+03  0.18097248716E+03  0.25029381432E+03  0.00000000000E+00 0. -1.
         21    1    1    2  504  505  0.75763597132E+02 -0.25863934198E+02 -0.15440860344E+03  0.17392838342E+03  0.00000000000E+00 0. -1.
         21    1    1    2  505  502 -0.37248333662E+02  0.62611236936E+02 -0.53479993986E+03  0.53973936398E+03  0.00000000000E+00 0. -1.
         21    1    1    2  506  503 -0.15388752253E+02  0.13460355619E+03 -0.20588336767E+03  0.24646073140E+03  0.00000000000E+00 0. -1.
<scales pt_clust_3="14000.00000" pt_clust_4="61.39835" pt_clust_5="72.85331" pt_clust_6="167.43895"></scales>
<clustering>
<clus scale="   72.853">  2  5  1 -1</clus>
<clus scale="   61.398">  2  4  1 -1</clus>
<clus scale="  167.439">  2  6  1 -1</clus>
<clus scale="  167.439">  1  3  2 -1</clus>
</clustering>
</event>
<event>
 6    0  0.6549018E+002  0.1265816E+03  0.7546771E-02  0.1232618E+00
         21   -1    0    0  503  501  0.00000000000E+00  0.00000000000E+00  0.12555027832E+04  0.12555027832E+04  0.00000000000E+00 0.  1.
         21   -1    0    0  504  502 -0.00000000000E+00 -0.00000000000E+00 -0.19483839799E+03  0.19483839799E+03  0.00000000000E+00 0. -1.
         21    1    1    2  503  505 -0.34352999922E+02  0.19058498642E+02  0.98960829139E+03  0.99038776515E+03  0.00000000000E+00 0.  1.
         21    1    1    2  504  506 -0.58121362893E+02  0.49321980958E+02 -0.12510889261E+03  0.14650251070E+03  0.00000000000E+00 0. -1.
         21    1    1    2  505  502  0.11213032711E+03 -0.10358923293E+03  0.21911822545E+03  0.26705193532E+03  0.00000000000E+00 0.  1.
         21    1    1    2  506  501 -0.19655964295E+02  0.35208753328E+02 -0.22953238981E+02  0.46398970064E+02  0.00000000000E+00 0. -1.
<scales pt_clust_3="39.28556" pt_clust_4="33.28078" pt_clust_5="118.02150" pt_clust_6="33.28078"></scales>
<clustering>
<clus scale="   33.281">  4  6 -1 -1</clus>
<clus scale="   39.286">  1  3  2 -1</clus>
<clus scale="  118.022">  1  5  2 -1</clus>
<clus scale="   39.286">  1  3  2 -1</clus>
</clustering>
</event>
<event>
 6    0  0.6549018E+002  0.1401006E+03  0.7546771E-02  0.1213194E+00
         21   -1    0    0  506  501  0.00000000000E+00  0.00000000000E+00  0.89926528572E+03  0.89926528572E+03  0.00000000000E+00 0.  1.
         21   -1    0    0  501  502 -0.00000000000E+00 -0.00000000000E+00 -0.30179781587E+03  0.30179781587E+03  0.00000000000E+00 0. -1.
         21    1    1    2  503  502  0.95788273186E+01 -0.42669702607E+02 -0.11598672985E+03  0.12395716580E+03  0.00000000000E+00 0. -1.
         21    1    1    2  504  503 -0.49574366484E+02 -0.76063615471E+02 -0.13593430355E+03  0.16346689662E+03  0.00000000000E+00 0. -1.
         21    1    1    2  505  504  0.22459638892E+02  0.14572913492E+03  0.13937468187E+03  0.20289583064E+03  0.00000000000E+00 0.  1.
         21    1    1    2  506  505  0.17535900274E+02 -0.26995816846E+02  0.71001382138E+03  0.71074320853E+03  0.00000000000E+00 0.  1.
<scales pt_clust_3="40.84844" pt_clust_4="40.84844" pt_clust_5="127.18898" pt_clust_6="32.19133"></scales>
<clustering>
<clus scale="   32.191">  1  6  2 -1</clus>
<clus scale="   40.848">  3  4 -1 -1</clus>
<clus scale="  127.189">  1  5  2 -1</clus>
<clus scale="   32.191">  1  3  2 -1</clus>
</clustering>
</event>
<event>
 6    0  0.6549018E+002  0.6153596E+02  0.7546771E-02  0.1391497E+00
         21   -1    0    0  505  501  0.00000000000E+00  0.00000000000E+00  0.12706481354E+04  0.12706481354E+04  0.00000000000E+00 0.  1.
         21   -1    0    0  503  502 -0.00000000000E+00 -0.00000000000E+00 -0.10821470813E+03  0.10821470813E+03  0.00000000000E+00 0. -1.
         21    1    1    2  503  504  0.14715957920E+02  0.32297000867E+02 -0.12993136059E+02  0.37795201642E+02  0.00000000000E+00 0.  1.
         21    1    1    2  504  501 -0.50056051345E+02  0.65260534027E+02  0.14884251459E+03  0.17005481389E+03  0.00000000000E+00 0. -1.
         21    1    1    2  505  506  0.58845680915E+02 -0.16340280706E+02  0.10728804206E+04  0.10746172416E+04  0.00000000000E+00 0.  1.
         21    1    1    2  506  502 -0.23505587489E+02 -0.81217254189E+02 -0.46296371929E+02  0.96395586387E+02  0.00000000000E+00 0. -1.
<scales pt_clust_3="35.49163" pt_clust_4="61.53596" pt_clust_5="14000.00000" pt_clust_6="54.48186"></scales>
<clustering>
<clus scale="   35.492">  2  3  1 -1</clus>
<clus scale="   54.482">  2  6  1 -1</clus>
<clus scale="   61.536">  2  4  1 -1</clus>
<clus scale="   61.536">  1  3  2 -1</clus>
</clustering>
</event>
<event>
 6    0  0.6549018E+002  0.2040955E+03  0.7546771E-02  0.1146329E+00
         21   -1    0    0  506  501  0.00000000000E+00  0.00000000000E+00  0.61613331493E+02  0.61613331493E+02  0.00000000000E+00 0.  1.
         21   -1    0    0  504  502 -0.00000000000E+00 -0.00000000000E+00 -0.18274939075E+04  0.18274939075E+04  0.00000000000E+00 0. -1.
         21    1    1    2  503  501  0.69069539944E+02 -0.59560298354E+02 -0.36810539608E+02  0.98351646220E+02  0.00000000000E+00 0.  1.
         21    1    1    2  504  503  0.45060796481E+02 -0.78735521610E+02 -0.12851355335E+03  0.15730699647E+03  0.00000000000E+00 0.  1.
         21    1    1    2  505  502 -0.14597402146E+03  0.12275923938E+03 -0.15819918083E+04  0.15934479368E+04  0.00000000000E+00 0. -1.
         21    1    1    2  506  505  0.31843685034E+02  0.15536580585E+02 -0.18564674777E+02  0.40000659525E+02  0.00000000000E+00 0.  1.
<scales pt_clust_3="72.93367" pt_clust_4="72.93367" pt_clust_5="189.14849" pt_clust_6="35.43170"></scales>
<clustering>
<clus scale="   35.432">  1  6  2 -1</clus>
<clus scale="   72.934">  3  4 -1 -1</clus>
<clus scale="  189.148">  2  5  1 -1</clus>
<clus scale="   35.432">  1  3  2 -1</clus>
</clustering>
</event>
<event>
 6    0  0.6549018E+002  0.9257917E+02  0.7546771E-02  0.1296723E+00
         21   -1    0    0  504  501  0.00000000000E+00  0.00000000000E+00  0.40923250150E+02  0.40923250150E+02  0.00000000000E+00 0.  1.
         21   -1    0    0  503  502 -0.00000000000E+00 -0.00000000000E+00 -0.11324093062E+04  0.11324093062E+04  0.00000000000E+00 0.  1.
         21    1    1    2  503  506  0.49716735106E+02  0.22235965297E+02 -0.42351658413E+03  0.42700408539E+03  0.00000000000E+00 0.  1.
         21    1    1    2  504  502 -0.24248248621E+02  0.12525210303E+03 -0.30620312805E+03  0.33171738348E+03  0.00000000000E+00 0.  1.
         21    1    1    2  505  501 -0.39295266845E+02 -0.79040308762E+02 -0.64685394209E+02  0.10943348952E+03  0.00000000000E+00 0.  1.
         21    1    1    2  506  505  0.13826780361E+02 -0.68447759569E+02 -0.29708094966E+03  0.30517759796E+03  0.00000000000E+00 0.  1.
<scales pt_clust_3="54.46276" pt_clust_4="14000.00000" pt_clust_5="92.57917" pt_clust_6="68.58109"></scales>
<clustering>
<clus scale="   54.463">  2  3  1 -1</clus>
<clus scale="   68.581">  2  6  1 -1</clus>
<clus scale="   92.579">  1  5  2 -1</clus>
<clus scale="   92.579">  1  3  2 -1</clus>
</clustering>
</event>
<event>
 6    0  0.6549018E+002  0.1117645E+03  0.7546771E-02  0.1257337E+00
         21   -1    0    0  506  501  0.00000000000E+00  0.00000000000E+00  0.16150580392E+03  0.16150580392E+03  0.00000000000E+00 0. -1.
         21   -1    0    0  501  502 -0.00000000000E+00 -0.00000000000E+00 -0.21873009231E+03  0.21873009231E+03  0.00000000000E+00 0. -1.
         21    1    1    2  503  502  0.47999514986E+02 -0.10891140736E+03 -0.75494373263E+02  0.14094342300E+03  0.00000000000E+00 0. -1.
         21    1    1    2  504  503  0.52807294817E+02  0.11283666375E+03  0.25980364089E+02  0.12726233689E+03  0.00000000000E+00 0. -1.
         21    1    1    2  505  504 -0.41721091017E+02  0.21999008398E+02 -0.12166912371E+01  0.47181417356E+02  0.00000000000E+00 0. -1.
         21    1    1    2  506  505 -0.59085718787E+02 -0.25924264784E+02 -0.64935879784E+01  0.64848718985E+02  0.00000000000E+00 0. -1.
<scales pt_clust_3="111.52079" pt_clust_4="14000.00000" pt_clust_5="41.12703" pt_clust_6="111.76450"></scales>
<clustering>
<clus scale="   41.127">  5  6 -1 -1</clus>
<clus scale="  111.764">  1  5  2 -1</clus>
<clus scale="  111.521">  2  3  1 -1</clus>
<clus scale="  111.764">  1  3  2 -1</clus>
</clustering>
</event>
<event>
 6    0  0.6549018E+002  0.8055673E+02  0.7546771E-02  0.1327479E+00
         21   -1    0    0  505  501  0.00000000000E+00  0.00000000000E+00  0.22112022236E+02  0.22112022236E+02  0.00000000000E+00 0. -1.
         21   -1    0    0  504  502 -0.00000000000E+00 -0.00000000000E+00 -0.15823990916E+04  0.15823990916E+04  0.00000000000E+00 0. -1.
         21    1    1    2  503  502 -0.94630185440E+02 -0.16223324590E+02 -0.11410473624E+04  0.11450795394E+04  0.00000000000E+00 0. -1.
         21    1    1    2  504  501 -0.63776930531E+01  0.60064433460E+02 -0.11167921647E+03  0.12696715531E+03  0.00000000000E+00 0. -1.
         21    1    1    2  505  506  0.45304317864E+02 -0.33310148031E+02 -0.78942014369E+02  0.96922075977E+02  0.00000000000E+00 0. -1.
         21    1    1    2  506  503  0.55703560629E+02 -0.10530960838E+02 -0.22861847607E+03  0.23554234313E+03  0.00000000000E+00 0. -1.
<scales pt_clust_3="14000.00000" pt_clust_4="45.31881" pt_clust_5="56.23208" pt_clust_6="80.55673"></scales>
<clustering>
<clus scale="   56.232">  1  5  2 -1</clus>
<clus scale="   45.319">  1  4  2 -1</clus>
<clus scale="   80.557">  1  6  2 -1</clus>
<clus scale="   56.232">  1  3  2 -1</clus>
</clustering>
</event>
<event>
 6    0  0.6549018E+002  0.2440044E+03  0.7546771E-02  0.1117154E+00
         21   -1    0    0  504  501  0.00000000000E+00  0.00000000000E+00  0.84930030497E+03  0.84930030497E+03  0.00000000000E+00 0.  1.
         21   -1    0    0  503  502 -0.00000000000E+00 -0.00000000000E+00 -0.81345527644E+02  0.81345527644E+02  0.00000000000E+00 0.  1.
         21    1    1    2  503  501  0.26617810444E+02 -0.18350842779E+02  0.11243974584E+02  0.34229931755E+02  0.00000000000E+00 0.  1.
         21    1    1    2  504  505  0.56299425565E+02  0.36303570242E+02  0.58939216074E+02  0.89226709694E+02  0.00000000000E+00 0.  1.
         21    1    1    2  505  506  0.11631729414E+03  0.97108658732E+02  0.42006577463E+03  0.44655913330E+03  0.00000000000E+00 0.  1.
         21    1    1    2  506  502 -0.19923453015E+03 -0.11506138619E+03  0.27770581204E+03  0.36063005786E+03  0.00000000000E+00 0.  1.
<scales pt_clust_3="32.33050" pt_clust_4="67.65469" pt_clust_5="67.65469" pt_clust_6="222.51472"></scales>
<clustering>
<clus scale="   32.331">  2  3  1 -1</clus>
<clus scale="   67.655">  4  5 -1 -1</clus>
<clus scale="  222.515">  2  6  1 -1</clus>
<clus scale="  244.004">  1  3  2 -1</clus>
</clustering>
</event>
<event>
 6    0  0.6549018E+002  0.1381661E+03  0.7546771E-02  0.1215818E+00
         21   -1    0    0  503  501  0.00000000000E+00  0.00000000000E+00  0.48714190748E+03  0.48714190748E+03  0.00000000000E+00 0. -1.
         21   -1    0    0  506  502 -0.00000000000E+00 -0.00000000000E+00 -0.18343649878E+04  0.18343649878E+04  0.00000000000E+00 0. -1.
         21    1    1    2  503  502 -0.12539604322E+03  0.22695356803E+02  0.39576169261E+03  0.41577225042E+03  0.00000000000E+00 0. -1.
         21    1    1    2  504  501  0.26661824276E+01 -0.50985859297E+02  0.70469437514E+02  0.87020733164E+02  0.00000000000E+00 0. -1.
         21    1    1    2  505  504  0.72742147622E+02  0.20266511425E+02 -0.69003320539E+03  0.69415270371E+03  0.00000000000E+00 0. -1.
         21    1    1    2  506  505  0.49987713173E+02  0.80239910694E+01 -0.11234210051E+04  0.11245612080E+04  0.00000000000E+00 0. -1.
<scales pt_clust_3="125.89169" pt_clust_4="51.05552" pt_clust_5="46.61584" pt_clust_6="46.61584"></scales>
<clustering>
<clus scale="   46.616">  5  6 -1 -1</clus>
<clus scale="   51.056">  1  4  2 -1</clus>
<clus scale="  125.892">  1  3  2 -1</clus>
<clus scale="   51.056">  1  3  2 -1</clus>
</clustering>
</event>
<event>
 6    0  0.6549018E+002  0.1369774E+03  0.7546771E-02  0.1217455E+00
         21   -1    0    0  503  501  0.00000000000E+00  0.00000000000E+00  0.40450393912E+03  0.40450393912E+03  0.00000000000E+00 0. -1.
         21   -1    0    0  501  502 -0.00000000000E+00 -0.00000000000E+00 -0.42707879504E+03  0.42707879504E+03  0.00000000000E+00 0.  1.
         21    1    1    2  503  504 -0.10361250598E+02 -0.60468168482E+02  0.26479859838E+03  0.27181253212E+03  0.00000000000E+00 0. -1.
         21    1    1    2  504  506 -0.62954575140E+02 -0.70012520325E+02  0.99790482457E+02  0.13719756529E+03  0.00000000000E+00 0. -1.
         21    1    1    2  505  502 -0.13058269757E+02  0.46674162395E+02 -0.12650486626E+03  0.13547131442E+03  0.00000000000E+00 0.  1.
         21    1    1    2  506  505  0.86374095496E+02  0.83806526413E+02 -0.26065907050E+03  0.28710132232E+03  0.00000000000E+00 0.  1.
<scales pt_clust_3="60.83119" pt_clust_4="14000.00000" pt_clust_5="48.46644" pt_clust_6="136.97741"></scales>
<clustering>
<clus scale="   48.466">  2  5  1 -1</clus>
<clus scale="   60.831">  1  3  2 -1</clus>
<clus scale="  136.977">  2  6  1 -1</clus>
<clus scale="   60.831">  1  3  2 -1</clus>
</clustering>
</event>
<event>
 6    0  0.6549018E+002  0.7094307E+02  0.7546771E-02  0.1356915E+00
         21   -1    0    0  504  501  0.00000000000E+00  0.00000000000E+00  0.21834706733E+04  0.21834706733E+04  0.00000000000E+00 0.  1.
         21   -1    0    0  506  502 -0.00000000000E+00 -0.00000000000E+00 -0.16083494028E+03  0.16083494028E+03  0.00000000000E+00 0. -1.
         21    1    1    2  503  501 -0.77332422596E+02 -0.76996192977E+02  0.78442234261E+03  0.79197672245E+03  0.00000000000E+00 0. -1.
         21    1    1    2  504  505  0.11385124790E+02  0.50297684995E+02  0.13805892888E+04  0.13815521208E+04  0.00000000000E+00 0.  1.
         21    1    1    2  505  502  0.14155176610E+02  0.36706409968E+02 -0.43090648236E+02  0.58348380638E+02  0.00000000000E+00 0. -1.
         21    1    1    2  506  503  0.51792121196E+02 -0.10007901987E+02 -0.99285250127E+02  0.11242838971E+03  0.00000000000E+00 0. -1.
<scales pt_clust_3="14000.00000" pt_clust_4="51.74032" pt_clust_5="39.34119" pt_clust_6="70.94307"></scales>
<clustering>
<clus scale="   39.341">  2  5  1 -1</clus>
<clus scale="   51.740">  1  4  2 -1</clus>
<clus scale="   70.943">  2  6  1 -1</clus>
<clus scale="   51.740">  1  3  2 -1</clus>
</clustering>
</event>
<event>
 6    0  0.6549018E+002  0.7991927E+02  0.7546771E-02  0.1329281E+00
         21   -1    0    0  503  501  0.00000000000E+00  0.00000000000E+00  0.99436802010E+02  0.99436802010E+02  0.00000000000E+00 0.  1.
         21   -1    0    0  504  502 -0.00000000000E+00 -0.00000000000E+00 -0.10930795578E+04  0.10930795578E+04  0.00000000000E+00 0.  1.
         21    1    1    2  503  505  0.63073749706E+02 -0.44584817789E+02 -0.49320624070E+02  0.91644027835E+02  0.00000000000E+00 0.  1.
         21    1    1    2  504  506  0.25053696031E+02  0.81115010757E+02 -0.87966530902E+03  0.88375244754E+03  0.00000000000E+00 0.  1.
         21    1    1    2  505  502 -0.35588091278E+02  0.50662959162E+01 -0.12307626156E+03  0.12821835186E+03  0.00000000000E+00 0.  1.
         21    1    1    2  506  501 -0.52539354459E+02 -0.41596488885E+02  0.58419438862E+02  0.88901532560E+02  0.00000000000E+00 0.  1.
<scales pt_clust_3="79.91927" pt_clust_4="14000.00000" pt_clust_5="35.94690" pt_clust_6="67.40360"></scales>
<clustering>
<clus scale="   35.947">  2  5  1 -1</clus>
<clus scale="   67.404">  1  6  2 -1</clus>
<clus scale="   79.919">  1  3  2 -1</clus>
<clus scale="   67.404">  1  3  2 -1</clus>
</clustering>
</event>
<event>
 6    0  0.6549018E+002  0.1343531E+03  0.7546771E-02  0.1221136E+00
         21   -1    0    0  506  501  0.00000000000E+00  0.00000000000E+00  0.24457624791E+03  0.24457624791E+03  0.00000000000E+00 0.  1.
         21   -1    0    0  505  502 -0.00000000000E+00 -0.00000000000E+00 -0.12332408118E+04  0.12332408118E+04  0.00000000000E+00 0.  1.
         21    1    1    2  503  501  0.41356475638E+02 -0.26551830578E+02 -0.31142743549E+02  0.58182714444E+02  0.00000000000E+00 0. -1.
         21    1    1    2  504  502 -0.99537171661E+02  0.83455139562E+02  0.17640888350E+03  0.21907191294E+03  0.00000000000E+00 0.  1.
         21    1    1    2  505  503  0.13180711494E+03 -0.28018493229E+02 -0.11096893700E+04  0.11178410662E+04  0.00000000000E+00 0.  1.
         21    1    1    2  506  504 -0.73626418918E+02 -0.28884815755E+02 -0.24241333888E+02  0.82721366119E+02  0.00000000000E+00 0. -1.
<scales pt_clust_3="49.14629" pt_clust_4="14000.00000" pt_clust_5="134.35314" pt_clust_6="75.61289"></scales>
<clustering>
<clus scale="   49.146">  1  3  2 -1</clus>
<clus scale="   75.613">  1  6  2 -1</clus>
<clus scale="  134.353">  2  5  1 -1</clus>
<clus scale="   49.146">  1  3  2 -1</clus>
</clustering>
</event>
<event>
 6    0  0.6549018E+002  0.1045976E+03  0.7546771E-02  0.1270914E+00
         21   -1    0    0  504  501  0.00000000000E+00  0.00000000000E+00  0.23437756725E+03  0.23437756725E+03  0.00000000000E+00 0. -1.
         21   -1    0    0  503  502 -0.00000000000E+00 -0.00000000000E+00 -0.21312603397E+03  0.21312603397E+03  0.00000000000E+00 0. -1.
         21    1    1    2  503  505 -0.37183368544E+02 -0.10271784760E+03 -0.85858808832E+02  0.13894349271E+03  0.00000000000E+00 0. -1.
         21    1    1    2  504  502 -0.47317202914E+02  0.22076476594E+02 -0.44062098884E+02  0.68320985564E+02  0.00000000000E+00 0. -1.
         21    1    1    2  505  506  0.98043997074E+02  0.39936134791E+02  0.27559789320E+02  0.10939406845E+03  0.00000000000E+00 0. -1.
         21    1    1    2  506  501 -0.13543425616E+02  0.40705236217E+02  0.12361265168E+03  0.13084505450E+03  0.00000000000E+00 0. -1.
<scales pt_clust_3="104.59763" pt_clust_4="55.66339" pt_clust_5="14000.00000" pt_clust_6="42.89919"></scales>
<clustering>
<clus scale="   42.899">  1  6  2 -1</clus>
<clus scale="   55.663">  2  4  1 -1</clus>
<clus scale="  104.598">  2  3  1 -1</clus>
<clus scale="   42.899">  1  3  2 -1</clus>
</clustering>
</event>
<event>
 6    0  0.6549018E+002  0.8657835E+02  0.7546771E-02  0.1311356E+00
         21   -1    0    0  503  501  0.00000000000E+00  0.00000000000E+00  0.98195867547E+02  0.98195867547E+02  0.00000000000E+00 0.  1.
         21   -1    0    0  506  502 -0.00000000000E+00 -0.00000000000E+00 -0.45739084596E+03  0.45739084596E+03  0.00000000000E+00 0.  1.
         21    1    1    2  503  504 -0.82722339916E+02 -0.91113255542E+02  0.61286642867E+01  0.12321595425E+03  0.00000000000E+00 0.  1.
         21    1    1    2  504  502  0.46331080346E+02  0.49872422295E+02 -0.29762535404E+03  0.30531079064E+03  0.00000000000E+00 0.  1.
         21    1    1    2  505  501  0.45568203308E+02  0.12606773163E+02  0.58138470030E+01  0.47636044119E+02  0.00000000000E+00 0.  1.
         21    1    1    2  506  505 -0.91769437389E+01  0.28634060083E+02 -0.73512135663E+02  0.79423924499E+02  0.00000000000E+00 0.  1.
<scales pt_clust_3="86.57835" pt_clust_4="14000.00000" pt_clust_5="47.24232" pt_clust_6="30.06868"></scales>
<clustering>
<clus scale="   30.069">  2  6  1 -1</clus>
<clus scale="   47.242">  1  5  2 -1</clus>
<clus scale="   86.578">  1  3  2 -1</clus>
<clus scale="   47.242">  1  3  2 -1</clus>
</clustering>
</event>
<event>
 6    0  0.6549018E+002  0.1897348E+03  0.7546771E-02  0.1158701E+00
         21   -1    0    0  506  501  0.00000000000E+00  0.00000000000E+00  0.10468981919E+04  0.10468981919E+04  0.00000000000E+00 0. -1.
         21   -1    0    0  504  502 -0.00000000000E+00 -0.00000000000E+00 -0.14236237469E+03  0.14236237469E+03  0.00000000000E+00 0.  1.
         21    1    1    2  503  502  0.39926549648E+02 -0.21869532789E+03  0.30018563037E+02  0.22432763970E+03  0.00000000000E+00 0.  1.
         21    1    1    2  504  505  0.50368731514E+02  0.66042897174E+02  0.46478613740E+02  0.95178437246E+02  0.00000000000E+00 0.  1.
         21    1    1    2  505  501 -0.12683147149E+03  0.17784071471E+03  0.73320929949E+03  0.76505517372E+03  0.00000000000E+00 0. -1.
         21    1    1    2  506  503  0.36536190329E+02 -0.25188283993E+02  0.94829340958E+02  0.10469931595E+03  0.00000000000E+00 0.  1.
<scales pt_clust_3="189.73476" pt_clust_4="83.28341" pt_clust_5="14000.00000" pt_clust_6="44.37728"></scales>
<clustering>
<clus scale="   44.377">  1  6  2 -1</clus>
<clus scale="   83.283">  2  4  1 -1</clus>
<clus scale="  189.735">  2  3  1 -1</clus>
<clus scale="   44.377">  1  3  2 -1</clus>
</clustering>
</event>
<event>
 6    0  0.6549018E+002  0.9982561E+02  0.7546771E-02  0.1280663E+00
         21   -1    0    0  504  501  0.00000000000E+00  0.00000000000E+00  0.45919221544E+03  0.45919221544E+03  0.00000000000E+00 0.  1.
         21   -1    0    0  506  502 -0.00000000000E+00 -0.00000000000E+00 -0.14619490139E+03  0.14619490139E+03  0.00000000000E+00 0.  1.
         21    1    1    2  503  501 -0.60813812083E+02 -0.12015600981E+03  0.28994009349E+03  0.31968898049E+03  0.00000000000E+00 0.  1.
         21    1    1    2  504  505  0.46050029750E+02  0.59294113946E+02  0.11837567265E+03  0.14017559368E+03  0.00000000000E+00 0.  1.
         21    1    1    2  505  502  0.45386290050E+02  0.27110556985E+02 -0.18138303118E+02  0.55891821088E+02  0.00000000000E+00 0.  1.
         21    1    1    2  506  503 -0.30622507717E+02  0.33751338876E+02 -0.77180148974E+02  0.89630721577E+02  0.00000000000E+00 0.  1.
<scales pt_clust_3="14000.00000" pt_clust_4="99.82561" pt_clust_5="54.37680" pt_clust_6="45.57292"></scales>
<clustering>
<clus scale="   45.573">  2  6  1 -1</clus>
<clus scale="   54.377">  2  5  1 -1</clus>
<clus scale="   99.826">  1  4  2 -1</clus>
<clus scale="   99.826">  1  3  2 -1</clus>
</clustering>
</event>
<event>
 6    0  0.6549018E+002  0.1354731E+03  0.7546771E-02  0.1219553E+00
         21   -1    0    0  505  501  0.00000000000E+00  0.00000000000E+00  0.12141077622E+03  0.12141077622E+03  0.00000000000E+00 0. -1.
         21   -1    0    0  503  502 -0.00000000000E+00 -0.00000000000E+00 -0.15638385552E+04  0.15638385552E+04  0.00000000000E+00 0. -1.
         21    1    1    2  503  506 -0.46293969080E+02  0.72599884389E+01 -0.16483453548E+03  0.17136587493E+03  0.00000000000E+00 0.  1.
         21    1    1    2  504  502  0.12631510147E+03 -0.22874376542E+02 -0.11853820821E+04  0.11923126363E+04  0.00000000000E+00 0. -1.
         21    1    1    2  505  504  0.72788521020E+01  0.41396501815E+02  0.10023029210E+03  0.10868653782E+03  0.00000000000E+00 0. -1.
         21    1    1    2  506  501 -0.87299984497E+02 -0.25782113712E+02 -0.19244145349E+03  0.21288428242E+03  0.00000000000E+00 0.  1.
<scales pt_clust_3="30.53863" pt_clust_4="128.61307" pt_clust_5="42.03156" pt_clust_6="30.53863"></scales>
<clustering>
<clus scale="   30.539">  3  6 -1 -1</clus>
<clus scale="   42.032">  1  5  2 -1</clus>
<clus scale="  128.613">  2  4  1 -1</clus>
<clus scale="   42.032">  1  3  2 -1</clus>
</clustering>
</event>
<event>
 6    0  0.6549018E+002  0.1441511E+03  0.7546771E-02  0.1207850E+00
         21   -1    0    0  506  501  0.00000000000E+00  0.00000000000E+00  0.23850736193E+03  0.23850736193E+03  0.00000000000E+00 0. -1.
         21   -1    0    0  503  502 -0.00000000000E+00 -0.00000000000E+00 -0.25580438189E+04  0.25580438189E+04  0.00000000000E+00 0. -1.
         21    1    1    2  503  501 -0.10396622268E+02  0.31201929234E+02  0.14081701882E+02  0.35776311582E+02  0.00000000000E+00 0. -1.
         21    1    1    2  504  502 -0.14238155761E+02 -0.81603924875E+02 -0.12945451007E+04  0.12971927164E+04  0.00000000000E+00 0. -1.
         21    1    1    2  505  504  0.28177221928E+02 -0.53322966203E+02 -0.12378625055E+04  0.12393308183E+04  0.00000000000E+00 0. -1.
         21    1    1    2  506  505 -0.35424438997E+01  0.10372496184E+03  0.19878944746E+03  0.22425133453E+03  0.00000000000E+00 0. -1.
<scales pt_clust_3="32.88845" pt_clust_4="42.35983" pt_clust_5="42.35983" pt_clust_6="135.33565"></scales>
<clustering>
<clus scale="   32.888">  1  3  2 -1</clus>
<clus scale="   42.360">  4  5 -1 -1</clus>
<clus scale="  135.336">  1  6  2 -1</clus>
<clus scale="   32.888">  1  3  2 -1</clus>
</clustering>
</event>
<event>
 6    0  0.6549018E+002  0.1166552E+03  0.7546771E-02  0.1248719E+00
         21   -1    0    0  505  501  0.00000000000E+00  0.00000000000E+00  0.28407415507E+03  0.28407415507E+03  0.00000000000E+00 0.  1.
         21   -1    0    0  506  502 -0.00000000000E+00 -0.00000000000E+00 -0.31336050837E+03  0.31336050837E+03  0.00000000000E+00 0. -1.
         21    1    1    2  503  501 -0.58309040282E+01  0.34616481841E+02 -0.13373102469E+02  0.37565145101E+02  0.00000000000E+00 0. -1.
         21    1    1    2  504  502 -0.64354075345E+02 -0.11567693753E+03 -0.28811390812E+02  0.13547212677E+03  0.00000000000E+00 0. -1.
         21    1    1    2  505  504 -0.26260050998E+02  0.17838449968E+02  0.20114573528E+03  0.20363547677E+03  0.00000000000E+00 0.  1.
         21    1    1    2  506  503  0.96445030371E+02  0.63222005721E+02 -0.18824759530E+03  0.22076191480E+03  0.00000000000E+00 0. -1.
<scales pt_clust_3="38.50499" pt_clust_4="14000.00000" pt_clust_5="31.74587" pt_clust_6="116.65525"></scales>
<clustering>
<clus scale="   31.746">  1  5  2 -1</clus>
<clus scale="   38.505">  1  3  2 -1</clus>
<clus scale="  116.655">  2  6  1 -1</clus>
<clus scale="   31.746">  1  3  2 -1</clus>
</clustering>
</event>
<event>
 6    0  0.6549018E+002  0.7261025E+02  0.7546771E-02  0.1351435E+00
         21   -1    0    0  506  501  0.00000000000E+00  0.00000000000E+00  0.11211021343E+04  0.11211021343E+04  0.00000000000E+00 0.  1.
         21   -1    0    0  503  502 -0.00000000000E+00 -0.00000000000E+00 -0.57251844666E+02  0.57251844666E+02  0.00000000000E+00 0.  1.
         21    1    1    2  503  501 -0.13720409672E+02  0.61670472509E+02  0.89776039658E+03  0.89998068118E+03  0.00000000000E+00 0.  1.
         21    1    1    2  504  505  0.30761935652E+02 -0.86221313121E+02  0.47716666297E+02  0.10323415987E+03  0.00000000000E+00 0.  1.
         21    1    1    2  505  502 -0.42404080474E+02  0.48456257999E+02  0.15091441364E+02  0.66135214391E+02  0.00000000000E+00 0.  1.
         21    1    1    2  506  504  0.25362554494E+02 -0.23905417386E+02  0.10328178536E+03  0.10900392350E+03  0.00000000000E+00 0.  1.
<scales pt_clust_3="41.43190" pt_clust_4="14000.00000" pt_clust_5="72.61025" pt_clust_6="34.85295"></scales>
<clustering>
<clus scale="   34.853">  1  6  2 -1</clus>
<clus scale="   41.432">  1  3  2 -1</clus>
<clus scale="   72.610">  2  5  1 -1</clus>
<clus scale="   34.853">  1  3  2 -1</clus>
</clustering>
</event>
<event>
 6    0  0.6549018E+002  0.2899274E+03  0.7546771E-02  0.1090387E+00
         21   -1    0    0  504  501  0.00000000000E+00  0.00000000000E+00  0.56835924113E+03  0.56835924113E+03  0.00000000000E+00 0.  1.
         21   -1    0    0  506  502 -0.00000000000E+00 -0.00000000000E+00 -0.26148944871E+03  0.26148944871E+03  0.00000000000E+00 0. -1.
         21    1    1    2  503  505  0.16439332234E+02  0.81525246989E+02  0.27476047575E+01  0.83211578959E+02  0.00000000000E+00 0.  1.
         21    1    1    2  504  502 -0.47003506607E+02 -0.31073704911E+03  0.21402620055E+03  0.38022895450E+03  0.00000000000E+00 0.  1.
         21    1    1    2  505  501 -0.37541294804E+02  0.47960372037E+02  0.15149673977E+03  0.16328137758E+03  0.00000000000E+00 0.  1.
         21    1    1    2  506  503  0.68105469177E+02  0.18125143008E+03 -0.61400752663E+02  0.20312677880E+03  0.00000000000E+00 0. -1.
<scales pt_clust_3="31.77113" pt_clust_4="285.84588" pt_clust_5="60.90604" pt_clust_6="31.77113"></scales>
<clustering>
<clus scale="   31.771">  3  6 -1 -1</clus>
<clus scale="   60.906">  1  5  2 -1</clus>
<clus scale="  285.846">  1  4  2 -1</clus>
<clus scale="   60.906">  1  3  2 -1</clus>
</clustering>
</event>
<event>
 6    0  0.6549018E+002  0.1006004E+03  0.7546771E-02  0.1279038E+00
         21   -1    0    0  503  501  0.00000000000E+00  0.00000000000E+00  0.86995763012E+02  0.86995763012E+02  0.00000000000E+00 0. -1.
         21   -1    0    0  505  502 -0.00000000000E+00 -0.00000000000E+00 -0.61789854338E+03  0.61789854338E+03  0.00000000000E+00 0.  1.
         21    1    1    2  503  504  0.14919856317E+02 -0.31276337388E+02 -0.11471802130E+02  0.36502241534E+02  0.00000000000E+00 0. -1.
         21    1    1    2  504  502 -0.16982167091E+03 -0.33445194583E+02 -0.91297204263E+02  0.19568638292E+03  0.00000000000E+00 0. -1.
         21    1    1    2  505  506  0.91644840014E+02  0.80891513579E+01 -0.33169624706E+03  0.34421884229E+03  0.00000000000E+00 0.  1.
         21    1    1    2  506  501  0.63256974582E+02  0.56632380613E+02 -0.96437526911E+02  0.12848683965E+03  0.00000000000E+00 0.  1.
<scales pt_clust_3="34.65273" pt_clust_4="14000.00000" pt_clust_5="100.60042" pt_clust_6="83.11555"></scales>
<clustering>
<clus scale="   34.653">  1  3  2 -1</clus>
<clus scale="   83.116">  1  6  2 -1</clus>
<clus scale="  100.600">  2  5  1 -1</clus>
<clus scale="   34.653">  1  3  2 -1</clus>
</clustering>
</event>
<event>
 6    0  0.6549018E+002  0.1382823E+03  0.7546771E-02  0.1215659E+00
         21   -1    0    0  506  501  0.00000000000E+00  0.00000000000E+00  0.67503609783E+03  0.67503609783E+03  0.00000000000E+00 0. -1.
         21   -1    0    0  505  502 -0.00000000000E+00 -0.00000000000E+00 -0.27041765005E+03  0.27041765005E+03  0.00000000000E+00 0.  1.
         21    1    1    2  503  502 -0.21657033612E+02  0.12526426886E+03 -0.12334165187E+03  0.17712517394E+03  0.00000000000E+00 0.  1.
         21    1    1    2  504  503  0.63974899357E+02 -0.15269096596E+03 -0.56134448607E+02  0.17480959685E+03  0.00000000000E+00 0.  1.
         21    1    1    2  505  501  0.10209617804E+02  0.37739896242E+02  0.11682951386E+03  0.12319769224E+03  0.00000000000E+00 0.  1.
         21    1    1    2  506  504 -0.52527483550E+02 -0.10313199151E+02  0.46726503439E+03  0.47032128484E+03  0.00000000000E+00 0. -1.
<scales pt_clust_3="14000.00000" pt_clust_4="138.28230" pt_clust_5="39.09650" pt_clust_6="48.91364"></scales>
<clustering>
<clus scale="   39.096">  1  5  2 -1</clus>
<clus scale="   48.914">  1  6  2 -1</clus>
<clus scale="  138.282">  1  4  2 -1</clus>
<clus scale="   39.096">  1  3  2 -1</clus>
</clustering>
</event>
<event>
 6    0  0.6549018E+002  0.1288893E+03  0.7546771E-02  0.1229113E+00
         21   -1    0    0  503  501  0.00000000000E+00  0.00000000000E+00  0.38958144867E+03  0.38958144867E+03  0.00000000000E+00 0.  1.
         21   -1    0    0  504  502 -0.00000000000E+00 -0.00000000000E+00 -0.24711966937E+04  0.24711966937E+04  0.00000000000E+00 0.  1.
         21    1    1    2  503  505 -0.12076287795E+03 -0.78193439886E+02  0.22530315866E+03  0.26731891073E+03  0.00000000000E+00 0.  1.
         21    1    1    2  504  501 -0.34124051139E+02 -0.22019196442E+02 -0.60483709604E+03  0.60619898435E+03  0.00000000000E+00 0.  1.
         21    1    1    2  505  506  0.10880903887E+03  0.35853898221E+02  0.11857825812E+03  0.16488090325E+03  0.00000000000E+00 0. -1.
         21    1    1    2  506  502  0.46077890224E+02  0.64358738107E+02 -0.18206595657E+04  0.18223793440E+04  0.00000000000E+00 0.  1.
<scales pt_clust_3="128.88928" pt_clust_4="40.61152" pt_clust_5="14000.00000" pt_clust_6="44.72022"></scales>
<clustering>
<clus scale="   40.612">  2  4  1 -1</clus>
<clus scale="   44.720">  2  6  1 -1</clus>
<clus scale="  128.889">  1  3  2 -1</clus>
<clus scale="  128.889">  1  3  2 -1</clus>
</clustering>
</event>
<event>
 6    0  0.6549018E+002  0.1306981E+03  0.7546771E-02  0.1226424E+00
         21   -1    0    0  503  501  0.00000000000E+00  0.00000000000E+00  0.54669572102E+02  0.54669572102E+02  0.00000000000E+00 0.  1.
         21   -1    0    0  505  502 -0.00000000000E+00 -0.00000000000E+00 -0.78211599933E+03  0.78211599933E+03  0.00000000000E+00 0. -1.
         21    1    1    2  503  506 -0.58321702891E+01  0.51139671233E+02 -0.20270554709E+03  0.20913827723E+03  0.00000000000E+00 0. -1.
         21    1    1    2  504  501 -0.88177983902E+02 -0.78466416594E+02 -0.37624940586E+02  0.12388693043E+03  0.00000000000E+00 0.  1.
         21    1    1    2  505  504  0.44977214859E+02 -0.10794315447E+02 -0.84044941858E+02  0.95932368648E+02  0.00000000000E+00 0.  1.
         21    1    1    2  506  502  0.49032939332E+02  0.38121060808E+02 -0.40307099770E+03  0.40782799512E+03  0.00000000000E+00 0. -1.
<scales pt_clust_3="47.77318" pt_clust_4="115.03748" pt_clust_5="46.25437" pt_clust_6="47.77318"></scales>
<clustering>
<clus scale="   46.254">  2  5  1 -1</clus>
<clus scale="   47.773">  3  6 -1 -1</clus>
<clus scale="  115.037">  1  4  2 -1</clus>
<clus scale="  115.037">  1  3  2 -1</clus>
</clustering>
</event>
<event>
 6    0  0.6549018E+002  0.3302892E+03  0.7546771E-02  0.1071009E+00
         21   -1    0    0  505  501  0.00000000000E+00  0.00000000000E+00  0.15362169226E+04  0.15362169226E+04  0.00000000000E+00 0.  1.
         21   -1    0    0  503  502 -0.00000000000E+00 -0.00000000000E+00 -0.50506378418E+03  0.50506378418E+03  0.00000000000E+00 0. -1.
         21    1    1    2  503  504 -0.13523983504E+03 -0.57657110256E+02 -0.23158850018E+03  0.27431257492E+03  0.00000000000E+00 0. -1.
         21    1    1    2  504  506 -0.18356252586E+03 -0.50449723669E+02 -0.17671944075E+03  0.25975014198E+03  0.00000000000E+00 0. -1.
         21    1    1    2  505  502  0.17034250631E+03 -0.69290789831E+02  0.92558651199E+03  0.94367800345E+03  0.00000000000E+00 0.  1.
         21    1    1    2  506  501  0.14845985459E+03  0.17739762376E+03  0.51387456740E+03  0.56353998648E+03  0.00000000000E+00 0.  1.
<scales pt_clust_3="63.28270" pt_clust_4="63.28270" pt_clust_5="183.89612" pt_clust_6="322.34352"></scales>
<clustering>
<clus scale="   63.283">  3  4 -1 -1</clus>
<clus scale="  183.896">  1  5  2 -1</clus>
<clus scale="  322.344">  1  6  2 -1</clus>
<clus scale="  183.896">  1  3  2 -1</clus>
</clustering>
</event>
<event>
 6    0  0.6549018E+002  0.5495259E+03  0.7546771E-02  0.1001604E+00
         21   -1    0    0  503  501  0.00000000000E+00  0.00000000000E+00  0.21868521728E+04  0.21868521728E+04  0.00000000000E+00 0. -1.
         21   -1    0    0  505  502 -0.00000000000E+00 -0.00000000000E+00 -0.41911753038E+03  0.41911753038E+03  0.00000000000E+00 0. -1.
         21    1    1    2  503  504  0.55580951094E+02 -0.34549071735E+02  0.99884825484E+03  0.10009898684E+04  0.00000000000E+00 0. -1.
         21    1    1    2  504  506  0.38992986363E+02  0.56695472929E+02  0.79715376154E+02  0.10530608165E+03  0.00000000000E+00 0. -1.
         21    1    1    2  505  501 -0.53376467875E+03 -0.31804942483E+03  0.74162936349E+03  0.96750931866E+03  0.00000000000E+00 0. -1.
         21    1    1    2  506  502  0.43919074129E+03  0.29590302364E+03 -0.52458352029E+02  0.53216443449E+03  0.00000000000E+00 0. -1.
<scales pt_clust_3="65.44372" pt_clust_4="69.23400" pt_clust_5="549.52585" pt_clust_6="14000.00000"></scales>
<clustering>
<clus scale="   65.444">  1  3  2 -1</clus>
<clus scale="   69.234">  1  4  2 -1</clus>
<clus scale="  549.526">  1  5  2 -1</clus>
<clus scale="   65.444">  1  3  2 -1</clus>
</clustering>
</event>
<event>
 6    0  0.6549018E+002  0.1382918E+03  0.7546771E-02  0.1215646E+00
         21   -1    0    0  506  501  0.00000000000E+00  0.00000000000E+00  0.20209466366E+04  0.20209466366E+04  0.00000000000E+00 0.  1.
         21   -1    0    0  503  502 -0.00000000000E+00 -0.00000000000E+00 -0.23695638693E+02  0.23695638693E+02  0.00000000000E+00 0.  1.
         21    1    1    2  503  501 -0.17140364260E+03 -0.10764821430E+02  0.12362210003E+04  0.12480935268E+04  0.00000000000E+00 0.  1.
         21    1    1    2  504  502  0.92035692465E+02 -0.55236767262E+02  0.23073048880E+03  0.25447637927E+03  0.00000000000E+00 0.  1.
         21    1    1    2  505  504  0.33162850414E+02  0.53936876450E+02  0.26089558935E+03  0.26846875019E+03  0.00000000000E+00 0.  1.
         21    1    1    2  506  505  0.46205099717E+02  0.12064712242E+02  0.26940391941E+03  0.27360361897E+03  0.00000000000E+00 0.  1.
<scales pt_clust_3="130.97792" pt_clust_4="107.33904" pt_clust_5="38.54033" pt_clust_6="38.54033"></scales>
<clustering>
<clus scale="   38.540">  5  6 -1 -1</clus>
<clus scale="  107.339">  2  4  1 -1</clus>
<clus scale="  130.978">  2  3  1 -1</clus>
<clus scale="  138.292">  1  3  2 -1</clus>
</clustering>
</event>
<event>
 6    0  0.6549018E+002  0.1720335E+03  0.7546771E-02  0.1175744E+00
         21   -1    0    0  504  501  0.00000000000E+00  0.00000000000E+00  0.63251303909E+03  0.63251303909E+03  0.00000000000E+00 0. -1.
         21   -1    0    0  506  502 -0.00000000000E+00 -0.00000000000E+00 -0.33481994312E+03  0.33481994312E+03  0.00000000000E+00 0. -1.
         21    1    1    2  503  501 -0.40139013173E+02  0.33230809441E+01  0.54632969801E+02  0.67874477049E+02  0.00000000000E+00 0.  1.
         21    1    1    2  504  505  0.27792846308E+01 -0.68093283376E+02  0.45041475535E+03  0.45554129506E+03  0.00000000000E+00 0. -1.
         21    1    1    2  505  502  0.16182182965E+03 -0.63604976033E+02 -0.19992799691E+03  0.26495867881E+03  0.00000000000E+00 0. -1.
         21    1    1    2  506  503 -0.12446210111E+03  0.12837517846E+03 -0.74266322777E+01  0.17895853130E+03  0.00000000000E+00 0.  1.
<scales pt_clust_3="40.27634" pt_clust_4="71.61436" pt_clust_5="14000.00000" pt_clust_6="172.03354"></scales>
<clustering>
<clus scale="   40.276">  1  3  2 -1</clus>
<clus scale="   71.614">  1  4  2 -1</clus>
<clus scale="  172.034">  1  6  2 -1</clus>
<clus scale="   40.276">  1  3  2 -1</clus>
</clustering>
</event>
<event>
 6    0  0.6549018E+002  0.9139822E+02  0.7546771E-02  0.1299501E+00
         21   -1    0    0  506  501  0.00000000000E+00  0.00000000000E+00  0.17230464718E+03  0.17230464718E+03  0.00000000000E+00 0.  1.
         21   -1    0    0  503  502 -0.00000000000E+00 -0.00000000000E+00 -0.13810398971E+03  0.13810398971E+03  0.00000000000E+00 0.  1.
         21    1    1    2  503  501  0.69068999270E+02 -0.31309846911E+02  0.24438602222E+02  0.79674829478E+02  0.00000000000E+00 0.  1.
         21    1    1    2  504  505 -0.97823726064E+02  0.52241535478E+02 -0.25854653595E+02  0.11387327396E+03  0.00000000000E+00 0.  1.
         21    1    1    2  505  502 -0.16755261335E+01 -0.46597609596E+02 -0.18085625827E+02  0.50012343171E+02  0.00000000000E+00 0.  1.
         21    1    1    2  506  504  0.30430252928E+02  0.25665921029E+02  0.53702334663E+02  0.66848190280E+02  0.00000000000E+00 0.  1.
<scales pt_clust_3="91.39822" pt_clust_4="14000.00000" pt_clust_5="43.02275" pt_clust_6="39.80879"></scales>
<clustering>
<clus scale="   39.809">  1  6  2 -1</clus>
<clus scale="   43.023">  2  5  1 -1</clus>
<clus scale="   91.398">  1  3  2 -1</clus>
<clus scale="   39.809">  1  3  2 -1</clus>
</clustering>
</event>
<event>
 6    0  0.6549018E+002  0.2239916E+03  0.7546771E-02  0.1130942E+00
         21   -1    0    0  504  501  0.00000000000E+00  0.00000000000E+00  0.20900749090E+04  0.20900749090E+04  0.00000000000E+00 0.  1.
         21   -1    0    0  503  502 -0.00000000000E+00 -0.00000000000E+00 -0.11518114711E+03  0.11518114711E+03  0.00000000000E+00 0. -1.
         21    1    1    2  503  506  0.32820537547E+02  0.78567655495E+02 -0.18713741758E+02  0.87179517695E+02  0.00000000000E+00 0. -1.
         21    1    1    2  504  502  0.10874742851E+03 -0.33208235802E+02  0.13438397037E+04  0.13486415163E+04  0.00000000000E+00 0.  1.
         21    1    1    2  505  501 -0.15371996594E+03 -0.17075313246E+03  0.58346680174E+03  0.62707253879E+03  0.00000000000E+00 0. -1.
         21    1    1    2  506  505  0.12151999884E+02  0.12539371277E+03  0.66300998195E+02  0.14236248334E+03  0.00000000000E+00 0. -1.
<scales pt_clust_3="67.80439" pt_clust_4="113.70484" pt_clust_5="208.25475" pt_clust_6="67.80439"></scales>
<clustering>
<clus scale="   67.804">  3  6 -1 -1</clus>
<clus scale="  113.705">  1  4  2 -1</clus>
<clus scale="  208.255">  1  5  2 -1</clus>
<clus scale="  113.705">  1  3  2 -1</clus>
</clustering>
</event>
<event>
 6    0  0.6549018E+002  0.6414469E+02  0.7546771E-02  0.1381218E+00
         21   -1    0    0  505  501  0.00000000000E+00  0.00000000000E+00  0.65243482325E+02  0.65243482325E+02  0.00000000000E+00 0. -1.
         21   -1    0    0  506  502 -0.00000000000E+00 -0.00000000000E+00 -0.47301371089E+03  0.47301371089E+03  0.00000000000E+00 0. -1.
         21    1    1    2  503  502  0.23688853225E+02  0.10179052020E+03 -0.18605748238E+03  0.21340069944E+03  0.00000000000E+00 0. -1.
         21    1    1    2  504  503  0.16395297670E+02 -0.49201513845E+02 -0.40101048234E+02  0.65556760290E+02  0.00000000000E+00 0. -1.
         21    1    1    2  505  504 -0.40706441244E+02  0.16604942568E+01  0.23569591040E+02  0.47066944045E+02  0.00000000000E+00 0. -1.
         21    1    1    2  506  501  0.62229034880E+00 -0.54249500616E+02 -0.20518128899E+03  0.21223278944E+03  0.00000000000E+00 0. -1.
<scales pt_clust_3="14000.00000" pt_clust_4="48.50396" pt_clust_5="40.74029" pt_clust_6="64.14469"></scales>
<clustering>
<clus scale="   40.740">  1  5  2 -1</clus>
<clus scale="   48.504">  1  4  2 -1</clus>
<clus scale="   64.145">  2  6  1 -1</clus>
<clus scale="   40.740">  1  3  2 -1</clus>
</clustering>
</event>
<event>
 6    0  0.6549018E+002  0.1008715E+03  0.7546771E-02  0.1278474E+00
         21   -1    0    0  504  501  0.00000000000E+00  0.00000000000E+00  0.19072943299E+03  0.19072943299E+03  0.00000000000E+00 0.  1.
         21   -1    0    0  503  502 -0.00000000000E+00 -0.00000000000E+00 -0.95077881764E+03  0.95077881764E+03  0.00000000000E+00 0.  1.
         21    1    1    2  503  501 -0.38539514993E+02  0.10765261822E+02 -0.15406393510E+02  0.42878223365E+02  0.00000000000E+00 0.  1.
         21    1    1    2  504  506 -0.49438513069E+02 -0.63040884956E+02  0.15939744707E+03  0.17839805460E+03  0.00000000000E+00 0.  1.
         21    1    1    2  505  502  0.22550625774E+02 -0.26849377300E+02 -0.56502353065E+02  0.66497636695E+02  0.00000000000E+00 0.  1.
         21    1    1    2  506  505  0.65427402288E+02  0.79125000434E+02 -0.84753808514E+03  0.85373433598E+03  0.00000000000E+00 0.  1.
<scales pt_clust_3="39.07173" pt_clust_4="100.87152" pt_clust_5="35.06308" pt_clust_6="14000.00000"></scales>
<clustering>
<clus scale="   35.063">  2  5  1 -1</clus>
<clus scale="   39.072">  1  3  2 -1</clus>
<clus scale="  100.872">  1  4  2 -1</clus>
<clus scale="   39.072">  1  3  2 -1</clus>
</clustering>
</event>
<event>
 6    0  0.6549018E+002  0.1214903E+03  0.7546771E-02  0.1240659E+00
         21   -1    0    0  506  501  0.00000000000E+00  0.00000000000E+00  0.68762123085E+03  0.68762123085E+03  0.00000000000E+00 0. -1.
         21   -1    0    0  505  502 -0.00000000000E+00 -0.00000000000E+00 -0.17641649582E+04  0.17641649582E+04  0.00000000000E+00 0.  1.
         21    1    1    2  503  501  0.80116640953E+02  0.13958657288E+02  0.45241569347E+03  0.45966670531E+03  0.00000000000E+00 0. -1.
         21    1    1    2  504  503  0.21168810016E+02 -0.84416932308E+02  0.21910838240E+03  0.23576009038E+03  0.00000000000E+00 0.  1.
         21    1    1    2  505  504 -0.90321924982E+02  0.79608425781E+01 -0.13705772128E+04  0.13735731948E+04  0.00000000000E+00 0.  1.
         21    1    1    2  506  502 -0.10963525987E+02  0.62497432442E+02 -0.37749059037E+03  0.38278619853E+03  0.00000000000E+00 0.  1.
<scales pt_clust_3="81.32353" pt_clust_4="121.49028" pt_clust_5="14000.00000" pt_clust_6="63.45178"></scales>
<clustering>
<clus scale="   63.452">  2  6  1 -1</clus>
<clus scale="   81.324">  1  3  2 -1</clus>
<clus scale="  121.490">  1  4  2 -1</clus>
<clus scale="   81.324">  1  3  2 -1</clus>
</clustering>
</event>
<event>
 6    0  0.6549018E+002  0.1534998E+03  0.7546771E-02  0.1196237E+00
         21   -1    0    0  504  501  0.00000000000E+00  0.00000000000E+00  0.10739869963E+04  0.10739869963E+04  0.00000000000E+00 0.  1.
         21   -1    0    0  505  502 -0.00000000000E+00 -0.00000000000E+00 -0.65321235551E+02  0.65321235551E+02  0.00000000000E+00 0. -1.
         21    1    1    2  503  506  0.49374591194E+02  0.71747235211E+02  0.63801366455E+02  0.10796356042E+03  0.00000000000E+00 0. -1.
         21    1    1    2  504  502 -0.51640231930E+02 -0.16724592926E+03  0.76701801664E+03  0.78673664734E+03  0.00000000000E+00 0.  1.
         21    1    1    2  505  503  0.44786957614E+02  0.37462830667E+02  0.64757077114E+01  0.58747510963E+02  0.00000000000E+00 0. -1.
         21    1    1    2  506  501 -0.42521316878E+02  0.58035863387E+02  0.17137066995E+03  0.18586051315E+03  0.00000000000E+00 0. -1.
<scales pt_clust_3="37.16680" pt_clust_4="146.63464" pt_clust_5="37.16680" pt_clust_6="71.94598"></scales>
<clustering>
<clus scale="   37.167">  3  5 -1 -1</clus>
<clus scale="   71.946">  1  6  2 -1</clus>
<clus scale="  146.635">  1  4  2 -1</clus>
<clus scale="   71.946">  1  3  2 -1</clus>
</clustering>
</event>
<event>
 6    0  0.6549018E+002  0.1144836E+03  0.7546771E-02  0.1252485E+00
         21   -1    0    0  505  501  0.00000000000E+00  0.00000000000E+00  0.67508506178E+03  0.67508506178E+03  0.00000000000E+00 0.  1.
         21   -1    0    0  506  502 -0.00000000000E+00 -0.00000000000E+00 -0.43770462602E+03  0.43770462602E+03  0.00000000000E+00 0.  1.
         21    1    1    2  503  502  0.61864262173E+02  0.19360570624E+02  0.16130602456E+03  0.17384375798E+03  0.00000000000E+00 0.  1.
         21    1    1    2  504  501  0.63618985445E+02 -0.10390360821E+01  0.72578034208E+00  0.63631608985E+02  0.00000000000E+00 0.  1.
         21    1    1    2  505  503 -0.25074780400E+02  0.41978227796E+02  0.46544919173E+03  0.46801054081E+03  0.00000000000E+00 0.  1.
         21    1    1    2  506  504 -0.10040846722E+03 -0.60299762338E+02 -0.39010056088E+03  0.40730378003E+03  0.00000000000E+00 0.  1.
<scales pt_clust_3="14000.00000" pt_clust_4="59.99392" pt_clust_5="48.89700" pt_clust_6="114.48358"></scales>
<clustering>
<clus scale="   48.897">  1  5  2 -1</clus>
<clus scale="   59.994">  1  4  2 -1</clus>
<clus scale="  114.484">  2  6  1 -1</clus>
<clus scale="   48.897">  1  3  2 -1</clus>
</clustering>
</event>
<event>
 6    0  0.6549018E+002  0.1137612E+03  0.7546771E-02  0.1253759E+00
         21   -1    0    0  506  501  0.00000000000E+00  0.00000000000E+00  0.12699367596E+04  0.12699367596E+04  0.00000000000E+00 0. -1.
         21   -1    0    0  505  502 -0.00000000000E+00 -0.00000000000E+00 -0.22323016109E+03  0.22323016109E+03  0.00000000000E+00 0.  1.
         21    1    1    2  503  502  0.67996105261E+02  0.13095503701E+03 -0.17143031404E+03  0.22618807356E+03  0.00000000000E+00 0.  1.
         21    1    1    2  504  501  0.10576765288E+02 -0.28199929834E+02  0.77448017192E+03  0.77506557187E+03  0.00000000000E+00 0. -1.
         21    1    1    2  505  504 -0.39955398692E+02 -0.19200224598E+02  0.60614338683E+01  0.44741742141E+02  0.00000000000E+00 0. -1.
         21    1    1    2  506  503 -0.38617471858E+02 -0.83554882583E+02  0.43759530681E+03  0.44717153317E+03  0.00000000000E+00 0.  1.
<scales pt_clust_3="14000.00000" pt_clust_4="30.11817" pt_clust_5="44.49341" pt_clust_6="113.76123"></scales>
<clustering>
<clus scale="   30.118">  1  4  2 -1</clus>
<clus scale="   44.493">  2  5  1 -1</clus>
<clus scale="  113.761">  1  6  2 -1</clus>
<clus scale="   30.118">  1  3  2 -1</clus>
</clustering>
</event>
<event>
 6    0  0.6549018E+002  0.2140684E+03  0.7546771E-02  0.1138384E+00
         21   -1    0    0  503  501  0.00000000000E+00  0.00000000000E+00  0.44260228851E+03  0.44260228851E+03  0.00000000000E+00 0.  1.
         21   -1    0    0  501  502 -0.00000000000E+00 -0.00000000000E+00 -0.14729965588E+03  0.14729965588E+03  0.00000000000E+00 0.  1.
         21    1    1    2  503  504 -0.16461247129E+00 -0.20090050937E+03  0.23524077018E+03  0.30935297270E+03  0.00000000000E+00 0.  1.
         21    1    1    2  504  505  0.47366419044E+01  0.63753120174E+02  0.44756698168E+02  0.78038824564E+02  0.00000000000E+00 0.  1.
         21    1    1    2  505  506  0.46261432885E+02  0.14221176547E+03  0.13494910315E+01  0.14955309270E+03  0.00000000000E+00 0.  1.
         21    1    1    2  506  502 -0.50833462318E+02 -0.50643762812E+01  0.13955673250E+02  0.52957054433E+02  0.00000000000E+00 0. -1.
<scales pt_clust_3="202.91704" pt_clust_4="44.58454" pt_clust_5="44.58454" pt_clust_6="51.08511"></scales>
<clustering>
<clus scale="   44.585">  4  5 -1 -1</clus>
<clus scale="   51.085">  2  6  1 -1</clus>
<clus scale="  202.917">  1  3  2 -1</clus>
<clus scale="  202.917">  1  3  2 -1</clus>
</clustering>
</event>
<event>
 6    0  0.6549018E+002  0.6745119E+02  0.7546771E-02  0.1368981E+00
         21   -1    0    0  506  501  0.00000000000E+00  0.00000000000E+00  0.31502224366E+03  0.31502224366E+03  0.00000000000E+00 0. -1.
         21   -1    0    0  503  502 -0.00000000000E+00 -0.00000000000E+00 -0.39304975353E+03  0.39304975353E+03  0.00000000000E+00 0. -1.
         21    1    1    2  503  505  0.37416198823E+02 -0.51902520641E+01 -0.22986611844E+03  0.23294922849E+03  0.00000000000E+00 0. -1.
         21    1    1    2  504  501  0.16843847382E+02 -0.50418124422E+02  0.75679235523E+02  0.92482696512E+02  0.00000000000E+00 0. -1.
         21    1    1    2  505  504  0.17614755874E+02 -0.37895982004E+02 -0.13470335372E+03  0.14103679868E+03  0.00000000000E+00 0. -1.
         21    1    1    2  506  502 -0.71874802078E+02  0.93504358490E+02  0.21086272677E+03  0.24160327351E+03  0.00000000000E+00 0. -1.
<scales pt_clust_3="37.77447" pt_clust_4="54.05808" pt_clust_5="14000.00000" pt_clust_6="67.45119"></scales>
<clustering>
<clus scale="   37.774">  2  3  1 -1</clus>
<clus scale="   54.058">  1  4  2 -1</clus>
<clus scale="   67.451">  1  6  2 -1</clus>
<clus scale="   54.058">  1  3  2 -1</clus>
</clustering>
</event>
<event>
 6    0  0.6549018E+002  0.1320208E+03  0.7546771E-02  0.1224488E+00
         21   -1    0    0  503  501  0.00000000000E+00  0.00000000000E+00  0.11558625987E+04  0.11558625987E+04  0.00000000000E+00 0. -1.
         21   -1    0    0  504  502 -0.00000000000E+00 -0.00000000000E+00 -0.95050561044E+02  0.95050561044E+02  0.00000000000E+00 0. -1.
         21    1    1    2  503  502 -0.66757547062E+01  0.13248362287E+03 -0.33045225876E+02  0.13670575329E+03  0.00000000000E+00 0. -1.
         21    1    1    2  504  506  0.14529466670E+02 -0.54538958972E+02  0.20888421389E+03  0.21637517940E+03  0.00000000000E+00 0. -1.
         21    1    1    2  505  501 -0.28822698370E+02 -0.43756787064E+02  0.81865465101E+03  0.82032971541E+03  0.00000000000E+00 0. -1.
         21    1    1    2  506  505  0.20968986406E+02 -0.34187876837E+02  0.66318398576E+02  0.77502511593E+02  0.00000000000E+00 0. -1.
<scales pt_clust_3="126.23175" pt_clust_4="32.59362" pt_clust_5="52.39661" pt_clust_6="32.59362"></scales>
<clustering>
<clus scale="   32.594">  4  6 -1 -1</clus>
<clus scale="   52.397">  1  5  2 -1</clus>
<clus scale="  126.232">  2  3  1 -1</clus>
<clus scale="   52.397">  1  3  2 -1</clus>
</clustering>
</event>
<event>
 6    0  0.6549018E+002  0.1270333E+03  0.7546771E-02  0.1231925E+00
         21   -1    0    0  505  501  0.00000000000E+00  0.00000000000E+00  0.93974342954E+03  0.93974342954E+03  0.00000000000E+00 0.  1.
         21   -1    0    0  506  502 -0.00000000000E+00 -0.00000000000E+00 -0.11624340135E+03  0.11624340135E+03  0.00000000000E+00 0.  1.
         21    1    1    2  503  501 -0.37541732521E+02  0.49136927183E+01  0.22445123223E+03  0.22762223465E+03  0.00000000000E+00 0.  1.
         21    1    1    2  504  502  0.47140780290E+02  0.51703816552E+02  0.21214224803E+01  0.70000273183E+02  0.00000000000E+00 0. -1.
         21    1    1    2  505  504 -0.12769335115E+02 -0.12948030063E+03  0.65333497788E+03  0.66616424213E+03  0.00000000000E+00 0.  1.
         21    1    1    2  506  503  0.31702873453E+01  0.72862791356E+02 -0.56407604407E+02  0.92200080917E+02  0.00000000000E+00 0.  1.
<scales pt_clust_3="37.86193" pt_clust_4="68.89146" pt_clust_5="127.03331" pt_clust_6="14000.00000"></scales>
<clustering>
<clus scale="   37.862">  1  3  2 -1</clus>
<clus scale="   68.891">  2  4  1 -1</clus>
<clus scale="  127.033">  1  5  2 -1</clus>
<clus scale="   37.862">  1  3  2 -1</clus>
</clustering>
</event>
<event>
 6    0  0.6549018E+002  0.8800383E+02  0.7546771E-02  0.1307759E+00
         21   -1    0    0  505  501  0.00000000000E+00  0.00000000000E+00  0.66269671882E+03  0.66269671882E+03  0.00000000000E+00 0. -1.
         21   -1    0    0  506  502 -0.00000000000E+00 -0.00000000000E+00 -0.14598181144E+03  0.14598181144E+03  0.00000000000E+00 0.  1.
         21    1    1    2  503  501  0.91455359372E+02  0.54183316978E+02  0.50285335668E+03  0.51396635388E+03  0.00000000000E+00 0. -1.
         21    1    1    2  504  503 -0.55183155164E+02 -0.28571362298E+02  0.11469913623E+03  0.13045073864E+03  0.00000000000E+00 0. -1.
         21    1    1    2  505  502  0.37261908744E+02 -0.13797851618E+02 -0.10546503442E+01  0.39748494813E+02  0.00000000000E+00 0.  1.
         21    1    1    2  506  504 -0.73534112952E+02 -0.11814103062E+02 -0.99782935201E+02  0.12451294293E+03  0.00000000000E+00 0.  1.
<scales pt_clust_3="88.00383" pt_clust_4="14000.00000" pt_clust_5="39.73450" pt_clust_6="46.93871"></scales>
<clustering>
<clus scale="   39.735">  2  5  1 -1</clus>
<clus scale="   46.939">  2  6  1 -1</clus>
<clus scale="   88.004">  1  3  2 -1</clus>
<clus scale="   88.004">  1  3  2 -1</clus>
</clustering>
</event>
<event>
 6    0  0.6549018E+002  0.1130901E+03  0.7546771E-02  0.1254952E+00
         21   -1    0    0  504  501  0.00000000000E+00  0.00000000000E+00  0.25685631514E+04  0.25685631514E+04  0.00000000000E+00 0. -1.
         21   -1    0    0  501  502 -0.00000000000E+00 -0.00000000000E+00 -0.14171611082E+03  0.14171611082E+03  0.00000000000E+00 0.  1.
         21    1    1    2  503  505  0.30736640079E+02  0.88584074367E+02 -0.62979523110E+02  0.11295264320E+03  0.00000000000E+00 0.  1.
         21    1    1    2  504  506 -0.30891377789E+02 -0.35451327477E+02  0.16715825199E+04  0.16722437606E+04  0.00000000000E+00 0. -1.
         21    1    1    2  505  502 -0.19542082679E+02  0.26508041065E+02 -0.46210053062E+02  0.56744499650E+02  0.00000000000E+00 0.  1.
         21    1    1    2  506  503  0.19696820390E+02 -0.79640787955E+02  0.86445409681E+03  0.86833835878E+03  0.00000000000E+00 0. -1.
<scales pt_clust_3="113.09011" pt_clust_4="46.99602" pt_clust_5="32.93280" pt_clust_6="14000.00000"></scales>
<clustering>
<clus scale="   32.933">  2  5  1 -1</clus>
<clus scale="   46.996">  1  4  2 -1</clus>
<clus scale="  113.090">  2  3  1 -1</clus>
<clus scale="   46.996">  1  3  2 -1</clus>
</clustering>
</event>
<event>
 6    0  0.6549018E+002  0.1574859E+03  0.7546771E-02  0.1191565E+00
         21   -1    0    0  505  501  0.00000000000E+00  0.00000000000E+00  0.30497524072E+03  0.30497524072E+03  0.00000000000E+00 0.  1.
         21   -1    0    0  504  502 -0.00000000000E+00 -0.00000000000E+00 -0.43713304679E+03  0.43713304679E+03  0.00000000000E+00 0.  1.
         21    1    1    2  503  501  0.18340258342E+02  0.36063754128E+02  0.75582001989E+02  0.85729799152E+02  0.00000000000E+00 0. -1.
         21    1    1    2  504  506  0.18146478477E+02 -0.11051712099E+03 -0.34390558979E+03  0.36168271095E+03  0.00000000000E+00 0.  1.
         21    1    1    2  505  502  0.59634946634E+02 -0.37346624613E+02 -0.26467840465E+02  0.75177415550E+02  0.00000000000E+00 0.  1.
         21    1    1    2  506  503 -0.96121683453E+02  0.11179999148E+03  0.16263362219E+03  0.21951836186E+03  0.00000000000E+00 0.  1.
<scales pt_clust_3="40.45936" pt_clust_4="157.48586" pt_clust_5="70.11010" pt_clust_6="14000.00000"></scales>
<clustering>
<clus scale="   40.459">  1  3  2 -1</clus>
<clus scale="   70.110">  2  5  1 -1</clus>
<clus scale="  157.486">  2  4  1 -1</clus>
<clus scale="   40.459">  1  3  2 -1</clus>
</clustering>
</event>
<event>
 6    0  0.6549018E+002  0.1063419E+03  0.7546771E-02  0.1267498E+00
         21   -1    0    0  504  501  0.00000000000E+00  0.00000000000E+00  0.10268169252E+04  0.10268169252E+04  0.00000000000E+00 0.  1.
         21   -1    0    0  506  502 -0.00000000000E+00 -0.00000000000E+00 -0.24231971569E+03  0.24231971569E+03  0.00000000000E+00 0.  1.
         21    1    1    2  503  505 -0.76587909106E+02  0.25043637198E+02 -0.62762853459E+02  0.10213749243E+03  0.00000000000E+00 0.  1.
         21    1    1    2  504  502  0.92423309738E+02  0.82703528196E+01  0.30225106560E+03  0.31617427722E+03  0.00000000000E+00 0.  1.
         21    1    1    2  505  501  0.13286338091E+02 -0.46199708492E+02  0.69542005412E+03  0.69707961634E+03  0.00000000000E+00 0.  1.
         21    1    1    2  506  503 -0.29121738722E+02  0.12885718475E+02 -0.15041105676E+03  0.15374525489E+03  0.00000000000E+00 0.  1.
<scales pt_clust_3="106.34195" pt_clust_4="14000.00000" pt_clust_5="47.88488" pt_clust_6="31.84521"></scales>
<clustering>
<clus scale="   31.845">  2  6  1 -1</clus>
<clus scale="   47.885">  1  5  2 -1</clus>
<clus scale="  106.342">  2  3  1 -1</clus>
<clus scale="   47.885">  1  3  2 -1</clus>
</clustering>
</event>
<event>
 6    0  0.6549018E+002  0.1568191E+03  0.7546771E-02  0.1192335E+00
         21   -1    0    0  504  501  0.00000000000E+00  0.00000000000E+00  0.58560919818E+03  0.58560919818E+03  0.00000000000E+00 0.  1.
         21   -1    0    0  503  502 -0.00000000000E+00 -0.00000000000E+00 -0.11644524965E+03  0.11644524965E+03  0.00000000000E+00 0. -1.
         21    1    1    2  503  501  0.14322931044E+03  0.12066503394E+03  0.31169714610E+03  0.36363415224E+03  0.00000000000E+00 0.  1.
         21    1    1    2  504  506 -0.32835725475E+02 -0.24834253897E+02  0.88103408951E+02  0.97247805646E+02  0.00000000000E+00 0.  1.
         21    1    1    2  505  502 -0.83147819762E+02 -0.12690104588E+03 -0.96327363779E+01  0.15202047555E+03  0.00000000000E+00 0. -1.
         21    1    1    2  506  505 -0.27245765207E+02  0.31070265837E+02  0.78996129850E+02  0.89152014404E+02  0.00000000000E+00 0.  1.
<scales pt_clust_3="156.81911" pt_clust_4="41.16947" pt_clust_5="14000.00000" pt_clust_6="42.41422"></scales>
<clustering>
<clus scale="   41.169">  1  4  2 -1</clus>
<clus scale="   42.414">  1  6  2 -1</clus>
<clus scale="  156.819">  1  3  2 -1</clus>
<clus scale="   41.169">  1  3  2 -1</clus>
</clustering>
</event>
<event>
 6    0  0.6549018E+002  0.1586249E+03  0.7546771E-02  0.1190258E+00
         21   -1    0    0  504  501  0.00000000000E+00  0.00000000000E+00  0.59200416259E+02  0.59200416259E+02  0.00000000000E+00 0.  1.
         21   -1    0    0  505  502 -0.00000000000E+00 -0.00000000000E+00 -0.16603219682E+04  0.16603219682E+04  0.00000000000E+00 0.  1.
         21    1    1    2  503  506 -0.16758026134E+02 -0.11370304074E+03 -0.26081002083E+03  0.28501066625E+03  0.00000000000E+00 0.  1.
         21    1    1    2  504  503 -0.10573494511E+02 -0.56481917118E+02  0.12571129082E+02  0.58822096476E+02  0.00000000000E+00 0.  1.
         21    1    1    2  505  501  0.21790968298E+02  0.20867988757E+03 -0.10995897865E+04  0.11194283542E+04  0.00000000000E+00 0.  1.
         21    1    1    2  506  502  0.55405523472E+01 -0.38494929721E+02 -0.25329287368E+03  0.25626126744E+03  0.00000000000E+00 0.  1.
<scales pt_clust_3="158.62486" pt_clust_4="58.06922" pt_clust_5="14000.00000" pt_clust_6="38.89161"></scales>
<clustering>
<clus scale="   38.892">  2  6  1 -1</clus>
<clus scale="   58.069">  1  4  2 -1</clus>
<clus scale="  158.625">  1  3  2 -1</clus>
<clus scale="   58.069">  1  3  2 -1</clus>
</clustering>
</event>
<event>
 6    0  0.6549018E+002  0.5311601E+02  0.7546771E-02  0.1429224E+00
         21   -1    0    0  503  501  0.00000000000E+00  0.00000000000E+00  0.37544090755E+02  0.37544090755E+02  0.00000000000E+00 0. -1.
         21   -1    0    0  505  502 -0.00000000000E+00 -0.00000000000E+00 -0.96656270875E+03  0.96656270875E+03  0.00000000000E+00 0. -1.
         21    1    1    2  503  506  0.47981053965E+02  0.37033180946E+01 -0.76780879847E+02  0.90615669808E+02  0.00000000000E+00 0.  1.
         21    1    1    2  504  501 -0.80215931841E+02 -0.31730576470E+02 -0.51295459050E+02  0.10036258926E+03  0.00000000000E+00 0. -1.
         21    1    1    2  505  504  0.42342654592E+02 -0.33540628894E+02 -0.60696858216E+03  0.60936748676E+03  0.00000000000E+00 0. -1.
         21    1    1    2  506  502 -0.10107776717E+02  0.61567887270E+02 -0.19397369693E+03  0.20376105367E+03  0.00000000000E+00 0. -1.
<scales pt_clust_3="48.12376" pt_clust_4="50.72465" pt_clust_5="14000.00000" pt_clust_6="53.11601"></scales>
<clustering>
<clus scale="   48.124">  1  3  2 -1</clus>
<clus scale="   50.725">  1  4  2 -1</clus>
<clus scale="   53.116">  1  6  2 -1</clus>
<clus scale="   48.124">  1  3  2 -1</clus>
</clustering>
</event>
<event>
 6    0  0.6549018E+002  0.9125970E+02  0.7546771E-02  0.1299829E+00
         21   -1    0    0  504  501  0.00000000000E+00  0.00000000000E+00  0.25599278770E+03  0.25599278770E+03  0.00000000000E+00 0. -1.
         21   -1    0    0  503  502 -0.00000000000E+00 -0.00000000000E+00 -0.11030366715E+04  0.11030366715E+04  0.00000000000E+00 0. -1.
         21    1    1    2  503  505 -0.33023318883E+01  0.35321569286E+02 -0.82904807954E+03  0.82980674669E+03  0.00000000000E+00 0. -1.
         21    1    1    2  504  502  0.82814289411E+01 -0.10538970333E+03 -0.31628036272E+02  0.11034448021E+03  0.00000000000E+00 0. -1.
         21    1    1    2  505  506  0.46192143833E+02 -0.51102334768E+01 -0.19013823870E+03  0.19573548082E+03  0.00000000000E+00 0. -1.
         21    1    1    2  506  501 -0.51171240885E+02  0.75178367524E+02  0.20377047067E+03  0.22314275152E+03  0.00000000000E+00 0. -1.
<scales pt_clust_3="35.47561" pt_clust_4="91.25970" pt_clust_5="48.12405" pt_clust_6="14000.00000"></scales>
<clustering>
<clus scale="   35.476">  2  3  1 -1</clus>
<clus scale="   48.124">  2  5  1 -1</clus>
<clus scale="   91.260">  2  4  1 -1</clus>
<clus scale="   91.260">  1  3  2 -1</clus>
</clustering>
</event>
<event>
 6    0  0.6549018E+002  0.1587995E+03  0.7546771E-02  0.1190059E+00
         21   -1    0    0  505  501  0.00000000000E+00  0.00000000000E+00  0.48102903110E+03  0.48102903110E+03  0.00000000000E+00 0. -1.
         21   -1    0    0  503  502 -0.00000000000E+00 -0.00000000000E+00 -0.60542026521E+03  0.60542026521E+03  0.00000000000E+00 0. -1.
         21    1    1    2  503  504  0.67873649800E+01 -0.68015433188E+02 -0.16233606291E+03  0.17613961734E+03  0.00000000000E+00 0. -1.
         21    1    1    2  504  506  0.53015800589E+02 -0.63409819920E+02 -0.41524822902E+03  0.42339410964E+03  0.00000000000E+00 0. -1.
         21    1    1    2  505  502 -0.65267158230E+02  0.26015822227E+02  0.21998980718E+03  0.23093752448E+03  0.00000000000E+00 0. -1.
         21    1    1    2  506  501  0.54639926607E+01  0.10540943088E+03  0.23320325064E+03  0.25597804485E+03  0.00000000000E+00 0. -1.
<scales pt_clust_3="64.22686" pt_clust_4="64.22686" pt_clust_5="70.26112" pt_clust_6="142.22952"></scales>
<clustering>
<clus scale="   64.227">  3  4 -1 -1</clus>
<clus scale="   70.261">  1  5  2 -1</clus>
<clus scale="  142.230">  1  6  2 -1</clus>
<clus scale="   70.261">  1  3  2 -1</clus>
</clustering>
</event>
<event>
 6    0  0.6549018E+002  0.1190342E+03  0.7546771E-02  0.1244699E+00
         21   -1    0    0  506  501  0.00000000000E+00  0.00000000000E+00  0.27100810079E+03  0.27100810079E+03  0.00000000000E+00 0. -1.
         21   -1    0    0  503  502 -0.00000000000E+00 -0.00000000000E+00 -0.14395656917E+04  0.14395656917E+04  0.00000000000E+00 0.  1.
         21    1    1    2  503  501  0.62010839796E+01 -0.14126759684E+03 -0.11670215663E+04  0.11755570269E+04  0.00000000000E+00 0.  1.
         21    1    1    2  504  502 -0.47811914191E+02  0.28766963678E+02 -0.22849744404E+03  0.23521181788E+03  0.00000000000E+00 0.  1.
         21    1    1    2  505  504  0.10043621630E+03  0.59721342616E+02  0.13629523762E+03  0.17952844930E+03  0.00000000000E+00 0. -1.
         21    1    1    2  506  505 -0.58825386085E+02  0.52779290542E+02  0.90666181757E+02  0.12027649842E+03  0.00000000000E+00 0. -1.
<scales pt_clust_3="119.03416" pt_clust_4="55.79890" pt_clust_5="14000.00000" pt_clust_6="79.70402"></scales>
<clustering>
<clus scale="   55.799">  2  4  1 -1</clus>
<clus scale="   79.704">  1  6  2 -1</clus>
<clus scale="  119.034">  2  3  1 -1</clus>
<clus scale="   79.704">  1  3  2 -1</clus>
</clustering>
</event>
<event>
 6    0  0.6549018E+002  0.2802756E+03  0.7546771E-02  0.1095539E+00
         21   -1    0    0  503  501  0.00000000000E+00  0.00000000000E+00  0.22579475298E+03  0.22579475298E+03  0.00000000000E+00 0.  1.
         21   -1    0    0  506  502 -0.00000000000E+00 -0.00000000000E+00 -0.12360382180E+04  0.12360382180E+04  0.00000000000E+00 0.  1.
         21    1    1    2  503  504 -0.56187476377E+02  0.33419219588E+01 -0.17398901642E+02  0.58914537445E+02  0.00000000000E+00 0. -1.
         21    1    1    2  504  502  0.11035916342E+03  0.33898685732E+03 -0.73543243839E+03  0.81728336935E+03  0.00000000000E+00 0.  1.
         21    1    1    2  505  501 -0.32421254990E+02 -0.25779573876E+03  0.51280951771E+02  0.26483866166E+03  0.00000000000E+00 0.  1.
         21    1    1    2  506  505 -0.21750432055E+02 -0.84533040518E+02 -0.30869307678E+03  0.32079640254E+03  0.00000000000E+00 0. -1.
<scales pt_clust_3="56.28677" pt_clust_4="14000.00000" pt_clust_5="280.27557" pt_clust_6="87.61929"></scales>
<clustering>
<clus scale="   56.287">  1  3  2 -1</clus>
<clus scale="   87.619">  2  6  1 -1</clus>
<clus scale="  280.276">  1  5  2 -1</clus>
<clus scale="   56.287">  1  3  2 -1</clus>
</clustering>
</event>
<event>
 6    0  0.6549018E+002  0.1116437E+03  0.7546771E-02  0.1257556E+00
         21   -1    0    0  505  501  0.00000000000E+00  0.00000000000E+00  0.17835018268E+04  0.17835018268E+04  0.00000000000E+00 0.  1.
         21   -1    0    0  503  502 -0.00000000000E+00 -0.00000000000E+00 -0.53405577720E+03  0.53405577720E+03  0.00000000000E+00 0.  1.
         21    1    1    2  503  504 -0.87567083586E+01  0.11323595830E+03 -0.39600767569E+03  0.41197225804E+03  0.00000000000E+00 0.  1.
         21    1    1    2  504  501  0.21206713957E+02  0.22110377145E+02  0.71332569867E+02  0.77633298385E+02  0.00000000000E+00 0. -1.
         21    1    1    2  505  506  0.34117402129E+02 -0.29303912307E+02  0.16742494484E+04  0.16748534061E+04  0.00000000000E+00 0.  1.
         21    1    1    2  506  502 -0.46567407727E+02 -0.10604242314E+03 -0.10012829299E+03  0.15309864148E+03  0.00000000000E+00 0.  1.
<scales pt_clust_3="111.64371" pt_clust_4="30.63647" pt_clust_5="55.42543" pt_clust_6="14000.00000"></scales>
<clustering>
<clus scale="   30.636">  1  4  2 -1</clus>
<clus scale="   55.425">  1  5  2 -1</clus>
<clus scale="  111.644">  2  3  1 -1</clus>
<clus scale="   30.636">  1  3  2 -1</clus>
</clustering>
</event>
<event>
 6    0  0.6549018E+002  0.1530386E+03  0.7546771E-02  0.1196788E+00
         21   -1    0    0  505  501  0.00000000000E+00  0.00000000000E+00  0.71824922281E+03  0.71824922281E+03  0.00000000000E+00 0. -1.
         21   -1    0    0  504  502 -0.00000000000E+00 -0.00000000000E+00 -0.61628481176E+02  0.61628481176E+02  0.00000000000E+00 0. -1.
         21    1    1    2  503  501  0.80829428553E+01  0.14349642550E+03  0.29527005592E+03  0.32839147982E+03  0.00000000000E+00 0. -1.
         21    1    1    2  504  506  0.36673506508E+02  0.12002775116E+02  0.23862527727E+02  0.45369956135E+02  0.00000000000E+00 0.  1.
         21    1    1    2  505  502 -0.90081013855E+02 -0.15603951830E+03  0.25959600648E+03  0.31599526406E+03  0.00000000000E+00 0. -1.
         21    1    1    2  506  503  0.45324564491E+02  0.54031768348E+00  0.77892151506E+02  0.90121003965E+02  0.00000000000E+00 0. -1.
<scales pt_clust_3="14000.00000" pt_clust_4="30.91635" pt_clust_5="153.03859" pt_clust_6="89.46388"></scales>
<clustering>
<clus scale="   30.916">  4  6 -1 -1</clus>
<clus scale="   89.464">  2  4  1 -1</clus>
<clus scale="  153.039">  2  5  1 -1</clus>
<clus scale="  153.039">  1  3  2 -1</clus>
</clustering>
</event>
<event>
 6    0  0.6549018E+002  0.1613207E+03  0.7546771E-02  0.1187214E+00
         21   -1    0    0  506  501  0.00000000000E+00  0.00000000000E+00  0.73317461318E+03  0.73317461318E+03  0.00000000000E+00 0.  1.
         21   -1    0    0  501  502 -0.00000000000E+00 -0.00000000000E+00 -0.53975504588E+03  0.53975504588E+03  0.00000000000E+00 0.  1.
         21    1    1    2  503  505  0.42944952785E+02 -0.12746444300E+03 -0.37714194395E+03  0.40040916459E+03  0.00000000000E+00 0.  1.
         21    1    1    2  504  503 -0.15678626465E+03  0.14859877995E+03  0.31631739969E+03  0.38304076484E+03  0.00000000000E+00 0.  1.
         21    1    1    2  505  502 -0.39932237424E+02 -0.25467754921E+02 -0.95941074547E+02  0.10699476581E+03  0.00000000000E+00 0.  1.
         21    1    1    2  506  504  0.15377354929E+03  0.43334179782E+01  0.35018518611E+03  0.38248496381E+03  0.00000000000E+00 0.  1.
<scales pt_clust_3="150.24371" pt_clust_4="161.32067" pt_clust_5="47.36233" pt_clust_6="14000.00000"></scales>
<clustering>
<clus scale="   47.362">  2  5  1 -1</clus>
<clus scale="  150.244">  2  3  1 -1</clus>
<clus scale="  161.321">  2  4  1 -1</clus>
<clus scale="  161.321">  1  3  2 -1</clus>
</clustering>
</event>
<event>
 6    0  0.6549018E+002  0.1779221E+03  0.7546771E-02  0.1169829E+00
         21   -1    0    0  504  501  0.00000000000E+00  0.00000000000E+00  0.27246769717E+03  0.27246769717E+03  0.00000000000E+00 0.  1.
         21   -1    0    0  503  502 -0.00000000000E+00 -0.00000000000E+00 -0.90357336491E+03  0.90357336491E+03  0.00000000000E+00 0. -1.
         21    1    1    2  503  505  0.37961852525E+02 -0.50185302570E+02 -0.20749492927E+03  0.21682668774E+03  0.00000000000E+00 0. -1.
         21    1    1    2  504  506 -0.39634213080E+02  0.22304372665E+02  0.72025567635E+02  0.85182382448E+02  0.00000000000E+00 0.  1.
         21    1    1    2  505  501 -0.89446011022E+01 -0.10908321867E+03 -0.65474149940E+03  0.66382647245E+03  0.00000000000E+00 0. -1.
         21    1    1    2  506  502  0.10616961657E+02  0.13696414858E+03  0.15910519329E+03  0.21020551944E+03  0.00000000000E+00 0.  1.
<scales pt_clust_3="57.84304" pt_clust_4="45.47918" pt_clust_5="57.84304" pt_clust_6="160.51917"></scales>
<clustering>
<clus scale="   45.479">  1  4  2 -1</clus>
<clus scale="   57.843">  3  5 -1 -1</clus>
<clus scale="  160.519">  1  6  2 -1</clus>
<clus scale="   45.479">  1  3  2 -1</clus>
</clustering>
</event>
<event>
 6    0  0.6549018E+002  0.2440322E+03  0.7546771E-02  0.1117136E+00
         21   -1    0    0  504  501  0.00000000000E+00  0.00000000000E+00  0.86641440748E+03  0.86641440748E+03  0.00000000000E+00 0.  1.
         21   -1    0    0  506  502 -0.00000000000E+00 -0.00000000000E+00 -0.38706212749E+03  0.38706212749E+03  0.00000000000E+00 0. -1.
         21    1    1    2  503  501 -0.30324596755E+02  0.12567905986E+03  0.51495227244E+02  0.13916380882E+03  0.00000000000E+00 0. -1.
         21    1    1    2  504  505  0.21534197520E+02 -0.52061994865E+02  0.23956639316E+03  0.24610207172E+03  0.00000000000E+00 0.  1.
         21    1    1    2  505  502  0.25175018508E+03 -0.78183082320E+02  0.44342837908E+03  0.51586769372E+03  0.00000000000E+00 0.  1.
         21    1    1    2  506  503 -0.24295978585E+03  0.45660173241E+01 -0.25513771950E+03  0.35234296071E+03  0.00000000000E+00 0. -1.
<scales pt_clust_3="120.78404" pt_clust_4="56.33980" pt_clust_5="244.03215" pt_clust_6="14000.00000"></scales>
<clustering>
<clus scale="   56.340">  1  4  2 -1</clus>
<clus scale="  120.784">  1  3  2 -1</clus>
<clus scale="  244.032">  1  5  2 -1</clus>
<clus scale="   56.340">  1  3  2 -1</clus>
</clustering>
</event>
<event>
 6    0  0.6549018E+002  0.1079006E+03  0.7546771E-02  0.1264508E+00
         21   -1    0    0  505  501  0.00000000000E+00  0.00000000000E+00  0.44803997304E+03  0.44803997304E+03  0.00000000000E+00 0. -1.
         21   -1    0    0  506  502 -0.00000000000E+00 -0.00000000000E+00 -0.10565247861E+03  0.10565247861E+03  0.00000000000E+00 0. -1.
         21    1    1    2  503  501  0.11348934445E+03  0.16548798646E+02  0.33637969951E+03  0.35539414216E+03  0.00000000000E+00 0. -1.
         21    1    1    2  504  503 -0.86699383643E+02 -0.20965474616E+02  0.48146333880E+02  0.10136273337E+03  0.00000000000E+00 0. -1.
         21    1    1    2  505  502  0.13308864049E+02  0.29169735232E+02  0.23247285739E+01  0.32146596689E+02  0.00000000000E+00 0.  1.
         21    1    1    2  506  504 -0.40098824853E+02 -0.24753059262E+02 -0.44463267522E+02  0.64788979434E+02  0.00000000000E+00 0. -1.
<scales pt_clust_3="14000.00000" pt_clust_4="107.90057" pt_clust_5="32.06243" pt_clust_6="32.88328"></scales>
<clustering>
<clus scale="   32.062">  2  5  1 -1</clus>
<clus scale="   32.883">  2  6  1 -1</clus>
<clus scale="  107.901">  2  4  1 -1</clus>
<clus scale="  107.901">  1  3  2 -1</clus>
</clustering>
</event>
<event>
 6    0  0.6549018E+002  0.1081310E+03  0.7546771E-02  0.1264071E+00
         21   -1    0    0  506  501  0.00000000000E+00  0.00000000000E+00  0.97317161515E+03  0.97317161515E+03  0.00000000000E+00 0. -1.
         21   -1    0    0  504  502 -0.00000000000E+00 -0.00000000000E+00 -0.20569413260E+03  0.20569413260E+03  0.00000000000E+00 0.  1.
         21    1    1    2  503  501 -0.89172210282E+01 -0.44981874826E+02  0.50117742992E+02  0.67931392275E+02  0.00000000000E+00 0.  1.
         21    1    1    2  504  505 -0.66135000569E+02 -0.88785733259E+02 -0.16724672790E+03  0.20056972036E+03  0.00000000000E+00 0.  1.
         21    1    1    2  505  503  0.68081897931E+02  0.50665719883E+02  0.16126808162E+03  0.18223488730E+03  0.00000000000E+00 0. -1.
         21    1    1    2  506  502  0.69703236659E+01  0.83101888203E+02  0.72333838584E+03  0.72812974782E+03  0.00000000000E+00 0. -1.
<scales pt_clust_3="45.85723" pt_clust_4="108.13103" pt_clust_5="14000.00000" pt_clust_6="47.39126"></scales>
<clustering>
<clus scale="   45.857">  1  3  2 -1</clus>
<clus scale="   47.391">  1  6  2 -1</clus>
<clus scale="  108.131">  2  4  1 -1</clus>
<clus scale="   45.857">  1  3  2 -1</clus>
</clustering>
</event>
<event>
 6    0  0.6549018E+002  0.1341097E+03  0.7546771E-02  0.1221482E+00
         21   -1    0    0  505  501  0.00000000000E+00  0.00000000000E+00  0.95885322338E+03  0.95885322338E+03  0.00000000000E+00 0.  1.
         21   -1    0    0  504  502 -0.00000000000E+00 -0.00000000000E+00 -0.17685094635E+03  0.17685094635E+03  0.00000000000E+00 0.  1.
         21    1    1    2  503  502  0.31310491396E+02 -0.40495934118E+02  0.16827548862E+02  0.53883522085E+02  0.00000000000E+00 0.  1.
         21    1    1    2  504  501 -0.85744371860E+02  0.12967228758E+03  0.14700519932E+03  0.21395683699E+03  0.00000000000E+00 0.  1.
         21    1    1    2  505  506  0.68128140063E+02  0.13774781618E+02  0.71944873102E+03  0.72279849518E+03  0.00000000000E+00 0.  1.
         21    1    1    2  506  503 -0.13694259600E+02 -0.10295113508E+03 -0.10127920216E+03  0.14506531546E+03  0.00000000000E+00 0.  1.
<scales pt_clust_3="51.18855" pt_clust_4="14000.00000" pt_clust_5="69.74820" pt_clust_6="134.10975"></scales>
<clustering>
<clus scale="   51.189">  2  3  1 -1</clus>
<clus scale="   69.748">  1  5  2 -1</clus>
<clus scale="  134.110">  2  6  1 -1</clus>
<clus scale="   69.748">  1  3  2 -1</clus>
</clustering>
</event>
<event>
 6    0  0.6549018E+002  0.1180968E+03  0.7546771E-02  0.1246270E+00
         21   -1    0    0  504  501  0.00000000000E+00  0.00000000000E+00  0.47710618953E+03  0.47710618953E+03  0.00000000000E+00 0. -1.
         21   -1    0    0  505  502 -0.00000000000E+00 -0.00000000000E+00 -0.71023121201E+03  0.71023121201E+03  0.00000000000E+00 0. -1.
         21    1    1    2  503  501  0.74594770799E+01  0.83199750861E+02  0.11916329108E+02  0.84379151697E+02  0.00000000000E+00 0. -1.
         21    1    1    2  504  506 -0.11887676492E+03 -0.11498811096E+03  0.40003403099E+03  0.43287547499E+03  0.00000000000E+00 0. -1.
         21    1    1    2  505  503 -0.10136343185E+02 -0.30681453146E+02 -0.50125579503E+02  0.59637829780E+02  0.00000000000E+00 0. -1.
         21    1    1    2  506  502  0.12155363102E+03  0.62469813241E+02 -0.59494980307E+03  0.61044494507E+03  0.00000000000E+00 0. -1.
<scales pt_clust_3="81.79498" pt_clust_4="14000.00000" pt_clust_5="32.31249" pt_clust_6="118.09684"></scales>
<clustering>
<clus scale="   32.312">  2  5  1 -1</clus>
<clus scale="   81.795">  1  3  2 -1</clus>
<clus scale="  118.097">  2  6  1 -1</clus>
<clus scale="   81.795">  1  3  2 -1</clus>
</clustering>
</event>
<event>
 6    0  0.6549018E+002  0.9758745E+02  0.7546771E-02  0.1285453E+00
         21   -1    0    0  503  501  0.00000000000E+00  0.00000000000E+00  0.18019022837E+04  0.18019022837E+04  0.00000000000E+00 0. -1.
         21   -1    0    0  506  502 -0.00000000000E+00 -0.00000000000E+00 -0.32105073907E+02  0.32105073907E+02  0.00000000000E+00 0. -1.
         21    1    1    2  503  502  0.38535762232E+02 -0.10926135536E+03  0.14058140655E+04  0.14105801061E+04  0.00000000000E+00 0. -1.
         21    1    1    2  504  501 -0.37514577214E+02 -0.61567967951E+01  0.16098540684E+03  0.16541327294E+03  0.00000000000E+00 0. -1.
         21    1    1    2  505  504  0.14343156100E+00  0.70932656938E+02  0.20135413013E+03  0.21348289888E+03  0.00000000000E+00 0. -1.
         21    1    1    2  506  505 -0.11646165798E+01  0.44485495217E+02  0.16436072829E+01  0.44531079724E+02  0.00000000000E+00 0. -1.
<scales pt_clust_3="14000.00000" pt_clust_4="38.01644" pt_clust_5="97.58745" pt_clust_6="44.43103"></scales>
<clustering>
<clus scale="   38.016">  1  4  2 -1</clus>
<clus scale="   44.431">  2  6  1 -1</clus>
<clus scale="   97.587">  2  5  1 -1</clus>
<clus scale="   38.016">  1  3  2 -1</clus>
</clustering>
</event>
<event>
 6    0  0.6549018E+002  0.1288953E+03  0.7546771E-02  0.1229104E+00
         21   -1    0    0  503  501  0.00000000000E+00  0.00000000000E+00  0.14002360034E+03  0.14002360034E+03  0.00000000000E+00 0.  1.
         21   -1    0    0  504  502 -0.00000000000E+00 -0.00000000000E+00 -0.41776198665E+03  0.41776198665E+03  0.00000000000E+00 0. -1.
         21    1    1    2  503  505 -0.27230392854E+02  0.88523798335E+02  0.35544434745E+02  0.99203649167E+02  0.00000000000E+00 0.  1.
         21    1    1    2  504  501  0.14574501860E+03 -0.11672060225E+02 -0.57753150746E+02  0.15720456055E+03  0.00000000000E+00 0. -1.
         21    1    1    2  505  506 -0.10901723535E+03 -0.38819355743E+02 -0.21948836658E+03  0.24812666735E+03  0.00000000000E+00 0.  1.
         21    1    1    2  506  502 -0.94973903963E+01 -0.38032382367E+02 -0.36041303728E+02  0.53250709922E+02  0.00000000000E+00 0.  1.
<scales pt_clust_3="89.77105" pt_clust_4="14000.00000" pt_clust_5="128.89528" pt_clust_6="39.20029"></scales>
<clustering>
<clus scale="   39.200">  2  6  1 -1</clus>
<clus scale="   89.771">  1  3  2 -1</clus>
<clus scale="  128.895">  2  5  1 -1</clus>
<clus scale="   89.771">  1  3  2 -1</clus>
</clustering>
</event>
<event>
 6    0  0.6549018E+002  0.6702314E+03  0.7546771E-02  0.9769540E-01
         21   -1    0    0  504  501  0.00000000000E+00  0.00000000000E+00  0.11384999237E+04  0.11384999237E+04  0.00000000000E+00 0.  1.
         21   -1    0    0  505  502 -0.00000000000E+00 -0.00000000000E+00 -0.73445028707E+03  0.73445028707E+03  0.00000000000E+00 0. -1.
         21    1    1    2  503  501 -0.64310965137E+02  0.15428486939E+02  0.82354471099E+02  0.10562290166E+03  0.00000000000E+00 0. -1.
         21    1    1    2  504  506 -0.25345469815E+02  0.16826292510E+03  0.21298672336E+03  0.27261355273E+03  0.00000000000E+00 0.  1.
         21    1    1    2  505  503 -0.54172013814E+03  0.30288249083E+03 -0.18114094328E+03  0.64653735596E+03  0.00000000000E+00 0. -1.
         21    1    1    2  506  502  0.63137657309E+03 -0.48657390287E+03  0.28984938546E+03  0.84817640043E+03  0.00000000000E+00 0.  1.
<scales pt_clust_3="66.13576" pt_clust_4="176.51023" pt_clust_5="14000.00000" pt_clust_6="670.23141"></scales>
<clustering>
<clus scale="   66.136">  1  3  2 -1</clus>
<clus scale="  176.510">  1  4  2 -1</clus>
<clus scale="  670.231">  1  6  2 -1</clus>
<clus scale="   66.136">  1  3  2 -1</clus>
</clustering>
</event>
<event>
 6    0  0.6549018E+002  0.1722838E+03  0.7546771E-02  0.1175487E+00
         21   -1    0    0  506  501  0.00000000000E+00  0.00000000000E+00  0.10947454685E+04  0.10947454685E+04  0.00000000000E+00 0.  1.
         21   -1    0    0  504  502 -0.00000000000E+00 -0.00000000000E+00 -0.63812917595E+03  0.63812917595E+03  0.00000000000E+00 0.  1.
         21    1    1    2  503  505  0.10384244989E+03 -0.12005534475E+02 -0.17963574521E+03  0.20783740812E+03  0.00000000000E+00 0. -1.
         21    1    1    2  504  503  0.73828652666E+02 -0.10352233227E+01 -0.41499966743E+03  0.42151686278E+03  0.00000000000E+00 0.  1.
         21    1    1    2  505  501  0.60725034578E+02  0.11117838959E+02  0.68276742991E+02  0.92048084179E+02  0.00000000000E+00 0. -1.
         21    1    1    2  506  502 -0.23839613713E+03  0.19229188390E+01  0.98297496217E+03  0.10114722893E+04  0.00000000000E+00 0.  1.
<scales pt_clust_3="14000.00000" pt_clust_4="74.03043" pt_clust_5="61.73440" pt_clust_6="172.28375"></scales>
<clustering>
<clus scale="   61.734">  1  5  2 -1</clus>
<clus scale="   74.030">  2  4  1 -1</clus>
<clus scale="  172.284">  1  6  2 -1</clus>
<clus scale="   61.734">  1  3  2 -1</clus>
</clustering>
</event>
<event>
 6    0  0.6549018E+002  0.8168814E+02  0.7546771E-02  0.1324328E+00
         21   -1    0    0  506  501  0.00000000000E+00  0.00000000000E+00  0.15331132624E+03  0.15331132624E+03  0.00000000000E+00 0.  1.
         21   -1    0    0  505  502 -0.00000000000E+00 -0.00000000000E+00 -0.45113961345E+03  0.45113961345E+03  0.00000000000E+00 0.  1.
         21    1    1    2  503  502 -0.17823494831E+02 -0.34895836331E+02 -0.89484005489E+02  0.97687172134E+02  0.00000000000E+00 0.  1.
         21    1    1    2  504  501 -0.78814527333E+02 -0.23362083805E+01 -0.10164815255E+03  0.12864499409E+03  0.00000000000E+00 0.  1.
         21    1    1    2  505  504  0.79991366067E+02  0.69792780492E+02 -0.22795693610E+03  0.25146374604E+03  0.00000000000E+00 0.  1.
         21    1    1    2  506  503  0.16646656097E+02 -0.32560735781E+02  0.12126080694E+03  0.12665502743E+03  0.00000000000E+00 0.  1.
<scales pt_clust_3="42.38071" pt_clust_4="81.68814" pt_clust_5="14000.00000" pt_clust_6="36.56929"></scales>
<clustering>
<clus scale="   36.569">  1  6  2 -1</clus>
<clus scale="   42.381">  2  3  1 -1</clus>
<clus scale="   81.688">  1  4  2 -1</clus>
<clus scale="   36.569">  1  3  2 -1</clus>
</clustering>
</event>
<event>
 6    0  0.6549018E+002  0.1420087E+03  0.7546771E-02  0.1210651E+00
         21   -1    0    0  505  501  0.00000000000E+00  0.00000000000E+00  0.28919319076E+03  0.28919319076E+03  0.00000000000E+00 0.  1.
         21   -1    0    0  504  502 -0.00000000000E+00 -0.00000000000E+00 -0.19020627068E+03  0.19020627068E+03  0.00000000000E+00 0.  1.
         21    1    1    2  503  506 -0.60670395330E+02 -0.50168733525E+00  0.13685573742E+02  0.62196812526E+02  0.00000000000E+00 0.  1.
         21    1    1    2  504  501  0.13927931605E+03 -0.33163452605E+02  0.12386344497E+03  0.18931638985E+03  0.00000000000E+00 0.  1.
         21    1    1    2  505  503 -0.57253728086E+02  0.17359802731E+01  0.82748390165E+02  0.10063945092E+03  0.00000000000E+00 0.  1.
         21    1    1    2  506  502 -0.21355192629E+02  0.31929159667E+02 -0.12131048880E+03  0.12724680814E+03  0.00000000000E+00 0.  1.
<scales pt_clust_3="53.66882" pt_clust_4="129.83817" pt_clust_5="53.66882" pt_clust_6="38.41244"></scales>
<clustering>
<clus scale="   38.412">  2  6  1 -1</clus>
<clus scale="   53.669">  3  5 -1 -1</clus>
<clus scale="  129.838">  2  4  1 -1</clus>
<clus scale="  142.009">  1  3  2 -1</clus>
</clustering>
</event>
<event>
 6    0  0.6549018E+002  0.1411313E+03  0.7546771E-02  0.1211815E+00
         21   -1    0    0  505  501  0.00000000000E+00  0.00000000000E+00  0.35833098592E+03  0.35833098592E+03  0.00000000000E+00 0.  1.
         21   -1    0    0  503  502 -0.00000000000E+00 -0.00000000000E+00 -0.15657027265E+03  0.15657027265E+03  0.00000000000E+00 0.  1.
         21    1    1    2  503  506 -0.37225754523E+02 -0.16240284782E+02 -0.19459550205E+01  0.40660673759E+02  0.00000000000E+00 0.  1.
         21    1    1    2  504  502  0.13991247734E+03  0.10487680062E+02  0.19264060016E+03  0.23831889052E+03  0.00000000000E+00 0.  1.
         21    1    1    2  505  504 -0.18789536478E+02  0.39274751201E+02  0.10004985137E+03  0.10911244440E+03  0.00000000000E+00 0.  1.
         21    1    1    2  506  501 -0.83897186342E+02 -0.33522146480E+02 -0.88983783233E+02  0.12680924990E+03  0.00000000000E+00 0.  1.
<scales pt_clust_3="34.39017" pt_clust_4="131.48057" pt_clust_5="43.53795" pt_clust_6="34.39017"></scales>
<clustering>
<clus scale="   34.390">  3  6 -1 -1</clus>
<clus scale="   43.538">  1  5  2 -1</clus>
<clus scale="  131.481">  1  4  2 -1</clus>
<clus scale="   43.538">  1  3  2 -1</clus>
</clustering>
</event>
<event>
 6    0  0.6549018E+002  0.1937691E+03  0.7546771E-02  0.1155105E+00
         21   -1    0    0  506  501  0.00000000000E+00  0.00000000000E+00  0.13671532949E+03  0.13671532949E+03  0.00000000000E+00 0. -1.
         21   -1    0    0  505  502 -0.00000000000E+00 -0.00000000000E+00 -0.82891885923E+03  0.82891885923E+03  0.00000000000E+00 0. -1.
         21    1    1    2  503  502 -0.85463818307E+02 -0.85191451596E+01 -0.39242967893E+03  0.40171842499E+03  0.00000000000E+00 0. -1.
         21    1    1    2  504  503 -0.97792802478E+02 -0.26638412529E+02 -0.30388668008E+03  0.32034380214E+03  0.00000000000E+00 0. -1.
         21    1    1    2  505  501  0.20418476652E+03  0.56883590670E+02 -0.51270035049E+01  0.21202228169E+03  0.00000000000E+00 0. -1.
         21    1    1    2  506  504 -0.20928145736E+02 -0.21726032981E+02  0.92398327714E+01  0.31549679914E+02  0.00000000000E+00 0. -1.
<scales pt_clust_3="37.79778" pt_clust_4="37.79778" pt_clust_5="189.33600" pt_clust_6="30.16634"></scales>
<clustering>
<clus scale="   30.166">  1  6  2 -1</clus>
<clus scale="   37.798">  3  4 -1 -1</clus>
<clus scale="  189.336">  1  5  2 -1</clus>
<clus scale="   30.166">  1  3  2 -1</clus>
</clustering>
</event>
<event>
 6    0  0.6549018E+002  0.8617804E+02  0.7546771E-02  0.1312380E+00
         21   -1    0    0  505  501  0.00000000000E+00  0.00000000000E+00  0.23551383275E+04  0.23551383275E+04  0.00000000000E+00 0. -1.
         21   -1    0    0  506  502 -0.00000000000E+00 -0.00000000000E+00 -0.69818132052E+03  0.69818132052E+03  0.00000000000E+00 0.  1.
         21    1    1    2  503  501  0.53922676994E+02  0.56222334080E+02  0.14940893863E+04  0.14961188790E+04  0.00000000000E+00 0. -1.
         21    1    1    2  504  503 -0.76109049833E+02 -0.95563529196E+02  0.85024915722E+03  0.85898114352E+03  0.00000000000E+00 0. -1.
         21    1    1    2  505  502 -0.37846940163E+02  0.28954904266E+02 -0.14980062401E+03  0.15719734195E+03  0.00000000000E+00 0.  1.
         21    1    1    2  506  504  0.60033313002E+02  0.10386290850E+02 -0.53758091254E+03  0.54102228349E+03  0.00000000000E+00 0.  1.
<scales pt_clust_3="86.17804" pt_clust_4="14000.00000" pt_clust_5="47.65267" pt_clust_6="45.10289"></scales>
<clustering>
<clus scale="   47.653">  2  5  1 -1</clus>
<clus scale="   45.103">  2  6  1 -1</clus>
<clus scale="   86.178">  1  3  2 -1</clus>
<clus scale="   86.178">  1  3  2 -1</clus>
</clustering>
</event>
<event>
 6    0  0.6549018E+002  0.1787127E+03  0.7546771E-02  0.1169055E+00
         21   -1    0    0  502  501  0.00000000000E+00  0.00000000000E+00  0.20538698146E+03  0.20538698146E+03  0.00000000000E+00 0.  1.
         21   -1    0    0  505  502 -0.00000000000E+00 -0.00000000000E+00 -0.11317594228E+04  0.11317594228E+04  0.00000000000E+00 0.  1.
         21    1    1    2  503  501  0.60142686745E+02  0.66545561385E+01  0.32089799194E+01  0.60594747615E+02  0.00000000000E+00 0.  1.
         21    1    1    2  504  503  0.19009501171E+02  0.16397836912E+03  0.11854539268E+03  0.20323207621E+03  0.00000000000E+00 0.  1.
         21    1    1    2  505  506 -0.35696377044E+02 -0.75147213743E+02 -0.17340888184E+03  0.19233298045E+03  0.00000000000E+00 0.  1.
         21    1    1    2  506  504 -0.43455810872E+02 -0.95485711519E+02 -0.87471793208E+03  0.88098659996E+03  0.00000000000E+00 0.  1.
<scales pt_clust_3="60.50972" pt_clust_4="14000.00000" pt_clust_5="81.50762" pt_clust_6="178.71270"></scales>
<clustering>
<clus scale="   60.510">  1  3  2 -1</clus>
<clus scale="   81.508">  2  5  1 -1</clus>
<clus scale="  178.713">  2  6  1 -1</clus>
<clus scale="   60.510">  1  3  2 -1</clus>
</clustering>
</event>
<event>
 6    0  0.6549018E+002  0.1236123E+03  0.7546771E-02  0.1237254E+00
         21   -1    0    0  504  501  0.00000000000E+00  0.00000000000E+00  0.23835816900E+03  0.23835816900E+03  0.00000000000E+00 0. -1.
         21   -1    0    0  503  502 -0.00000000000E+00 -0.00000000000E+00 -0.59807471588E+03  0.59807471588E+03  0.00000000000E+00 0.  1.
         21    1    1    2  503  505  0.18890894554E+02 -0.38503228907E+02 -0.24021737189E+03  0.24401588122E+03  0.00000000000E+00 0.  1.
         21    1    1    2  504  502 -0.63223505414E+02  0.61036896530E+02 -0.29892592964E+02  0.92823927352E+02  0.00000000000E+00 0.  1.
         21    1    1    2  505  506 -0.97792399023E+01 -0.13355682479E+03 -0.25804595214E+03  0.29072456449E+03  0.00000000000E+00 0.  1.
         21    1    1    2  506  501  0.54111850762E+02  0.11102315717E+03  0.16843937012E+03  0.20886851181E+03  0.00000000000E+00 0. -1.
<scales pt_clust_3="42.88781" pt_clust_4="80.96551" pt_clust_5="14000.00000" pt_clust_6="123.61226"></scales>
<clustering>
<clus scale="   42.888">  2  3  1 -1</clus>
<clus scale="   80.966">  2  4  1 -1</clus>
<clus scale="  123.612">  1  6  2 -1</clus>
<clus scale="  123.612">  1  3  2 -1</clus>
</clustering>
</event>
<event>
 6    0  0.6549018E+002  0.1397717E+03  0.7546771E-02  0.1213636E+00
         21   -1    0    0  504  501  0.00000000000E+00  0.00000000000E+00  0.85005173271E+03  0.85005173271E+03  0.00000000000E+00 0.  1.
         21   -1    0    0  501  502 -0.00000000000E+00 -0.00000000000E+00 -0.31874702755E+03  0.31874702755E+03  0.00000000000E+00 0. -1.
         21    1    1    2  503  505 -0.10568502246E+03  0.66399726685E+02 -0.53438299145E+02  0.13577149735E+03  0.00000000000E+00 0. -1.
         21    1    1    2  504  506  0.30808618792E+02 -0.40694997259E+02  0.11584172652E+03  0.12658814872E+03  0.00000000000E+00 0. -1.
         21    1    1    2  505  502 -0.36672451519E+02 -0.35604529863E+02 -0.21113997200E+03  0.21723866834E+03  0.00000000000E+00 0. -1.
         21    1    1    2  506  503  0.11154885519E+03  0.98998004374E+01  0.68004124979E+03  0.68920044585E+03  0.00000000000E+00 0.  1.
<scales pt_clust_3="139.77173" pt_clust_4="51.04169" pt_clust_5="51.13968" pt_clust_6="14000.00000"></scales>
<clustering>
<clus scale="   51.042">  1  4  2 -1</clus>
<clus scale="   51.140">  2  5  1 -1</clus>
<clus scale="  139.772">  2  3  1 -1</clus>
<clus scale="   51.042">  1  3  2 -1</clus>
</clustering>
</event>
<event>
 6    0  0.6549018E+002  0.1232564E+03  0.7546771E-02  0.1237820E+00
         21   -1    0    0  503  501  0.00000000000E+00  0.00000000000E+00  0.16120404490E+04  0.16120404490E+04  0.00000000000E+00 0. -1.
         21   -1    0    0  505  502 -0.00000000000E+00 -0.00000000000E+00 -0.51940556581E+02  0.51940556581E+02  0.00000000000E+00 0. -1.
         21    1    1    2  503  502 -0.40814364479E+02  0.24049876152E+02  0.13599998475E+03  0.14401459906E+03  0.00000000000E+00 0.  1.
         21    1    1    2  504  506 -0.13363047140E+02 -0.93175064271E+02  0.18019048565E+02  0.95837621747E+02  0.00000000000E+00 0. -1.
         21    1    1    2  505  504  0.32016732814E+02 -0.37557343003E+02  0.82964909562E+02  0.96533939173E+02  0.00000000000E+00 0.  1.
         21    1    1    2  506  501  0.22160678805E+02  0.10668253112E+03  0.13231159495E+04  0.13275948456E+04  0.00000000000E+00 0. -1.
<scales pt_clust_3="47.37308" pt_clust_4="14000.00000" pt_clust_5="46.63135" pt_clust_6="123.25637"></scales>
<clustering>
<clus scale="   47.373">  1  3  2 -1</clus>
<clus scale="   46.631">  2  5  1 -1</clus>
<clus scale="  123.256">  1  6  2 -1</clus>
<clus scale="   47.373">  1  3  2 -1</clus>
</clustering>
</event>
<event>
 6    0  0.6549018E+002  0.1116079E+03  0.7546771E-02  0.1257621E+00
         21   -1    0    0  506  501  0.00000000000E+00  0.00000000000E+00  0.76676170971E+03  0.76676170971E+03  0.00000000000E+00 0.  1.
         21   -1    0    0  505  502 -0.00000000000E+00 -0.00000000000E+00 -0.28758426436E+03  0.28758426436E+03  0.00000000000E+00 0. -1.
         21    1    1    2  503  504 -0.58569921536E+02  0.13873653312E+03 -0.10987243957E+03  0.18641409364E+03  0.00000000000E+00 0. -1.
         21    1    1    2  504  501  0.43906810491E+02 -0.78908560628E+02  0.61761799402E+03  0.62418455242E+03  0.00000000000E+00 0.  1.
         21    1    1    2  505  503  0.32357272640E+02 -0.88830469501E+02 -0.11617623041E+03  0.14978238186E+03  0.00000000000E+00 0. -1.
         21    1    1    2  506  502 -0.17694161595E+02  0.29002497010E+02  0.87608121298E+02  0.93964946148E+02  0.00000000000E+00 0. -1.
<scales pt_clust_3="14000.00000" pt_clust_4="59.13379" pt_clust_5="111.60794" pt_clust_6="33.97393"></scales>
<clustering>
<clus scale="   33.974">  1  6  2 -1</clus>
<clus scale="   59.134">  1  4  2 -1</clus>
<clus scale="  111.608">  2  5  1 -1</clus>
<clus scale="   33.974">  1  3  2 -1</clus>
</clustering>
</event>
<event>
 6    0  0.6549018E+002  0.5833640E+02  0.7546771E-02  0.1404949E+00
         21   -1    0    0  504  501  0.00000000000E+00  0.00000000000E+00  0.66103465644E+02  0.66103465644E+02  0.00000000000E+00 0. -1.
         21   -1    0    0  503  502 -0.00000000000E+00 -0.00000000000E+00 -0.17509776080E+04  0.17509776080E+04  0.00000000000E+00 0. -1.
         21    1    1    2  503  505  0.56864616169E+02  0.80327533659E+01 -0.11568305904E+04  0.11582552070E+04  0.00000000000E+00 0. -1.
         21    1    1    2  504  506 -0.63619658127E+02 -0.85082977277E+02 -0.31696811801E+03  0.33429831253E+03  0.00000000000E+00 0. -1.
         21    1    1    2  505  501  0.27236542075E+02  0.49250113087E+02  0.41295766354E+02  0.69805036939E+02  0.00000000000E+00 0. -1.
         21    1    1    2  506  502 -0.20481500117E+02  0.27800110824E+02 -0.25237120028E+03  0.25472251714E+03  0.00000000000E+00 0. -1.
<scales pt_clust_3="50.54919" pt_clust_4="58.33640" pt_clust_5="14000.00000" pt_clust_6="34.53025"></scales>
<clustering>
<clus scale="   34.530">  2  6  1 -1</clus>
<clus scale="   50.549">  2  3  1 -1</clus>
<clus scale="   58.336">  2  4  1 -1</clus>
<clus scale="   58.336">  1  3  2 -1</clus>
</clustering>
</event>
<event>
 6    0  0.6549018E+002  0.1140964E+03  0.7546771E-02  0.1253167E+00
         21   -1    0    0  506  501  0.00000000000E+00  0.00000000000E+00  0.73028075574E+03  0.73028075574E+03  0.00000000000E+00 0. -1.
         21   -1    0    0  503  502 -0.00000000000E+00 -0.00000000000E+00 -0.11520915856E+03  0.11520915856E+03  0.00000000000E+00 0.  1.
         21    1    1    2  503  505  0.31039496766E+02 -0.65410459526E+02 -0.31423345882E+02  0.78926581335E+02  0.00000000000E+00 0.  1.
         21    1    1    2  504  501 -0.10940870231E+02  0.10504208350E+03  0.60273749458E+03  0.61191995336E+03  0.00000000000E+00 0. -1.
         21    1    1    2  505  504  0.53691588468E+02 -0.38778654038E+02 -0.46400025031E+01  0.66393526073E+02  0.00000000000E+00 0.  1.
         21    1    1    2  506  502 -0.73790215003E+02 -0.85296993909E+00  0.48397450990E+02  0.88249853542E+02  0.00000000000E+00 0. -1.
<scales pt_clust_3="40.38214" pt_clust_4="105.99695" pt_clust_5="40.38214" pt_clust_6="73.79514"></scales>
<clustering>
<clus scale="   40.382">  3  5 -1 -1</clus>
<clus scale="   73.795">  2  6  1 -1</clus>
<clus scale="  105.997">  1  4  2 -1</clus>
<clus scale="  105.997">  1  3  2 -1</clus>
</clustering>
</event>
<event>
 6    0  0.6549018E+002  0.8485259E+02  0.7546771E-02  0.1315818E+00
         21   -1    0    0  505  501  0.00000000000E+00  0.00000000000E+00  0.41825229368E+03  0.41825229368E+03  0.00000000000E+00 0.  1.
         21   -1    0    0  504  502 -0.00000000000E+00 -0.00000000000E+00 -0.21947237428E+03  0.21947237428E+03  0.00000000000E+00 0.  1.
         21    1    1    2  503  506  0.31395301510E+02  0.42942527026E+02 -0.19106935847E+01  0.53229468664E+02  0.00000000000E+00 0.  1.
         21    1    1    2  504  503  0.76879660845E+01  0.77197940257E+02 -0.73582364944E+02  0.10692516651E+03  0.00000000000E+00 0.  1.
         21    1    1    2  505  502 -0.53207027182E+02 -0.86567418848E+02 -0.75069318947E+02  0.12633411414E+03  0.00000000000E+00 0.  1.
         21    1    1    2  506  501  0.14123759587E+02 -0.33573048435E+02  0.34934229687E+03  0.35123591865E+03  0.00000000000E+00 0.  1.
<scales pt_clust_3="47.59223" pt_clust_4="14000.00000" pt_clust_5="84.85259" pt_clust_6="36.42293"></scales>
<clustering>
<clus scale="   36.423">  1  6  2 -1</clus>
<clus scale="   47.592">  1  3  2 -1</clus>
<clus scale="   84.853">  1  5  2 -1</clus>
<clus scale="   36.423">  1  3  2 -1</clus>
</clustering>
</event>
<event>
 6    0  0.6549018E+002  0.1479052E+03  0.7546771E-02  0.1203071E+00
         21   -1    0    0  504  501  0.00000000000E+00  0.00000000000E+00  0.27886621458E+03  0.27886621458E+03  0.00000000000E+00 0. -1.
         21   -1    0    0  505  502 -0.00000000000E+00 -0.00000000000E+00 -0.21013214428E+03  0.21013214428E+03  0.00000000000E+00 0. -1.
         21    1    1    2  503  502  0.43478386931E+02  0.41001159802E+02  0.41639084049E+01  0.59906622075E+02  0.00000000000E+00 0. -1.
         21    1    1    2  504  506  0.75161812952E+02 -0.16718479945E+03  0.81060316076E+02  0.20042662033E+03  0.00000000000E+00 0. -1.
         21    1    1    2  505  501 -0.12839160297E+03  0.47032517007E+02  0.24634652699E+02  0.13893641525E+03  0.00000000000E+00 0. -1.
         21    1    1    2  506  503  0.97514030859E+01  0.79151122645E+02 -0.41124806876E+02  0.89728701198E+02  0.00000000000E+00 0. -1.
<scales pt_clust_3="53.04344" pt_clust_4="134.61543" pt_clust_5="136.73500" pt_clust_6="53.04344"></scales>
<clustering>
<clus scale="   53.043">  3  6 -1 -1</clus>
<clus scale="  136.735">  1  5  2 -1</clus>
<clus scale="  134.615">  1  4  2 -1</clus>
<clus scale="  136.735">  1  3  2 -1</clus>
</clustering>
</event>
<event>
 6    0  0.6549018E+002  0.4425390E+03  0.7546771E-02  0.1029971E+00
         21   -1    0    0  505  501  0.00000000000E+00  0.00000000000E+00  0.83368555580E+02  0.83368555580E+02  0.00000000000E+00 0. -1.
         21   -1    0    0  503  502 -0.00000000000E+00 -0.00000000000E+00 -0.21014028287E+04  0.21014028287E+04  0.00000000000E+00 0. -1.
         21    1    1    2  503  506 -0.11341155050E+02  0.19434043208E+03 -0.73654706210E+03  0.76183882812E+03  0.00000000000E+00 0. -1.
         21    1    1    2  504  501  0.91319126077E+02  0.74947294405E+02 -0.24357271965E+03  0.27071008382E+03  0.00000000000E+00 0. -1.
         21    1    1    2  505  502 -0.12423461767E+03 -0.36970647965E+03 -0.83247845032E+03  0.91931359806E+03  0.00000000000E+00 0. -1.
         21    1    1    2  506  504  0.44256646641E+02  0.10041875317E+03 -0.20543604108E+03  0.23290887431E+03  0.00000000000E+00 0. -1.
<scales pt_clust_3="183.03918" pt_clust_4="183.03918" pt_clust_5="390.02195" pt_clust_6="51.80507"></scales>
<clustering>
<clus scale="   51.805">  4  6 -1 -1</clus>
<clus scale="  183.039">  3  4 -1 -1</clus>
<clus scale="  390.022">  1  5  2 -1</clus>
<clus scale="  390.022">  1  3  2 -1</clus>
</clustering>
</event>
<event>
 6    0  0.6549018E+002  0.1208807E+03  0.7546771E-02  0.1241651E+00
         21   -1    0    0  504  501  0.00000000000E+00  0.00000000000E+00  0.35565967546E+02  0.35565967546E+02  0.00000000000E+00 0.  1.
         21   -1    0    0  501  502 -0.00000000000E+00 -0.00000000000E+00 -0.10225095863E+04  0.10225095863E+04  0.00000000000E+00 0. -1.
         21    1    1    2  503  506 -0.43552144196E+00 -0.39189818190E+02 -0.59724629100E+02  0.71435725304E+02  0.00000000000E+00 0.  1.
         21    1    1    2  504  503  0.31562343360E+02 -0.16073791871E+02  0.54374090115E+01  0.35834532510E+02  0.00000000000E+00 0.  1.
         21    1    1    2  505  502 -0.27980930211E+02  0.11692304576E+03 -0.69136919487E+03  0.70174446539E+03  0.00000000000E+00 0. -1.
         21    1    1    2  506  505 -0.31458917075E+01 -0.61659435702E+02 -0.24128720378E+03  0.24906083063E+03  0.00000000000E+00 0.  1.
<scales pt_clust_3="34.97074" pt_clust_4="35.41960" pt_clust_5="112.63049" pt_clust_6="34.97074"></scales>
<clustering>
<clus scale="   34.971">  3  6 -1 -1</clus>
<clus scale="   35.420">  1  4  2 -1</clus>
<clus scale="  112.630">  2  5  1 -1</clus>
<clus scale="   35.420">  1  3  2 -1</clus>
</clustering>
</event>
<event>
 6    0  0.6549018E+002  0.1265592E+03  0.7546771E-02  0.1232652E+00
         21   -1    0    0  506  501  0.00000000000E+00  0.00000000000E+00  0.10211123683E+04  0.10211123683E+04  0.00000000000E+00 0. -1.
         21   -1    0    0  503  502 -0.00000000000E+00 -0.00000000000E+00 -0.79033344923E+02  0.79033344923E+02  0.00000000000E+00 0. -1.
         21    1    1    2  503  501 -0.74556883921E+02  0.15135290617E+03  0.21530100565E+03  0.27353419197E+03  0.00000000000E+00 0. -1.
         21    1    1    2  504  502  0.13839807601E+02 -0.69249218986E+02  0.33196414242E+01  0.70696637995E+02  0.00000000000E+00 0. -1.
         21    1    1    2  505  504 -0.18219281687E+02 -0.39543874288E+02  0.22063962991E+02  0.48810641071E+02  0.00000000000E+00 0. -1.
         21    1    1    2  506  505  0.78936358008E+02 -0.42559812893E+02  0.70139441328E+03  0.70710424215E+03  0.00000000000E+00 0. -1.
<scales pt_clust_3="119.30917" pt_clust_4="33.15131" pt_clust_5="33.15131" pt_clust_6="89.67880"></scales>
<clustering>
<clus scale="   33.151">  4  5 -1 -1</clus>
<clus scale="   89.679">  1  6  2 -1</clus>
<clus scale="  119.309">  1  3  2 -1</clus>
<clus scale="   89.679">  1  3  2 -1</clus>
</clustering>
</event>
<event>
 6    0  0.6549018E+002  0.9201550E+02  0.7546771E-02  0.1298043E+00
         21   -1    0    0  503  501  0.00000000000E+00  0.00000000000E+00  0.15780290433E+04  0.15780290433E+04  0.00000000000E+00 0.  1.
         21   -1    0    0  506  502 -0.00000000000E+00 -0.00000000000E+00 -0.27023693360E+03  0.27023693360E+03  0.00000000000E+00 0. -1.
         21    1    1    2  503  505  0.64900820043E+02 -0.23164901803E+02  0.12263358966E+04  0.12282705160E+04  0.00000000000E+00 0.  1.
         21    1    1    2  504  502 -0.62424594297E+02  0.82872604494E+02 -0.20117071911E+03  0.22635007572E+03  0.00000000000E+00 0. -1.
         21    1    1    2  505  504 -0.43273536292E+02 -0.68503654287E+02  0.32453723145E+03  0.33449927382E+03  0.00000000000E+00 0.  1.
         21    1    1    2  506  501  0.40797310546E+02  0.87959515965E+01 -0.41910299219E+02  0.59146111393E+02  0.00000000000E+00 0.  1.
<scales pt_clust_3="69.06724" pt_clust_4="92.01550" pt_clust_5="14000.00000" pt_clust_6="41.73475"></scales>
<clustering>
<clus scale="   41.735">  2  6  1 -1</clus>
<clus scale="   69.067">  1  3  2 -1</clus>
<clus scale="   92.015">  2  4  1 -1</clus>
<clus scale="   69.067">  1  3  2 -1</clus>
</clustering>
</event>
<event>
 6    0  0.6549018E+002  0.6991844E+02  0.7546771E-02  0.1360371E+00
         21   -1    0    0  503  501  0.00000000000E+00  0.00000000000E+00  0.92184736990E+03  0.92184736990E+03  0.00000000000E+00 0. -1.
         21   -1    0    0  501  502 -0.00000000000E+00 -0.00000000000E+00 -0.61370169532E+02  0.61370169532E+02  0.00000000000E+00 0. -1.
         21    1    1    2  503  505  0.64479531592E+02 -0.32531051819E+02  0.64119470342E+03  0.64524919761E+03  0.00000000000E+00 0. -1.
         21    1    1    2  504  502 -0.48207685849E+02 -0.23769921160E+00 -0.20666115645E+02  0.52451175503E+02  0.00000000000E+00 0. -1.
         21    1    1    2  505  506 -0.37688136552E+02 -0.48305295791E+02  0.15256419634E+03  0.16440690753E+03  0.00000000000E+00 0.  1.
         21    1    1    2  506  504  0.21416290809E+02  0.81074046821E+02  0.87384416255E+02  0.12111025879E+03  0.00000000000E+00 0. -1.
<scales pt_clust_3="68.73651" pt_clust_4="48.20827" pt_clust_5="69.91844" pt_clust_6="14000.00000"></scales>
<clustering>
<clus scale="   48.208">  2  4  1 -1</clus>
<clus scale="   68.737">  1  3  2 -1</clus>
<clus scale="   69.918">  1  5  2 -1</clus>
<clus scale="   68.737">  1  3  2 -1</clus>
</clustering>
</event>
<event>
 6    0  0.6549018E+002  0.1019953E+03  0.7546771E-02  0.1276155E+00
         21   -1    0    0  503  501  0.00000000000E+00  0.00000000000E+00  0.21614652461E+04  0.21614652461E+04  0.00000000000E+00 0.  1.
         21   -1    0    0  505  502 -0.00000000000E+00 -0.00000000000E+00 -0.19695191312E+03  0.19695191312E+03  0.00000000000E+00 0.  1.
         21    1    1    2  503  506  0.77334189504E+02 -0.11282805735E+03  0.15942618391E+04  0.16001192328E+04  0.00000000000E+00 0.  1.
         21    1    1    2  504  501 -0.37575912559E+02  0.62490488764E+02  0.53914750057E+03  0.54405609799E+03  0.00000000000E+00 0. -1.
         21    1    1    2  505  504 -0.29847598694E+02  0.87496685214E+02 -0.13022482550E+03  0.15970301891E+03  0.00000000000E+00 0.  1.
         21    1    1    2  506  502 -0.99106782517E+01 -0.37159116631E+02 -0.38671181207E+02  0.54538809559E+02  0.00000000000E+00 0.  1.
<scales pt_clust_3="14000.00000" pt_clust_4="101.99525" pt_clust_5="64.97856" pt_clust_6="38.45805"></scales>
<clustering>
<clus scale="   38.458">  2  6  1 -1</clus>
<clus scale="   64.979">  2  5  1 -1</clus>
<clus scale="  101.995">  1  4  2 -1</clus>
<clus scale="  101.995">  1  3  2 -1</clus>
</clustering>
</event>
<event>
 6    0  0.6549018E+002  0.1926500E+03  0.7546771E-02  0.1156093E+00
         21   -1    0    0  504  501  0.00000000000E+00  0.00000000000E+00  0.73413140318E+03  0.73413140318E+03  0.00000000000E+00 0.  1.
         21   -1    0    0  505  502 -0.00000000000E+00 -0.00000000000E+00 -0.79223746778E+03  0.79223746778E+03  0.00000000000E+00 0. -1.
         21    1    1    2  503  506  0.16607826069E+03  0.69878512476E+02 -0.16437832270E+03  0.24389593714E+03  0.00000000000E+00 0. -1.
         21    1    1    2  504  503 -0.17400457034E+03 -0.84632183166E+02  0.67696124893E+03  0.70407153719E+03  0.00000000000E+00 0.  1.
         21    1    1    2  505  501 -0.21848414585E+02 -0.30047162882E+02 -0.31015418285E+03  0.31237125725E+03  0.00000000000E+00 0.  1.
         21    1    1    2  506  502  0.29774724237E+02  0.44800833571E+02 -0.26053480798E+03  0.26603013939E+03  0.00000000000E+00 0. -1.
<scales pt_clust_3="14000.00000" pt_clust_4="192.65001" pt_clust_5="37.15084" pt_clust_6="33.48552"></scales>
<clustering>
<clus scale="   37.151">  2  5  1 -1</clus>
<clus scale="   33.486">  2  6  1 -1</clus>
<clus scale="  192.650">  1  4  2 -1</clus>
<clus scale="  192.650">  1  3  2 -1</clus>
</clustering>
</event>
<event>
 6    0  0.6549018E+002  0.8408574E+02  0.7546771E-02  0.1317841E+00
         21   -1    0    0  505  501  0.00000000000E+00  0.00000000000E+00  0.23358148445E+03  0.23358148445E+03  0.00000000000E+00 0. -1.
         21   -1    0    0  504  502 -0.00000000000E+00 -0.00000000000E+00 -0.77601908250E+03  0.77601908250E+03  0.00000000000E+00 0.  1.
         21    1    1    2  503  501  0.70569032782E+02  0.12388684862E+02 -0.35835760626E+03  0.36544991704E+03  0.00000000000E+00 0.  1.
         21    1    1    2  504  503 -0.16975192664E+02  0.41978305877E+02 -0.12794569449E+03  0.13572190711E+03  0.00000000000E+00 0.  1.
         21    1    1    2  505  506 -0.84368956680E+02 -0.13469271210E+01  0.21472983586E+03  0.23071375658E+03  0.00000000000E+00 0. -1.
         21    1    1    2  506  502  0.30775116562E+02 -0.53020063618E+02 -0.27086413316E+03  0.27771498623E+03  0.00000000000E+00 0.  1.
<scales pt_clust_3="14000.00000" pt_clust_4="45.28063" pt_clust_5="84.08574" pt_clust_6="42.30498"></scales>
<clustering>
<clus scale="   45.281">  2  4  1 -1</clus>
<clus scale="   42.305">  2  6  1 -1</clus>
<clus scale="   84.086">  1  5  2 -1</clus>
<clus scale="   84.086">  1  3  2 -1</clus>
</clustering>
</event>
<event>
 6    0  0.6549018E+002  0.1517976E+03  0.7546771E-02  0.1198281E+00
         21   -1    0    0  506  501  0.00000000000E+00  0.00000000000E+00  0.54483103858E+03  0.54483103858E+03  0.00000000000E+00 0.  1.
         21   -1    0    0  503  502 -0.00000000000E+00 -0.00000000000E+00 -0.32561358953E+03  0.32561358953E+03  0.00000000000E+00 0.  1.
         21    1    1    2  503  505  0.34127564155E+02 -0.48883725699E+02 -0.79718993037E+02  0.99546105520E+02  0.00000000000E+00 0. -1.
         21    1    1    2  504  502 -0.13655383127E+03 -0.10937005835E+03 -0.13710562324E+03  0.22227620300E+03  0.00000000000E+00 0.  1.
         21    1    1    2  505  501  0.68666485452E+01  0.12859589601E+03  0.32439069824E+02  0.13280191483E+03  0.00000000000E+00 0.  1.
         21    1    1    2  506  504  0.95559618572E+02  0.29657888042E+02  0.40360299551E+03  0.41582040475E+03  0.00000000000E+00 0.  1.
<scales pt_clust_3="59.61803" pt_clust_4="151.79759" pt_clust_5="14000.00000" pt_clust_6="100.53554"></scales>
<clustering>
<clus scale="   59.618">  2  3  1 -1</clus>
<clus scale="  100.536">  1  6  2 -1</clus>
<clus scale="  151.798">  2  4  1 -1</clus>
<clus scale="  100.536">  1  3  2 -1</clus>
</clustering>
</event>
<event>
 6    0  0.6549018E+002  0.1019879E+03  0.7546771E-02  0.1276170E+00
         21   -1    0    0  504  501  0.00000000000E+00  0.00000000000E+00  0.82900248166E+03  0.82900248166E+03  0.00000000000E+00 0. -1.
         21   -1    0    0  505  502 -0.00000000000E+00 -0.00000000000E+00 -0.17338977133E+03  0.17338977133E+03  0.00000000000E+00 0. -1.
         21    1    1    2  503  502 -0.20586759084E+01  0.33002370507E+02 -0.82595516995E+01  0.34082470566E+02  0.00000000000E+00 0.  1.
         21    1    1    2  504  503  0.11532389740E+02  0.27742263423E+02  0.89797347105E+02  0.94689982258E+02  0.00000000000E+00 0. -1.
         21    1    1    2  505  506 -0.53599250328E+02  0.53288324259E+02 -0.13465669771E+03  0.15441810573E+03  0.00000000000E+00 0. -1.
         21    1    1    2  506  501  0.44125536497E+02 -0.11403295819E+03  0.70873161264E+03  0.71920169444E+03  0.00000000000E+00 0. -1.
<scales pt_clust_3="33.53997" pt_clust_4="30.04379" pt_clust_5="101.98792" pt_clust_6="14000.00000"></scales>
<clustering>
<clus scale="   30.044">  1  4  2 -1</clus>
<clus scale="   33.540">  2  3  1 -1</clus>
<clus scale="  101.988">  2  5  1 -1</clus>
<clus scale="   30.044">  1  3  2 -1</clus>
</clustering>
</event>
<event>
 6    0  0.6549018E+002  0.1870149E+03  0.7546771E-02  0.1161182E+00
         21   -1    0    0  505  501  0.00000000000E+00  0.00000000000E+00  0.70949855444E+02  0.70949855444E+02  0.00000000000E+00 0. -1.
         21   -1    0    0  504  502 -0.00000000000E+00 -0.00000000000E+00 -0.99994235654E+03  0.99994235654E+03  0.00000000000E+00 0. -1.
         21    1    1    2  503  501 -0.37615073044E+01 -0.89787616495E+02 -0.27875575973E+03  0.29288348979E+03  0.00000000000E+00 0. -1.
         21    1    1    2  504  503  0.60672444212E+01 -0.10023557535E+03 -0.51565656212E+03  0.52534338492E+03  0.00000000000E+00 0. -1.
         21    1    1    2  505  506  0.41166622397E+02  0.42172938661E+02 -0.27689698975E+02  0.65115028866E+02  0.00000000000E+00 0. -1.
         21    1    1    2  506  502 -0.43472359514E+02  0.14785025319E+03 -0.10689048027E+03  0.18755030840E+03  0.00000000000E+00 0. -1.
<scales pt_clust_3="45.27127" pt_clust_4="45.27127" pt_clust_5="58.93426" pt_clust_6="180.78833"></scales>
<clustering>
<clus scale="   45.271">  3  4 -1 -1</clus>
<clus scale="   58.934">  1  5  2 -1</clus>
<clus scale="  180.788">  1  6  2 -1</clus>
<clus scale="   58.934">  1  3  2 -1</clus>
</clustering>
</event>
<event>
 6    0  0.6549018E+002  0.1170883E+03  0.7546771E-02  0.1247979E+00
         21   -1    0    0  505  501  0.00000000000E+00  0.00000000000E+00  0.36247773242E+03  0.36247773242E+03  0.00000000000E+00 0.  1.
         21   -1    0    0  506  502 -0.00000000000E+00 -0.00000000000E+00 -0.46900887254E+03  0.46900887254E+03  0.00000000000E+00 0.  1.
         21    1    1    2  503  504 -0.11370471449E+02 -0.11266492545E+03 -0.12644083904E+03  0.16973496642E+03  0.00000000000E+00 0.  1.
         21    1    1    2  504  501  0.11016977319E+03  0.50969079904E+02  0.31611895761E+03  0.33862430715E+03  0.00000000000E+00 0.  1.
         21    1    1    2  505  502 -0.65046108094E+02  0.60482373727E+02 -0.25391635083E+03  0.26900302401E+03  0.00000000000E+00 0.  1.
         21    1    1    2  506  503 -0.33753193647E+02  0.12134718232E+01 -0.42292907855E+02  0.54124307386E+02  0.00000000000E+00 0.  1.
<scales pt_clust_3="14000.00000" pt_clust_4="117.08831" pt_clust_5="105.58900" pt_clust_6="33.77500"></scales>
<clustering>
<clus scale="   33.775">  2  6  1 -1</clus>
<clus scale="  105.589">  2  5  1 -1</clus>
<clus scale="  117.088">  1  4  2 -1</clus>
<clus scale="  117.088">  1  3  2 -1</clus>
</clustering>
</event>
<event>
 6    0  0.6549018E+002  0.8188014E+02  0.7546771E-02  0.1323799E+00
         21   -1    0    0  506  501  0.00000000000E+00  0.00000000000E+00  0.67148604631E+02  0.67148604631E+02  0.00000000000E+00 0.  1.
         21   -1    0    0  505  502 -0.00000000000E+00 -0.00000000000E+00 -0.46503581019E+03  0.46503581019E+03  0.00000000000E+00 0.  1.
         21    1    1    2  503  502  0.48839231620E+02 -0.45491169149E+01 -0.19157153268E+03  0.19775140238E+03  0.00000000000E+00 0.  1.
         21    1    1    2  504  501 -0.30128392316E+02 -0.62160487146E+02 -0.15142205781E+03  0.16643402831E+03  0.00000000000E+00 0.  1.
         21    1    1    2  505  504 -0.50891455966E+02 -0.11950622242E+02 -0.63872540341E+02  0.82537622161E+02  0.00000000000E+00 0. -1.
         21    1    1    2  506  503  0.32180616662E+02  0.78660226304E+02  0.89789252792E+01  0.85461361972E+02  0.00000000000E+00 0.  1.
<scales pt_clust_3="49.05064" pt_clust_4="81.88014" pt_clust_5="39.90805" pt_clust_6="14000.00000"></scales>
<clustering>
<clus scale="   49.051">  2  3  1 -1</clus>
<clus scale="   39.908">  2  5  1 -1</clus>
<clus scale="   81.880">  2  4  1 -1</clus>
<clus scale="   81.880">  1  3  2 -1</clus>
</clustering>
</event>
<event>
 6    0  0.6549018E+002  0.8071649E+02  0.7546771E-02  0.1327030E+00
         21   -1    0    0  505  501  0.00000000000E+00  0.00000000000E+00  0.89161367684E+03  0.89161367684E+03  0.00000000000E+00 0. -1.
         21   -1    0    0  503  502 -0.00000000000E+00 -0.00000000000E+00 -0.15564489389E+03  0.15564489389E+03  0.00000000000E+00 0. -1.
         21    1    1    2  503  504  0.42809453952E+02 -0.15615892951E+02 -0.11960036481E+03  0.12798731470E+03  0.00000000000E+00 0. -1.
         21    1    1    2  504  501 -0.42918983849E+02  0.90605983651E+02  0.47348717519E+03  0.48398511188E+03  0.00000000000E+00 0. -1.
         21    1    1    2  505  506 -0.33167690759E+02 -0.73065092588E+02  0.39230012828E+03  0.40042226975E+03  0.00000000000E+00 0. -1.
         21    1    1    2  506  502  0.33277220656E+02 -0.19249981117E+01 -0.10218155716E+02  0.34863874406E+02  0.00000000000E+00 0. -1.
<scales pt_clust_3="75.78508" pt_clust_4="80.71649" pt_clust_5="14000.00000" pt_clust_6="33.33285"></scales>
<clustering>
<clus scale="   33.333">  2  6  1 -1</clus>
<clus scale="   75.785">  2  3  1 -1</clus>
<clus scale="   80.716">  2  4  1 -1</clus>
<clus scale="   80.716">  1  3  2 -1</clus>
</clustering>
</event>
<event>
 6    0  0.6549018E+002  0.8484644E+02  0.7546771E-02  0.1315835E+00
         21   -1    0    0  506  501  0.00000000000E+00  0.00000000000E+00  0.40843390702E+03  0.40843390702E+03  0.00000000000E+00 0.  1.
         21   -1    0    0  505  502 -0.00000000000E+00 -0.00000000000E+00 -0.63642968985E+03  0.63642968985E+03  0.00000000000E+00 0.  1.
         21    1    1    2  503  501 -0.12122583813E+02 -0.45785604365E+02  0.25047999841E+03  0.25491863057E+03  0.00000000000E+00 0.  1.
         21    1    1    2  504  503 -0.55662063186E+02 -0.93524270391E+01  0.13314335575E+03  0.14461288445E+03  0.00000000000E+00 0.  1.
         21    1    1    2  505  504 -0.44198553206E+02 -0.19879027697E+02 -0.58203184329E+02  0.75738355632E+02  0.00000000000E+00 0. -1.
         21    1    1    2  506  502  0.11198320021E+03  0.75017059102E+02 -0.55341595267E+03  0.56959372622E+03  0.00000000000E+00 0.  1.
<scales pt_clust_3="47.36326" pt_clust_4="14000.00000" pt_clust_5="50.18575" pt_clust_6="84.84644"></scales>
<clustering>
<clus scale="   47.363">  1  3  2 -1</clus>
<clus scale="   50.186">  2  5  1 -1</clus>
<clus scale="   84.846">  2  6  1 -1</clus>
<clus scale="   47.363">  1  3  2 -1</clus>
</clustering>
</event>
<event>
 6    0  0.6549018E+002  0.9907654E+02  0.7546771E-02  0.1282250E+00
         21   -1    0    0  506  501  0.00000000000E+00  0.00000000000E+00  0.77391308758E+02  0.77391308758E+02  0.00000000000E+00 0.  1.
         21   -1    0    0  504  502 -0.00000000000E+00 -0.00000000000E+00 -0.55139783067E+03  0.55139783067E+03  0.00000000000E+00 0. -1.
         21    1    1    2  503  502 -0.41685596571E+02 -0.17577140471E+02 -0.13207706765E+03  0.13961015947E+03  0.00000000000E+00 0. -1.
         21    1    1    2  504  501 -0.54190781272E+02  0.56375289388E+02 -0.30365970622E+03  0.31356662962E+03  0.00000000000E+00 0. -1.
         21    1    1    2  505  503  0.90529112846E+02 -0.76094869829E+02 -0.59476716916E+02  0.13237609052E+03  0.00000000000E+00 0.  1.
         21    1    1    2  506  505  0.53472649962E+01  0.37296720911E+02  0.21206968876E+02  0.43236259813E+02  0.00000000000E+00 0. -1.
<scales pt_clust_3="43.70366" pt_clust_4="99.07654" pt_clust_5="14000.00000" pt_clust_6="37.67809"></scales>
<clustering>
<clus scale="   37.678">  1  6  2 -1</clus>
<clus scale="   43.704">  2  3  1 -1</clus>
<clus scale="   99.077">  2  4  1 -1</clus>
<clus scale="   37.678">  1  3  2 -1</clus>
</clustering>
</event>
<event>
 6    0  0.6549018E+002  0.1571662E+03  0.7546771E-02  0.1191934E+00
         21   -1    0    0  505  501  0.00000000000E+00  0.00000000000E+00  0.38448333123E+03  0.38448333123E+03  0.00000000000E+00 0. -1.
         21   -1    0    0  503  502 -0.00000000000E+00 -0.00000000000E+00 -0.83171459177E+02  0.83171459177E+02  0.00000000000E+00 0. -1.
         21    1    1    2  503  501  0.15643336040E+03  0.13680689017E+02  0.16767490548E+03  0.22972468615E+03  0.00000000000E+00 0. -1.
         21    1    1    2  504  502 -0.76416349581E+02 -0.47948882064E+02  0.52599477968E+02  0.10442824741E+03  0.00000000000E+00 0. -1.
         21    1    1    2  505  506 -0.19689988129E+02  0.24504243342E+02  0.61965481580E+02  0.69482907838E+02  0.00000000000E+00 0. -1.
         21    1    1    2  506  504 -0.60327022689E+02  0.97639497050E+01  0.19072007022E+02  0.64018949009E+02  0.00000000000E+00 0. -1.
<scales pt_clust_3="147.03874" pt_clust_4="46.51417" pt_clust_5="31.43491" pt_clust_6="46.51417"></scales>
<clustering>
<clus scale="   31.435">  1  5  2 -1</clus>
<clus scale="   46.514">  4  6 -1 -1</clus>
<clus scale="  147.039">  1  3  2 -1</clus>
<clus scale="   31.435">  1  3  2 -1</clus>
</clustering>
</event>
<event>
 6    0  0.6549018E+002  0.1074557E+03  0.7546771E-02  0.1265355E+00
         21   -1    0    0  505  501  0.00000000000E+00  0.00000000000E+00  0.17292070662E+04  0.17292070662E+04  0.00000000000E+00 0.  1.
         21   -1    0    0  503  502 -0.00000000000E+00 -0.00000000000E+00 -0.88867477663E+02  0.88867477663E+02  0.00000000000E+00 0. -1.
         21    1    1    2  503  504  0.10479491621E+03  0.17347719756E+03  0.11314019922E+04  0.11494114931E+04  0.00000000000E+00 0.  1.
         21    1    1    2  504  501 -0.52957928482E+02 -0.81286749472E+02  0.53220720143E+03  0.54097743306E+03  0.00000000000E+00 0.  1.
         21    1    1    2  505  506 -0.64995891691E+02 -0.61258427191E+02 -0.28313117927E+02  0.93694682269E+02  0.00000000000E+00 0. -1.
         21    1    1    2  506  502  0.13158903965E+02 -0.30932020894E+02  0.50435128503E+01  0.33990935439E+02  0.00000000000E+00 0. -1.
<scales pt_clust_3="14000.00000" pt_clust_4="98.13392" pt_clust_5="107.45573" pt_clust_6="33.61468"></scales>
<clustering>
<clus scale="   33.615">  2  6  1 -1</clus>
<clus scale="   98.134">  1  4  2 -1</clus>
<clus scale="  107.456">  2  5  1 -1</clus>
<clus scale="   98.134">  1  3  2 -1</clus>
</clustering>
</event>
<event>
 6    0  0.6549018E+002  0.1718303E+03  0.7546771E-02  0.1175952E+00
         21   -1    0    0  504  501  0.00000000000E+00  0.00000000000E+00  0.34579565663E+02  0.34579565663E+02  0.00000000000E+00 0. -1.
         21   -1    0    0  505  502 -0.00000000000E+00 -0.00000000000E+00 -0.13586772051E+04  0.13586772051E+04  0.00000000000E+00 0. -1.
         21    1    1    2  503  502  0.11432205116E+03 -0.18004544855E+02 -0.27874739653E+03  0.30181750461E+03  0.00000000000E+00 0. -1.
         21    1    1    2  504  503  0.24688222476E+02  0.31272419216E+02 -0.89214362966E+02  0.97707088238E+02  0.00000000000E+00 0. -1.
         21    1    1    2  505  506 -0.16161495101E+03 -0.38530589039E+02 -0.94276186297E+03  0.95728988763E+03  0.00000000000E+00 0. -1.
         21    1    1    2  506  501  0.22604677374E+02  0.25262714678E+02 -0.13374016989E+02  0.36442290303E+02  0.00000000000E+00 0. -1.
<scales pt_clust_3="41.60629" pt_clust_4="41.60629" pt_clust_5="157.48492" pt_clust_6="33.89950"></scales>
<clustering>
<clus scale="   33.900">  1  6  2 -1</clus>
<clus scale="   41.606">  3  4 -1 -1</clus>
<clus scale="  157.485">  2  5  1 -1</clus>
<clus scale="   33.900">  1  3  2 -1</clus>
</clustering>
</event>
<event>
 6    0  0.6549018E+002  0.1762672E+03  0.7546771E-02  0.1171465E+00
         21   -1    0    0  506  501  0.00000000000E+00  0.00000000000E+00  0.24068329581E+03  0.24068329581E+03  0.00000000000E+00 0. -1.
         21   -1    0    0  503  502 -0.00000000000E+00 -0.00000000000E+00 -0.54098762481E+03  0.54098762481E+03  0.00000000000E+00 0. -1.
         21    1    1    2  503  504  0.19983517855E+03  0.13936989104E+02 -0.20935657891E+03  0.28975595832E+03  0.00000000000E+00 0. -1.
         21    1    1    2  504  501 -0.30535204030E+02 -0.88147275619E+02 -0.83102930584E+02  0.12493373426E+03  0.00000000000E+00 0. -1.
         21    1    1    2  505  502 -0.15629672186E+03  0.10233634206E+02 -0.14603334186E+03  0.21414744796E+03  0.00000000000E+00 0. -1.
         21    1    1    2  506  505 -0.13003252659E+02  0.63976652309E+02  0.13818852235E+03  0.15283378007E+03  0.00000000000E+00 0. -1.
<scales pt_clust_3="14000.00000" pt_clust_4="81.26526" pt_clust_5="176.26722" pt_clust_6="65.28473"></scales>
<clustering>
<clus scale="   65.285">  1  6  2 -1</clus>
<clus scale="   81.265">  1  4  2 -1</clus>
<clus scale="  176.267">  2  5  1 -1</clus>
<clus scale="   65.285">  1  3  2 -1</clus>
</clustering>
</event>
<event>
 6    0  0.6549018E+002  0.1131912E+03  0.7546771E-02  0.1254772E+00
         21   -1    0    0  503  501  0.00000000000E+00  0.00000000000E+00  0.36574435353E+03  0.36574435353E+03  0.00000000000E+00 0. -1.
         21   -1    0    0  506  502 -0.00000000000E+00 -0.00000000000E+00 -0.15029813436E+04  0.15029813436E+04  0.00000000000E+00 0.  1.
         21    1    1    2  503  502 -0.84348380874E+01 -0.88475222765E+02  0.30296171672E+03  0.31572901883E+03  0.00000000000E+00 0. -1.
         21    1    1    2  504  501 -0.28057533296E+02 -0.19268112204E+02  0.47202099677E+02  0.58193844490E+02  0.00000000000E+00 0. -1.
         21    1    1    2  505  504  0.69092771219E+02  0.80326619245E+02 -0.10485759665E+04  0.10539154304E+04  0.00000000000E+00 0.  1.
         21    1    1    2  506  505 -0.32600399836E+02  0.27416715723E+02 -0.43882483993E+03  0.44088740344E+03  0.00000000000E+00 0.  1.
<scales pt_clust_3="113.19125" pt_clust_4="34.03653" pt_clust_5="14000.00000" pt_clust_6="42.62653"></scales>
<clustering>
<clus scale="   34.037">  1  4  2 -1</clus>
<clus scale="   42.627">  2  6  1 -1</clus>
<clus scale="  113.191">  1  3  2 -1</clus>
<clus scale="   34.037">  1  3  2 -1</clus>
</clustering>
</event>
<event>
 6    0  0.6549018E+002  0.1164690E+03  0.7546771E-02  0.1249038E+00
         21   -1    0    0  504  501  0.00000000000E+00  0.00000000000E+00  0.29829410433E+03  0.29829410433E+03  0.00000000000E+00 0.  1.
         21   -1    0    0  503  502 -0.00000000000E+00 -0.00000000000E+00 -0.37451856350E+03  0.37451856350E+03  0.00000000000E+00 0.  1.
         21    1    1    2  503  506 -0.42850764038E+02 -0.66351648959E+02 -0.24244897997E+02  0.82622904676E+02  0.00000000000E+00 0. -1.
         21    1    1    2  504  505 -0.22010694471E+02 -0.32862628573E+02  0.29530966625E+02  0.49360926020E+02  0.00000000000E+00 0. -1.
         21    1    1    2  505  502  0.54597571941E+01  0.17775247546E+03 -0.27282018454E+03  0.32566333010E+03  0.00000000000E+00 0.  1.
         21    1    1    2  506  501  0.59401701315E+02 -0.78538197924E+02  0.19130965674E+03  0.21516550703E+03  0.00000000000E+00 0.  1.
<scales pt_clust_3="83.44521" pt_clust_4="39.55279" pt_clust_5="14000.00000" pt_clust_6="116.46899"></scales>
<clustering>
<clus scale="   39.553">  1  4  2 -1</clus>
<clus scale="   83.445">  2  3  1 -1</clus>
<clus scale="  116.469">  1  6  2 -1</clus>
<clus scale="   39.553">  1  3  2 -1</clus>
</clustering>
</event>
<event>
 6    0  0.6549018E+002  0.1000628E+03  0.7546771E-02  0.1280164E+00
         21   -1    0    0  506  501  0.00000000000E+00  0.00000000000E+00  0.25003299451E+03  0.25003299451E+03  0.00000000000E+00 0. -1.
         21   -1    0    0  505  502 -0.00000000000E+00 -0.00000000000E+00 -0.39547483953E+03  0.39547483953E+03  0.00000000000E+00 0.  1.
         21    1    1    2  503  504 -0.12305475666E+03  0.51800544216E+02  0.83828582578E+02  0.15764834530E+03  0.00000000000E+00 0. -1.
         21    1    1    2  504  502  0.64193340743E+02 -0.40575381337E+02 -0.23764090022E+03  0.24948014755E+03  0.00000000000E+00 0.  1.
         21    1    1    2  505  501  0.38727453666E+02  0.62184097680E+02 -0.88688141364E+02  0.11503157867E+03  0.00000000000E+00 0. -1.
         21    1    1    2  506  503  0.20133962249E+02 -0.73409260558E+02  0.97058613990E+02  0.12334776253E+03  0.00000000000E+00 0. -1.
<scales pt_clust_3="100.06281" pt_clust_4="14000.00000" pt_clust_5="73.25761" pt_clust_6="73.93338"></scales>
<clustering>
<clus scale="   73.258">  2  5  1 -1</clus>
<clus scale="   73.933">  1  6  2 -1</clus>
<clus scale="  100.063">  1  3  2 -1</clus>
<clus scale="   73.933">  1  3  2 -1</clus>
</clustering>
</event>
<event>
 6    0  0.6549018E+002  0.9882196E+02  0.7546771E-02  0.1282793E+00
         21   -1    0    0  505  501  0.00000000000E+00  0.00000000000E+00  0.78702629022E+03  0.78702629022E+03  0.00000000000E+00 0.  1.
         21   -1    0    0  506  502 -0.00000000000E+00 -0.00000000000E+00 -0.14373120222E+03  0.14373120222E+03  0.00000000000E+00 0.  1.
         21    1    1    2  503  502  0.82324970229E+02 -0.35845215783E+02  0.42681985657E+03  0.43616220627E+03  0.00000000000E+00 0.  1.
         21    1    1    2  504  501 -0.28734915778E+02  0.25033659162E+02 -0.46185679088E+02  0.59879014927E+02  0.00000000000E+00 0. -1.
         21    1    1    2  505  503 -0.62773647704E+02 -0.50418877280E+02  0.33207776697E+03  0.34169904499E+03  0.00000000000E+00 0.  1.
         21    1    1    2  506  504  0.91835932530E+01  0.61230433901E+02 -0.69416856446E+02  0.93017226251E+02  0.00000000000E+00 0.  1.
<scales pt_clust_3="87.04145" pt_clust_4="36.71133" pt_clust_5="80.51456" pt_clust_6="36.71133"></scales>
<clustering>
<clus scale="   36.711">  4  6 -1 -1</clus>
<clus scale="   80.515">  1  5  2 -1</clus>
<clus scale="   87.041">  1  3  2 -1</clus>
<clus scale="   80.515">  1  3  2 -1</clus>
</clustering>
</event>
<event>
 6    0  0.6549018E+002  0.7023835E+02  0.7546771E-02  0.1359284E+00
         21   -1    0    0  504  501  0.00000000000E+00  0.00000000000E+00  0.11810563790E+04  0.11810563790E+04  0.00000000000E+00 0.  1.
         21   -1    0    0  506  502 -0.00000000000E+00 -0.00000000000E+00 -0.71056000943E+02  0.71056000943E+02  0.00000000000E+00 0.  1.
         21    1    1    2  503  502 -0.23424174800E+02 -0.57736618798E+02  0.16144671132E+02  0.64365048910E+02  0.00000000000E+00 0.  1.
         21    1    1    2  504  503  0.67193708752E+02  0.33967949598E+02  0.39924957114E+02  0.85222170216E+02  0.00000000000E+00 0.  1.
         21    1    1    2  505  501  0.31308388758E+02  0.28388133283E+02  0.10185035237E+04  0.10193799729E+04  0.00000000000E+00 0.  1.
         21    1    1    2  506  505 -0.75077922710E+02 -0.46194640826E+01  0.35427226106E+02  0.83145187933E+02  0.00000000000E+00 0.  1.
<scales pt_clust_3="53.04853" pt_clust_4="14000.00000" pt_clust_5="42.26229" pt_clust_6="70.23835"></scales>
<clustering>
<clus scale="   42.262">  1  5  2 -1</clus>
<clus scale="   53.049">  2  3  1 -1</clus>
<clus scale="   70.238">  1  6  2 -1</clus>
<clus scale="   42.262">  1  3  2 -1</clus>
</clustering>
</event>
<event>
 6    0  0.6549018E+002  0.1841375E+03  0.7546771E-02  0.1163858E+00
         21   -1    0    0  506  501  0.00000000000E+00  0.00000000000E+00  0.10307760754E+04  0.10307760754E+04  0.00000000000E+00 0. -1.
         21   -1    0    0  505  502 -0.00000000000E+00 -0.00000000000E+00 -0.41969140388E+03  0.41969140388E+03  0.00000000000E+00 0. -1.
         21    1    1    2  503  504 -0.22034306288E+02  0.14537439031E+03 -0.15901026864E+03  0.21657213474E+03  0.00000000000E+00 0. -1.
         21    1    1    2  504  502 -0.29170669774E+02  0.39677014359E+02 -0.94420989657E+02  0.10649186228E+03  0.00000000000E+00 0. -1.
         21    1    1    2  505  501  0.12546723610E+02 -0.15394859958E+03 -0.85195458432E+02  0.17639687560E+03  0.00000000000E+00 0. -1.
         21    1    1    2  506  503  0.38658252452E+02 -0.31102805094E+02  0.94971138826E+03  0.95100660668E+03  0.00000000000E+00 0. -1.
<scales pt_clust_3="33.12935" pt_clust_4="33.12935" pt_clust_5="175.01324" pt_clust_6="49.61698"></scales>
<clustering>
<clus scale="   33.129">  3  4 -1 -1</clus>
<clus scale="   49.617">  1  6  2 -1</clus>
<clus scale="  175.013">  1  5  2 -1</clus>
<clus scale="   49.617">  1  3  2 -1</clus>
</clustering>
</event>
<event>
 6    0  0.6549018E+002  0.9045288E+02  0.7546771E-02  0.1301759E+00
         21   -1    0    0  505  501  0.00000000000E+00  0.00000000000E+00  0.94145486307E+03  0.94145486307E+03  0.00000000000E+00 0. -1.
         21   -1    0    0  506  502 -0.00000000000E+00 -0.00000000000E+00 -0.43086547371E+03  0.43086547371E+03  0.00000000000E+00 0. -1.
         21    1    1    2  503  501  0.49869477043E+02 -0.28890963809E+02  0.89963058111E+03  0.90147481108E+03  0.00000000000E+00 0. -1.
         21    1    1    2  504  503 -0.99137314915E+02  0.71358315012E+02 -0.15171185587E+03  0.19477346724E+03  0.00000000000E+00 0. -1.
         21    1    1    2  505  502  0.80512780000E+02 -0.16027964867E+02 -0.21343387909E+03  0.22867711767E+03  0.00000000000E+00 0. -1.
         21    1    1    2  506  504 -0.31244942128E+02 -0.26439386336E+02 -0.23895456801E+02  0.47394940808E+02  0.00000000000E+00 0.  1.
<scales pt_clust_3="57.60169" pt_clust_4="14000.00000" pt_clust_5="90.45288" pt_clust_6="40.93028"></scales>
<clustering>
<clus scale="   40.930">  2  6  1 -1</clus>
<clus scale="   57.602">  1  3  2 -1</clus>
<clus scale="   90.453">  2  5  1 -1</clus>
<clus scale="   57.602">  1  3  2 -1</clus>
</clustering>
</event>
<event>
 6    0  0.6549018E+002  0.1970258E+03  0.7546771E-02  0.1152273E+00
         21   -1    0    0  504  501  0.00000000000E+00  0.00000000000E+00  0.14541537094E+03  0.14541537094E+03  0.00000000000E+00 0. -1.
         21   -1    0    0  505  502 -0.00000000000E+00 -0.00000000000E+00 -0.19659399001E+04  0.19659399001E+04  0.00000000000E+00 0. -1.
         21    1    1    2  503  501  0.13495112933E+03  0.15036784650E+03  0.58993658954E+02  0.21048170554E+03  0.00000000000E+00 0. -1.
         21    1    1    2  504  506 -0.56217160775E+02 -0.26763549664E+02 -0.14060034592E+03  0.15376967851E+03  0.00000000000E+00 0. -1.
         21    1    1    2  505  503 -0.91661206701E+02 -0.74416410833E+02 -0.12098928301E+04  0.12156398477E+04  0.00000000000E+00 0. -1.
         21    1    1    2  506  502  0.12927238141E+02 -0.49187886007E+02 -0.52902501219E+03  0.53146403936E+03  0.00000000000E+00 0. -1.
<scales pt_clust_3="14000.00000" pt_clust_4="63.44095" pt_clust_5="197.02579" pt_clust_6="50.85825"></scales>
<clustering>
<clus scale="   50.858">  2  6  1 -1</clus>
<clus scale="   63.441">  2  4  1 -1</clus>
<clus scale="  197.026">  2  5  1 -1</clus>
<clus scale="  197.026">  1  3  2 -1</clus>
</clustering>
</event>
<event>
 6    0  0.6549018E+002  0.8043387E+02  0.7546771E-02  0.1327825E+00
         21   -1    0    0  506  501  0.00000000000E+00  0.00000000000E+00  0.20741198256E+04  0.20741198256E+04  0.00000000000E+00 0.  1.
         21   -1    0    0  504  502 -0.00000000000E+00 -0.00000000000E+00 -0.60343367513E+02  0.60343367513E+02  0.00000000000E+00 0.  1.
         21    1    1    2  503  501 -0.51831733318E+02 -0.87614037366E+01  0.93899357310E+03  0.94046383296E+03  0.00000000000E+00 0.  1.
         21    1    1    2  504  503  0.26114688936E+02 -0.29783647237E+02 -0.29126549855E+02  0.49167047170E+02  0.00000000000E+00 0.  1.
         21    1    1    2  505  502 -0.34000451559E+02 -0.52800521464E+02  0.38108941084E+02  0.73458948833E+02  0.00000000000E+00 0. -1.
         21    1    1    2  506  505  0.59717495941E+02  0.91345572438E+02  0.10658004937E+04  0.10713733641E+04  0.00000000000E+00 0.  1.
<scales pt_clust_3="51.85933" pt_clust_4="39.61114" pt_clust_5="80.43387" pt_clust_6="14000.00000"></scales>
<clustering>
<clus scale="   39.611">  2  4  1 -1</clus>
<clus scale="   51.859">  1  3  2 -1</clus>
<clus scale="   80.434">  2  5  1 -1</clus>
<clus scale="   51.859">  1  3  2 -1</clus>
</clustering>
</event>
<event>
 6    0  0.6549018E+002  0.1238150E+03  0.7546771E-02  0.1236933E+00
         21   -1    0    0  504  501  0.00000000000E+00  0.00000000000E+00  0.17113129536E+03  0.17113129536E+03  0.00000000000E+00 0.  1.
         21   -1    0    0  505  502 -0.00000000000E+00 -0.00000000000E+00 -0.10063696826E+04  0.10063696826E+04  0.00000000000E+00 0.  1.
         21    1    1    2  503  501 -0.98748337477E+01 -0.30389214024E+02  0.32485544657E+02  0.45566734382E+02  0.00000000000E+00 0. -1.
         21    1    1    2  504  502 -0.39188594943E+02 -0.15394497475E+02 -0.37925285711E+02  0.56666249412E+02  0.00000000000E+00 0.  1.
         21    1    1    2  505  506  0.11236227686E+03 -0.53928050562E+02 -0.91890474693E+03  0.92731841879E+03  0.00000000000E+00 0.  1.
         21    1    1    2  506  503 -0.63298848165E+02  0.99711762061E+02  0.89106100722E+02  0.14794957539E+03  0.00000000000E+00 0.  1.
<scales pt_clust_3="31.95335" pt_clust_4="43.57912" pt_clust_5="123.81496" pt_clust_6="14000.00000"></scales>
<clustering>
<clus scale="   31.953">  1  3  2 -1</clus>
<clus scale="   43.579">  1  4  2 -1</clus>
<clus scale="  123.815">  2  5  1 -1</clus>
<clus scale="   31.953">  1  3  2 -1</clus>
</clustering>
</event>
<event>
 6    0  0.6549018E+002  0.2395434E+03  0.7546771E-02  0.1120097E+00
         21   -1    0    0  505  501  0.00000000000E+00  0.00000000000E+00  0.86829458505E+03  0.86829458505E+03  0.00000000000E+00 0. -1.
         21   -1    0    0  503  502 -0.00000000000E+00 -0.00000000000E+00 -0.21620624370E+03  0.21620624370E+03  0.00000000000E+00 0. -1.
         21    1    1    2  503  506 -0.24707976984E+02 -0.37384502719E+02 -0.24416749053E+02  0.51031978254E+02  0.00000000000E+00 0. -1.
         21    1    1    2  504  501  0.15744625570E+03 -0.14187187091E+03  0.42599844413E+03  0.47580628999E+03  0.00000000000E+00 0. -1.
         21    1    1    2  505  502 -0.19100468685E+03  0.29827654363E+03  0.23308530630E+03  0.42400524395E+03  0.00000000000E+00 0. -1.
         21    1    1    2  506  504  0.58266408127E+02 -0.11902017001E+03  0.17421339970E+02  0.13365731656E+03  0.00000000000E+00 0. -1.
<scales pt_clust_3="44.81166" pt_clust_4="239.54340" pt_clust_5="14000.00000" pt_clust_6="140.47727"></scales>
<clustering>
<clus scale="   44.812">  2  3  1 -1</clus>
<clus scale="  140.477">  2  6  1 -1</clus>
<clus scale="  239.543">  1  4  2 -1</clus>
<clus scale="  239.543">  1  3  2 -1</clus>
</clustering>
</event>
<event>
 6    0  0.6549018E+002  0.1486125E+03  0.7546771E-02  0.1202188E+00
         21   -1    0    0  502  501  0.00000000000E+00  0.00000000000E+00  0.39294777052E+03  0.39294777052E+03  0.00000000000E+00 0.  1.
         21   -1    0    0  505  502 -0.00000000000E+00 -0.00000000000E+00 -0.19116084817E+03  0.19116084817E+03  0.00000000000E+00 0. -1.
         21    1    1    2  503  504 -0.89520576786E+02 -0.31738559581E+02  0.10214468288E+02  0.95528033555E+02  0.00000000000E+00 0. -1.
         21    1    1    2  504  501  0.20376587371E+02 -0.23305818737E+02  0.15807960587E+03  0.16108236493E+03  0.00000000000E+00 0.  1.
         21    1    1    2  505  506  0.11584255036E+03  0.13524062263E+03 -0.67414299780E+02  0.19040538411E+03  0.00000000000E+00 0. -1.
         21    1    1    2  506  503 -0.46698560948E+02 -0.80196244314E+02  0.10090714796E+03  0.13709283609E+03  0.00000000000E+00 0.  1.
<scales pt_clust_3="92.62336" pt_clust_4="30.95750" pt_clust_5="14000.00000" pt_clust_6="148.61251"></scales>
<clustering>
<clus scale="   30.957">  1  4  2 -1</clus>
<clus scale="   92.623">  1  3  2 -1</clus>
<clus scale="  148.613">  1  6  2 -1</clus>
<clus scale="   30.957">  1  3  2 -1</clus>
</clustering>
</event>
<event>
 6    0  0.6549018E+002  0.2415974E+03  0.7546771E-02  0.1118733E+00
         21   -1    0    0  503  501  0.00000000000E+00  0.00000000000E+00  0.36755298574E+03  0.36755298574E+03  0.00000000000E+00 0. -1.
         21   -1    0    0  504  502 -0.00000000000E+00 -0.00000000000E+00 -0.16429412278E+03  0.16429412278E+03  0.00000000000E+00 0. -1.
         21    1    1    2  503  506 -0.17734820134E+03  0.79399842051E+02  0.10285873761E+03  0.21985595134E+03  0.00000000000E+00 0. -1.
         21    1    1    2  504  505  0.74748644198E+02 -0.59038842761E+02  0.46746998150E+02  0.10610479066E+03  0.00000000000E+00 0. -1.
         21    1    1    2  505  501  0.12232817843E+03 -0.52948381076E+02 -0.78663748429E+01  0.13352750334E+03  0.00000000000E+00 0. -1.
         21    1    1    2  506  502 -0.19728621282E+02  0.32587381786E+02  0.61519502041E+02  0.72358863180E+02  0.00000000000E+00 0.  1.
<scales pt_clust_3="37.01551" pt_clust_4="56.90510" pt_clust_5="236.45704" pt_clust_6="37.01551"></scales>
<clustering>
<clus scale="   37.016">  3  6 -1 -1</clus>
<clus scale="   56.905">  4  5 -1 -1</clus>
<clus scale="  236.457">  2  4  1 -1</clus>
<clus scale="  241.597">  1  3  2 -1</clus>
</clustering>
</event>
<event>
 6    0  0.6549018E+002  0.9946692E+02  0.7546771E-02  0.1281421E+00
         21   -1    0    0  504  501  0.00000000000E+00  0.00000000000E+00  0.86562892567E+03  0.86562892567E+03  0.00000000000E+00 0. -1.
         21   -1    0    0  506  502 -0.00000000000E+00 -0.00000000000E+00 -0.97598891985E+02  0.97598891985E+02  0.00000000000E+00 0.  1.
         21    1    1    2  503  502 -0.32466948485E+02  0.37478771295E+01 -0.14499154388E+02  0.35754367633E+02  0.00000000000E+00 0.  1.
         21    1    1    2  504  503 -0.46711163244E+02  0.12411226000E+03  0.39401421998E+03  0.41573187441E+03  0.00000000000E+00 0. -1.
         21    1    1    2  505  501  0.42959912973E+01 -0.42229244217E+02  0.39550186660E+03  0.39777316538E+03  0.00000000000E+00 0. -1.
         21    1    1    2  506  505  0.74882120431E+02 -0.85630892913E+02 -0.69868985070E+01  0.11396841024E+03  0.00000000000E+00 0.  1.
<scales pt_clust_3="32.68255" pt_clust_4="14000.00000" pt_clust_5="42.34023" pt_clust_6="99.46692"></scales>
<clustering>
<clus scale="   32.683">  2  3  1 -1</clus>
<clus scale="   42.340">  1  5  2 -1</clus>
<clus scale="   99.467">  2  6  1 -1</clus>
<clus scale="   42.340">  1  3  2 -1</clus>
</clustering>
</event>
<event>
 6    0  0.6549018E+002  0.1025700E+03  0.7546771E-02  0.1274983E+00
         21   -1    0    0  503  501  0.00000000000E+00  0.00000000000E+00  0.22990420514E+04  0.22990420514E+04  0.00000000000E+00 0. -1.
         21   -1    0    0  505  502 -0.00000000000E+00 -0.00000000000E+00 -0.75514083717E+03  0.75514083717E+03  0.00000000000E+00 0.  1.
         21    1    1    2  503  504  0.85463428556E+02  0.44662598565E+02  0.17860691226E+04  0.17886703598E+04  0.00000000000E+00 0. -1.
         21    1    1    2  504  502  0.39261165013E+02  0.21378494350E+02 -0.46142333669E+02  0.64246354413E+02  0.00000000000E+00 0. -1.
         21    1    1    2  505  506  0.56974644128E+02 -0.83329427816E+01 -0.67930626373E+03  0.68174228852E+03  0.00000000000E+00 0.  1.
         21    1    1    2  506  501 -0.18169923770E+03 -0.57708150133E+02  0.48328068897E+03  0.51952388579E+03  0.00000000000E+00 0. -1.
<scales pt_clust_3="14000.00000" pt_clust_4="44.70435" pt_clust_5="95.95778" pt_clust_6="102.57002"></scales>
<clustering>
<clus scale="   44.704">  2  4  1 -1</clus>
<clus scale="   95.958">  2  5  1 -1</clus>
<clus scale="  102.570">  2  6  1 -1</clus>
<clus scale="  102.570">  1  3  2 -1</clus>
</clustering>
</event>
<event>
 6    0  0.6549018E+002  0.1381487E+03  0.7546771E-02  0.1215842E+00
         21   -1    0    0  504  501  0.00000000000E+00  0.00000000000E+00  0.17277722570E+03  0.17277722570E+03  0.00000000000E+00 0.  1.
         21   -1    0    0  505  502 -0.00000000000E+00 -0.00000000000E+00 -0.11956150753E+04  0.11956150753E+04  0.00000000000E+00 0. -1.
         21    1    1    2  503  502 -0.19515505805E+02 -0.22942971479E+02 -0.23460360529E+03  0.23652925088E+03  0.00000000000E+00 0. -1.
         21    1    1    2  504  503 -0.11876520872E+03  0.37463124089E+02  0.10837815863E+03  0.16508932654E+03  0.00000000000E+00 0.  1.
         21    1    1    2  505  506  0.82404381490E+02 -0.10445654930E+03 -0.83235209157E+03  0.84291853529E+03  0.00000000000E+00 0. -1.
         21    1    1    2  506  501  0.55876333039E+02  0.89936396693E+02 -0.64260311313E+02  0.12385518824E+03  0.00000000000E+00 0. -1.
<scales pt_clust_3="30.12034" pt_clust_4="138.14868" pt_clust_5="14000.00000" pt_clust_6="102.96334"></scales>
<clustering>
<clus scale="   30.120">  2  3  1 -1</clus>
<clus scale="  102.963">  1  6  2 -1</clus>
<clus scale="  138.149">  1  4  2 -1</clus>
<clus scale="  102.963">  1  3  2 -1</clus>
</clustering>
</event>
<event>
 6    0  0.6549018E+002  0.1678015E+03  0.7546771E-02  0.1180160E+00
         21   -1    0    0  505  501  0.00000000000E+00  0.00000000000E+00  0.62140778116E+03  0.62140778116E+03  0.00000000000E+00 0.  1.
         21   -1    0    0  504  502 -0.00000000000E+00 -0.00000000000E+00 -0.84727131969E+02  0.84727131969E+02  0.00000000000E+00 0.  1.
         21    1    1    2  503  506  0.66728192116E+02  0.58944852710E+02  0.24152670997E+03  0.25741464393E+03  0.00000000000E+00 0.  1.
         21    1    1    2  504  501  0.52376517854E+01 -0.44209286713E+02  0.23392163956E+02  0.50290032436E+02  0.00000000000E+00 0.  1.
         21    1    1    2  505  503  0.76301961553E+02 -0.22283543848E+02  0.23126736138E+03  0.24454680146E+03  0.00000000000E+00 0.  1.
         21    1    1    2  506  502 -0.14826780545E+03  0.75479778508E+01  0.40494413888E+02  0.15388343530E+03  0.00000000000E+00 0.  1.
<scales pt_clust_3="78.97646" pt_clust_4="44.51847" pt_clust_5="78.97646" pt_clust_6="146.72412"></scales>
<clustering>
<clus scale="   44.518">  2  4  1 -1</clus>
<clus scale="   78.976">  3  5 -1 -1</clus>
<clus scale="  146.724">  2  6  1 -1</clus>
<clus scale="  167.802">  1  3  2 -1</clus>
</clustering>
</event>
<event>
 6    0  0.6549018E+002  0.8379384E+02  0.7546771E-02  0.1318617E+00
         21   -1    0    0  505  501  0.00000000000E+00  0.00000000000E+00  0.46957970060E+03  0.46957970060E+03  0.00000000000E+00 0.  1.
         21   -1    0    0  504  502 -0.00000000000E+00 -0.00000000000E+00 -0.11166042659E+03  0.11166042659E+03  0.00000000000E+00 0.  1.
         21    1    1    2  503  506  0.83268197533E+02  0.50625573642E+02 -0.12614653990E+02  0.98263273517E+02  0.00000000000E+00 0.  1.
         21    1    1    2  504  503 -0.61713783114E+02 -0.39531748363E+02 -0.77546159406E+01  0.73698603944E+02  0.00000000000E+00 0.  1.
         21    1    1    2  505  502 -0.76832968749E+02 -0.28918878782E+02  0.30450227330E+03  0.31537476291E+03  0.00000000000E+00 0.  1.
         21    1    1    2  506  501  0.55278554331E+02  0.17825053502E+02  0.73786270643E+02  0.93903486818E+02  0.00000000000E+00 0.  1.
<scales pt_clust_3="14000.00000" pt_clust_4="83.79384" pt_clust_5="35.55122" pt_clust_6="58.08142"></scales>
<clustering>
<clus scale="   58.081">  1  6  2 -1</clus>
<clus scale="   35.551">  1  5  2 -1</clus>
<clus scale="   83.794">  2  4  1 -1</clus>
<clus scale="   58.081">  1  3  2 -1</clus>
</clustering>
</event>
<event>
 6    0  0.6549018E+002  0.9326105E+02  0.7546771E-02  0.1295141E+00
         21   -1    0    0  504  501  0.00000000000E+00  0.00000000000E+00  0.33360178887E+03  0.33360178887E+03  0.00000000000E+00 0. -1.
         21   -1    0    0  505  502 -0.00000000000E+00 -0.00000000000E+00 -0.17531201822E+03  0.17531201822E+03  0.00000000000E+00 0. -1.
         21    1    1    2  503  502  0.19637670019E+02  0.80837052009E+02 -0.68034401561E+02  0.10746602652E+03  0.00000000000E+00 0. -1.
         21    1    1    2  504  506  0.73960216705E+02 -0.93500539531E+01  0.19163415303E+03  0.20562389397E+03  0.00000000000E+00 0. -1.
         21    1    1    2  505  501  0.15855955119E+02  0.31496798598E+02  0.28620246286E+02  0.45415615510E+02  0.00000000000E+00 0.  1.
         21    1    1    2  506  503 -0.10945384184E+03 -0.10298379665E+03  0.60697728914E+01  0.15040827108E+03  0.00000000000E+00 0. -1.
<scales pt_clust_3="93.26105" pt_clust_4="85.39077" pt_clust_5="35.26272" pt_clust_6="14000.00000"></scales>
<clustering>
<clus scale="   35.263">  1  5  2 -1</clus>
<clus scale="   85.391">  1  4  2 -1</clus>
<clus scale="   93.261">  2  3  1 -1</clus>
<clus scale="   35.263">  1  3  2 -1</clus>
</clustering>
</event>
<event>
 6    0  0.6549018E+002  0.2253694E+03  0.7546771E-02  0.1129942E+00
         21   -1    0    0  505  501  0.00000000000E+00  0.00000000000E+00  0.31881161048E+03  0.31881161048E+03  0.00000000000E+00 0. -1.
         21   -1    0    0  506  502 -0.00000000000E+00 -0.00000000000E+00 -0.27537843697E+03  0.27537843697E+03  0.00000000000E+00 0. -1.
         21    1    1    2  503  504  0.10815327298E+02 -0.64084862504E+02 -0.14021487661E+02  0.66486412318E+02  0.00000000000E+00 0. -1.
         21    1    1    2  504  501 -0.10230194323E+03  0.19654405398E+03  0.16231671688E+03  0.27466701535E+03  0.00000000000E+00 0. -1.
         21    1    1    2  505  502  0.36561002482E+02  0.87309210160E+01  0.31626020375E+02  0.49123732035E+02  0.00000000000E+00 0.  1.
         21    1    1    2  506  503  0.54925613452E+02 -0.14119011249E+03 -0.13648807608E+03  0.20391288775E+03  0.00000000000E+00 0. -1.
<scales pt_clust_3="41.30094" pt_clust_4="216.30626" pt_clust_5="37.58904" pt_clust_6="41.30094"></scales>
<clustering>
<clus scale="   37.589">  1  5  2 -1</clus>
<clus scale="   41.301">  3  6 -1 -1</clus>
<clus scale="  216.306">  1  4  2 -1</clus>
<clus scale="   37.589">  1  3  2 -1</clus>
</clustering>
</event>
<event>
 6    0  0.6549018E+002  0.8917112E+02  0.7546771E-02  0.1304871E+00
         21   -1    0    0  505  501  0.00000000000E+00  0.00000000000E+00  0.17051798707E+03  0.17051798707E+03  0.00000000000E+00 0. -1.
         21   -1    0    0  501  502 -0.00000000000E+00 -0.00000000000E+00 -0.58968725567E+03  0.58968725567E+03  0.00000000000E+00 0. -1.
         21    1    1    2  503  502 -0.51123457629E+02  0.76750643387E+01 -0.38188107989E+03  0.38536433892E+03  0.00000000000E+00 0. -1.
         21    1    1    2  504  506  0.97680619511E+02  0.59039583183E+02  0.99738470003E+02  0.15157486008E+03  0.00000000000E+00 0. -1.
         21    1    1    2  505  504 -0.77686781787E+01 -0.31115798377E+02  0.32555658364E+02  0.45699192124E+02  0.00000000000E+00 0. -1.
         21    1    1    2  506  503 -0.38788483704E+02 -0.35598849145E+02 -0.16958231707E+03  0.17756685161E+03  0.00000000000E+00 0. -1.
<scales pt_clust_3="51.73870" pt_clust_4="14000.00000" pt_clust_5="32.07094" pt_clust_6="89.17112"></scales>
<clustering>
<clus scale="   32.071">  1  5  2 -1</clus>
<clus scale="   51.739">  2  3  1 -1</clus>
<clus scale="   89.171">  2  6  1 -1</clus>
<clus scale="   32.071">  1  3  2 -1</clus>
</clustering>
</event>
<event>
 6    0  0.6549018E+002  0.1112356E+03  0.7546771E-02  0.1258299E+00
         21   -1    0    0  503  501  0.00000000000E+00  0.00000000000E+00  0.90961986885E+03  0.90961986885E+03  0.00000000000E+00 0.  1.
         21   -1    0    0  505  502 -0.00000000000E+00 -0.00000000000E+00 -0.55491565704E+02  0.55491565704E+02  0.00000000000E+00 0.  1.
         21    1    1    2  503  506  0.40337090131E+02 -0.44670262438E+02  0.36214722537E+03  0.36711459522E+03  0.00000000000E+00 0.  1.
         21    1    1    2  504  502 -0.37083917443E+02  0.17271560970E+03  0.18905063869E+03  0.25873933361E+03  0.00000000000E+00 0.  1.
         21    1    1    2  505  501  0.16741847689E+02 -0.55112377634E+02  0.53491018536E+02  0.78606314610E+02  0.00000000000E+00 0. -1.
         21    1    1    2  506  504 -0.19995020377E+02 -0.72932969632E+02  0.24943942055E+03  0.26065119111E+03  0.00000000000E+00 0.  1.
<scales pt_clust_3="63.21854" pt_clust_4="111.23555" pt_clust_5="57.59916" pt_clust_6="14000.00000"></scales>
<clustering>
<clus scale="   57.599">  2  5  1 -1</clus>
<clus scale="   63.219">  1  3  2 -1</clus>
<clus scale="  111.236">  2  4  1 -1</clus>
<clus scale="   63.219">  1  3  2 -1</clus>
</clustering>
</event>
<event>
 6    0  0.6549018E+002  0.1428701E+03  0.7546771E-02  0.1209518E+00
         21   -1    0    0  503  501  0.00000000000E+00  0.00000000000E+00  0.29098860094E+02  0.29098860094E+02  0.00000000000E+00 0. -1.
         21   -1    0    0  506  502 -0.00000000000E+00 -0.00000000000E+00 -0.22223461788E+04  0.22223461788E+04  0.00000000000E+00 0. -1.
         21    1    1    2  503  504 -0.56203052625E+02  0.96759250011E+02 -0.38511908066E+03  0.40104593487E+03  0.00000000000E+00 0. -1.
         21    1    1    2  504  502 -0.64042358942E+01  0.35303290470E+02 -0.31983268356E+03  0.32183890695E+03  0.00000000000E+00 0. -1.
         21    1    1    2  505  501  0.12929591065E+03 -0.12327726037E+03 -0.39874303836E+03  0.43693331995E+03  0.00000000000E+00 0. -1.
         21    1    1    2  506  505 -0.66688622134E+02 -0.87852801067E+01 -0.10895525161E+04  0.10916268771E+04  0.00000000000E+00 0. -1.
<scales pt_clust_3="14000.00000" pt_clust_4="35.87947" pt_clust_5="142.87011" pt_clust_6="71.28926"></scales>
<clustering>
<clus scale="   35.879">  2  4  1 -1</clus>
<clus scale="   71.289">  2  6  1 -1</clus>
<clus scale="  142.870">  2  5  1 -1</clus>
<clus scale="  142.870">  1  3  2 -1</clus>
</clustering>
</event>
<event>
 6    0  0.6549018E+002  0.8151374E+02  0.7546771E-02  0.1324810E+00
         21   -1    0    0  503  501  0.00000000000E+00  0.00000000000E+00  0.22973921952E+04  0.22973921952E+04  0.00000000000E+00 0.  1.
         21   -1    0    0  504  502 -0.00000000000E+00 -0.00000000000E+00 -0.26872907964E+02  0.26872907964E+02  0.00000000000E+00 0. -1.
         21    1    1    2  503  505 -0.96662039380E+02  0.78400250212E+02  0.12820926506E+04  0.12881194486E+04  0.00000000000E+00 0.  1.
         21    1    1    2  504  506  0.32868366867E+02  0.35505420665E+01  0.74763602950E+01  0.33894422148E+02  0.00000000000E+00 0. -1.
         21    1    1    2  505  502  0.16596396507E+02 -0.36524211815E+02  0.32742806509E+02  0.51783682795E+02  0.00000000000E+00 0. -1.
         21    1    1    2  506  501  0.47197276006E+02 -0.45426580464E+02  0.94820746980E+03  0.95046754960E+03  0.00000000000E+00 0. -1.
<scales pt_clust_3="14000.00000" pt_clust_4="33.05958" pt_clust_5="52.14880" pt_clust_6="81.51374"></scales>
<clustering>
<clus scale="   33.060">  2  4  1 -1</clus>
<clus scale="   52.149">  2  5  1 -1</clus>
<clus scale="   81.514">  1  6  2 -1</clus>
<clus scale="   81.514">  1  3  2 -1</clus>
</clustering>
</event>
<event>
 6    0  0.6549018E+002  0.8995213E+02  0.7546771E-02  0.1302968E+00
         21   -1    0    0  502  501  0.00000000000E+00  0.00000000000E+00  0.43617409424E+03  0.43617409424E+03  0.00000000000E+00 0. -1.
         21   -1    0    0  504  502 -0.00000000000E+00 -0.00000000000E+00 -0.52775018428E+03  0.52775018428E+03  0.00000000000E+00 0. -1.
         21    1    1    2  503  501  0.10594011503E+02 -0.38152388648E+02  0.35962948495E+03  0.36180271459E+03  0.00000000000E+00 0. -1.
         21    1    1    2  504  505 -0.88071043385E+02 -0.28036018526E+02 -0.34845490394E+03  0.36050429553E+03  0.00000000000E+00 0. -1.
         21    1    1    2  505  506  0.46022672387E+02  0.98143397905E+02 -0.14430570377E+03  0.18048365319E+03  0.00000000000E+00 0. -1.
         21    1    1    2  506  503  0.31454359495E+02 -0.31954990730E+02  0.41555032726E+02  0.61133615210E+02  0.00000000000E+00 0. -1.
<scales pt_clust_3="39.59593" pt_clust_4="89.95213" pt_clust_5="14000.00000" pt_clust_6="69.63473"></scales>
<clustering>
<clus scale="   39.596">  1  3  2 -1</clus>
<clus scale="   69.635">  1  6  2 -1</clus>
<clus scale="   89.952">  2  4  1 -1</clus>
<clus scale="   39.596">  1  3  2 -1</clus>
</clustering>
</event>
<event>
 6    0  0.6549018E+002  0.8802122E+02  0.7546771E-02  0.1307716E+00
         21   -1    0    0  503  501  0.00000000000E+00  0.00000000000E+00  0.56806602177E+03  0.56806602177E+03  0.00000000000E+00 0. -1.
         21   -1    0    0  506  502 -0.00000000000E+00 -0.00000000000E+00 -0.20556725928E+03  0.20556725928E+03  0.00000000000E+00 0. -1.
         21    1    1    2  503  505  0.30682170281E+02 -0.26516233909E+02  0.46019749375E+03  0.46198077826E+03  0.00000000000E+00 0. -1.
         21    1    1    2  504  501 -0.95935648346E+02 -0.33984754841E+02  0.48367105633E+02  0.11268535438E+03  0.00000000000E+00 0. -1.
         21    1    1    2  505  502  0.32599498611E+02 -0.17156951363E+02 -0.87415978167E+01  0.37861640511E+02  0.00000000000E+00 0. -1.
         21    1    1    2  506  504  0.32653979454E+02  0.77657940114E+02 -0.13732423907E+03  0.16110550789E+03  0.00000000000E+00 0. -1.
<scales pt_clust_3="40.72807" pt_clust_4="88.02122" pt_clust_5="36.83868" pt_clust_6="14000.00000"></scales>
<clustering>
<clus scale="   36.839">  2  5  1 -1</clus>
<clus scale="   40.728">  1  3  2 -1</clus>
<clus scale="   88.021">  1  4  2 -1</clus>
<clus scale="   40.728">  1  3  2 -1</clus>
</clustering>
</event>
<event>
 6    0  0.6549018E+002  0.8741704E+02  0.7546771E-02  0.1309230E+00
         21   -1    0    0  503  501  0.00000000000E+00  0.00000000000E+00  0.46490853423E+03  0.46490853423E+03  0.00000000000E+00 0. -1.
         21   -1    0    0  505  502 -0.00000000000E+00 -0.00000000000E+00 -0.24741050445E+03  0.24741050445E+03  0.00000000000E+00 0. -1.
         21    1    1    2  503  502  0.47807023481E+02 -0.17454012289E+02 -0.80486539556E+02  0.95227291723E+02  0.00000000000E+00 0. -1.
         21    1    1    2  504  506 -0.37202599280E+02  0.12848574508E+03  0.50123243973E+02  0.14284592983E+03  0.00000000000E+00 0. -1.
         21    1    1    2  505  504 -0.17602994190E+02 -0.28467558249E+02 -0.10582041564E+03  0.11098751120E+03  0.00000000000E+00 0. -1.
         21    1    1    2  506  501  0.69985699901E+01 -0.82564174547E+02  0.35368174100E+03  0.36325830592E+03  0.00000000000E+00 0. -1.
<scales pt_clust_3="51.00954" pt_clust_4="87.41704" pt_clust_5="33.47039" pt_clust_6="14000.00000"></scales>
<clustering>
<clus scale="   33.470">  2  5  1 -1</clus>
<clus scale="   51.010">  2  3  1 -1</clus>
<clus scale="   87.417">  2  4  1 -1</clus>
<clus scale="   87.417">  1  3  2 -1</clus>
</clustering>
</event>
<event>
 6    0  0.6549018E+002  0.9756139E+02  0.7546771E-02  0.1285509E+00
         21   -1    0    0  503  501  0.00000000000E+00  0.00000000000E+00  0.65734001035E+03  0.65734001035E+03  0.00000000000E+00 0.  1.
         21   -1    0    0  505  502 -0.00000000000E+00 -0.00000000000E+00 -0.18210009872E+03  0.18210009872E+03  0.00000000000E+00 0.  1.
         21    1    1    2  503  506 -0.10673317613E+02 -0.54106023726E+02  0.24957692327E+03  0.25559738289E+03  0.00000000000E+00 0.  1.
         21    1    1    2  504  501  0.10407884925E+03  0.16239223172E+02  0.37876393153E+03  0.39313895134E+03  0.00000000000E+00 0.  1.
         21    1    1    2  505  504 -0.36732874843E+02  0.10999818460E+02 -0.19289300046E+02  0.42922921576E+02  0.00000000000E+00 0. -1.
         21    1    1    2  506  502 -0.56672656796E+02  0.26866982094E+02 -0.13381164313E+03  0.14778085327E+03  0.00000000000E+00 0.  1.
<scales pt_clust_3="55.08056" pt_clust_4="14000.00000" pt_clust_5="38.34449" pt_clust_6="97.56139"></scales>
<clustering>
<clus scale="   38.344">  2  5  1 -1</clus>
<clus scale="   55.081">  1  3  2 -1</clus>
<clus scale="   97.561">  2  6  1 -1</clus>
<clus scale="   55.081">  1  3  2 -1</clus>
</clustering>
</event>
<event>
 6    0  0.6549018E+002  0.2028131E+03  0.7546771E-02  0.1147387E+00
         21   -1    0    0  506  501  0.00000000000E+00  0.00000000000E+00  0.25911081983E+03  0.25911081983E+03  0.00000000000E+00 0.  1.
         21   -1    0    0  504  502 -0.00000000000E+00 -0.00000000000E+00 -0.64745260698E+03  0.64745260698E+03  0.00000000000E+00 0.  1.
         21    1    1    2  503  505 -0.12621888816E+03  0.16688546805E+03 -0.18810808792E+03  0.28136563386E+03  0.00000000000E+00 0.  1.
         21    1    1    2  504  503  0.39515240683E+02 -0.20344264564E+03 -0.24130778870E+03  0.31808774450E+03  0.00000000000E+00 0.  1.
         21    1    1    2  505  501 -0.22699784711E+02  0.38113873954E+02  0.14776977299E+03  0.15428497472E+03  0.00000000000E+00 0.  1.
         21    1    1    2  506  502  0.10940343219E+03 -0.15566963607E+01 -0.10669568352E+03  0.15282507373E+03  0.00000000000E+00 0.  1.
<scales pt_clust_3="14000.00000" pt_clust_4="202.81314" pt_clust_5="44.36156" pt_clust_6="104.76599"></scales>
<clustering>
<clus scale="   44.362">  1  5  2 -1</clus>
<clus scale="  104.766">  1  6  2 -1</clus>
<clus scale="  202.813">  2  4  1 -1</clus>
<clus scale="   44.362">  1  3  2 -1</clus>
</clustering>
</event>
<event>
 6    0  0.6549018E+002  0.1253499E+03  0.7546771E-02  0.1234523E+00
         21   -1    0    0  503  501  0.00000000000E+00  0.00000000000E+00  0.15714143483E+03  0.15714143483E+03  0.00000000000E+00 0. -1.
         21   -1    0    0  505  502 -0.00000000000E+00 -0.00000000000E+00 -0.27675083450E+03  0.27675083450E+03  0.00000000000E+00 0. -1.
         21    1    1    2  503  502 -0.74079672476E+02  0.11770317375E+03 -0.35832655674E+01  0.13912107956E+03  0.00000000000E+00 0. -1.
         21    1    1    2  504  501  0.21379092241E+02 -0.28777705672E+02  0.67303922621E+02  0.76256409101E+02  0.00000000000E+00 0.  1.
         21    1    1    2  505  506  0.49949432101E+02 -0.33099890262E+02 -0.11942955532E+03  0.13361873816E+03  0.00000000000E+00 0. -1.
         21    1    1    2  506  504  0.27511481339E+01 -0.55825577814E+02 -0.63900501405E+02  0.84896042512E+02  0.00000000000E+00 0. -1.
<scales pt_clust_3="110.71991" pt_clust_4="35.84999" pt_clust_5="57.28640" pt_clust_6="57.28640"></scales>
<clustering>
<clus scale="   35.850">  1  4  2 -1</clus>
<clus scale="   57.286">  5  6 -1 -1</clus>
<clus scale="  110.720">  1  3  2 -1</clus>
<clus scale="   35.850">  1  3  2 -1</clus>
</clustering>
</event>
<event>
 6    0  0.6707632E+002  0.1098983E+03  0.7546771E-02  0.1260758E+00
         21   -1    0    0  504  501  0.00000000000E+00  0.00000000000E+00  0.18439564802E+04  0.18439564802E+04  0.00000000000E+00 0.  1.
         21   -1    0    0  503  502 -0.00000000000E+00 -0.00000000000E+00 -0.11534941185E+04  0.11534941185E+04  0.00000000000E+00 0.  1.
         21    1    1    2  503  506  0.38750476351E+01 -0.47358215302E+02 -0.75173265894E+03  0.75323290361E+03  0.00000000000E+00 0.  1.
         21    1    1    2  504  502  0.52155893503E+01 -0.63816984269E+02  0.22723053348E+02  0.67942232867E+02  0.00000000000E+00 0.  1.
         21    1    1    2  505  501 -0.37418788249E+02  0.15680870022E+03  0.17923315961E+04  0.17995670825E+04  0.00000000000E+00 0.  1.
         21    1    1    2  506  505  0.28328151264E+02 -0.45633500651E+02 -0.37285962882E+03  0.37670837970E+03  0.00000000000E+00 0.  1.
<scales pt_clust_3="45.83739" pt_clust_4="64.02976" pt_clust_5="98.50209" pt_clust_6="45.83739"></scales>
<clustering>
<clus scale="   45.837">  3  6 -1 -1</clus>
<clus scale="   64.030">  1  4  2 -1</clus>
<clus scale="   98.502">  1  5  2 -1</clus>
<clus scale="   64.030">  1  3  2 -1</clus>
</clustering>
</event>
<event>
 6    0  0.6549018E+002  0.1188381E+03  0.7546771E-02  0.1245026E+00
         21   -1    0    0  505  501  0.00000000000E+00  0.00000000000E+00  0.12550992672E+04  0.12550992672E+04  0.00000000000E+00 0.  1.
         21   -1    0    0  503  502 -0.00000000000E+00 -0.00000000000E+00 -0.30726086017E+02  0.30726086017E+02  0.00000000000E+00 0.  1.
         21    1    1    2  503  504  0.65251958805E+02  0.50201188705E+01  0.95240479270E+02  0.11555850732E+03  0.00000000000E+00 0.  1.
         21    1    1    2  504  506  0.51604160544E+02 -0.30194137709E+02  0.51004496647E+02  0.78588383465E+02  0.00000000000E+00 0.  1.
         21    1    1    2  505  502 -0.55329663014E+02  0.72973938691E+02  0.66393571673E+03  0.67022175680E+03  0.00000000000E+00 0.  1.
         21    1    1    2  506  501 -0.61526456335E+02 -0.47799919852E+02  0.41419248854E+03  0.42145670564E+03  0.00000000000E+00 0.  1.
<scales pt_clust_3="42.91937" pt_clust_4="42.91937" pt_clust_5="110.02793" pt_clust_6="77.91237"></scales>
<clustering>
<clus scale="   42.919">  3  4 -1 -1</clus>
<clus scale="   77.912">  1  6  2 -1</clus>
<clus scale="  110.028">  1  5  2 -1</clus>
<clus scale="   77.912">  1  3  2 -1</clus>
</clustering>
</event>
<event>
 6    0  0.6549018E+002  0.7835856E+02  0.7546771E-02  0.1333775E+00
         21   -1    0    0  505  501  0.00000000000E+00  0.00000000000E+00  0.12326892106E+03  0.12326892106E+03  0.00000000000E+00 0.  1.
         21   -1    0    0  506  502 -0.00000000000E+00 -0.00000000000E+00 -0.19456748475E+03  0.19456748475E+03  0.00000000000E+00 0.  1.
         21    1    1    2  503  504  0.41761204158E+02 -0.68238629589E+02 -0.83652740993E+02  0.11575098192E+03  0.00000000000E+00 0.  1.
         21    1    1    2  504  501 -0.94181777693E+01  0.72749986321E+02  0.33619196139E+01  0.73434086675E+02  0.00000000000E+00 0.  1.
         21    1    1    2  505  502 -0.70756223348E+02 -0.14952507625E+02  0.35764390936E+02  0.80679069689E+02  0.00000000000E+00 0.  1.
         21    1    1    2  506  503  0.38413196960E+02  0.10441150893E+02 -0.26772133250E+02  0.47972267524E+02  0.00000000000E+00 0.  1.
<scales pt_clust_3="14000.00000" pt_clust_4="78.35856" pt_clust_5="66.64203" pt_clust_6="39.80693"></scales>
<clustering>
<clus scale="   39.807">  2  6  1 -1</clus>
<clus scale="   66.642">  1  5  2 -1</clus>
<clus scale="   78.359">  1  4  2 -1</clus>
<clus scale="   66.642">  1  3  2 -1</clus>
</clustering>
</event>
<event>
 6    0  0.6549018E+002  0.1365037E+03  0.7546771E-02  0.1218113E+00
         21   -1    0    0  504  501  0.00000000000E+00  0.00000000000E+00  0.50813878761E+03  0.50813878761E+03  0.00000000000E+00 0. -1.
         21   -1    0    0  505  502 -0.00000000000E+00 -0.00000000000E+00 -0.71646988695E+02  0.71646988695E+02  0.00000000000E+00 0.  1.
         21    1    1    2  503  501 -0.63874857478E+02  0.17072943153E+02  0.17473945079E+03  0.18682975799E+03  0.00000000000E+00 0. -1.
         21    1    1    2  504  506  0.56707917401E+02 -0.37850255743E+02  0.23424018565E+02  0.72091014707E+02  0.00000000000E+00 0.  1.
         21    1    1    2  505  503 -0.28386000154E+02  0.62482034764E+02  0.25460867856E+03  0.26369556096E+03  0.00000000000E+00 0. -1.
         21    1    1    2  506  502  0.35552940231E+02 -0.41704722174E+02 -0.16280348994E+02  0.57169442660E+02  0.00000000000E+00 0.  1.
<scales pt_clust_3="60.44385" pt_clust_4="129.06291" pt_clust_5="60.44385" pt_clust_6="38.20776"></scales>
<clustering>
<clus scale="   38.208">  4  6 -1 -1</clus>
<clus scale="   60.444">  3  5 -1 -1</clus>
<clus scale="  129.063">  2  4  1 -1</clus>
<clus scale="  136.504">  1  3  2 -1</clus>
</clustering>
</event>
<event>
 6    0  0.6549018E+002  0.2421611E+03  0.7546771E-02  0.1118361E+00
         21   -1    0    0  504  501  0.00000000000E+00  0.00000000000E+00  0.32218658379E+03  0.32218658379E+03  0.00000000000E+00 0. -1.
         21   -1    0    0  505  502 -0.00000000000E+00 -0.00000000000E+00 -0.15067442461E+04  0.15067442461E+04  0.00000000000E+00 0. -1.
         21    1    1    2  503  502  0.23742829510E+03  0.52042296003E+02 -0.13017138666E+04  0.13242128176E+04  0.00000000000E+00 0. -1.
         21    1    1    2  504  503 -0.18780232137E+03 -0.17120403233E+03  0.19434762990E+03  0.31992426267E+03  0.00000000000E+00 0. -1.
         21    1    1    2  505  506 -0.63997086512E+02  0.87811312983E+02 -0.96453411826E+02  0.14529182504E+03  0.00000000000E+00 0. -1.
         21    1    1    2  506  501  0.14371112782E+02  0.31350423341E+02  0.19261986251E+02  0.39501924517E+02  0.00000000000E+00 0.  1.
<scales pt_clust_3="242.16110" pt_clust_4="14000.00000" pt_clust_5="110.09313" pt_clust_6="34.48736"></scales>
<clustering>
<clus scale="   34.487">  1  6  2 -1</clus>
<clus scale="  110.093">  1  5  2 -1</clus>
<clus scale="  242.161">  2  3  1 -1</clus>
<clus scale="   34.487">  1  3  2 -1</clus>
</clustering>
</event>
<event>
 6    0  0.6549018E+002  0.3495507E+03  0.7546771E-02  0.1062800E+00
         21   -1    0    0  503  501  0.00000000000E+00  0.00000000000E+00  0.56492650017E+03  0.56492650017E+03  0.00000000000E+00 0.  1.
         21   -1    0    0  505  502 -0.00000000000E+00 -0.00000000000E+00 -0.40705008335E+03  0.40705008335E+03  0.00000000000E+00 0.  1.
         21    1    1    2  503  506  0.14461256039E+03  0.44021965970E+02 -0.15848789941E+03  0.21901858453E+03  0.00000000000E+00 0.  1.
         21    1    1    2  504  501  0.32256514235E+02 -0.22666493411E+02  0.15478850069E+02  0.42353836114E+02  0.00000000000E+00 0.  1.
         21    1    1    2  505  504 -0.33534043805E+03 -0.11318110326E+03  0.37260969895E+03  0.51390773421E+03  0.00000000000E+00 0.  1.
         21    1    1    2  506  502  0.15847136343E+03  0.91825630699E+02 -0.71724232784E+02  0.19669642866E+03  0.00000000000E+00 0.  1.
<scales pt_clust_3="88.50758" pt_clust_4="39.42401" pt_clust_5="335.67657" pt_clust_6="88.50758"></scales>
<clustering>
<clus scale="   39.424">  1  4  2 -1</clus>
<clus scale="   88.508">  3  6 -1 -1</clus>
<clus scale="  335.677">  1  5  2 -1</clus>
<clus scale="   39.424">  1  3  2 -1</clus>
</clustering>
</event>
<event>
 6    0  0.6549018E+002  0.1171684E+03  0.7546771E-02  0.1247843E+00
         21   -1    0    0  502  501  0.00000000000E+00  0.00000000000E+00  0.80177766827E+03  0.80177766827E+03  0.00000000000E+00 0. -1.
         21   -1    0    0  505  502 -0.00000000000E+00 -0.00000000000E+00 -0.38598506569E+02  0.38598506569E+02  0.00000000000E+00 0. -1.
         21    1    1    2  503  501  0.76525185547E+01 -0.33394684668E+02  0.18824256922E+03  0.19133486580E+03  0.00000000000E+00 0. -1.
         21    1    1    2  504  506  0.40413856651E+02  0.36582070421E+02  0.18799601863E+02  0.57662402967E+02  0.00000000000E+00 0. -1.
         21    1    1    2  505  504  0.40660363436E+02  0.45816084370E+02  0.62766209656E+02  0.87703909926E+02  0.00000000000E+00 0. -1.
         21    1    1    2  506  503 -0.88726738641E+02 -0.49003470124E+02  0.49337078096E+03  0.50367499614E+03  0.00000000000E+00 0. -1.
<scales pt_clust_3="34.26027" pt_clust_4="31.51233" pt_clust_5="31.51233" pt_clust_6="112.30560"></scales>
<clustering>
<clus scale="   31.512">  4  5 -1 -1</clus>
<clus scale="   34.260">  1  3  2 -1</clus>
<clus scale="  112.306">  1  6  2 -1</clus>
<clus scale="   34.260">  1  3  2 -1</clus>
</clustering>
</event>
<event>
 6    0  0.6549018E+002  0.8625470E+02  0.7546771E-02  0.1312184E+00
         21   -1    0    0  506  501  0.00000000000E+00  0.00000000000E+00  0.18001613380E+03  0.18001613380E+03  0.00000000000E+00 0. -1.
         21   -1    0    0  503  502 -0.00000000000E+00 -0.00000000000E+00 -0.29887053386E+03  0.29887053386E+03  0.00000000000E+00 0.  1.
         21    1    1    2  503  504 -0.21705819515E+02 -0.27140089855E+02 -0.24995382841E+02  0.42807665686E+02  0.00000000000E+00 0. -1.
         21    1    1    2  504  501  0.46122738184E+02  0.90566769839E+02  0.42356866677E+02  0.11010790585E+03  0.00000000000E+00 0. -1.
         21    1    1    2  505  502  0.44596576658E+02 -0.18450907458E+02 -0.20994407838E+03  0.21542007029E+03  0.00000000000E+00 0.  1.
         21    1    1    2  506  505 -0.69013495328E+02 -0.44975772526E+02  0.73728194479E+02  0.11055102583E+03  0.00000000000E+00 0. -1.
<scales pt_clust_3="34.75237" pt_clust_4="86.25470" pt_clust_5="48.55217" pt_clust_6="14000.00000"></scales>
<clustering>
<clus scale="   34.752">  2  3  1 -1</clus>
<clus scale="   48.552">  2  5  1 -1</clus>
<clus scale="   86.255">  2  4  1 -1</clus>
<clus scale="   86.255">  1  3  2 -1</clus>
</clustering>
</event>
<event>
 6    0  0.6549018E+002  0.1014387E+03  0.7546771E-02  0.1277299E+00
         21   -1    0    0  506  501  0.00000000000E+00  0.00000000000E+00  0.48730192351E+02  0.48730192351E+02  0.00000000000E+00 0.  1.
         21   -1    0    0  503  502 -0.00000000000E+00 -0.00000000000E+00 -0.18641737626E+04  0.18641737626E+04  0.00000000000E+00 0. -1.
         21    1    1    2  503  505  0.41624674245E+02  0.60402154477E+02 -0.10877726537E+04  0.10902432664E+04  0.00000000000E+00 0. -1.
         21    1    1    2  504  502  0.48020566521E+02 -0.21478596726E+01 -0.25072685824E+03  0.25529305818E+03  0.00000000000E+00 0.  1.
         21    1    1    2  505  501 -0.27158657363E+02  0.57826023488E+02  0.84019319374E+01  0.64436279552E+02  0.00000000000E+00 0.  1.
         21    1    1    2  506  504 -0.62486583404E+02 -0.11608031829E+03 -0.48534599019E+03  0.50293135078E+03  0.00000000000E+00 0.  1.
<scales pt_clust_3="101.43869" pt_clust_4="48.06858" pt_clust_5="63.50168" pt_clust_6="14000.00000"></scales>
<clustering>
<clus scale="   48.069">  2  4  1 -1</clus>
<clus scale="   63.502">  1  5  2 -1</clus>
<clus scale="  101.439">  2  3  1 -1</clus>
<clus scale="   63.502">  1  3  2 -1</clus>
</clustering>
</event>
<event>
 6    0  0.6549018E+002  0.1585844E+03  0.7546771E-02  0.1190304E+00
         21   -1    0    0  503  501  0.00000000000E+00  0.00000000000E+00  0.69117516570E+03  0.69117516570E+03  0.00000000000E+00 0. -1.
         21   -1    0    0  505  502 -0.00000000000E+00 -0.00000000000E+00 -0.89099314727E+02  0.89099314727E+02  0.00000000000E+00 0.  1.
         21    1    1    2  503  502 -0.35231471486E+02  0.17074555732E+03  0.26901318044E+03  0.32056729898E+03  0.00000000000E+00 0.  1.
         21    1    1    2  504  501  0.64399081955E+02 -0.29249539049E+02  0.29199066659E+03  0.30043522873E+03  0.00000000000E+00 0. -1.
         21    1    1    2  505  506 -0.18057196486E+02 -0.65207827406E+02 -0.76199069600E+01  0.68089544587E+02  0.00000000000E+00 0.  1.
         21    1    1    2  506  504 -0.11110413982E+02 -0.76288190860E+02  0.48691910907E+02  0.91182408124E+02  0.00000000000E+00 0. -1.
<scales pt_clust_3="149.46647" pt_clust_4="70.73031" pt_clust_5="49.65040" pt_clust_6="49.65040"></scales>
<clustering>
<clus scale="   49.650">  5  6 -1 -1</clus>
<clus scale="   70.730">  1  4  2 -1</clus>
<clus scale="  149.466">  1  3  2 -1</clus>
<clus scale="   70.730">  1  3  2 -1</clus>
</clustering>
</event>
<event>
 6    0  0.6549018E+002  0.1334538E+03  0.7546771E-02  0.1222419E+00
         21   -1    0    0  506  501  0.00000000000E+00  0.00000000000E+00  0.51272028441E+03  0.51272028441E+03  0.00000000000E+00 0. -1.
         21   -1    0    0  503  502 -0.00000000000E+00 -0.00000000000E+00 -0.10241972939E+03  0.10241972939E+03  0.00000000000E+00 0. -1.
         21    1    1    2  503  505 -0.57694731030E+02 -0.45702669427E+02  0.21074906384E+02  0.76560875521E+02  0.00000000000E+00 0. -1.
         21    1    1    2  504  501  0.48130637875E+02  0.85471439847E+02  0.12494315477E+03  0.15884809491E+03  0.00000000000E+00 0. -1.
         21    1    1    2  505  504 -0.11194460245E+03  0.41767632991E+02  0.77343581270E+02  0.14233115873E+03  0.00000000000E+00 0. -1.
         21    1    1    2  506  502  0.12150869560E+03 -0.81536403411E+02  0.18693891259E+03  0.23739988464E+03  0.00000000000E+00 0. -1.
<scales pt_clust_3="73.60310" pt_clust_4="82.86617" pt_clust_5="14000.00000" pt_clust_6="133.45381"></scales>
<clustering>
<clus scale="   73.603">  2  3  1 -1</clus>
<clus scale="   82.866">  1  4  2 -1</clus>
<clus scale="  133.454">  1  6  2 -1</clus>
<clus scale="   82.866">  1  3  2 -1</clus>
</clustering>
</event>
<event>
 6    0  0.6549018E+002  0.1110747E+03  0.7546771E-02  0.1258593E+00
         21   -1    0    0  503  501  0.00000000000E+00  0.00000000000E+00  0.37900862933E+03  0.37900862933E+03  0.00000000000E+00 0. -1.
         21   -1    0    0  505  502 -0.00000000000E+00 -0.00000000000E+00 -0.18789362120E+03  0.18789362120E+03  0.00000000000E+00 0. -1.
         21    1    1    2  503  502  0.61784706098E+02  0.59450177303E+02 -0.13328050498E+02  0.86771599150E+02  0.00000000000E+00 0. -1.
         21    1    1    2  504  501 -0.61506640431E+01  0.98399563606E+02  0.27588817711E+03  0.29297541033E+03  0.00000000000E+00 0. -1.
         21    1    1    2  505  506 -0.16735168269E+02 -0.92091211332E+02 -0.56421972408E+02  0.10928996309E+03  0.00000000000E+00 0. -1.
         21    1    1    2  506  504 -0.38898873786E+02 -0.65758529577E+02 -0.15023146074E+02  0.77865277961E+02  0.00000000000E+00 0. -1.
<scales pt_clust_3="85.74190" pt_clust_4="102.11070" pt_clust_5="39.49534" pt_clust_6="39.49534"></scales>
<clustering>
<clus scale="   39.495">  5  6 -1 -1</clus>
<clus scale="   85.742">  2  3  1 -1</clus>
<clus scale="  102.111">  1  4  2 -1</clus>
<clus scale="  102.111">  1  3  2 -1</clus>
</clustering>
</event>
<event>
 6    0  0.6549018E+002  0.8948549E+02  0.7546771E-02  0.1304102E+00
         21   -1    0    0  504  501  0.00000000000E+00  0.00000000000E+00  0.17530270705E+04  0.17530270705E+04  0.00000000000E+00 0.  1.
         21   -1    0    0  505  502 -0.00000000000E+00 -0.00000000000E+00 -0.22266581610E+02  0.22266581610E+02  0.00000000000E+00 0. -1.
         21    1    1    2  503  501  0.82271936698E+02 -0.78618628895E+02  0.10718812702E+04  0.10779049206E+04  0.00000000000E+00 0.  1.
         21    1    1    2  504  506 -0.36042408193E+02  0.49210151872E+01  0.36837344019E+03  0.37016518342E+03  0.00000000000E+00 0.  1.
         21    1    1    2  505  503  0.38345897658E+02  0.48710713079E+02  0.13210991863E+03  0.14593208022E+03  0.00000000000E+00 0. -1.
         21    1    1    2  506  502 -0.84575426162E+02  0.24986900628E+02  0.15839585991E+03  0.18129146795E+03  0.00000000000E+00 0. -1.
<scales pt_clust_3="89.48549" pt_clust_4="36.37680" pt_clust_5="60.22423" pt_clust_6="14000.00000"></scales>
<clustering>
<clus scale="   36.377">  1  4  2 -1</clus>
<clus scale="   60.224">  2  5  1 -1</clus>
<clus scale="   89.485">  1  3  2 -1</clus>
<clus scale="   36.377">  1  3  2 -1</clus>
</clustering>
</event>
<event>
 6    0  0.6549018E+002  0.1632313E+03  0.7546771E-02  0.1185096E+00
         21   -1    0    0  506  501  0.00000000000E+00  0.00000000000E+00  0.40395795219E+03  0.40395795219E+03  0.00000000000E+00 0. -1.
         21   -1    0    0  504  502 -0.00000000000E+00 -0.00000000000E+00 -0.49373843237E+03  0.49373843237E+03  0.00000000000E+00 0.  1.
         21    1    1    2  503  502 -0.30900821739E+02 -0.17094561529E+02 -0.13955803215E+03  0.14395669194E+03  0.00000000000E+00 0.  1.
         21    1    1    2  504  501  0.15961629231E+03  0.18679357391E+03 -0.11420406323E+03  0.27094606121E+03  0.00000000000E+00 0.  1.
         21    1    1    2  505  503 -0.17525444347E+02 -0.61471975538E+02 -0.13308757530E+03  0.14764229637E+03  0.00000000000E+00 0. -1.
         21    1    1    2  506  505 -0.11119002623E+03 -0.10822703684E+03  0.29706919050E+03  0.33515133504E+03  0.00000000000E+00 0. -1.
<scales pt_clust_3="34.67641" pt_clust_4="163.23130" pt_clust_5="103.41346" pt_clust_6="14000.00000"></scales>
<clustering>
<clus scale="   34.676">  3  5 -1 -1</clus>
<clus scale="  103.413">  2  3  1 -1</clus>
<clus scale="  163.231">  2  4  1 -1</clus>
<clus scale="  163.231">  1  3  2 -1</clus>
</clustering>
</event>
<event>
 6    0  0.6549018E+002  0.2207312E+03  0.7546771E-02  0.1133339E+00
         21   -1    0    0  505  501  0.00000000000E+00  0.00000000000E+00  0.12388217128E+03  0.12388217128E+03  0.00000000000E+00 0.  1.
         21   -1    0    0  503  502 -0.00000000000E+00 -0.00000000000E+00 -0.44774857466E+03  0.44774857466E+03  0.00000000000E+00 0.  1.
         21    1    1    2  503  504  0.15595028795E+03  0.83147104650E+02 -0.17191824832E+03  0.24655591136E+03  0.00000000000E+00 0.  1.
         21    1    1    2  504  501  0.43066676498E+02  0.34177711456E+01 -0.10073777345E+02  0.44361027651E+02  0.00000000000E+00 0.  1.
         21    1    1    2  505  506 -0.23309225086E+02  0.19070836586E+02  0.21047091090E+01  0.30190173611E+02  0.00000000000E+00 0. -1.
         21    1    1    2  506  502 -0.17570773937E+03 -0.10563571238E+03 -0.14397908683E+03  0.25052363331E+03  0.00000000000E+00 0.  1.
<scales pt_clust_3="31.88808" pt_clust_4="31.88808" pt_clust_5="30.11672" pt_clust_6="210.50403"></scales>
<clustering>
<clus scale="   30.117">  1  5  2 -1</clus>
<clus scale="   31.888">  3  4 -1 -1</clus>
<clus scale="  210.504">  1  6  2 -1</clus>
<clus scale="   30.117">  1  3  2 -1</clus>
</clustering>
</event>
<event>
 6    0  0.6549018E+002  0.8910503E+02  0.7546771E-02  0.1305034E+00
         21   -1    0    0  506  501  0.00000000000E+00  0.00000000000E+00  0.25893433502E+03  0.25893433502E+03  0.00000000000E+00 0. -1.
         21   -1    0    0  505  502 -0.00000000000E+00 -0.00000000000E+00 -0.24961841934E+03  0.24961841934E+03  0.00000000000E+00 0. -1.
         21    1    1    2  503  502 -0.84820127136E+02  0.55577498562E+02 -0.13103356475E+03  0.16568979270E+03  0.00000000000E+00 0. -1.
         21    1    1    2  504  503  0.24436790485E+02 -0.11049193181E+03  0.10391814635E+03  0.15363790179E+03  0.00000000000E+00 0. -1.
         21    1    1    2  505  501  0.51935544686E+02  0.22249278497E+02 -0.62763744278E+02  0.84448912316E+02  0.00000000000E+00 0. -1.
         21    1    1    2  506  504  0.84477919642E+01  0.32665154753E+02  0.99195078362E+02  0.10477614755E+03  0.00000000000E+00 0. -1.
<scales pt_clust_3="14000.00000" pt_clust_4="89.10503" pt_clust_5="57.95516" pt_clust_6="33.73985"></scales>
<clustering>
<clus scale="   33.740">  1  6  2 -1</clus>
<clus scale="   57.955">  2  5  1 -1</clus>
<clus scale="   89.105">  1  4  2 -1</clus>
<clus scale="   33.740">  1  3  2 -1</clus>
</clustering>
</event>
<event>
 6    0  0.6549018E+002  0.9136902E+02  0.7546771E-02  0.1299570E+00
         21   -1    0    0  506  501  0.00000000000E+00  0.00000000000E+00  0.65749300612E+03  0.65749300612E+03  0.00000000000E+00 0.  1.
         21   -1    0    0  503  502 -0.00000000000E+00 -0.00000000000E+00 -0.26191394881E+03  0.26191394881E+03  0.00000000000E+00 0.  1.
         21    1    1    2  503  505  0.19773428081E+02  0.25192435628E+02 -0.15096612972E+03  0.15432569324E+03  0.00000000000E+00 0.  1.
         21    1    1    2  504  501  0.27417807052E+02  0.18673144471E+02  0.46865260121E+02  0.57417550228E+02  0.00000000000E+00 0. -1.
         21    1    1    2  505  504  0.62546298946E+02  0.18445497650E+02 -0.86346779231E+02  0.10820370686E+03  0.00000000000E+00 0.  1.
         21    1    1    2  506  502 -0.10973753408E+03 -0.62311077749E+02  0.58602670615E+03  0.59946000460E+03  0.00000000000E+00 0.  1.
<scales pt_clust_3="32.02573" pt_clust_4="34.64967" pt_clust_5="91.36902" pt_clust_6="14000.00000"></scales>
<clustering>
<clus scale="   32.026">  2  3  1 -1</clus>
<clus scale="   34.650">  1  4  2 -1</clus>
<clus scale="   91.369">  2  5  1 -1</clus>
<clus scale="   34.650">  1  3  2 -1</clus>
</clustering>
</event>
<event>
 6    0  0.6549018E+002  0.1734585E+03  0.7546771E-02  0.1174288E+00
         21   -1    0    0  503  501  0.00000000000E+00  0.00000000000E+00  0.68756204803E+02  0.68756204803E+02  0.00000000000E+00 0. -1.
         21   -1    0    0  506  502 -0.00000000000E+00 -0.00000000000E+00 -0.14985016919E+04  0.14985016919E+04  0.00000000000E+00 0. -1.
         21    1    1    2  503  505 -0.39461869655E+02  0.14291412133E+03 -0.10151067901E+03  0.17968334143E+03  0.00000000000E+00 0. -1.
         21    1    1    2  504  501  0.36447334672E+02  0.41028124879E+02 -0.12046315316E+02  0.56185664973E+02  0.00000000000E+00 0.  1.
         21    1    1    2  505  502 -0.24982376682E+02 -0.26035148425E+02 -0.15299351716E+03  0.15719085340E+03  0.00000000000E+00 0.  1.
         21    1    1    2  506  504  0.27996911666E+02 -0.15790709779E+03 -0.11631949757E+04  0.11741980370E+04  0.00000000000E+00 0. -1.
<scales pt_clust_3="14000.00000" pt_clust_4="53.96347" pt_clust_5="36.08252" pt_clust_6="173.45852"></scales>
<clustering>
<clus scale="   36.083">  2  5  1 -1</clus>
<clus scale="   53.963">  1  4  2 -1</clus>
<clus scale="  173.459">  2  6  1 -1</clus>
<clus scale="   53.963">  1  3  2 -1</clus>
</clustering>
</event>
<event>
 6    0  0.6549018E+002  0.1016763E+03  0.7546771E-02  0.1276810E+00
         21   -1    0    0  506  501  0.00000000000E+00  0.00000000000E+00  0.20050715964E+03  0.20050715964E+03  0.00000000000E+00 0.  1.
         21   -1    0    0  504  502 -0.00000000000E+00 -0.00000000000E+00 -0.30250903738E+03  0.30250903738E+03  0.00000000000E+00 0.  1.
         21    1    1    2  503  502 -0.41229845491E+02 -0.31825983925E+02 -0.67808051172E+02  0.85502778994E+02  0.00000000000E+00 0.  1.
         21    1    1    2  504  505  0.43044756524E+02  0.90650270007E+02 -0.14589710093E+03  0.17707706395E+03  0.00000000000E+00 0.  1.
         21    1    1    2  505  501  0.68691954540E+02 -0.10670449556E+03  0.76841370486E+02  0.14835440745E+03  0.00000000000E+00 0.  1.
         21    1    1    2  506  503 -0.70506865573E+02  0.47880209481E+02  0.34861903873E+02  0.92081946626E+02  0.00000000000E+00 0. -1.
<scales pt_clust_3="52.08448" pt_clust_4="69.23632" pt_clust_5="14000.00000" pt_clust_6="101.67633"></scales>
<clustering>
<clus scale="   52.084">  2  3  1 -1</clus>
<clus scale="   69.236">  2  4  1 -1</clus>
<clus scale="  101.676">  1  6  2 -1</clus>
<clus scale="  101.676">  1  3  2 -1</clus>
</clustering>
</event>
<event>
 6    0  0.6549018E+002  0.7866851E+02  0.7546771E-02  0.1332873E+00
         21   -1    0    0  503  501  0.00000000000E+00  0.00000000000E+00  0.58852735214E+03  0.58852735214E+03  0.00000000000E+00 0.  1.
         21   -1    0    0  505  502 -0.00000000000E+00 -0.00000000000E+00 -0.78310041551E+03  0.78310041551E+03  0.00000000000E+00 0. -1.
         21    1    1    2  503  504 -0.84219904000E+01 -0.41754009050E+02 -0.17014219625E+01  0.42628887281E+02  0.00000000000E+00 0. -1.
         21    1    1    2  504  502 -0.48586531065E+02 -0.24953852649E+02  0.61657853057E+02  0.82371333646E+02  0.00000000000E+00 0.  1.
         21    1    1    2  505  506 -0.44743975818E+02 -0.22606060786E+02 -0.74047694706E+03  0.74217192515E+03  0.00000000000E+00 0. -1.
         21    1    1    2  506  501  0.10175249728E+03  0.89313922485E+02  0.48594745260E+03  0.50445562158E+03  0.00000000000E+00 0.  1.
<scales pt_clust_3="42.59492" pt_clust_4="14000.00000" pt_clust_5="50.16973" pt_clust_6="78.66851"></scales>
<clustering>
<clus scale="   42.595">  1  3  2 -1</clus>
<clus scale="   50.170">  2  5  1 -1</clus>
<clus scale="   78.669">  1  6  2 -1</clus>
<clus scale="   42.595">  1  3  2 -1</clus>
</clustering>
</event>
<event>
 6    0  0.6549018E+002  0.1362418E+03  0.7546771E-02  0.1218477E+00
         21   -1    0    0  504  501  0.00000000000E+00  0.00000000000E+00  0.44079113718E+03  0.44079113718E+03  0.00000000000E+00 0.  1.
         21   -1    0    0  506  502 -0.00000000000E+00 -0.00000000000E+00 -0.61393099021E+02  0.61393099021E+02  0.00000000000E+00 0. -1.
         21    1    1    2  503  502  0.22056891042E+02 -0.45021714503E+02  0.16511412912E+02  0.52783406252E+02  0.00000000000E+00 0. -1.
         21    1    1    2  504  503  0.75219298073E+02 -0.59288784921E+02  0.88374871415E+02  0.13031968661E+03  0.00000000000E+00 0.  1.
         21    1    1    2  505  501 -0.48857608315E+02  0.31072657915E+01  0.10435733002E+03  0.11527000182E+03  0.00000000000E+00 0. -1.
         21    1    1    2  506  505 -0.48418580800E+02  0.10120323363E+03  0.17015442381E+03  0.20381114152E+03  0.00000000000E+00 0. -1.
<scales pt_clust_3="33.79819" pt_clust_4="33.79819" pt_clust_5="48.95632" pt_clust_6="127.98267"></scales>
<clustering>
<clus scale="   33.798">  3  4 -1 -1</clus>
<clus scale="   48.956">  1  5  2 -1</clus>
<clus scale="  127.983">  1  6  2 -1</clus>
<clus scale="   48.956">  1  3  2 -1</clus>
</clustering>
</event>
<event>
 6    0  0.6549018E+002  0.1494284E+03  0.7546771E-02  0.1201177E+00
         21   -1    0    0  503  501  0.00000000000E+00  0.00000000000E+00  0.49730036847E+02  0.49730036847E+02  0.00000000000E+00 0.  1.
         21   -1    0    0  506  502 -0.00000000000E+00 -0.00000000000E+00 -0.16478166040E+04  0.16478166040E+04  0.00000000000E+00 0.  1.
         21    1    1    2  503  505  0.29861745159E+02  0.11242775731E+02 -0.67168358585E+02  0.74362034837E+02  0.00000000000E+00 0. -1.
         21    1    1    2  504  502 -0.17051514934E+01 -0.39375913764E+02 -0.30128487078E+03  0.30385184463E+03  0.00000000000E+00 0. -1.
         21    1    1    2  505  504  0.12678536389E+03  0.10509838577E+03 -0.10742302134E+04  0.10867799918E+04  0.00000000000E+00 0.  1.
         21    1    1    2  506  501 -0.15494195756E+03 -0.76965247737E+02 -0.15540312440E+03  0.23255276959E+03  0.00000000000E+00 0.  1.
<scales pt_clust_3="31.90805" pt_clust_4="39.07291" pt_clust_5="149.42843" pt_clust_6="14000.00000"></scales>
<clustering>
<clus scale="   31.908">  1  3  2 -1</clus>
<clus scale="   39.073">  2  4  1 -1</clus>
<clus scale="  149.428">  2  5  1 -1</clus>
<clus scale="   31.908">  1  3  2 -1</clus>
</clustering>
</event>
<event>
 6    0  0.6549018E+002  0.9617930E+02  0.7546771E-02  0.1288542E+00
         21   -1    0    0  505  501  0.00000000000E+00  0.00000000000E+00  0.16829162598E+04  0.16829162598E+04  0.00000000000E+00 0. -1.
         21   -1    0    0  503  502 -0.00000000000E+00 -0.00000000000E+00 -0.39855685636E+03  0.39855685636E+03  0.00000000000E+00 0. -1.
         21    1    1    2  503  501 -0.37386288970E+02 -0.45568857042E+02  0.86320317585E+02  0.10452488968E+03  0.00000000000E+00 0.  1.
         21    1    1    2  504  502  0.68435768824E+02  0.68945222163E+02 -0.34170897503E+03  0.35524909814E+03  0.00000000000E+00 0. -1.
         21    1    1    2  505  506  0.75994211198E+02 -0.11527466386E+02  0.15072452990E+04  0.15092038941E+04  0.00000000000E+00 0. -1.
         21    1    1    2  506  504 -0.10704369105E+03 -0.11848898735E+02  0.32502761898E+02  0.11249523424E+03  0.00000000000E+00 0.  1.
<scales pt_clust_3="58.94281" pt_clust_4="96.17930" pt_clust_5="68.14351" pt_clust_6="14000.00000"></scales>
<clustering>
<clus scale="   58.943">  1  3  2 -1</clus>
<clus scale="   68.144">  1  5  2 -1</clus>
<clus scale="   96.179">  2  4  1 -1</clus>
<clus scale="   58.943">  1  3  2 -1</clus>
</clustering>
</event>
<event>
 6    0  0.6549018E+002  0.1710768E+03  0.7546771E-02  0.1176730E+00
         21   -1    0    0  506  501  0.00000000000E+00  0.00000000000E+00  0.19574073783E+03  0.19574073783E+03  0.00000000000E+00 0. -1.
         21   -1    0    0  504  502 -0.00000000000E+00 -0.00000000000E+00 -0.24774083045E+03  0.24774083045E+03  0.00000000000E+00 0. -1.
         21    1    1    2  503  502  0.10633226273E+02  0.49962703961E+02 -0.33985303365E+02  0.61354202243E+02  0.00000000000E+00 0. -1.
         21    1    1    2  504  505 -0.32394609452E+01 -0.17208170442E+03 -0.11626953704E+03  0.20770462765E+03  0.00000000000E+00 0. -1.
         21    1    1    2  505  501  0.71854178953E+01  0.35794418413E+02  0.75658784504E+02  0.84006680047E+02  0.00000000000E+00 0. -1.
         21    1    1    2  506  503 -0.14579183223E+02  0.86324582050E+02  0.22595963280E+02  0.90416058342E+02  0.00000000000E+00 0.  1.
<scales pt_clust_3="47.85444" pt_clust_4="157.96385" pt_clust_5="36.50850" pt_clust_6="47.85444"></scales>
<clustering>
<clus scale="   36.509">  1  5  2 -1</clus>
<clus scale="   47.854">  3  6 -1 -1</clus>
<clus scale="  157.964">  2  4  1 -1</clus>
<clus scale="   36.509">  1  3  2 -1</clus>
</clustering>
</event>
<event>
 6    0  0.6549018E+002  0.1060832E+03  0.7546771E-02  0.1268000E+00
         21   -1    0    0  506  501  0.00000000000E+00  0.00000000000E+00  0.11660655311E+03  0.11660655311E+03  0.00000000000E+00 0.  1.
         21   -1    0    0  504  502 -0.00000000000E+00 -0.00000000000E+00 -0.53867067876E+03  0.53867067876E+03  0.00000000000E+00 0.  1.
         21    1    1    2  503  501  0.10258431941E+02  0.11081142789E+03  0.54772388715E+02  0.12403395722E+03  0.00000000000E+00 0.  1.
         21    1    1    2  504  503 -0.85746517206E+02 -0.70555427186E+02 -0.12816183254E+03  0.16957590878E+03  0.00000000000E+00 0. -1.
         21    1    1    2  505  502  0.28310297053E+02 -0.18279942205E+02 -0.64568820402E+02  0.72833795551E+02  0.00000000000E+00 0. -1.
         21    1    1    2  506  505  0.47177788213E+02 -0.21976058503E+02 -0.28410586142E+03  0.28883357032E+03  0.00000000000E+00 0.  1.
<scales pt_clust_3="106.08322" pt_clust_4="14000.00000" pt_clust_5="33.69910" pt_clust_6="72.44738"></scales>
<clustering>
<clus scale="   33.699">  2  5  1 -1</clus>
<clus scale="   72.447">  2  6  1 -1</clus>
<clus scale="  106.083">  1  3  2 -1</clus>
<clus scale="  106.083">  1  3  2 -1</clus>
</clustering>
</event>
<event>
 6    0  0.6549018E+002  0.1501440E+03  0.7546771E-02  0.1200296E+00
         21   -1    0    0  505  501  0.00000000000E+00  0.00000000000E+00  0.34691896754E+02  0.34691896754E+02  0.00000000000E+00 0. -1.
         21   -1    0    0  506  502 -0.00000000000E+00 -0.00000000000E+00 -0.17793601277E+04  0.17793601277E+04  0.00000000000E+00 0. -1.
         21    1    1    2  503  504  0.92464887191E+02 -0.58164851799E+02 -0.96962945540E+03  0.97576338635E+03  0.00000000000E+00 0. -1.
         21    1    1    2  504  502  0.38373541102E+02  0.63479387992E+01 -0.50318576989E+03  0.50468677811E+03  0.00000000000E+00 0. -1.
         21    1    1    2  505  503 -0.17732494086E+02 -0.41533691491E+02 -0.47259814630E+02  0.65368027003E+02  0.00000000000E+00 0.  1.
         21    1    1    2  506  501 -0.11310593421E+03  0.93350604491E+02 -0.22459319107E+03  0.26823383304E+03  0.00000000000E+00 0. -1.
<scales pt_clust_3="31.25918" pt_clust_4="31.25918" pt_clust_5="45.16070" pt_clust_6="140.70853"></scales>
<clustering>
<clus scale="   31.259">  3  4 -1 -1</clus>
<clus scale="   45.161">  1  5  2 -1</clus>
<clus scale="  140.709">  1  6  2 -1</clus>
<clus scale="   45.161">  1  3  2 -1</clus>
</clustering>
</event>
<event>
 6    0  0.6549018E+002  0.2412489E+03  0.7546771E-02  0.1118964E+00
         21   -1    0    0  505  501  0.00000000000E+00  0.00000000000E+00  0.19650691284E+04  0.19650691284E+04  0.00000000000E+00 0.  1.
         21   -1    0    0  503  502 -0.00000000000E+00 -0.00000000000E+00 -0.44793763190E+03  0.44793763190E+03  0.00000000000E+00 0. -1.
         21    1    1    2  503  506  0.93078191800E+02 -0.50632361482E+02 -0.18811237139E+03  0.21590148236E+03  0.00000000000E+00 0. -1.
         21    1    1    2  504  501 -0.26587112816E+03 -0.37524954178E+02  0.17323147184E+04  0.17530002461E+04  0.00000000000E+00 0.  1.
         21    1    1    2  505  502  0.48025608604E+02  0.38854396248E+02  0.18395247332E+03  0.19404802403E+03  0.00000000000E+00 0.  1.
         21    1    1    2  506  504  0.12476732775E+03  0.49302919412E+02 -0.21102332389E+03  0.25005700783E+03  0.00000000000E+00 0. -1.
<scales pt_clust_3="90.27325" pt_clust_4="218.74980" pt_clust_5="61.77478" pt_clust_6="90.27325"></scales>
<clustering>
<clus scale="   61.775">  1  5  2 -1</clus>
<clus scale="   90.273">  3  6 -1 -1</clus>
<clus scale="  218.750">  1  4  2 -1</clus>
<clus scale="   61.775">  1  3  2 -1</clus>
</clustering>
</event>
<event>
 6    0  0.6549018E+002  0.8858424E+02  0.7546771E-02  0.1306317E+00
         21   -1    0    0  503  501  0.00000000000E+00  0.00000000000E+00  0.27087090523E+03  0.27087090523E+03  0.00000000000E+00 0. -1.
         21   -1    0    0  506  502 -0.00000000000E+00 -0.00000000000E+00 -0.55449041154E+03  0.55449041154E+03  0.00000000000E+00 0.  1.
         21    1    1    2  503  504  0.20209056107E+02 -0.76020940596E+02  0.12107178184E+03  0.14438132052E+03  0.00000000000E+00 0.  1.
         21    1    1    2  504  502  0.80632131618E+02 -0.40459516151E+02 -0.19836407909E+03  0.21791471031E+03  0.00000000000E+00 0.  1.
         21    1    1    2  505  501 -0.77152419194E+02  0.91368570503E+02  0.99334188019E+02  0.15546058141E+03  0.00000000000E+00 0. -1.
         21    1    1    2  506  505 -0.23688768531E+02  0.25111886244E+02 -0.30566139707E+03  0.30760470453E+03  0.00000000000E+00 0.  1.
<scales pt_clust_3="14000.00000" pt_clust_4="63.75370" pt_clust_5="88.58424" pt_clust_6="34.52194"></scales>
<clustering>
<clus scale="   34.522">  2  6  1 -1</clus>
<clus scale="   63.754">  2  4  1 -1</clus>
<clus scale="   88.584">  2  5  1 -1</clus>
<clus scale="   88.584">  1  3  2 -1</clus>
</clustering>
</event>
<event>
 6    0  0.6549018E+002  0.1108026E+03  0.7546771E-02  0.1259091E+00
         21   -1    0    0  505  501  0.00000000000E+00  0.00000000000E+00  0.10968953600E+04  0.10968953600E+04  0.00000000000E+00 0. -1.
         21   -1    0    0  506  502 -0.00000000000E+00 -0.00000000000E+00 -0.30863206684E+02  0.30863206684E+02  0.00000000000E+00 0. -1.
         21    1    1    2  503  502  0.22975738574E+02 -0.21773435007E+02  0.73024486243E+02  0.79589839968E+02  0.00000000000E+00 0. -1.
         21    1    1    2  504  501 -0.11973710169E+03  0.81764291814E+02  0.39749710252E+03  0.42311501917E+03  0.00000000000E+00 0. -1.
         21    1    1    2  505  503  0.10202834190E+03 -0.95753736024E+01  0.54098661668E+03  0.55060692854E+03  0.00000000000E+00 0. -1.
         21    1    1    2  506  504 -0.52669787868E+01 -0.50415483205E+02  0.54523947872E+02  0.74446779002E+02  0.00000000000E+00 0.  1.
<scales pt_clust_3="31.65386" pt_clust_4="14000.00000" pt_clust_5="110.80261" pt_clust_6="58.35830"></scales>
<clustering>
<clus scale="   31.654">  2  3  1 -1</clus>
<clus scale="   58.358">  2  6  1 -1</clus>
<clus scale="  110.803">  1  5  2 -1</clus>
<clus scale="  110.803">  1  3  2 -1</clus>
</clustering>
</event>
<event>
 6    0  0.6549018E+002  0.2151535E+03  0.7546771E-02  0.1137549E+00
         21   -1    0    0  505  501  0.00000000000E+00  0.00000000000E+00  0.13790885432E+04  0.13790885432E+04  0.00000000000E+00 0. -1.
         21   -1    0    0  506  502 -0.00000000000E+00 -0.00000000000E+00 -0.43177410523E+03  0.43177410523E+03  0.00000000000E+00 0.  1.
         21    1    1    2  503  501 -0.19928907512E+03 -0.83929130852E+02  0.12357127330E+04  0.12544904117E+04  0.00000000000E+00 0. -1.
         21    1    1    2  504  502  0.55930052379E+02 -0.10773502940E+03  0.24864637493E+01  0.12141330167E+03  0.00000000000E+00 0.  1.
         21    1    1    2  505  504  0.49735595895E+02 -0.39644221782E+02 -0.20040437141E+02  0.66685177817E+02  0.00000000000E+00 0.  1.
         21    1    1    2  506  503  0.93623426848E+02  0.23130838204E+03 -0.27084432170E+03  0.36827375721E+03  0.00000000000E+00 0.  1.
<scales pt_clust_3="215.15354" pt_clust_4="187.27759" pt_clust_5="33.85140" pt_clust_6="14000.00000"></scales>
<clustering>
<clus scale="   33.851">  4  5 -1 -1</clus>
<clus scale="  187.278">  2  4  1 -1</clus>
<clus scale="  215.154">  1  3  2 -1</clus>
<clus scale="  215.154">  1  3  2 -1</clus>
</clustering>
</event>
<event>
 6    0  0.6549018E+002  0.9238640E+02  0.7546771E-02  0.1297173E+00
         21   -1    0    0  505  501  0.00000000000E+00  0.00000000000E+00  0.78059233125E+02  0.78059233125E+02  0.00000000000E+00 0. -1.
         21   -1    0    0  506  502 -0.00000000000E+00 -0.00000000000E+00 -0.70951755239E+03  0.70951755239E+03  0.00000000000E+00 0. -1.
         21    1    1    2  503  501  0.46392746455E+02 -0.10206445855E+03 -0.97214414933E+02  0.14839165439E+03  0.00000000000E+00 0. -1.
         21    1    1    2  504  503 -0.66504411860E+02  0.37610286919E+02 -0.20410332442E+03  0.21793470930E+03  0.00000000000E+00 0. -1.
         21    1    1    2  505  502  0.19492514999E+02  0.25788234858E+02  0.38679092468E+02  0.50408961428E+02  0.00000000000E+00 0. -1.
         21    1    1    2  506  504  0.61915040493E+00  0.38665936770E+02 -0.36881967238E+03  0.37084146040E+03  0.00000000000E+00 0. -1.
<scales pt_clust_3="92.38640" pt_clust_4="14000.00000" pt_clust_5="32.32632" pt_clust_6="39.46223"></scales>
<clustering>
<clus scale="   32.326">  1  5  2 -1</clus>
<clus scale="   39.462">  2  6  1 -1</clus>
<clus scale="   92.386">  1  3  2 -1</clus>
<clus scale="   32.326">  1  3  2 -1</clus>
</clustering>
</event>
<event>
 6    0  0.6549018E+002  0.1360987E+03  0.7546771E-02  0.1218677E+00
         21   -1    0    0  504  501  0.00000000000E+00  0.00000000000E+00  0.30970378545E+03  0.30970378545E+03  0.00000000000E+00 0. -1.
         21   -1    0    0  503  502 -0.00000000000E+00 -0.00000000000E+00 -0.10980992946E+04  0.10980992946E+04  0.00000000000E+00 0.  1.
         21    1    1    2  503  506  0.33645561079E+02  0.31911189688E+02 -0.36121337060E+02  0.58780088454E+02  0.00000000000E+00 0.  1.
         21    1    1    2  504  505 -0.51144488688E+02 -0.12954382599E+03  0.11799307972E+03  0.18253692349E+03  0.00000000000E+00 0. -1.
         21    1    1    2  505  502 -0.62376317295E+02 -0.11499650459E+02 -0.98627184073E+03  0.98830925865E+03  0.00000000000E+00 0.  1.
         21    1    1    2  506  501  0.79875244904E+02  0.10913228676E+03  0.11600458894E+03  0.17817680943E+03  0.00000000000E+00 0.  1.
<scales pt_clust_3="46.37184" pt_clust_4="14000.00000" pt_clust_5="35.88782" pt_clust_6="136.09871"></scales>
<clustering>
<clus scale="   46.372">  2  3  1 -1</clus>
<clus scale="   35.888">  2  5  1 -1</clus>
<clus scale="  136.099">  1  6  2 -1</clus>
<clus scale="  136.099">  1  3  2 -1</clus>
</clustering>
</event>
<event>
 6    0  0.6549018E+002  0.1125933E+03  0.7546771E-02  0.1255842E+00
         21   -1    0    0  506  501  0.00000000000E+00  0.00000000000E+00  0.13161817533E+04  0.13161817533E+04  0.00000000000E+00 0. -1.
         21   -1    0    0  505  502 -0.00000000000E+00 -0.00000000000E+00 -0.85068016302E+02  0.85068016302E+02  0.00000000000E+00 0.  1.
         21    1    1    2  503  502  0.12522637962E+02 -0.27286241012E+02  0.20478324858E+01  0.30092341683E+02  0.00000000000E+00 0.  1.
         21    1    1    2  504  501  0.27137885332E+02  0.84165893197E+02  0.85032594629E+02  0.12268212807E+03  0.00000000000E+00 0.  1.
         21    1    1    2  505  504  0.42402794978E+02  0.27397236866E+02 -0.36373108226E+02  0.62222251742E+02  0.00000000000E+00 0.  1.
         21    1    1    2  506  503 -0.82063318272E+02 -0.84276889051E+02  0.11804064182E+04  0.11862530482E+04  0.00000000000E+00 0. -1.
<scales pt_clust_3="30.02258" pt_clust_4="112.59326" pt_clust_5="51.78837" pt_clust_6="14000.00000"></scales>
<clustering>
<clus scale="   30.023">  2  3  1 -1</clus>
<clus scale="   51.788">  2  5  1 -1</clus>
<clus scale="  112.593">  2  4  1 -1</clus>
<clus scale="  112.593">  1  3  2 -1</clus>
</clustering>
</event>
<event>
 6    0  0.6549018E+002  0.1340080E+03  0.7546771E-02  0.1221627E+00
         21   -1    0    0  504  501  0.00000000000E+00  0.00000000000E+00  0.14586724598E+04  0.14586724598E+04  0.00000000000E+00 0. -1.
         21   -1    0    0  503  502 -0.00000000000E+00 -0.00000000000E+00 -0.45808419170E+02  0.45808419170E+02  0.00000000000E+00 0. -1.
         21    1    1    2  503  501  0.22959834300E+02 -0.25811653172E+02  0.28173570905E+03  0.28384574188E+03  0.00000000000E+00 0. -1.
         21    1    1    2  504  505  0.17368779470E+02  0.61255662545E+02  0.26595989235E+03  0.27347503548E+03  0.00000000000E+00 0. -1.
         21    1    1    2  505  506 -0.13846058410E+03  0.54246208622E+02  0.76857610099E+03  0.78283025460E+03  0.00000000000E+00 0. -1.
         21    1    1    2  506  502  0.98131970333E+02 -0.89690217995E+02  0.96592338201E+02  0.16432984697E+03  0.00000000000E+00 0. -1.
<scales pt_clust_3="34.54556" pt_clust_4="59.78568" pt_clust_5="14000.00000" pt_clust_6="134.00800"></scales>
<clustering>
<clus scale="   34.546">  1  3  2 -1</clus>
<clus scale="   59.786">  1  4  2 -1</clus>
<clus scale="  134.008">  2  6  1 -1</clus>
<clus scale="   34.546">  1  3  2 -1</clus>
</clustering>
</event>
<event>
 6    0  0.6549018E+002  0.7311757E+02  0.7546771E-02  0.1349801E+00
         21   -1    0    0  506  501  0.00000000000E+00  0.00000000000E+00  0.27997525017E+02  0.27997525017E+02  0.00000000000E+00 0.  1.
         21   -1    0    0  504  502 -0.00000000000E+00 -0.00000000000E+00 -0.10465255610E+04  0.10465255610E+04  0.00000000000E+00 0.  1.
         21    1    1    2  503  502 -0.14523649291E+02  0.44316647408E+02 -0.15446242551E+03  0.16134913238E+03  0.00000000000E+00 0.  1.
         21    1    1    2  504  505  0.53623981568E+02  0.10580931176E+02 -0.52591786401E+03  0.52875049616E+03  0.00000000000E+00 0.  1.
         21    1    1    2  505  501 -0.86276268343E+02 -0.87535903361E+02 -0.25889097232E+03  0.28658448039E+03  0.00000000000E+00 0.  1.
         21    1    1    2  506  503  0.47175936067E+02  0.32638324777E+02 -0.79256774147E+02  0.97838977081E+02  0.00000000000E+00 0.  1.
<scales pt_clust_3="46.63584" pt_clust_4="58.18580" pt_clust_5="73.11757" pt_clust_6="14000.00000"></scales>
<clustering>
<clus scale="   46.636">  2  3  1 -1</clus>
<clus scale="   58.186">  2  4  1 -1</clus>
<clus scale="   73.118">  2  5  1 -1</clus>
<clus scale="   73.118">  1  3  2 -1</clus>
</clustering>
</event>
<event>
 6    0  0.6549018E+002  0.1620199E+03  0.7546771E-02  0.1186435E+00
         21   -1    0    0  503  501  0.00000000000E+00  0.00000000000E+00  0.40637802183E+04  0.40637802183E+04  0.00000000000E+00 0. -1.
         21   -1    0    0  504  502 -0.00000000000E+00 -0.00000000000E+00 -0.13945912267E+03  0.13945912267E+03  0.00000000000E+00 0. -1.
         21    1    1    2  503  505 -0.79743623021E+02  0.19927380244E+03  0.50829584854E+03  0.55175516617E+03  0.00000000000E+00 0. -1.
         21    1    1    2  504  506 -0.23927327764E+01 -0.82753782218E+02  0.42038674129E+02  0.92850222208E+02  0.00000000000E+00 0. -1.
         21    1    1    2  505  502  0.15997479643E+02 -0.85915525034E+02 -0.71170622862E+02  0.11270605288E+03  0.00000000000E+00 0. -1.
         21    1    1    2  506  501  0.66138876155E+02 -0.30604495190E+02  0.34451571959E+04  0.34459278997E+04  0.00000000000E+00 0. -1.
<scales pt_clust_3="162.01993" pt_clust_4="86.22743" pt_clust_5="14000.00000" pt_clust_6="72.87651"></scales>
<clustering>
<clus scale="   72.877">  1  6  2 -1</clus>
<clus scale="   86.227">  2  4  1 -1</clus>
<clus scale="  162.020">  1  3  2 -1</clus>
<clus scale="   72.877">  1  3  2 -1</clus>
</clustering>
</event>
<event>
 6    0  0.6549018E+002  0.1222633E+03  0.7546771E-02  0.1239409E+00
         21   -1    0    0  505  501  0.00000000000E+00  0.00000000000E+00  0.37956469794E+03  0.37956469794E+03  0.00000000000E+00 0.  1.
         21   -1    0    0  506  502 -0.00000000000E+00 -0.00000000000E+00 -0.52217107074E+03  0.52217107074E+03  0.00000000000E+00 0. -1.
         21    1    1    2  503  501 -0.34143017865E+02 -0.15863643897E+02  0.82781396513E+02  0.90940422669E+02  0.00000000000E+00 0.  1.
         21    1    1    2  504  502  0.20977444399E+02 -0.37489751330E+02 -0.43419391351E+02  0.61080096379E+02  0.00000000000E+00 0. -1.
         21    1    1    2  505  504 -0.69251761928E+02  0.85456179894E+02  0.26875648503E+03  0.29039389363E+03  0.00000000000E+00 0.  1.
         21    1    1    2  506  503  0.82417335394E+02 -0.32102784667E+02 -0.45072486299E+03  0.45932135600E+03  0.00000000000E+00 0. -1.
<scales pt_clust_3="37.64838" pt_clust_4="42.88931" pt_clust_5="14000.00000" pt_clust_6="122.26330"></scales>
<clustering>
<clus scale="   37.648">  1  3  2 -1</clus>
<clus scale="   42.889">  2  4  1 -1</clus>
<clus scale="  122.263">  2  6  1 -1</clus>
<clus scale="   37.648">  1  3  2 -1</clus>
</clustering>
</event>
<event>
 6    0  0.6549018E+002  0.1486899E+03  0.7546771E-02  0.1202092E+00
         21   -1    0    0  504  501  0.00000000000E+00  0.00000000000E+00  0.14898957124E+03  0.14898957124E+03  0.00000000000E+00 0.  1.
         21   -1    0    0  503  502 -0.00000000000E+00 -0.00000000000E+00 -0.38209324713E+03  0.38209324713E+03  0.00000000000E+00 0.  1.
         21    1    1    2  503  506  0.10872294753E+02  0.36924362126E+02 -0.45121366075E+02  0.59308962123E+02  0.00000000000E+00 0. -1.
         21    1    1    2  504  505  0.46234508058E+02  0.70698663735E+02 -0.44789131556E+01  0.84593093408E+02  0.00000000000E+00 0.  1.
         21    1    1    2  505  502  0.12580963029E+03 -0.15655060935E+02 -0.11534291906E+03  0.17139758746E+03  0.00000000000E+00 0.  1.
         21    1    1    2  506  501 -0.18291643310E+03 -0.91967964926E+02 -0.68160477600E+02  0.21578317538E+03  0.00000000000E+00 0.  1.
<scales pt_clust_3="38.49176" pt_clust_4="89.46251" pt_clust_5="148.68991" pt_clust_6="14000.00000"></scales>
<clustering>
<clus scale="   38.492">  2  3  1 -1</clus>
<clus scale="   89.463">  1  4  2 -1</clus>
<clus scale="  148.690">  2  5  1 -1</clus>
<clus scale="   89.463">  1  3  2 -1</clus>
</clustering>
</event>
<event>
 6    0  0.6549018E+002  0.2338185E+03  0.7546771E-02  0.1123981E+00
         21   -1    0    0  505  501  0.00000000000E+00  0.00000000000E+00  0.57096996895E+03  0.57096996895E+03  0.00000000000E+00 0. -1.
         21   -1    0    0  503  502 -0.00000000000E+00 -0.00000000000E+00 -0.27107489449E+04  0.27107489449E+04  0.00000000000E+00 0.  1.
         21    1    1    2  503  501  0.45530247296E+02 -0.15148138176E+02 -0.36881213652E+02  0.60520190263E+02  0.00000000000E+00 0.  1.
         21    1    1    2  504  506 -0.76914180042E+02 -0.18357626579E+03  0.19421350958E+03  0.27809157441E+03  0.00000000000E+00 0. -1.
         21    1    1    2  505  504 -0.19097331820E+02 -0.30444328289E+02  0.31672545918E+03  0.31875787316E+03  0.00000000000E+00 0. -1.
         21    1    1    2  506  502  0.50481264566E+02  0.22916873226E+03 -0.26138367311E+04  0.26243492760E+04  0.00000000000E+00 0.  1.
<scales pt_clust_3="47.61476" pt_clust_4="14000.00000" pt_clust_5="35.93835" pt_clust_6="233.81852"></scales>
<clustering>
<clus scale="   35.938">  1  5  2 -1</clus>
<clus scale="   47.615">  1  3  2 -1</clus>
<clus scale="  233.819">  2  6  1 -1</clus>
<clus scale="   35.938">  1  3  2 -1</clus>
</clustering>
</event>
<event>
 6    0  0.6549018E+002  0.8909080E+02  0.7546771E-02  0.1305069E+00
         21   -1    0    0  506  501  0.00000000000E+00  0.00000000000E+00  0.69587550819E+03  0.69587550819E+03  0.00000000000E+00 0. -1.
         21   -1    0    0  505  502 -0.00000000000E+00 -0.00000000000E+00 -0.36716937183E+02  0.36716937183E+02  0.00000000000E+00 0.  1.
         21    1    1    2  503  502  0.56386695771E+02 -0.21243699832E+02  0.69222222312E+02  0.91774017589E+02  0.00000000000E+00 0.  1.
         21    1    1    2  504  501 -0.36098619385E+02  0.30463867422E+02  0.13808414690E+03  0.14593967645E+03  0.00000000000E+00 0. -1.
         21    1    1    2  505  504 -0.71888440439E+02 -0.56202338749E+02  0.39341143359E+03  0.40385542813E+03  0.00000000000E+00 0. -1.
         21    1    1    2  506  503  0.51600364053E+02  0.46982171160E+02  0.58440768203E+02  0.91023323195E+02  0.00000000000E+00 0.  1.
<scales pt_clust_3="53.83397" pt_clust_4="47.23513" pt_clust_5="89.09080" pt_clust_6="14000.00000"></scales>
<clustering>
<clus scale="   47.235">  1  4  2 -1</clus>
<clus scale="   53.834">  2  3  1 -1</clus>
<clus scale="   89.091">  1  5  2 -1</clus>
<clus scale="   47.235">  1  3  2 -1</clus>
</clustering>
</event>
<event>
 6    0  0.6549018E+002  0.1215638E+03  0.7546771E-02  0.1240539E+00
         21   -1    0    0  505  501  0.00000000000E+00  0.00000000000E+00  0.18446468763E+04  0.18446468763E+04  0.00000000000E+00 0. -1.
         21   -1    0    0  503  502 -0.00000000000E+00 -0.00000000000E+00 -0.66954994951E+03  0.66954994951E+03  0.00000000000E+00 0.  1.
         21    1    1    2  503  501  0.21686140039E+01 -0.14894321377E+03  0.12073644859E+04  0.12165187157E+04  0.00000000000E+00 0. -1.
         21    1    1    2  504  502 -0.30162493400E+01  0.69253936302E+02 -0.39644243341E+03  0.40245721321E+03  0.00000000000E+00 0.  1.
         21    1    1    2  505  506 -0.36118880453E+02  0.43272095290E+02  0.62588396167E+03  0.62841688490E+03  0.00000000000E+00 0. -1.
         21    1    1    2  506  504  0.36966515789E+02  0.36417182176E+02 -0.26170908733E+03  0.26680401203E+03  0.00000000000E+00 0.  1.
<scales pt_clust_3="111.12879" pt_clust_4="42.63427" pt_clust_5="56.36531" pt_clust_6="42.63427"></scales>
<clustering>
<clus scale="   42.634">  4  6 -1 -1</clus>
<clus scale="   56.365">  1  5  2 -1</clus>
<clus scale="  111.129">  1  3  2 -1</clus>
<clus scale="   56.365">  1  3  2 -1</clus>
</clustering>
</event>
<event>
 6    0  0.6549018E+002  0.1038176E+03  0.7546771E-02  0.1272467E+00
         21   -1    0    0  503  501  0.00000000000E+00  0.00000000000E+00  0.83210189185E+02  0.83210189185E+02  0.00000000000E+00 0.  1.
         21   -1    0    0  506  502 -0.00000000000E+00 -0.00000000000E+00 -0.71876541047E+03  0.71876541047E+03  0.00000000000E+00 0.  1.
         21    1    1    2  503  505 -0.33901240387E+02 -0.63092302586E+01  0.35008469310E+02  0.49139530011E+02  0.00000000000E+00 0.  1.
         21    1    1    2  504  502  0.72207392258E+02  0.34622000627E+02 -0.24357167229E+03  0.25639764033E+03  0.00000000000E+00 0.  1.
         21    1    1    2  505  504 -0.71340557324E+02  0.63955554255E+02 -0.52329898145E+02  0.10917053760E+03  0.00000000000E+00 0.  1.
         21    1    1    2  506  501  0.33034405453E+02 -0.92268324623E+02 -0.37466212015E+03  0.38726789171E+03  0.00000000000E+00 0.  1.
<scales pt_clust_3="34.48334" pt_clust_4="74.90086" pt_clust_5="14000.00000" pt_clust_6="103.81756"></scales>
<clustering>
<clus scale="   34.483">  1  3  2 -1</clus>
<clus scale="   74.901">  2  4  1 -1</clus>
<clus scale="  103.818">  2  6  1 -1</clus>
<clus scale="   34.483">  1  3  2 -1</clus>
</clustering>
</event>
<event>
 6    0  0.6549018E+002  0.2163214E+03  0.7546771E-02  0.1136656E+00
         21   -1    0    0  506  501  0.00000000000E+00  0.00000000000E+00  0.79057406612E+03  0.79057406612E+03  0.00000000000E+00 0. -1.
         21   -1    0    0  504  502 -0.00000000000E+00 -0.00000000000E+00 -0.10973711932E+04  0.10973711932E+04  0.00000000000E+00 0. -1.
         21    1    1    2  503  505  0.33492056444E+02 -0.10885111488E+03 -0.30422909670E+02  0.11788060268E+03  0.00000000000E+00 0. -1.
         21    1    1    2  504  503 -0.58799927207E+01  0.34507659058E+02 -0.34385653855E+02  0.49068585053E+02  0.00000000000E+00 0. -1.
         21    1    1    2  505  501 -0.20160230128E+03 -0.78366156739E+02  0.70950619902E+03  0.74174374878E+03  0.00000000000E+00 0. -1.
         21    1    1    2  506  502  0.17399023755E+03  0.15270961256E+03 -0.95149476253E+03  0.97925232277E+03  0.00000000000E+00 0. -1.
<scales pt_clust_3="111.44940" pt_clust_4="35.00504" pt_clust_5="14000.00000" pt_clust_6="216.32142"></scales>
<clustering>
<clus scale="   35.005">  2  4  1 -1</clus>
<clus scale="  111.449">  2  3  1 -1</clus>
<clus scale="  216.321">  2  6  1 -1</clus>
<clus scale="  216.321">  1  3  2 -1</clus>
</clustering>
</event>
<event>
 6    0  0.6549018E+002  0.1069620E+03  0.7546771E-02  0.1266302E+00
         21   -1    0    0  506  501  0.00000000000E+00  0.00000000000E+00  0.65624768252E+03  0.65624768252E+03  0.00000000000E+00 0. -1.
         21   -1    0    0  504  502 -0.00000000000E+00 -0.00000000000E+00 -0.83544683640E+02  0.83544683640E+02  0.00000000000E+00 0. -1.
         21    1    1    2  503  502 -0.10493090666E+03 -0.57269761810E+02  0.55560125344E+02  0.13182279134E+03  0.00000000000E+00 0. -1.
         21    1    1    2  504  505  0.30876296262E+02  0.49503520384E+01  0.61843152383E+01  0.31876282894E+02  0.00000000000E+00 0. -1.
         21    1    1    2  505  501  0.86462711022E+00  0.13124361341E+03  0.14944322924E+03  0.19889422416E+03  0.00000000000E+00 0. -1.
         21    1    1    2  506  503  0.73189983285E+02 -0.78924203636E+02  0.36151532906E+03  0.37719906776E+03  0.00000000000E+00 0. -1.
<scales pt_clust_3="103.79838" pt_clust_4="31.27062" pt_clust_5="14000.00000" pt_clust_6="106.96196"></scales>
<clustering>
<clus scale="   31.271">  2  4  1 -1</clus>
<clus scale="  103.798">  2  3  1 -1</clus>
<clus scale="  106.962">  1  6  2 -1</clus>
<clus scale="  106.962">  1  3  2 -1</clus>
</clustering>
</event>
<event>
 6    0  0.6549018E+002  0.1592592E+03  0.7546771E-02  0.1189536E+00
         21   -1    0    0  503  501  0.00000000000E+00  0.00000000000E+00  0.23570504681E+03  0.23570504681E+03  0.00000000000E+00 0.  1.
         21   -1    0    0  504  502 -0.00000000000E+00 -0.00000000000E+00 -0.10168640870E+04  0.10168640870E+04  0.00000000000E+00 0. -1.
         21    1    1    2  503  502  0.16403800175E+03 -0.74788424452E+02  0.73685329663E+02  0.19475960120E+03  0.00000000000E+00 0.  1.
         21    1    1    2  504  506 -0.84225451680E+02  0.28541249530E+01 -0.68924581326E+03  0.69437876108E+03  0.00000000000E+00 0. -1.
         21    1    1    2  505  501 -0.24847685853E+02  0.38705202703E+02  0.89362263917E+02  0.10050430051E+03  0.00000000000E+00 0.  1.
         21    1    1    2  506  505 -0.54964864216E+02  0.33229096796E+02 -0.25496082046E+03  0.26292647098E+03  0.00000000000E+00 0.  1.
<scales pt_clust_3="145.36949" pt_clust_4="57.13994" pt_clust_5="45.99457" pt_clust_6="57.13994"></scales>
<clustering>
<clus scale="   45.995">  1  5  2 -1</clus>
<clus scale="   57.140">  4  6 -1 -1</clus>
<clus scale="  145.369">  1  3  2 -1</clus>
<clus scale="   45.995">  1  3  2 -1</clus>
</clustering>
</event>
<event>
 6    0  0.6549018E+002  0.2309350E+03  0.7546771E-02  0.1125983E+00
         21   -1    0    0  504  501  0.00000000000E+00  0.00000000000E+00  0.15653674509E+04  0.15653674509E+04  0.00000000000E+00 0. -1.
         21   -1    0    0  505  502 -0.00000000000E+00 -0.00000000000E+00 -0.49037625046E+02  0.49037625046E+02  0.00000000000E+00 0. -1.
         21    1    1    2  503  506 -0.70267975722E+02 -0.30318473365E+02  0.38886541638E+03  0.39632450125E+03  0.00000000000E+00 0. -1.
         21    1    1    2  504  503 -0.11236497496E+03 -0.75168224946E+02  0.39351967911E+03  0.41609360423E+03  0.00000000000E+00 0. -1.
         21    1    1    2  505  501 -0.34350249807E+02  0.26446427403E+02  0.35916867690E+03  0.36177547133E+03  0.00000000000E+00 0. -1.
         21    1    1    2  506  502  0.21698320048E+03  0.79040270908E+02  0.37477605345E+03  0.44021149912E+03  0.00000000000E+00 0. -1.
<scales pt_clust_3="45.25968" pt_clust_4="45.25968" pt_clust_5="43.35151" pt_clust_6="223.41990"></scales>
<clustering>
<clus scale="   43.352">  1  5  2 -1</clus>
<clus scale="   45.260">  3  4 -1 -1</clus>
<clus scale="  223.420">  2  6  1 -1</clus>
<clus scale="   43.352">  1  3  2 -1</clus>
</clustering>
</event>
<event>
 6    0  0.6549018E+002  0.1274146E+03  0.7546771E-02  0.1231343E+00
         21   -1    0    0  503  501  0.00000000000E+00  0.00000000000E+00  0.13278784459E+04  0.13278784459E+04  0.00000000000E+00 0. -1.
         21   -1    0    0  506  502 -0.00000000000E+00 -0.00000000000E+00 -0.49243604469E+02  0.49243604469E+02  0.00000000000E+00 0. -1.
         21    1    1    2  503  505 -0.46773786678E+02 -0.11622642397E+03  0.26000940335E+03  0.28861957415E+03  0.00000000000E+00 0. -1.
         21    1    1    2  504  502  0.68443033399E+02 -0.30085283745E+01  0.57992579625E+02  0.89758784280E+02  0.00000000000E+00 0. -1.
         21    1    1    2  505  504  0.45316859793E+02  0.48043570519E+02  0.49889240825E+02  0.82769189919E+02  0.00000000000E+00 0. -1.
         21    1    1    2  506  501 -0.66986106513E+02  0.71191381821E+02  0.91074361766E+03  0.91597450205E+03  0.00000000000E+00 0. -1.
<scales pt_clust_3="114.35269" pt_clust_4="55.17530" pt_clust_5="55.17530" pt_clust_6="97.75148"></scales>
<clustering>
<clus scale="   55.175">  4  5 -1 -1</clus>
<clus scale="   97.751">  1  6  2 -1</clus>
<clus scale="  114.353">  1  3  2 -1</clus>
<clus scale="   97.751">  1  3  2 -1</clus>
</clustering>
</event>
<event>
 6    0  0.6549018E+002  0.8602117E+02  0.7546771E-02  0.1312783E+00
         21   -1    0    0  505  501  0.00000000000E+00  0.00000000000E+00  0.20598018261E+04  0.20598018261E+04  0.00000000000E+00 0. -1.
         21   -1    0    0  503  502 -0.00000000000E+00 -0.00000000000E+00 -0.36010088252E+02  0.36010088252E+02  0.00000000000E+00 0. -1.
         21    1    1    2  503  506 -0.51016285980E+01  0.99193326601E+02  0.34639637676E+03  0.36035509222E+03  0.00000000000E+00 0. -1.
         21    1    1    2  504  502  0.58527072641E+02 -0.55098272579E+01  0.27239798657E+02  0.64790300657E+02  0.00000000000E+00 0. -1.
         21    1    1    2  505  504  0.30099411391E+02 -0.51426631592E+02  0.91434000899E+02  0.10913683853E+03  0.00000000000E+00 0. -1.
         21    1    1    2  506  501 -0.83524855434E+02 -0.42256867752E+02  0.15587215615E+04  0.15615296829E+04  0.00000000000E+00 0. -1.
<scales pt_clust_3="14000.00000" pt_clust_4="58.78585" pt_clust_5="81.01041" pt_clust_6="86.02117"></scales>
<clustering>
<clus scale="   58.786">  2  4  1 -1</clus>
<clus scale="   81.010">  2  5  1 -1</clus>
<clus scale="   86.021">  1  6  2 -1</clus>
<clus scale="   86.021">  1  3  2 -1</clus>
</clustering>
</event>
<event>
 6    0  0.6549018E+002  0.8346850E+02  0.7546771E-02  0.1319487E+00
         21   -1    0    0  503  501  0.00000000000E+00  0.00000000000E+00  0.47076024198E+03  0.47076024198E+03  0.00000000000E+00 0.  1.
         21   -1    0    0  506  502 -0.00000000000E+00 -0.00000000000E+00 -0.76738292895E+02  0.76738292895E+02  0.00000000000E+00 0.  1.
         21    1    1    2  503  505 -0.61903903584E+02 -0.10082984844E+02  0.11224359822E+03  0.12857832323E+03  0.00000000000E+00 0.  1.
         21    1    1    2  504  501  0.11517085062E+03 -0.25562734086E+02  0.27521205377E+03  0.29943188332E+03  0.00000000000E+00 0.  1.
         21    1    1    2  505  502 -0.22872730079E+02 -0.30048144784E+02  0.24373565341E+02  0.44945783714E+02  0.00000000000E+00 0.  1.
         21    1    1    2  506  504 -0.30394216961E+02  0.65693863713E+02 -0.17807268253E+02  0.74542544609E+02  0.00000000000E+00 0.  1.
<scales pt_clust_3="83.46850" pt_clust_4="14000.00000" pt_clust_5="37.76311" pt_clust_6="64.42739"></scales>
<clustering>
<clus scale="   37.763">  2  5  1 -1</clus>
<clus scale="   64.427">  2  6  1 -1</clus>
<clus scale="   83.469">  1  3  2 -1</clus>
<clus scale="   83.469">  1  3  2 -1</clus>
</clustering>
</event>
<event>
 6    0  0.6549018E+002  0.3261322E+03  0.7546771E-02  0.1072861E+00
         21   -1    0    0  504  501  0.00000000000E+00  0.00000000000E+00  0.51184465137E+02  0.51184465137E+02  0.00000000000E+00 0.  1.
         21   -1    0    0  503  502 -0.00000000000E+00 -0.00000000000E+00 -0.29474564369E+04  0.29474564369E+04  0.00000000000E+00 0.  1.
         21    1    1    2  503  501 -0.20499510601E+02  0.56307506544E+02 -0.21030599342E+03  0.21867641870E+03  0.00000000000E+00 0.  1.
         21    1    1    2  504  505  0.23411741248E+03  0.19129270072E+03 -0.65123007104E+03  0.71798639653E+03  0.00000000000E+00 0.  1.
         21    1    1    2  505  506 -0.15873688603E+03 -0.17621543377E+03 -0.16428235496E+04  0.16598549615E+04  0.00000000000E+00 0.  1.
         21    1    1    2  506  502 -0.54881015851E+02 -0.71384773490E+02 -0.39191235769E+03  0.40212312529E+03  0.00000000000E+00 0.  1.
<scales pt_clust_3="59.92299" pt_clust_4="318.90006" pt_clust_5="42.08416" pt_clust_6="42.08416"></scales>
<clustering>
<clus scale="   42.084">  5  6 -1 -1</clus>
<clus scale="   59.923">  1  3  2 -1</clus>
<clus scale="  318.900">  1  4  2 -1</clus>
<clus scale="   59.923">  1  3  2 -1</clus>
</clustering>
</event>
<event>
 6    0  0.6549018E+002  0.3295724E+03  0.7546771E-02  0.1071326E+00
         21   -1    0    0  503  501  0.00000000000E+00  0.00000000000E+00  0.26684382141E+03  0.26684382141E+03  0.00000000000E+00 0.  1.
         21   -1    0    0  505  502 -0.00000000000E+00 -0.00000000000E+00 -0.21444768882E+04  0.21444768882E+04  0.00000000000E+00 0.  1.
         21    1    1    2  503  502  0.23446546290E+03  0.16776515229E+03 -0.10553726973E+03  0.30701354191E+03  0.00000000000E+00 0.  1.
         21    1    1    2  504  506  0.17667387483E+02  0.48606298202E+02 -0.22298660557E+03  0.22890551559E+03  0.00000000000E+00 0. -1.
         21    1    1    2  505  504  0.13787842984E+02  0.47982209586E+02 -0.14958418526E+04  0.14966747292E+04  0.00000000000E+00 0.  1.
         21    1    1    2  506  501 -0.26592069337E+03 -0.26435366007E+03 -0.53267338919E+02  0.37872692293E+03  0.00000000000E+00 0.  1.
<scales pt_clust_3="329.57241" pt_clust_4="69.08847" pt_clust_5="49.92391" pt_clust_6="14000.00000"></scales>
<clustering>
<clus scale="   49.924">  2  5  1 -1</clus>
<clus scale="   69.088">  2  4  1 -1</clus>
<clus scale="  329.572">  1  3  2 -1</clus>
<clus scale="  329.572">  1  3  2 -1</clus>
</clustering>
</event>
<event>
 6    0  0.6549018E+002  0.2331362E+03  0.7546771E-02  0.1124452E+00
         21   -1    0    0  504  501  0.00000000000E+00  0.00000000000E+00  0.10041478267E+04  0.10041478267E+04  0.00000000000E+00 0. -1.
         21   -1    0    0  505  502 -0.00000000000E+00 -0.00000000000E+00 -0.59437785427E+03  0.59437785427E+03  0.00000000000E+00 0. -1.
         21    1    1    2  503  502  0.59076233907E+02 -0.25375195201E+03 -0.37177403399E+02  0.26317715304E+03  0.00000000000E+00 0.  1.
         21    1    1    2  504  503 -0.39020461293E+02  0.15846774109E+02  0.80145405962E+03  0.80255985841E+03  0.00000000000E+00 0. -1.
         21    1    1    2  505  506  0.17320401175E+02  0.22769271191E+03 -0.40751329786E+03  0.46713066190E+03  0.00000000000E+00 0. -1.
         21    1    1    2  506  501 -0.37376173789E+02  0.10212465990E+02  0.53006614061E+02  0.65658007607E+02  0.00000000000E+00 0.  1.
<scales pt_clust_3="14000.00000" pt_clust_4="74.87448" pt_clust_5="233.13615" pt_clust_6="38.74626"></scales>
<clustering>
<clus scale="   38.746">  1  6  2 -1</clus>
<clus scale="   74.874">  1  4  2 -1</clus>
<clus scale="  233.136">  2  5  1 -1</clus>
<clus scale="   38.746">  1  3  2 -1</clus>
</clustering>
</event>
<event>
 6    0  0.6549018E+002  0.1587419E+03  0.7546771E-02  0.1190125E+00
         21   -1    0    0  505  501  0.00000000000E+00  0.00000000000E+00  0.11205991575E+04  0.11205991575E+04  0.00000000000E+00 0.  1.
         21   -1    0    0  503  502 -0.00000000000E+00 -0.00000000000E+00 -0.14430921122E+04  0.14430921122E+04  0.00000000000E+00 0. -1.
         21    1    1    2  503  506  0.19214597757E+02 -0.35230999255E+02 -0.79602827642E+02  0.89146139816E+02  0.00000000000E+00 0.  1.
         21    1    1    2  504  502  0.13767253969E+03  0.62695776154E+02 -0.13387200487E+04  0.13472400890E+04  0.00000000000E+00 0. -1.
         21    1    1    2  505  504 -0.14136790969E+03  0.70393829620E+02  0.79642164992E+03  0.81192833526E+03  0.00000000000E+00 0.  1.
         21    1    1    2  506  501 -0.15519227762E+02 -0.97858606519E+02  0.29940827175E+03  0.31537670569E+03  0.00000000000E+00 0.  1.
<scales pt_clust_3="40.13009" pt_clust_4="14000.00000" pt_clust_5="158.74188" pt_clust_6="99.26844"></scales>
<clustering>
<clus scale="   40.130">  2  3  1 -1</clus>
<clus scale="   99.268">  1  6  2 -1</clus>
<clus scale="  158.742">  1  5  2 -1</clus>
<clus scale="   99.268">  1  3  2 -1</clus>
</clustering>
</event>
<event>
 6    0  0.6549018E+002  0.1078643E+03  0.7546771E-02  0.1264577E+00
         21   -1    0    0  506  501  0.00000000000E+00  0.00000000000E+00  0.41279927637E+03  0.41279927637E+03  0.00000000000E+00 0.  1.
         21   -1    0    0  505  502 -0.00000000000E+00 -0.00000000000E+00 -0.18273051368E+03  0.18273051368E+03  0.00000000000E+00 0. -1.
         21    1    1    2  503  501 -0.56262596883E+02 -0.32263081714E+02 -0.63446375412E+02  0.90729426333E+02  0.00000000000E+00 0. -1.
         21    1    1    2  504  502  0.78409889488E+02 -0.24854977346E+02  0.11762189316E+03  0.14352975447E+03  0.00000000000E+00 0.  1.
         21    1    1    2  505  503 -0.43315156127E+02  0.17557541112E+00 -0.83925481635E+02  0.94444269517E+02  0.00000000000E+00 0. -1.
         21    1    1    2  506  504  0.21167863522E+02  0.56942483650E+02  0.25981872658E+03  0.26682633973E+03  0.00000000000E+00 0.  1.
<scales pt_clust_3="32.94864" pt_clust_4="100.04602" pt_clust_5="32.94864" pt_clust_6="60.74969"></scales>
<clustering>
<clus scale="   32.949">  3  5 -1 -1</clus>
<clus scale="   60.750">  1  6  2 -1</clus>
<clus scale="  100.046">  1  4  2 -1</clus>
<clus scale="   60.750">  1  3  2 -1</clus>
</clustering>
</event>
<event>
 6    0  0.6549018E+002  0.1881801E+03  0.7546771E-02  0.1160113E+00
         21   -1    0    0  503  501  0.00000000000E+00  0.00000000000E+00  0.62968437926E+03  0.62968437926E+03  0.00000000000E+00 0. -1.
         21   -1    0    0  505  502 -0.00000000000E+00 -0.00000000000E+00 -0.12446766642E+04  0.12446766642E+04  0.00000000000E+00 0.  1.
         21    1    1    2  503  502 -0.19520193080E+03  0.14144225794E+03  0.56409706220E+01  0.24112554130E+03  0.00000000000E+00 0. -1.
         21    1    1    2  504  506  0.39757746854E+02 -0.42881478305E+02 -0.45950054059E+03  0.46320648356E+03  0.00000000000E+00 0.  1.
         21    1    1    2  505  504  0.11032677814E+03 -0.55113425161E+02 -0.65788440636E+03  0.66934399208E+03  0.00000000000E+00 0.  1.
         21    1    1    2  506  501  0.45117405810E+02 -0.43447354472E+02  0.49675169136E+03  0.50068502653E+03  0.00000000000E+00 0. -1.
<scales pt_clust_3="182.80769" pt_clust_4="30.74156" pt_clust_5="30.74156" pt_clust_6="62.63588"></scales>
<clustering>
<clus scale="   30.742">  4  5 -1 -1</clus>
<clus scale="   62.636">  1  6  2 -1</clus>
<clus scale="  182.808">  1  3  2 -1</clus>
<clus scale="   62.636">  1  3  2 -1</clus>
</clustering>
</event>
<event>
 6    0  0.6549018E+002  0.2443235E+03  0.7546771E-02  0.1116946E+00
         21   -1    0    0  505  501  0.00000000000E+00  0.00000000000E+00  0.17982948807E+04  0.17982948807E+04  0.00000000000E+00 0.  1.
         21   -1    0    0  504  502 -0.00000000000E+00 -0.00000000000E+00 -0.22615833679E+03  0.22615833679E+03  0.00000000000E+00 0.  1.
         21    1    1    2  503  506  0.68534313637E+01 -0.42284339268E+02  0.33382619355E+02  0.54307772407E+02  0.00000000000E+00 0. -1.
         21    1    1    2  504  503  0.54808373745E+02 -0.41864621919E+02  0.34041624543E+02  0.76911875562E+02  0.00000000000E+00 0. -1.
         21    1    1    2  505  502  0.71348020562E+00 -0.15686776769E+03 -0.15169679059E+03  0.21821989339E+03  0.00000000000E+00 0.  1.
         21    1    1    2  506  501 -0.62375285315E+02  0.24101672888E+03  0.16564090906E+04  0.16750136761E+04  0.00000000000E+00 0.  1.
<scales pt_clust_3="33.33708" pt_clust_4="112.57250" pt_clust_5="244.32351" pt_clust_6="14000.00000"></scales>
<clustering>
<clus scale="   33.337">  3  4 -1 -1</clus>
<clus scale="  112.572">  2  3  1 -1</clus>
<clus scale="  244.324">  2  5  1 -1</clus>
<clus scale="  244.324">  1  3  2 -1</clus>
</clustering>
</event>
<event>
 6    0  0.6549018E+002  0.1080518E+03  0.7546771E-02  0.1264221E+00
         21   -1    0    0  504  501  0.00000000000E+00  0.00000000000E+00  0.91747383849E+03  0.91747383849E+03  0.00000000000E+00 0. -1.
         21   -1    0    0  503  502 -0.00000000000E+00 -0.00000000000E+00 -0.13572656907E+03  0.13572656907E+03  0.00000000000E+00 0. -1.
         21    1    1    2  503  505  0.59214919239E+02 -0.11620426231E+02 -0.59881818408E+02  0.85013370373E+02  0.00000000000E+00 0.  1.
         21    1    1    2  504  502  0.78467001719E+02  0.23333316350E+02  0.32013285602E+03  0.33043389584E+03  0.00000000000E+00 0. -1.
         21    1    1    2  505  506  0.25421036096E+01 -0.85813693605E+02 -0.68421892613E+01  0.86123561554E+02  0.00000000000E+00 0. -1.
         21    1    1    2  506  501 -0.14022402457E+03  0.74100803485E+02  0.52833842106E+03  0.55162957980E+03  0.00000000000E+00 0. -1.
<scales pt_clust_3="60.34435" pt_clust_4="86.24314" pt_clust_5="108.05180" pt_clust_6="14000.00000"></scales>
<clustering>
<clus scale="   60.344">  2  3  1 -1</clus>
<clus scale="   86.243">  1  4  2 -1</clus>
<clus scale="  108.052">  2  5  1 -1</clus>
<clus scale="   86.243">  1  3  2 -1</clus>
</clustering>
</event>
<event>
 6    0  0.6549018E+002  0.6834024E+02  0.7546771E-02  0.1365830E+00
         21   -1    0    0  504  501  0.00000000000E+00  0.00000000000E+00  0.24331627505E+03  0.24331627505E+03  0.00000000000E+00 0. -1.
         21   -1    0    0  503  502 -0.00000000000E+00 -0.00000000000E+00 -0.12801926777E+04  0.12801926777E+04  0.00000000000E+00 0. -1.
         21    1    1    2  503  505 -0.44450692306E+02 -0.10452441595E+02 -0.13717511133E+03  0.14457568520E+03  0.00000000000E+00 0. -1.
         21    1    1    2  504  502 -0.89512527194E+02 -0.78476364684E+02  0.18108864280E+03  0.21671208754E+03  0.00000000000E+00 0. -1.
         21    1    1    2  505  506  0.86983759457E+02  0.60736198238E+02 -0.10992863649E+04  0.11043937578E+04  0.00000000000E+00 0. -1.
         21    1    1    2  506  501  0.46979460042E+02  0.28192608041E+02  0.18496430750E+02  0.57827422254E+02  0.00000000000E+00 0.  1.
<scales pt_clust_3="45.66309" pt_clust_4="14000.00000" pt_clust_5="68.34024" pt_clust_6="54.03935"></scales>
<clustering>
<clus scale="   45.663">  2  3  1 -1</clus>
<clus scale="   54.039">  1  6  2 -1</clus>
<clus scale="   68.340">  2  5  1 -1</clus>
<clus scale="   54.039">  1  3  2 -1</clus>
</clustering>
</event>
<event>
 6    0  0.6549018E+002  0.9432783E+02  0.7546771E-02  0.1292697E+00
         21   -1    0    0  506  501  0.00000000000E+00  0.00000000000E+00  0.13452570895E+02  0.13452570895E+02  0.00000000000E+00 0.  1.
         21   -1    0    0  504  502 -0.00000000000E+00 -0.00000000000E+00 -0.20362910199E+04  0.20362910199E+04  0.00000000000E+00 0.  1.
         21    1    1    2  503  501 -0.34543537518E+02 -0.13430305252E+01 -0.49300850468E+02  0.60213234194E+02  0.00000000000E+00 0.  1.
         21    1    1    2  504  503  0.12674283194E+02 -0.10879388570E+03 -0.64976682804E+03  0.65893374313E+03  0.00000000000E+00 0.  1.
         21    1    1    2  505  502  0.18027622288E+02  0.28321066554E+02 -0.77702000951E+03  0.77774492808E+03  0.00000000000E+00 0.  1.
         21    1    1    2  506  505  0.38416320352E+01  0.81815849670E+02 -0.54675076098E+03  0.55285168538E+03  0.00000000000E+00 0.  1.
<scales pt_clust_3="33.75960" pt_clust_4="14000.00000" pt_clust_5="33.57198" pt_clust_6="94.32783"></scales>
<clustering>
<clus scale="   33.572">  2  5  1 -1</clus>
<clus scale="   33.760">  1  3  2 -1</clus>
<clus scale="   94.328">  1  6  2 -1</clus>
<clus scale="   33.760">  1  3  2 -1</clus>
</clustering>
</event>
<event>
 6    0  0.6549018E+002  0.9746914E+02  0.7546771E-02  0.1285710E+00
         21   -1    0    0  506  501  0.00000000000E+00  0.00000000000E+00  0.47782403297E+03  0.47782403297E+03  0.00000000000E+00 0.  1.
         21   -1    0    0  504  502 -0.00000000000E+00 -0.00000000000E+00 -0.79972532382E+02  0.79972532382E+02  0.00000000000E+00 0.  1.
         21    1    1    2  503  501 -0.50215231153E+02  0.12571958892E+03  0.25874229537E+03  0.29201808145E+03  0.00000000000E+00 0.  1.
         21    1    1    2  504  505  0.48302606762E+02 -0.29677567192E+02 -0.16550458990E+02  0.59057747224E+02  0.00000000000E+00 0.  1.
         21    1    1    2  505  503  0.35768763556E+01 -0.65207056951E+02  0.21048954420E+02  0.68613503065E+02  0.00000000000E+00 0.  1.
         21    1    1    2  506  502 -0.16642519639E+01 -0.30834964779E+02  0.13461070979E+03  0.13810723361E+03  0.00000000000E+00 0.  1.
<scales pt_clust_3="14000.00000" pt_clust_4="57.63249" pt_clust_5="97.46914" pt_clust_6="30.87984"></scales>
<clustering>
<clus scale="   30.880">  1  6  2 -1</clus>
<clus scale="   57.632">  2  4  1 -1</clus>
<clus scale="   97.469">  2  5  1 -1</clus>
<clus scale="   30.880">  1  3  2 -1</clus>
</clustering>
</event>
<event>
 6    0  0.6549018E+002  0.9891941E+02  0.7546771E-02  0.1282585E+00
         21   -1    0    0  504  501  0.00000000000E+00  0.00000000000E+00  0.80080664334E+02  0.80080664334E+02  0.00000000000E+00 0.  1.
         21   -1    0    0  506  502 -0.00000000000E+00 -0.00000000000E+00 -0.15087283919E+04  0.15087283919E+04  0.00000000000E+00 0. -1.
         21    1    1    2  503  501 -0.58089256945E+02  0.26846739475E+02 -0.20370257292E+02  0.67156954778E+02  0.00000000000E+00 0.  1.
         21    1    1    2  504  502  0.11457149945E+03 -0.95983700128E+02 -0.46681619604E+02  0.15658439509E+03  0.00000000000E+00 0.  1.
         21    1    1    2  505  503 -0.40627962310E+02  0.34434737746E+02 -0.10110620304E+04  0.10124637336E+04  0.00000000000E+00 0. -1.
         21    1    1    2  506  505 -0.15854280197E+02  0.34702222906E+02 -0.35053382023E+03  0.35260397275E+03  0.00000000000E+00 0.  1.
<scales pt_clust_3="63.99304" pt_clust_4="91.04191" pt_clust_5="32.74132" pt_clust_6="32.74132"></scales>
<clustering>
<clus scale="   32.741">  5  6 -1 -1</clus>
<clus scale="   63.993">  1  3  2 -1</clus>
<clus scale="   91.042">  1  4  2 -1</clus>
<clus scale="   63.993">  1  3  2 -1</clus>
</clustering>
</event>
<event>
 6    0  0.6549018E+002  0.9986449E+02  0.7546771E-02  0.1280581E+00
         21   -1    0    0  503  501  0.00000000000E+00  0.00000000000E+00  0.79239221544E+03  0.79239221544E+03  0.00000000000E+00 0.  1.
         21   -1    0    0  506  502 -0.00000000000E+00 -0.00000000000E+00 -0.89707142481E+02  0.89707142481E+02  0.00000000000E+00 0.  1.
         21    1    1    2  503  502  0.50632926880E+02 -0.36103752966E+01 -0.13746197689E+02  0.52589790313E+02  0.00000000000E+00 0. -1.
         21    1    1    2  504  501  0.78614287357E+02  0.68053699930E+02  0.60859452569E+03  0.61741299707E+03  0.00000000000E+00 0.  1.
         21    1    1    2  505  504 -0.79589002320E+02 -0.39586838594E+02  0.12552855287E+03  0.15381464386E+03  0.00000000000E+00 0. -1.
         21    1    1    2  506  505 -0.49658211917E+02 -0.24856486039E+02 -0.17691807919E+02  0.58281926671E+02  0.00000000000E+00 0.  1.
<scales pt_clust_3="50.76148" pt_clust_4="99.86449" pt_clust_5="14000.00000" pt_clust_6="31.44699"></scales>
<clustering>
<clus scale="   50.761">  2  3  1 -1</clus>
<clus scale="   31.447">  2  6  1 -1</clus>
<clus scale="   99.864">  1  4  2 -1</clus>
<clus scale="   99.864">  1  3  2 -1</clus>
</clustering>
</event>
<event>
 6    0  0.6549018E+002  0.2173343E+03  0.7546771E-02  0.1135886E+00
         21   -1    0    0  502  501  0.00000000000E+00  0.00000000000E+00  0.51212183202E+03  0.51212183202E+03  0.00000000000E+00 0. -1.
         21   -1    0    0  506  502 -0.00000000000E+00 -0.00000000000E+00 -0.14430831180E+03  0.14430831180E+03  0.00000000000E+00 0. -1.
         21    1    1    2  503  505 -0.83345543292E+02 -0.77033392417E+02  0.51486317233E+02  0.12462529437E+03  0.00000000000E+00 0. -1.
         21    1    1    2  504  501 -0.49512618923E+02  0.72169650510E+02  0.11131774302E+03  0.14160366449E+03  0.00000000000E+00 0. -1.
         21    1    1    2  505  504  0.22474124787E+03  0.44780884385E+02  0.16475049629E+03  0.28223515396E+03  0.00000000000E+00 0. -1.
         21    1    1    2  506  503 -0.91883085658E+02 -0.39917142478E+02  0.40258963687E+02  0.10796603100E+03  0.00000000000E+00 0. -1.
<scales pt_clust_3="33.86210" pt_clust_4="87.52119" pt_clust_5="214.32490" pt_clust_6="33.86210"></scales>
<clustering>
<clus scale="   33.862">  3  6 -1 -1</clus>
<clus scale="   87.521">  1  4  2 -1</clus>
<clus scale="  214.325">  1  5  2 -1</clus>
<clus scale="   87.521">  1  3  2 -1</clus>
</clustering>
</event>
<event>
 6    0  0.6549018E+002  0.5252068E+03  0.7546771E-02  0.1007401E+00
         21   -1    0    0  504  501  0.00000000000E+00  0.00000000000E+00  0.16635862745E+04  0.16635862745E+04  0.00000000000E+00 0. -1.
         21   -1    0    0  505  502 -0.00000000000E+00 -0.00000000000E+00 -0.74159136607E+03  0.74159136607E+03  0.00000000000E+00 0. -1.
         21    1    1    2  503  506 -0.37193078017E+03  0.22076118741E+03 -0.18264693216E+03  0.46949750684E+03  0.00000000000E+00 0. -1.
         21    1    1    2  504  502 -0.66377251347E+02 -0.93954506431E+02  0.90567307108E+03  0.91294967028E+03  0.00000000000E+00 0. -1.
         21    1    1    2  505  503  0.45696033232E+02  0.28086169182E+03 -0.18444608353E+03  0.33910437201E+03  0.00000000000E+00 0. -1.
         21    1    1    2  506  501  0.39261199828E+03 -0.40766837280E+03  0.38341485303E+03  0.68362609144E+03  0.00000000000E+00 0. -1.
<scales pt_clust_3="525.20682" pt_clust_4="115.03647" pt_clust_5="274.00342" pt_clust_6="14000.00000"></scales>
<clustering>
<clus scale="  115.036">  1  4  2 -1</clus>
<clus scale="  274.003">  2  5  1 -1</clus>
<clus scale="  525.207">  2  3  1 -1</clus>
<clus scale="  115.036">  1  3  2 -1</clus>
</clustering>
</event>
<event>
 6    0  0.6549018E+002  0.1012308E+03  0.7546771E-02  0.1277729E+00
         21   -1    0    0  506  501  0.00000000000E+00  0.00000000000E+00  0.18049077859E+03  0.18049077859E+03  0.00000000000E+00 0. -1.
         21   -1    0    0  504  502 -0.00000000000E+00 -0.00000000000E+00 -0.90545168792E+03  0.90545168792E+03  0.00000000000E+00 0. -1.
         21    1    1    2  503  501 -0.12420881429E+02 -0.13241672720E+03 -0.86718713977E+02  0.15877217417E+03  0.00000000000E+00 0. -1.
         21    1    1    2  504  503 -0.47696596497E+02  0.17241187370E+02 -0.46199382456E+03  0.46476931675E+03  0.00000000000E+00 0. -1.
         21    1    1    2  505  502  0.33747039377E+01  0.34227860180E+02 -0.30115295246E+03  0.30311059997E+03  0.00000000000E+00 0. -1.
         21    1    1    2  506  505  0.56742773988E+02  0.80947679650E+02  0.12490458167E+03  0.15929037562E+03  0.00000000000E+00 0. -1.
<scales pt_clust_3="14000.00000" pt_clust_4="62.68404" pt_clust_5="34.39382" pt_clust_6="101.23083"></scales>
<clustering>
<clus scale="   34.394">  2  5  1 -1</clus>
<clus scale="   62.684">  2  4  1 -1</clus>
<clus scale="  101.231">  1  6  2 -1</clus>
<clus scale="  101.231">  1  3  2 -1</clus>
</clustering>
</event>
<event>
 6    0  0.6549018E+002  0.9517997E+02  0.7546771E-02  0.1290771E+00
         21   -1    0    0  503  501  0.00000000000E+00  0.00000000000E+00  0.57728168427E+03  0.57728168427E+03  0.00000000000E+00 0. -1.
         21   -1    0    0  504  502 -0.00000000000E+00 -0.00000000000E+00 -0.11962345521E+04  0.11962345521E+04  0.00000000000E+00 0.  1.
         21    1    1    2  503  506  0.11083289077E+02 -0.78877965001E+02  0.18235229581E+03  0.19898977976E+03  0.00000000000E+00 0. -1.
         21    1    1    2  504  505 -0.10847873961E+02 -0.36074996162E+02 -0.52847625536E+03  0.52981717053E+03  0.00000000000E+00 0.  1.
         21    1    1    2  505  501  0.45421789228E+02  0.19614435058E+01  0.37893358418E+03  0.38165121173E+03  0.00000000000E+00 0. -1.
         21    1    1    2  506  502 -0.45657204344E+02  0.11299151766E+03 -0.65176249242E+03  0.66305807430E+03  0.00000000000E+00 0.  1.
<scales pt_clust_3="14000.00000" pt_clust_4="37.67070" pt_clust_5="45.43893" pt_clust_6="95.17997"></scales>
<clustering>
<clus scale="   37.671">  2  4  1 -1</clus>
<clus scale="   45.439">  1  5  2 -1</clus>
<clus scale="   95.180">  2  6  1 -1</clus>
<clus scale="   45.439">  1  3  2 -1</clus>
</clustering>
</event>
<event>
 6    0  0.6549018E+002  0.9338423E+02  0.7546771E-02  0.1294857E+00
         21   -1    0    0  503  501  0.00000000000E+00  0.00000000000E+00  0.12132083672E+04  0.12132083672E+04  0.00000000000E+00 0. -1.
         21   -1    0    0  506  502 -0.00000000000E+00 -0.00000000000E+00 -0.12158043032E+04  0.12158043032E+04  0.00000000000E+00 0. -1.
         21    1    1    2  503  505  0.48178778040E+02  0.42306603062E+02  0.11472544716E+04  0.11490447623E+04  0.00000000000E+00 0. -1.
         21    1    1    2  504  501 -0.40025871947E+02  0.50313867425E+01  0.44759522641E+02  0.60256121223E+02  0.00000000000E+00 0. -1.
         21    1    1    2  505  502 -0.57565447841E+02  0.66007153951E+02 -0.83205904616E+03  0.83665583214E+03  0.00000000000E+00 0. -1.
         21    1    1    2  506  504  0.49412541748E+02 -0.11334514376E+03 -0.36255088405E+03  0.38305595468E+03  0.00000000000E+00 0. -1.
<scales pt_clust_3="48.05676" pt_clust_4="40.34086" pt_clust_5="93.38423" pt_clust_6="14000.00000"></scales>
<clustering>
<clus scale="   40.341">  1  4  2 -1</clus>
<clus scale="   48.057">  1  3  2 -1</clus>
<clus scale="   93.384">  2  5  1 -1</clus>
<clus scale="   40.341">  1  3  2 -1</clus>
</clustering>
</event>
<event>
 6    0  0.6549018E+002  0.9403200E+02  0.7546771E-02  0.1293371E+00
         21   -1    0    0  505  501  0.00000000000E+00  0.00000000000E+00  0.21985204359E+03  0.21985204359E+03  0.00000000000E+00 0.  1.
         21   -1    0    0  504  502 -0.00000000000E+00 -0.00000000000E+00 -0.14956147412E+03  0.14956147412E+03  0.00000000000E+00 0. -1.
         21    1    1    2  503  502  0.27525731890E+02  0.17753765996E+02 -0.45307255606E+02  0.55907151006E+02  0.00000000000E+00 0. -1.
         21    1    1    2  504  501  0.40805560260E+02 -0.10963129026E+02  0.27143105570E+02  0.50219837974E+02  0.00000000000E+00 0.  1.
         21    1    1    2  505  506 -0.50592850315E+02 -0.89556500403E+02  0.13260276285E+03  0.16781983191E+03  0.00000000000E+00 0.  1.
         21    1    1    2  506  503 -0.17738441834E+02  0.82765863433E+02 -0.44148043354E+02  0.95466696814E+02  0.00000000000E+00 0. -1.
<scales pt_clust_3="32.75457" pt_clust_4="44.90454" pt_clust_5="94.03200" pt_clust_6="14000.00000"></scales>
<clustering>
<clus scale="   32.755">  2  3  1 -1</clus>
<clus scale="   44.905">  1  4  2 -1</clus>
<clus scale="   94.032">  1  5  2 -1</clus>
<clus scale="   44.905">  1  3  2 -1</clus>
</clustering>
</event>
<event>
 6    0  0.6549018E+002  0.1078988E+03  0.7546771E-02  0.1264511E+00
         21   -1    0    0  504  501  0.00000000000E+00  0.00000000000E+00  0.85224858013E+02  0.85224858013E+02  0.00000000000E+00 0. -1.
         21   -1    0    0  505  502 -0.00000000000E+00 -0.00000000000E+00 -0.29038123161E+03  0.29038123161E+03  0.00000000000E+00 0. -1.
         21    1    1    2  503  501 -0.45486985203E+02 -0.43732840502E+02  0.64292016393E+00  0.63103411220E+02  0.00000000000E+00 0. -1.
         21    1    1    2  504  502  0.81382265285E+02  0.11427844066E+03 -0.97170553152E+02  0.17065975361E+03  0.00000000000E+00 0. -1.
         21    1    1    2  505  506 -0.37509150511E+02 -0.24675744204E+02 -0.60466529590E+02  0.75312880205E+02  0.00000000000E+00 0. -1.
         21    1    1    2  506  503  0.16138704289E+01 -0.45869855951E+02 -0.48162211016E+02  0.66530044586E+02  0.00000000000E+00 0.  1.
<scales pt_clust_3="63.10014" pt_clust_4="97.91883" pt_clust_5="44.82516" pt_clust_6="44.82516"></scales>
<clustering>
<clus scale="   44.825">  5  6 -1 -1</clus>
<clus scale="   63.100">  1  3  2 -1</clus>
<clus scale="   97.919">  1  4  2 -1</clus>
<clus scale="   63.100">  1  3  2 -1</clus>
</clustering>
</event>
<event>
 6    0  0.6549018E+002  0.1102195E+03  0.7546771E-02  0.1260164E+00
         21   -1    0    0  506  501  0.00000000000E+00  0.00000000000E+00  0.64662310035E+02  0.64662310035E+02  0.00000000000E+00 0. -1.
         21   -1    0    0  503  502 -0.00000000000E+00 -0.00000000000E+00 -0.37926384948E+03  0.37926384948E+03  0.00000000000E+00 0.  1.
         21    1    1    2  503  504  0.85321524313E+01  0.98351099052E+02 -0.22054476623E+02  0.10115402241E+03  0.00000000000E+00 0. -1.
         21    1    1    2  504  501 -0.51901881061E+02  0.13912342237E+01 -0.40359936964E+02  0.65762187479E+02  0.00000000000E+00 0. -1.
         21    1    1    2  505  502  0.22186647007E+02 -0.54372141292E+02 -0.17856932917E+03  0.18797761136E+03  0.00000000000E+00 0.  1.
         21    1    1    2  506  505  0.21183081623E+02 -0.45370191984E+02 -0.73617796689E+02  0.89032338265E+02  0.00000000000E+00 0.  1.
<scales pt_clust_3="104.12323" pt_clust_4="51.92052" pt_clust_5="33.37906" pt_clust_6="33.37906"></scales>
<clustering>
<clus scale="   33.379">  5  6 -1 -1</clus>
<clus scale="   51.921">  1  4  2 -1</clus>
<clus scale="  104.123">  1  3  2 -1</clus>
<clus scale="   51.921">  1  3  2 -1</clus>
</clustering>
</event>
<event>
 6    0  0.6549018E+002  0.7264847E+02  0.7546771E-02  0.1351312E+00
         21   -1    0    0  503  501  0.00000000000E+00  0.00000000000E+00  0.13563229358E+03  0.13563229358E+03  0.00000000000E+00 0. -1.
         21   -1    0    0  504  502 -0.00000000000E+00 -0.00000000000E+00 -0.30989367994E+03  0.30989367994E+03  0.00000000000E+00 0. -1.
         21    1    1    2  503  505  0.23777601891E+02  0.38015692102E+02  0.17492583508E+02  0.48130631363E+02  0.00000000000E+00 0. -1.
         21    1    1    2  504  506 -0.34873267363E+02  0.26916385834E+02 -0.43638544298E+02  0.62007734610E+02  0.00000000000E+00 0. -1.
         21    1    1    2  505  502  0.98472899746E+02 -0.31231535029E+02 -0.20232879210E+03  0.22717671728E+03  0.00000000000E+00 0. -1.
         21    1    1    2  506  501 -0.87377234273E+02 -0.33700542906E+02  0.54213366525E+02  0.10821089026E+03  0.00000000000E+00 0. -1.
<scales pt_clust_3="45.17283" pt_clust_4="44.05266" pt_clust_5="14000.00000" pt_clust_6="72.64847"></scales>
<clustering>
<clus scale="   44.053">  2  4  1 -1</clus>
<clus scale="   45.173">  1  3  2 -1</clus>
<clus scale="   72.648">  1  6  2 -1</clus>
<clus scale="   45.173">  1  3  2 -1</clus>
</clustering>
</event>
<event>
 6    0  0.6549018E+002  0.8523381E+02  0.7546771E-02  0.1314822E+00
         21   -1    0    0  503  501  0.00000000000E+00  0.00000000000E+00  0.69627479093E+03  0.69627479093E+03  0.00000000000E+00 0. -1.
         21   -1    0    0  506  502 -0.00000000000E+00 -0.00000000000E+00 -0.94616794512E+02  0.94616794512E+02  0.00000000000E+00 0. -1.
         21    1    1    2  503  505  0.10173505068E+03 -0.37275552785E+02  0.18802305160E+02  0.10996824111E+03  0.00000000000E+00 0. -1.
         21    1    1    2  504  501 -0.26664921668E+02  0.82181646223E+02  0.53646271015E+03  0.54337563472E+03  0.00000000000E+00 0. -1.
         21    1    1    2  505  502 -0.45817564749E+01 -0.55632311396E+02  0.74777988142E+01  0.56319304317E+02  0.00000000000E+00 0. -1.
         21    1    1    2  506  504 -0.70488372538E+02  0.10726217958E+02  0.38915182291E+02  0.81228405300E+02  0.00000000000E+00 0. -1.
<scales pt_clust_3="85.23381" pt_clust_4="14000.00000" pt_clust_5="55.82066" pt_clust_6="72.12272"></scales>
<clustering>
<clus scale="   55.821">  2  5  1 -1</clus>
<clus scale="   72.123">  2  6  1 -1</clus>
<clus scale="   85.234">  2  3  1 -1</clus>
<clus scale="   85.234">  1  3  2 -1</clus>
</clustering>
</event>
<event>
 6    0  0.6549018E+002  0.8935541E+02  0.7546771E-02  0.1304420E+00
         21   -1    0    0  503  501  0.00000000000E+00  0.00000000000E+00  0.60715624687E+02  0.60715624687E+02  0.00000000000E+00 0. -1.
         21   -1    0    0  504  502 -0.00000000000E+00 -0.00000000000E+00 -0.26663546013E+04  0.26663546013E+04  0.00000000000E+00 0.  1.
         21    1    1    2  503  502 -0.20440317527E+02 -0.34014887443E+02 -0.43464114726E+03  0.43644901883E+03  0.00000000000E+00 0. -1.
         21    1    1    2  504  506 -0.71843350660E+02  0.11889850157E+02 -0.18636946973E+04  0.18651168222E+04  0.00000000000E+00 0.  1.
         21    1    1    2  505  501 -0.20961901761E+01  0.88315670821E+02  0.90497594859E+01  0.88802870857E+02  0.00000000000E+00 0. -1.
         21    1    1    2  506  505  0.94379858363E+02 -0.66190633534E+02 -0.31635289147E+03  0.33670151407E+03  0.00000000000E+00 0. -1.
<scales pt_clust_3="39.68399" pt_clust_4="14000.00000" pt_clust_5="87.74218" pt_clust_6="89.35541"></scales>
<clustering>
<clus scale="   39.684">  2  3  1 -1</clus>
<clus scale="   87.742">  1  5  2 -1</clus>
<clus scale="   89.355">  1  6  2 -1</clus>
<clus scale="   87.742">  1  3  2 -1</clus>
</clustering>
</event>
<event>
 6    0  0.6549018E+002  0.1074463E+03  0.7546771E-02  0.1265373E+00
         21   -1    0    0  504  501  0.00000000000E+00  0.00000000000E+00  0.26083035478E+03  0.26083035478E+03  0.00000000000E+00 0. -1.
         21   -1    0    0  505  502 -0.00000000000E+00 -0.00000000000E+00 -0.21038226561E+03  0.21038226561E+03  0.00000000000E+00 0. -1.
         21    1    1    2  503  506  0.12493458114E+02 -0.49019893133E+02 -0.59693939468E+02  0.78245784728E+02  0.00000000000E+00 0. -1.
         21    1    1    2  504  502  0.72722896185E+02  0.89013922712E+02  0.20021142426E+03  0.23086080757E+03  0.00000000000E+00 0. -1.
         21    1    1    2  505  503 -0.78044750250E+00 -0.39941415199E+02 -0.18513016183E+01  0.39991912483E+02  0.00000000000E+00 0. -1.
         21    1    1    2  506  501 -0.84435906796E+02 -0.52614380168E-01 -0.88218093994E+02  0.12211411562E+03  0.00000000000E+00 0. -1.
<scales pt_clust_3="64.72191" pt_clust_4="107.44626" pt_clust_5="39.94904" pt_clust_6="14000.00000"></scales>
<clustering>
<clus scale="   39.949">  2  5  1 -1</clus>
<clus scale="   64.722">  2  3  1 -1</clus>
<clus scale="  107.446">  1  4  2 -1</clus>
<clus scale="  107.446">  1  3  2 -1</clus>
</clustering>
</event>
<event>
 6    0  0.6549018E+002  0.1827475E+03  0.7546771E-02  0.1165170E+00
         21   -1    0    0  503  501  0.00000000000E+00  0.00000000000E+00  0.14698971402E+03  0.14698971402E+03  0.00000000000E+00 0. -1.
         21   -1    0    0  505  502 -0.00000000000E+00 -0.00000000000E+00 -0.11937382305E+04  0.11937382305E+04  0.00000000000E+00 0. -1.
         21    1    1    2  503  504 -0.72139564608E+02  0.15365612737E+02  0.57219922239E+02  0.93350620446E+02  0.00000000000E+00 0.  1.
         21    1    1    2  504  502 -0.17824989020E+02  0.21843494266E+03 -0.70761681351E+03  0.74077871808E+03  0.00000000000E+00 0. -1.
         21    1    1    2  505  506  0.10047620390E+02 -0.14900073594E+03 -0.35120036705E+03  0.38163316392E+03  0.00000000000E+00 0. -1.
         21    1    1    2  506  501  0.79916933238E+02 -0.84799819459E+02 -0.45151258155E+02  0.12496544207E+03  0.00000000000E+00 0. -1.
<scales pt_clust_3="73.75784" pt_clust_4="182.74747" pt_clust_5="14000.00000" pt_clust_6="85.99558"></scales>
<clustering>
<clus scale="   73.758">  1  3  2 -1</clus>
<clus scale="   85.996">  1  6  2 -1</clus>
<clus scale="  182.747">  1  4  2 -1</clus>
<clus scale="   73.758">  1  3  2 -1</clus>
</clustering>
</event>
<event>
 6    0  0.6549018E+002  0.1067847E+03  0.7546771E-02  0.1266643E+00
         21   -1    0    0  503  501  0.00000000000E+00  0.00000000000E+00  0.15939302681E+04  0.15939302681E+04  0.00000000000E+00 0. -1.
         21   -1    0    0  504  502 -0.00000000000E+00 -0.00000000000E+00 -0.31776762448E+03  0.31776762448E+03  0.00000000000E+00 0.  1.
         21    1    1    2  503  506 -0.30184822471E+02  0.28906805162E+02  0.30546009155E+03  0.30830600776E+03  0.00000000000E+00 0. -1.
         21    1    1    2  504  505  0.63997225900E+02  0.44757422256E+02 -0.12159411231E+03  0.14451297492E+03  0.00000000000E+00 0.  1.
         21    1    1    2  505  501 -0.77380793606E+02 -0.41110647152E+02  0.12700102138E+04  0.12730293852E+04  0.00000000000E+00 0. -1.
         21    1    1    2  506  502  0.43568390178E+02 -0.32553580265E+02 -0.17771354936E+03  0.18584952472E+03  0.00000000000E+00 0.  1.
<scales pt_clust_3="41.79386" pt_clust_4="14000.00000" pt_clust_5="106.78474" pt_clust_6="54.25584"></scales>
<clustering>
<clus scale="   41.794">  1  3  2 -1</clus>
<clus scale="   54.256">  2  6  1 -1</clus>
<clus scale="  106.785">  1  5  2 -1</clus>
<clus scale="   41.794">  1  3  2 -1</clus>
</clustering>
</event>
<event>
 6    0  0.6549018E+002  0.2473359E+03  0.7546771E-02  0.1115000E+00
         21   -1    0    0  505  501  0.00000000000E+00  0.00000000000E+00  0.89762015526E+03  0.89762015526E+03  0.00000000000E+00 0. -1.
         21   -1    0    0  503  502 -0.00000000000E+00 -0.00000000000E+00 -0.10799175964E+04  0.10799175964E+04  0.00000000000E+00 0. -1.
         21    1    1    2  503  504  0.18716033839E+02  0.12850139331E+03 -0.64240226315E+03  0.65539573213E+03  0.00000000000E+00 0. -1.
         21    1    1    2  504  506  0.11833281807E+03  0.11364863925E+03 -0.30487794561E+03  0.34622136092E+03  0.00000000000E+00 0. -1.
         21    1    1    2  505  502 -0.33628380503E+02  0.13744805343E+02  0.68857968737E+03  0.68953736194E+03  0.00000000000E+00 0. -1.
         21    1    1    2  506  501 -0.10342047140E+03 -0.25589483790E+03  0.76403080218E+02  0.28638329671E+03  0.00000000000E+00 0. -1.
<scales pt_clust_3="130.13456" pt_clust_4="14000.00000" pt_clust_5="36.32888" pt_clust_6="247.33593"></scales>
<clustering>
<clus scale="   36.329">  1  5  2 -1</clus>
<clus scale="  130.135">  2  3  1 -1</clus>
<clus scale="  247.336">  1  6  2 -1</clus>
<clus scale="   36.329">  1  3  2 -1</clus>
</clustering>
</event>
<event>
 6    0  0.6549018E+002  0.3729212E+03  0.7546771E-02  0.1053582E+00
         21   -1    0    0  505  501  0.00000000000E+00  0.00000000000E+00  0.18086464073E+04  0.18086464073E+04  0.00000000000E+00 0.  1.
         21   -1    0    0  503  502 -0.00000000000E+00 -0.00000000000E+00 -0.26553646817E+03  0.26553646817E+03  0.00000000000E+00 0.  1.
         21    1    1    2  503  504 -0.32707296740E+03  0.18913202769E+03  0.16237985939E+02  0.37816837797E+03  0.00000000000E+00 0.  1.
         21    1    1    2  504  506  0.26262694404E+03 -0.26187242581E+03  0.34802757864E+03  0.50859932621E+03  0.00000000000E+00 0.  1.
         21    1    1    2  505  502  0.28103621824E+02  0.83516935387E+02  0.51460097347E+03  0.52209103991E+03  0.00000000000E+00 0.  1.
         21    1    1    2  506  501  0.36342401544E+02 -0.10776537275E+02  0.66424340106E+03  0.66532413135E+03  0.00000000000E+00 0.  1.
<scales pt_clust_3="14000.00000" pt_clust_4="372.92122" pt_clust_5="90.38761" pt_clust_6="37.90652"></scales>
<clustering>
<clus scale="   37.907">  1  6  2 -1</clus>
<clus scale="   90.388">  1  5  2 -1</clus>
<clus scale="  372.921">  1  4  2 -1</clus>
<clus scale="   37.907">  1  3  2 -1</clus>
</clustering>
</event>
<event>
 6    0  0.6549018E+002  0.8523842E+02  0.7546771E-02  0.1314810E+00
         21   -1    0    0  503  501  0.00000000000E+00  0.00000000000E+00  0.76551432803E+02  0.76551432803E+02  0.00000000000E+00 0. -1.
         21   -1    0    0  504  502 -0.00000000000E+00 -0.00000000000E+00 -0.39567654271E+03  0.39567654271E+03  0.00000000000E+00 0. -1.
         21    1    1    2  503  506 -0.76141072498E+02 -0.18133311651E+02  0.11495737229E+02  0.79110251466E+02  0.00000000000E+00 0. -1.
         21    1    1    2  504  501  0.13370676782E+03  0.47171288511E-01 -0.20097088306E+03  0.24138516489E+03  0.00000000000E+00 0. -1.
         21    1    1    2  505  502 -0.19533605118E+02  0.32297215707E+02 -0.70858052903E+02  0.80284092649E+02  0.00000000000E+00 0. -1.
         21    1    1    2  506  505 -0.38032090209E+02 -0.14211075344E+02 -0.58791911169E+02  0.71448466512E+02  0.00000000000E+00 0. -1.
<scales pt_clust_3="14000.00000" pt_clust_4="85.23842" pt_clust_5="37.74483" pt_clust_6="42.69514"></scales>
<clustering>
<clus scale="   37.745">  2  5  1 -1</clus>
<clus scale="   42.695">  2  6  1 -1</clus>
<clus scale="   85.238">  2  4  1 -1</clus>
<clus scale="   85.238">  1  3  2 -1</clus>
</clustering>
</event>
<event>
 6    0  0.6549018E+002  0.1191980E+03  0.7546771E-02  0.1244426E+00
         21   -1    0    0  503  501  0.00000000000E+00  0.00000000000E+00  0.21156522829E+03  0.21156522829E+03  0.00000000000E+00 0.  1.
         21   -1    0    0  506  502 -0.00000000000E+00 -0.00000000000E+00 -0.38830033472E+03  0.38830033472E+03  0.00000000000E+00 0. -1.
         21    1    1    2  503  504 -0.92220805136E+01  0.12336384234E+03  0.83160990085E+02  0.14906184836E+03  0.00000000000E+00 0.  1.
         21    1    1    2  504  502  0.10267365861E+03 -0.61276802689E+02 -0.30166656260E+03  0.32449875456E+03  0.00000000000E+00 0. -1.
         21    1    1    2  505  501 -0.49621686037E+02 -0.23709923495E+02  0.40031751005E+02  0.68022152905E+02  0.00000000000E+00 0.  1.
         21    1    1    2  506  505 -0.43829892063E+02 -0.38377116156E+02  0.17387150791E+01  0.58282807180E+02  0.00000000000E+00 0.  1.
<scales pt_clust_3="115.58928" pt_clust_4="14000.00000" pt_clust_5="39.10836" pt_clust_6="119.19803"></scales>
<clustering>
<clus scale="   39.108">  5  6 -1 -1</clus>
<clus scale="  119.198">  1  5  2 -1</clus>
<clus scale="  115.589">  1  3  2 -1</clus>
<clus scale="  119.198">  1  3  2 -1</clus>
</clustering>
</event>
<event>
 6    0  0.6549018E+002  0.1232998E+03  0.7546771E-02  0.1237751E+00
         21   -1    0    0  504  501  0.00000000000E+00  0.00000000000E+00  0.78953314782E+03  0.78953314782E+03  0.00000000000E+00 0. -1.
         21   -1    0    0  506  502 -0.00000000000E+00 -0.00000000000E+00 -0.55254262275E+02  0.55254262275E+02  0.00000000000E+00 0. -1.
         21    1    1    2  503  505  0.13100987325E+02  0.72566971905E+02  0.40548577312E+02  0.84153362394E+02  0.00000000000E+00 0. -1.
         21    1    1    2  504  503 -0.14910929660E+02 -0.12219748475E+03  0.57610953655E+03  0.58911523423E+03  0.00000000000E+00 0. -1.
         21    1    1    2  505  502  0.35309278347E+02  0.25836834969E+02 -0.32321087692E+01  0.43871787127E+02  0.00000000000E+00 0. -1.
         21    1    1    2  506  501 -0.33499336012E+02  0.23793677873E+02  0.12085288045E+03  0.12764702634E+03  0.00000000000E+00 0. -1.
<scales pt_clust_3="41.32484" pt_clust_4="110.59744" pt_clust_5="41.32484" pt_clust_6="41.08947"></scales>
<clustering>
<clus scale="   41.089">  1  6  2 -1</clus>
<clus scale="   41.325">  3  5 -1 -1</clus>
<clus scale="  110.597">  1  4  2 -1</clus>
<clus scale="   41.089">  1  3  2 -1</clus>
</clustering>
</event>
<event>
 6    0  0.6549018E+002  0.1082060E+03  0.7546771E-02  0.1263929E+00
         21   -1    0    0  506  501  0.00000000000E+00  0.00000000000E+00  0.86403340902E+02  0.86403340902E+02  0.00000000000E+00 0. -1.
         21   -1    0    0  504  502 -0.00000000000E+00 -0.00000000000E+00 -0.12029198048E+04  0.12029198048E+04  0.00000000000E+00 0. -1.
         21    1    1    2  503  502 -0.60965365440E+02 -0.35248524206E+02 -0.84196404917E+03  0.84490395569E+03  0.00000000000E+00 0. -1.
         21    1    1    2  504  505 -0.22842838182E+02 -0.35394286019E+02 -0.16897771171E+03  0.17414941227E+03  0.00000000000E+00 0. -1.
         21    1    1    2  505  501 -0.54488770697E+02 -0.40111360060E+02 -0.51473768317E+02  0.85014682042E+02  0.00000000000E+00 0. -1.
         21    1    1    2  506  503  0.13829697432E+03  0.11075417029E+03 -0.54100934674E+02  0.18525509568E+03  0.00000000000E+00 0. -1.
<scales pt_clust_3="14000.00000" pt_clust_4="42.12542" pt_clust_5="70.27318" pt_clust_6="108.20598"></scales>
<clustering>
<clus scale="   42.125">  2  4  1 -1</clus>
<clus scale="   70.273">  1  5  2 -1</clus>
<clus scale="  108.206">  1  6  2 -1</clus>
<clus scale="   70.273">  1  3  2 -1</clus>
</clustering>
</event>
<event>
 6    0  0.6549018E+002  0.1398627E+03  0.7546771E-02  0.1213514E+00
         21   -1    0    0  503  501  0.00000000000E+00  0.00000000000E+00  0.12665651724E+04  0.12665651724E+04  0.00000000000E+00 0. -1.
         21   -1    0    0  506  502 -0.00000000000E+00 -0.00000000000E+00 -0.47999583036E+02  0.47999583036E+02  0.00000000000E+00 0. -1.
         21    1    1    2  503  504 -0.54008671647E+02 -0.84834289236E+02  0.77291993289E+03  0.77943506202E+03  0.00000000000E+00 0. -1.
         21    1    1    2  504  502  0.64629134344E+02 -0.84760817427E+02  0.11855991050E+03  0.15942952536E+03  0.00000000000E+00 0. -1.
         21    1    1    2  505  501  0.30738563823E+02  0.84050125751E+02  0.14751514834E+03  0.17253985607E+03  0.00000000000E+00 0. -1.
         21    1    1    2  506  505 -0.41359026520E+02  0.85544980912E+02  0.17957059766E+03  0.20316031201E+03  0.00000000000E+00 0. -1.
<scales pt_clust_3="100.56736" pt_clust_4="119.46268" pt_clust_5="70.58817" pt_clust_6="70.58817"></scales>
<clustering>
<clus scale="   70.588">  5  6 -1 -1</clus>
<clus scale="  100.567">  1  3  2 -1</clus>
<clus scale="  119.463">  2  4  1 -1</clus>
<clus scale="  100.567">  1  3  2 -1</clus>
</clustering>
</event>
<event>
 6    0  0.6549018E+002  0.8247503E+02  0.7546771E-02  0.1322171E+00
         21   -1    0    0  503  501  0.00000000000E+00  0.00000000000E+00  0.17328152230E+02  0.17328152230E+02  0.00000000000E+00 0. -1.
         21   -1    0    0  506  502 -0.00000000000E+00 -0.00000000000E+00 -0.11806515324E+04  0.11806515324E+04  0.00000000000E+00 0. -1.
         21    1    1    2  503  502 -0.69402247106E+02 -0.59528069634E+02 -0.63115272343E+03  0.63774134512E+03  0.00000000000E+00 0. -1.
         21    1    1    2  504  505  0.54728345539E+02  0.94201299818E+01 -0.11133385836E+03  0.12441526703E+03  0.00000000000E+00 0. -1.
         21    1    1    2  505  501 -0.40136271960E+02  0.46059840013E+01 -0.11813106057E+03  0.12484823942E+03  0.00000000000E+00 0. -1.
         21    1    1    2  506  504  0.54810173527E+02  0.45501955651E+02 -0.30270573778E+03  0.31097483302E+03  0.00000000000E+00 0. -1.
<scales pt_clust_3="82.47503" pt_clust_4="37.75478" pt_clust_5="40.39970" pt_clust_6="14000.00000"></scales>
<clustering>
<clus scale="   40.400">  1  5  2 -1</clus>
<clus scale="   37.755">  1  4  2 -1</clus>
<clus scale="   82.475">  2  3  1 -1</clus>
<clus scale="   40.400">  1  3  2 -1</clus>
</clustering>
</event>
<event>
 6    0  0.6549018E+002  0.2500710E+03  0.7546771E-02  0.1113260E+00
         21   -1    0    0  503  501  0.00000000000E+00  0.00000000000E+00  0.13612473712E+04  0.13612473712E+04  0.00000000000E+00 0. -1.
         21   -1    0    0  505  502 -0.00000000000E+00 -0.00000000000E+00 -0.25907438096E+03  0.25907438096E+03  0.00000000000E+00 0. -1.
         21    1    1    2  503  506  0.91660978535E+02 -0.19060200229E+03  0.48250178242E+03  0.52681954054E+03  0.00000000000E+00 0. -1.
         21    1    1    2  504  502 -0.80452094545E+02  0.30071486108E+02  0.56529864393E+01  0.86074328630E+02  0.00000000000E+00 0. -1.
         21    1    1    2  505  501  0.79542193616E+02 -0.20889552655E+02  0.75559397938E+03  0.76005631084E+03  0.00000000000E+00 0. -1.
         21    1    1    2  506  504 -0.90751077605E+02  0.18142006883E+03 -0.14157575798E+03  0.24737157215E+03  0.00000000000E+00 0. -1.
<scales pt_clust_3="14000.00000" pt_clust_4="79.67207" pt_clust_5="82.23949" pt_clust_6="250.07096"></scales>
<clustering>
<clus scale="   82.239">  1  5  2 -1</clus>
<clus scale="   79.672">  2  4  1 -1</clus>
<clus scale="  250.071">  2  6  1 -1</clus>
<clus scale="   82.239">  1  3  2 -1</clus>
</clustering>
</event>
<event>
 6    0  0.6549018E+002  0.1596348E+03  0.7546771E-02  0.1189110E+00
         21   -1    0    0  505  501  0.00000000000E+00  0.00000000000E+00  0.18501908696E+03  0.18501908696E+03  0.00000000000E+00 0. -1.
         21   -1    0    0  506  502 -0.00000000000E+00 -0.00000000000E+00 -0.30335795194E+03  0.30335795194E+03  0.00000000000E+00 0. -1.
         21    1    1    2  503  502  0.10913541583E+03 -0.22869515758E+02 -0.12772340331E+03  0.16954887641E+03  0.00000000000E+00 0. -1.
         21    1    1    2  504  501 -0.11865582911E+03 -0.92124763284E+02  0.63098175763E+02  0.16293421242E+03  0.00000000000E+00 0. -1.
         21    1    1    2  505  503  0.39736871495E+02  0.17232727725E+02 -0.90588203168E+01  0.44249837136E+02  0.00000000000E+00 0. -1.
         21    1    1    2  506  504 -0.30216458212E+02  0.97761551318E+02 -0.44654817115E+02  0.11164411294E+03  0.00000000000E+00 0. -1.
<scales pt_clust_3="43.20566" pt_clust_4="143.79664" pt_clust_5="43.20566" pt_clust_6="102.32475"></scales>
<clustering>
<clus scale="   43.206">  3  5 -1 -1</clus>
<clus scale="  102.325">  2  6  1 -1</clus>
<clus scale="  143.797">  1  4  2 -1</clus>
<clus scale="  143.797">  1  3  2 -1</clus>
</clustering>
</event>
<event>
 6    0  0.6549018E+002  0.9789376E+02  0.7546771E-02  0.1284788E+00
         21   -1    0    0  503  501  0.00000000000E+00  0.00000000000E+00  0.20407472254E+04  0.20407472254E+04  0.00000000000E+00 0.  1.
         21   -1    0    0  504  502 -0.00000000000E+00 -0.00000000000E+00 -0.24630419510E+02  0.24630419510E+02  0.00000000000E+00 0.  1.
         21    1    1    2  503  502  0.27704469390E+02  0.83034436643E+02  0.15981339107E+03  0.18221573823E+03  0.00000000000E+00 0.  1.
         21    1    1    2  504  506 -0.36491027584E+02 -0.10884391557E+03  0.26724965386E+03  0.29086245983E+03  0.00000000000E+00 0.  1.
         21    1    1    2  505  501  0.63367916277E+01 -0.37368459608E+02  0.52200309887E+03  0.52337729405E+03  0.00000000000E+00 0.  1.
         21    1    1    2  506  505  0.24497665672E+01  0.63177938535E+02  0.10670506621E+04  0.10689221528E+04  0.00000000000E+00 0.  1.
<scales pt_clust_3="14000.00000" pt_clust_4="97.89376" pt_clust_5="37.90194" pt_clust_6="37.52963"></scales>
<clustering>
<clus scale="   37.902">  1  5  2 -1</clus>
<clus scale="   37.530">  1  6  2 -1</clus>
<clus scale="   97.894">  1  4  2 -1</clus>
<clus scale="   37.902">  1  3  2 -1</clus>
</clustering>
</event>
<event>
 6    0  0.6549018E+002  0.1366945E+03  0.7546771E-02  0.1217847E+00
         21   -1    0    0  506  501  0.00000000000E+00  0.00000000000E+00  0.16446922859E+04  0.16446922859E+04  0.00000000000E+00 0.  1.
         21   -1    0    0  503  502 -0.00000000000E+00 -0.00000000000E+00 -0.11544911442E+04  0.11544911442E+04  0.00000000000E+00 0. -1.
         21    1    1    2  503  505 -0.15773304879E+02  0.52617304690E+02 -0.93067899344E+02  0.10806947667E+03  0.00000000000E+00 0. -1.
         21    1    1    2  504  501 -0.38336656762E+02 -0.12207049403E+03  0.16246999484E+04  0.16297302928E+04  0.00000000000E+00 0.  1.
         21    1    1    2  505  504 -0.37680397985E+01  0.10668946621E+03 -0.33478023829E+03  0.35138959613E+03  0.00000000000E+00 0. -1.
         21    1    1    2  506  502  0.57878001440E+02 -0.37236276863E+02 -0.70665066916E+03  0.70999406448E+03  0.00000000000E+00 0. -1.
<scales pt_clust_3="34.31221" pt_clust_4="128.05189" pt_clust_5="34.31221" pt_clust_6="68.82153"></scales>
<clustering>
<clus scale="   34.312">  3  5 -1 -1</clus>
<clus scale="   68.822">  2  6  1 -1</clus>
<clus scale="  128.052">  1  4  2 -1</clus>
<clus scale="  128.052">  1  3  2 -1</clus>
</clustering>
</event>
<event>
 6    0  0.6549018E+002  0.1350113E+03  0.7546771E-02  0.1220204E+00
         21   -1    0    0  505  501  0.00000000000E+00  0.00000000000E+00  0.29813341025E+03  0.29813341025E+03  0.00000000000E+00 0. -1.
         21   -1    0    0  503  502 -0.00000000000E+00 -0.00000000000E+00 -0.10194477027E+04  0.10194477027E+04  0.00000000000E+00 0.  1.
         21    1    1    2  503  504 -0.17680175582E+02 -0.28289403641E+02 -0.77869635353E+01  0.34256616413E+02  0.00000000000E+00 0. -1.
         21    1    1    2  504  501 -0.15478988319E+01  0.31105799943E+02  0.77422468610E+02  0.83451814998E+02  0.00000000000E+00 0.  1.
         21    1    1    2  505  506  0.14142737043E+03 -0.59209429941E+02  0.17035623254E+03  0.22919141273E+03  0.00000000000E+00 0. -1.
         21    1    1    2  506  502 -0.12219929602E+03  0.56393033639E+02 -0.96130603006E+03  0.97068126881E+03  0.00000000000E+00 0.  1.
<scales pt_clust_3="31.82447" pt_clust_4="31.14429" pt_clust_5="135.01134" pt_clust_6="14000.00000"></scales>
<clustering>
<clus scale="   31.144">  1  4  2 -1</clus>
<clus scale="   31.824">  1  3  2 -1</clus>
<clus scale="  135.011">  1  5  2 -1</clus>
<clus scale="   31.144">  1  3  2 -1</clus>
</clustering>
</event>
<event>
 6    0  0.6549018E+002  0.2220600E+03  0.7546771E-02  0.1132357E+00
         21   -1    0    0  504  501  0.00000000000E+00  0.00000000000E+00  0.40293299297E+03  0.40293299297E+03  0.00000000000E+00 0.  1.
         21   -1    0    0  505  502 -0.00000000000E+00 -0.00000000000E+00 -0.28594471718E+03  0.28594471718E+03  0.00000000000E+00 0.  1.
         21    1    1    2  503  506 -0.96680955087E+02 -0.17123967510E+03 -0.78240360476E+02  0.21164070358E+03  0.00000000000E+00 0.  1.
         21    1    1    2  504  503  0.18850821829E+03  0.18412014895E+03  0.20579148160E+03  0.33434370267E+03  0.00000000000E+00 0.  1.
         21    1    1    2  505  501 -0.52573310646E+02 -0.99793872050E+01  0.48297702682E+02  0.72084736565E+02  0.00000000000E+00 0.  1.
         21    1    1    2  506  502 -0.39253952557E+02 -0.29010866494E+01 -0.58860548017E+02  0.70808567335E+02  0.00000000000E+00 0.  1.
<scales pt_clust_3="222.05997" pt_clust_4="14000.00000" pt_clust_5="55.61612" pt_clust_6="39.36101"></scales>
<clustering>
<clus scale="   39.361">  2  6  1 -1</clus>
<clus scale="   55.616">  1  5  2 -1</clus>
<clus scale="  222.060">  2  3  1 -1</clus>
<clus scale="   55.616">  1  3  2 -1</clus>
</clustering>
</event>
<event>
 6    0  0.6549018E+002  0.8431894E+02  0.7546771E-02  0.1317223E+00
         21   -1    0    0  502  501  0.00000000000E+00  0.00000000000E+00  0.11263113586E+04  0.11263113586E+04  0.00000000000E+00 0.  1.
         21   -1    0    0  505  502 -0.00000000000E+00 -0.00000000000E+00 -0.89080178034E+02  0.89080178034E+02  0.00000000000E+00 0.  1.
         21    1    1    2  503  504 -0.72876831291E+02  0.56240320559E+02  0.44773886689E+03  0.45710403533E+03  0.00000000000E+00 0.  1.
         21    1    1    2  504  501  0.91580491439E+02  0.22966646785E+02  0.64239936392E+03  0.64930069770E+03  0.00000000000E+00 0.  1.
         21    1    1    2  505  506  0.14986720000E+02 -0.28289997892E+02 -0.29705128389E+02  0.43672879567E+02  0.00000000000E+00 0.  1.
         21    1    1    2  506  503 -0.33690380148E+02 -0.50916969451E+02 -0.23201921862E+02  0.65313924019E+02  0.00000000000E+00 0.  1.
<scales pt_clust_3="14000.00000" pt_clust_4="84.31894" pt_clust_5="32.01446" pt_clust_6="77.71476"></scales>
<clustering>
<clus scale="   32.014">  2  5  1 -1</clus>
<clus scale="   77.715">  2  6  1 -1</clus>
<clus scale="   84.319">  1  4  2 -1</clus>
<clus scale="   84.319">  1  3  2 -1</clus>
</clustering>
</event>
<event>
 6    0  0.6549018E+002  0.1703124E+03  0.7546771E-02  0.1177522E+00
         21   -1    0    0  505  501  0.00000000000E+00  0.00000000000E+00  0.58118889037E+03  0.58118889037E+03  0.00000000000E+00 0. -1.
         21   -1    0    0  504  502 -0.00000000000E+00 -0.00000000000E+00 -0.21299332358E+04  0.21299332358E+04  0.00000000000E+00 0. -1.
         21    1    1    2  503  506  0.15418323456E+03  0.61941470844E+01 -0.17851995957E+04  0.17918561421E+04  0.00000000000E+00 0. -1.
         21    1    1    2  504  501 -0.14202218666E+03 -0.86128511671E+02  0.52387500739E+03  0.54957569578E+03  0.00000000000E+00 0. -1.
         21    1    1    2  505  503 -0.20579747500E+02  0.34204154124E+02  0.29336896906E+02  0.49538910834E+02  0.00000000000E+00 0.  1.
         21    1    1    2  506  502  0.84186995945E+01  0.45730210463E+02 -0.31675665397E+03  0.32015137745E+03  0.00000000000E+00 0. -1.
<scales pt_clust_3="170.31240" pt_clust_4="14000.00000" pt_clust_5="39.91804" pt_clust_6="46.59247"></scales>
<clustering>
<clus scale="   39.918">  1  5  2 -1</clus>
<clus scale="   46.592">  2  6  1 -1</clus>
<clus scale="  170.312">  2  3  1 -1</clus>
<clus scale="   39.918">  1  3  2 -1</clus>
</clustering>
</event>
<event>
 6    0  0.6549018E+002  0.9703037E+02  0.7546771E-02  0.1286668E+00
         21   -1    0    0  506  501  0.00000000000E+00  0.00000000000E+00  0.54836425877E+03  0.54836425877E+03  0.00000000000E+00 0. -1.
         21   -1    0    0  503  502 -0.00000000000E+00 -0.00000000000E+00 -0.61612121759E+02  0.61612121759E+02  0.00000000000E+00 0. -1.
         21    1    1    2  503  501  0.39611648687E+02 -0.28519482146E+02  0.33968171940E+02  0.59466631640E+02  0.00000000000E+00 0. -1.
         21    1    1    2  504  502 -0.64987029347E+02 -0.68019435917E+02  0.18320261418E+02  0.95841481750E+02  0.00000000000E+00 0. -1.
         21    1    1    2  505  504  0.55123123075E+02  0.85355988993E+02  0.31087102315E+03  0.32705503602E+03  0.00000000000E+00 0. -1.
         21    1    1    2  506  505 -0.29747742415E+02  0.11182929069E+02  0.12359268050E+03  0.12761323111E+03  0.00000000000E+00 0. -1.
<scales pt_clust_3="45.42973" pt_clust_4="14000.00000" pt_clust_5="97.03037" pt_clust_6="31.78028"></scales>
<clustering>
<clus scale="   31.780">  1  6  2 -1</clus>
<clus scale="   45.430">  2  3  1 -1</clus>
<clus scale="   97.030">  1  5  2 -1</clus>
<clus scale="   31.780">  1  3  2 -1</clus>
</clustering>
</event>
<event>
 6    0  0.6549018E+002  0.8766109E+02  0.7546771E-02  0.1308617E+00
         21   -1    0    0  505  501  0.00000000000E+00  0.00000000000E+00  0.32028034539E+03  0.32028034539E+03  0.00000000000E+00 0. -1.
         21   -1    0    0  503  502 -0.00000000000E+00 -0.00000000000E+00 -0.51778098036E+03  0.51778098036E+03  0.00000000000E+00 0.  1.
         21    1    1    2  503  501 -0.82105498628E+02  0.24310736636E+02  0.14350012769E+03  0.16710658715E+03  0.00000000000E+00 0. -1.
         21    1    1    2  504  506  0.71683939849E+02  0.43330970802E+02 -0.26944559726E+03  0.28216500517E+03  0.00000000000E+00 0.  1.
         21    1    1    2  505  504  0.60165019511E+02 -0.82883652437E+02  0.13857469858E+03  0.17231505013E+03  0.00000000000E+00 0.  1.
         21    1    1    2  506  502 -0.49743460732E+02  0.15241945000E+02 -0.21012986398E+03  0.21647468330E+03  0.00000000000E+00 0.  1.
<scales pt_clust_3="87.66109" pt_clust_4="63.03639" pt_clust_5="14000.00000" pt_clust_6="52.02623"></scales>
<clustering>
<clus scale="   52.026">  2  6  1 -1</clus>
<clus scale="   63.036">  2  4  1 -1</clus>
<clus scale="   87.661">  1  3  2 -1</clus>
<clus scale="   87.661">  1  3  2 -1</clus>
</clustering>
</event>
<event>
 6    0  0.6549018E+002  0.1228534E+03  0.7546771E-02  0.1238463E+00
         21   -1    0    0  504  501  0.00000000000E+00  0.00000000000E+00  0.79237035458E+03  0.79237035458E+03  0.00000000000E+00 0. -1.
         21   -1    0    0  503  502 -0.00000000000E+00 -0.00000000000E+00 -0.11662075512E+03  0.11662075512E+03  0.00000000000E+00 0. -1.
         21    1    1    2  503  505  0.85092364016E+02  0.39025802684E+02  0.64341870305E+02  0.11359401377E+03  0.00000000000E+00 0. -1.
         21    1    1    2  504  502 -0.97225064873E+02 -0.48113948297E+02 -0.40598218401E+02  0.11582694245E+03  0.00000000000E+00 0. -1.
         21    1    1    2  505  506  0.50279003466E+02  0.45367897793E+02  0.78591138211E+02  0.10374387377E+03  0.00000000000E+00 0. -1.
         21    1    1    2  506  501 -0.38146302609E+02 -0.36279752180E+02  0.57341480935E+03  0.57582627971E+03  0.00000000000E+00 0. -1.
<scales pt_clust_3="31.34548" pt_clust_4="117.19530" pt_clust_5="31.34548" pt_clust_6="52.64372"></scales>
<clustering>
<clus scale="   31.345">  3  5 -1 -1</clus>
<clus scale="   52.644">  1  6  2 -1</clus>
<clus scale="  117.195">  2  4  1 -1</clus>
<clus scale="   52.644">  1  3  2 -1</clus>
</clustering>
</event>
<event>
 6    0  0.6549018E+002  0.2004965E+03  0.7546771E-02  0.1149321E+00
         21   -1    0    0  505  501  0.00000000000E+00  0.00000000000E+00  0.46010107399E+03  0.46010107399E+03  0.00000000000E+00 0. -1.
         21   -1    0    0  506  502 -0.00000000000E+00 -0.00000000000E+00 -0.14628495682E+03  0.14628495682E+03  0.00000000000E+00 0. -1.
         21    1    1    2  503  504 -0.56336335568E+02  0.99177491371E+01  0.74172797752E+00  0.57207469911E+02  0.00000000000E+00 0. -1.
         21    1    1    2  504  502 -0.89464318069E+02  0.11006558623E+03 -0.17794463893E+02  0.14295083219E+03  0.00000000000E+00 0. -1.
         21    1    1    2  505  503  0.12747712358E+03 -0.14944023539E+03  0.30570660561E+03  0.36337216418E+03  0.00000000000E+00 0. -1.
         21    1    1    2  506  501  0.18323530057E+02  0.29456900022E+02  0.25162247482E+02  0.42855564528E+02  0.00000000000E+00 0.  1.
<scales pt_clust_3="40.21063" pt_clust_4="40.21063" pt_clust_5="189.94774" pt_clust_6="34.69093"></scales>
<clustering>
<clus scale="   34.691">  1  6  2 -1</clus>
<clus scale="   40.211">  3  4 -1 -1</clus>
<clus scale="  189.948">  1  5  2 -1</clus>
<clus scale="   34.691">  1  3  2 -1</clus>
</clustering>
</event>
<event>
 6    0  0.6549018E+002  0.1396184E+03  0.7546771E-02  0.1213843E+00
         21   -1    0    0  506  501  0.00000000000E+00  0.00000000000E+00  0.41835434538E+03  0.41835434538E+03  0.00000000000E+00 0. -1.
         21   -1    0    0  504  502 -0.00000000000E+00 -0.00000000000E+00 -0.27796464910E+03  0.27796464910E+03  0.00000000000E+00 0.  1.
         21    1    1    2  503  501  0.91527086679E+02  0.40024791729E+01 -0.43232335514E+02  0.10130282459E+03  0.00000000000E+00 0.  1.
         21    1    1    2  504  503  0.28815874158E+02 -0.70766812732E+02 -0.18361524585E+03  0.19887899562E+03  0.00000000000E+00 0.  1.
         21    1    1    2  505  502 -0.74126692545E+02  0.23443037632E+02  0.13891893645E+03  0.15919426329E+03  0.00000000000E+00 0. -1.
         21    1    1    2  506  505 -0.46216268292E+02  0.43321295927E+02  0.22831834120E+03  0.23694291098E+03  0.00000000000E+00 0. -1.
<scales pt_clust_3="127.95212" pt_clust_4="76.40875" pt_clust_5="50.43194" pt_clust_6="50.43194"></scales>
<clustering>
<clus scale="   50.432">  5  6 -1 -1</clus>
<clus scale="   76.409">  2  4  1 -1</clus>
<clus scale="  127.952">  2  3  1 -1</clus>
<clus scale="  139.618">  1  3  2 -1</clus>
</clustering>
</event>
<event>
 6    0  0.6549018E+002  0.2777598E+03  0.7546771E-02  0.1096919E+00
         21   -1    0    0  505  501  0.00000000000E+00  0.00000000000E+00  0.25239576391E+03  0.25239576391E+03  0.00000000000E+00 0.  1.
         21   -1    0    0  501  502 -0.00000000000E+00 -0.00000000000E+00 -0.87504838918E+03  0.87504838918E+03  0.00000000000E+00 0. -1.
         21    1    1    2  503  502 -0.23231582416E+03  0.99736670357E+02 -0.55906028409E+03  0.61356861622E+03  0.00000000000E+00 0. -1.
         21    1    1    2  504  503  0.18664904360E+02 -0.33392288205E+02 -0.46350142859E+02  0.60097914351E+02  0.00000000000E+00 0. -1.
         21    1    1    2  505  506 -0.37310726682E+02  0.40588777164E+02  0.13184109632E+03  0.14290421210E+03  0.00000000000E+00 0.  1.
         21    1    1    2  506  504  0.25096164648E+03 -0.10693315932E+03 -0.14908329464E+03  0.31087341042E+03  0.00000000000E+00 0.  1.
<scales pt_clust_3="264.79183" pt_clust_4="31.41099" pt_clust_5="55.13202" pt_clust_6="31.41099"></scales>
<clustering>
<clus scale="   31.411">  4  6 -1 -1</clus>
<clus scale="   55.132">  1  5  2 -1</clus>
<clus scale="  264.792">  2  3  1 -1</clus>
<clus scale="   55.132">  1  3  2 -1</clus>
</clustering>
</event>
<event>
 6    0  0.6549018E+002  0.8331138E+02  0.7546771E-02  0.1319908E+00
         21   -1    0    0  503  501  0.00000000000E+00  0.00000000000E+00  0.21537667603E+03  0.21537667603E+03  0.00000000000E+00 0.  1.
         21   -1    0    0  506  502 -0.00000000000E+00 -0.00000000000E+00 -0.42503128985E+03  0.42503128985E+03  0.00000000000E+00 0.  1.
         21    1    1    2  503  502 -0.11879376477E+03  0.70868088422E+01 -0.27252897619E+03  0.29737892371E+03  0.00000000000E+00 0.  1.
         21    1    1    2  504  505  0.49517723520E+02  0.41034546712E+02 -0.75507411990E+01  0.64752240573E+02  0.00000000000E+00 0. -1.
         21    1    1    2  505  501  0.36472446363E+02 -0.14624511770E+02  0.16665943637E+03  0.17122932991E+03  0.00000000000E+00 0.  1.
         21    1    1    2  506  504  0.32803594887E+02 -0.33496843785E+02 -0.96234332817E+02  0.10704747168E+03  0.00000000000E+00 0.  1.
<scales pt_clust_3="83.31138" pt_clust_4="14000.00000" pt_clust_5="39.29524" pt_clust_6="51.10534"></scales>
<clustering>
<clus scale="   39.295">  1  5  2 -1</clus>
<clus scale="   51.105">  2  6  1 -1</clus>
<clus scale="   83.311">  2  3  1 -1</clus>
<clus scale="   39.295">  1  3  2 -1</clus>
</clustering>
</event>
<event>
 6    0  0.6549018E+002  0.1055329E+03  0.7546771E-02  0.1269073E+00
         21   -1    0    0  504  501  0.00000000000E+00  0.00000000000E+00  0.13786661896E+03  0.13786661896E+03  0.00000000000E+00 0. -1.
         21   -1    0    0  503  502 -0.00000000000E+00 -0.00000000000E+00 -0.45318154654E+03  0.45318154654E+03  0.00000000000E+00 0. -1.
         21    1    1    2  503  505  0.55727408531E+02 -0.95184355763E+02 -0.23773564684E+03  0.26207602604E+03  0.00000000000E+00 0. -1.
         21    1    1    2  504  506 -0.76714467527E+02 -0.33862399802E+02  0.38994086436E+02  0.92478702550E+02  0.00000000000E+00 0. -1.
         21    1    1    2  505  501 -0.17255736260E+02  0.10013174505E+03  0.90717672173E+01  0.10201188049E+03  0.00000000000E+00 0. -1.
         21    1    1    2  506  502  0.38242795256E+02  0.28915010511E+02 -0.12564513439E+03  0.13448155642E+03  0.00000000000E+00 0. -1.
<scales pt_clust_3="105.53288" pt_clust_4="79.99892" pt_clust_5="14000.00000" pt_clust_6="47.94360"></scales>
<clustering>
<clus scale="   47.944">  2  6  1 -1</clus>
<clus scale="   79.999">  1  4  2 -1</clus>
<clus scale="  105.533">  2  3  1 -1</clus>
<clus scale="   79.999">  1  3  2 -1</clus>
</clustering>
</event>
<event>
 6    0  0.6549018E+002  0.9836408E+02  0.7546771E-02  0.1283774E+00
         21   -1    0    0  503  501  0.00000000000E+00  0.00000000000E+00  0.20745215078E+02  0.20745215078E+02  0.00000000000E+00 0.  1.
         21   -1    0    0  505  502 -0.00000000000E+00 -0.00000000000E+00 -0.14445774535E+04  0.14445774535E+04  0.00000000000E+00 0. -1.
         21    1    1    2  503  506  0.39820986492E+02 -0.97858173749E+02 -0.17679643514E+03  0.20595852158E+03  0.00000000000E+00 0.  1.
         21    1    1    2  504  502 -0.67434088020E+01  0.36410128840E+02 -0.45402631169E+03  0.45553382174E+03  0.00000000000E+00 0.  1.
         21    1    1    2  505  501  0.40641590464E+02  0.10950732459E+02 -0.25650450610E+03  0.25993502854E+03  0.00000000000E+00 0. -1.
         21    1    1    2  506  504 -0.73719168155E+02  0.50497312450E+02 -0.53650498555E+03  0.54389529676E+03  0.00000000000E+00 0. -1.
<scales pt_clust_3="98.36408" pt_clust_4="37.02933" pt_clust_5="43.93197" pt_clust_6="14000.00000"></scales>
<clustering>
<clus scale="   37.029">  2  4  1 -1</clus>
<clus scale="   43.932">  2  5  1 -1</clus>
<clus scale="   98.364">  1  3  2 -1</clus>
<clus scale="   98.364">  1  3  2 -1</clus>
</clustering>
</event>
<event>
 6    0  0.6549018E+002  0.9520704E+02  0.7546771E-02  0.1290710E+00
         21   -1    0    0  504  501  0.00000000000E+00  0.00000000000E+00  0.77757070425E+02  0.77757070425E+02  0.00000000000E+00 0.  1.
         21   -1    0    0  503  502 -0.00000000000E+00 -0.00000000000E+00 -0.61461845010E+03  0.61461845010E+03  0.00000000000E+00 0.  1.
         21    1    1    2  503  501  0.28398744178E+02  0.69353898205E+02 -0.83967671112E+02  0.11254786386E+03  0.00000000000E+00 0.  1.
         21    1    1    2  504  506 -0.10873614724E+03 -0.11863762598E+02  0.32304872938E+01  0.10942913061E+03  0.00000000000E+00 0.  1.
         21    1    1    2  505  502  0.42261099075E+02 -0.27736926140E+00 -0.23736955200E+03  0.24110242978E+03  0.00000000000E+00 0.  1.
         21    1    1    2  506  505  0.38076303982E+02 -0.57212766345E+02 -0.21875464385E+03  0.22929609627E+03  0.00000000000E+00 0.  1.
<scales pt_clust_3="79.73110" pt_clust_4="95.20704" pt_clust_5="42.26201" pt_clust_6="14000.00000"></scales>
<clustering>
<clus scale="   42.262">  2  5  1 -1</clus>
<clus scale="   79.731">  2  3  1 -1</clus>
<clus scale="   95.207">  1  4  2 -1</clus>
<clus scale="   95.207">  1  3  2 -1</clus>
</clustering>
</event>
<event>
 6    0  0.6549018E+002  0.9686193E+02  0.7546771E-02  0.1287037E+00
         21   -1    0    0  504  501  0.00000000000E+00  0.00000000000E+00  0.12286089859E+04  0.12286089859E+04  0.00000000000E+00 0.  1.
         21   -1    0    0  501  502 -0.00000000000E+00 -0.00000000000E+00 -0.39435413473E+02  0.39435413473E+02  0.00000000000E+00 0.  1.
         21    1    1    2  503  502 -0.19962073147E+02  0.35775236613E+02  0.83371769391E+01  0.41807420853E+02  0.00000000000E+00 0.  1.
         21    1    1    2  504  506 -0.46659773170E+02 -0.33287562524E+02  0.65390305132E+03  0.65641023512E+03  0.00000000000E+00 0.  1.
         21    1    1    2  505  503  0.81326296514E+02  0.66867291038E+02  0.13332559031E+03  0.16988500271E+03  0.00000000000E+00 0.  1.
         21    1    1    2  506  505 -0.14704450197E+02 -0.69354965127E+02  0.39360775391E+03  0.39994174073E+03  0.00000000000E+00 0.  1.
<scales pt_clust_3="40.96769" pt_clust_4="57.11094" pt_clust_5="96.86193" pt_clust_6="14000.00000"></scales>
<clustering>
<clus scale="   40.968">  2  3  1 -1</clus>
<clus scale="   57.111">  1  4  2 -1</clus>
<clus scale="   96.862">  2  5  1 -1</clus>
<clus scale="   57.111">  1  3  2 -1</clus>
</clustering>
</event>
<event>
 6    0  0.6549018E+002  0.8527447E+02  0.7546771E-02  0.1314716E+00
         21   -1    0    0  504  501  0.00000000000E+00  0.00000000000E+00  0.21067794219E+04  0.21067794219E+04  0.00000000000E+00 0. -1.
         21   -1    0    0  505  502 -0.00000000000E+00 -0.00000000000E+00 -0.19702760120E+03  0.19702760120E+03  0.00000000000E+00 0.  1.
         21    1    1    2  503  506 -0.75493167934E+01 -0.62329858434E+02  0.16986359165E+03  0.18109567418E+03  0.00000000000E+00 0.  1.
         21    1    1    2  504  502  0.11841890391E+02  0.93037449752E+02 -0.14571783172E+03  0.17329132669E+03  0.00000000000E+00 0.  1.
         21    1    1    2  505  503 -0.31612542054E+02 -0.58996444892E+02  0.36274287405E+01  0.67030527107E+02  0.00000000000E+00 0.  1.
         21    1    1    2  506  501  0.27319968456E+02  0.28288853574E+02  0.18819786321E+04  0.18823894952E+04  0.00000000000E+00 0. -1.
<scales pt_clust_3="42.52735" pt_clust_4="14000.00000" pt_clust_5="85.27447" pt_clust_6="39.32734"></scales>
<clustering>
<clus scale="   39.327">  1  6  2 -1</clus>
<clus scale="   42.527">  1  3  2 -1</clus>
<clus scale="   85.274">  1  5  2 -1</clus>
<clus scale="   39.327">  1  3  2 -1</clus>
</clustering>
</event>
<event>
 6    0  0.6549018E+002  0.7368539E+02  0.7546771E-02  0.1347991E+00
         21   -1    0    0  505  501  0.00000000000E+00  0.00000000000E+00  0.73238572290E+03  0.73238572290E+03  0.00000000000E+00 0.  1.
         21   -1    0    0  506  502 -0.00000000000E+00 -0.00000000000E+00 -0.50915622930E+03  0.50915622930E+03  0.00000000000E+00 0.  1.
         21    1    1    2  503  502  0.10449986649E+02 -0.33460691113E+02 -0.22118049229E+03  0.22394113120E+03  0.00000000000E+00 0.  1.
         21    1    1    2  504  501 -0.11583050091E+03 -0.14720169534E+01  0.61763419421E+03  0.62840342904E+03  0.00000000000E+00 0.  1.
         21    1    1    2  505  503  0.43685817411E+02  0.17330699826E+02  0.98960582198E+02  0.10955364270E+03  0.00000000000E+00 0. -1.
         21    1    1    2  506  504  0.61694696846E+02  0.17602008240E+02 -0.27218479052E+03  0.27964374926E+03  0.00000000000E+00 0.  1.
<scales pt_clust_3="35.05453" pt_clust_4="14000.00000" pt_clust_5="46.95384" pt_clust_6="73.68539"></scales>
<clustering>
<clus scale="   35.055">  2  3  1 -1</clus>
<clus scale="   46.954">  1  5  2 -1</clus>
<clus scale="   73.685">  2  6  1 -1</clus>
<clus scale="   46.954">  1  3  2 -1</clus>
</clustering>
</event>
<event>
 6    0  0.6549018E+002  0.6944746E+02  0.7546771E-02  0.1361982E+00
         21   -1    0    0  505  501  0.00000000000E+00  0.00000000000E+00  0.14332762919E+04  0.14332762919E+04  0.00000000000E+00 0.  1.
         21   -1    0    0  504  502 -0.00000000000E+00 -0.00000000000E+00 -0.59122693386E+02  0.59122693386E+02  0.00000000000E+00 0. -1.
         21    1    1    2  503  502 -0.49613166773E+02 -0.90241386868E+02  0.23141351551E+02  0.10554854984E+03  0.00000000000E+00 0. -1.
         21    1    1    2  504  506 -0.13297055395E+02  0.59557388114E+02  0.49149798717E+02  0.78355579732E+02  0.00000000000E+00 0. -1.
         21    1    1    2  505  503  0.22787105099E+01  0.36758569457E+02  0.13186003949E+03  0.13690673820E+03  0.00000000000E+00 0. -1.
         21    1    1    2  506  501  0.60631511658E+02 -0.60745707037E+01  0.11700024087E+04  0.11715881175E+04  0.00000000000E+00 0.  1.
<scales pt_clust_3="14000.00000" pt_clust_4="62.76220" pt_clust_5="36.82913" pt_clust_6="69.44746"></scales>
<clustering>
<clus scale="   36.829">  1  5  2 -1</clus>
<clus scale="   62.762">  2  4  1 -1</clus>
<clus scale="   69.447">  1  6  2 -1</clus>
<clus scale="   36.829">  1  3  2 -1</clus>
</clustering>
</event>
<event>
 6    0  0.6549018E+002  0.9809662E+02  0.7546771E-02  0.1284350E+00
         21   -1    0    0  502  501  0.00000000000E+00  0.00000000000E+00  0.14799695949E+04  0.14799695949E+04  0.00000000000E+00 0.  1.
         21   -1    0    0  505  502 -0.00000000000E+00 -0.00000000000E+00 -0.74774898849E+02  0.74774898849E+02  0.00000000000E+00 0.  1.
         21    1    1    2  503  506  0.66508473892E+02  0.16528529968E+02  0.10982694807E+02  0.69405972276E+02  0.00000000000E+00 0.  1.
         21    1    1    2  504  501  0.38414857845E+02 -0.55255073167E+02  0.47763934349E+03  0.48235688744E+03  0.00000000000E+00 0. -1.
         21    1    1    2  505  503  0.35270854935E+02 -0.23892991856E+02 -0.24715891462E+02  0.49252244197E+02  0.00000000000E+00 0.  1.
         21    1    1    2  506  504 -0.14019418667E+03  0.62619535055E+02  0.94128854922E+03  0.95372938984E+03  0.00000000000E+00 0.  1.
<scales pt_clust_3="14000.00000" pt_clust_4="69.78424" pt_clust_5="42.60174" pt_clust_6="98.09662"></scales>
<clustering>
<clus scale="   42.602">  2  5  1 -1</clus>
<clus scale="   69.784">  1  4  2 -1</clus>
<clus scale="   98.097">  1  6  2 -1</clus>
<clus scale="   69.784">  1  3  2 -1</clus>
</clustering>
</event>
<event>
 6    0  0.6549018E+002  0.1260000E+03  0.7546771E-02  0.1233515E+00
         21   -1    0    0  504  501  0.00000000000E+00  0.00000000000E+00  0.19900907983E+03  0.19900907983E+03  0.00000000000E+00 0.  1.
         21   -1    0    0  505  502 -0.00000000000E+00 -0.00000000000E+00 -0.29961704147E+03  0.29961704147E+03  0.00000000000E+00 0.  1.
         21    1    1    2  503  501  0.18436119974E+02  0.38688172041E+02  0.10326707682E+03  0.11180677229E+03  0.00000000000E+00 0.  1.
         21    1    1    2  504  506 -0.36745867652E+02 -0.21432769958E+02 -0.70488365214E+02  0.82330019119E+02  0.00000000000E+00 0.  1.
         21    1    1    2  505  503  0.37899074902E+02  0.70377012032E+02  0.54160645129E+02  0.96553814951E+02  0.00000000000E+00 0.  1.
         21    1    1    2  506  502 -0.19589327224E+02 -0.87632414115E+02 -0.18754731837E+03  0.20793551494E+03  0.00000000000E+00 0.  1.
<scales pt_clust_3="42.85633" pt_clust_4="35.11483" pt_clust_5="115.20933" pt_clust_6="35.11483"></scales>
<clustering>
<clus scale="   35.115">  4  6 -1 -1</clus>
<clus scale="   42.856">  1  3  2 -1</clus>
<clus scale="  115.209">  1  5  2 -1</clus>
<clus scale="   42.856">  1  3  2 -1</clus>
</clustering>
</event>
<event>
 6    0  0.6549018E+002  0.1171594E+03  0.7546771E-02  0.1247858E+00
         21   -1    0    0  503  501  0.00000000000E+00  0.00000000000E+00  0.31367001129E+03  0.31367001129E+03  0.00000000000E+00 0. -1.
         21   -1    0    0  506  502 -0.00000000000E+00 -0.00000000000E+00 -0.20282677473E+03  0.20282677473E+03  0.00000000000E+00 0.  1.
         21    1    1    2  503  502 -0.12945911175E+03 -0.45702109681E+02  0.23031033946E+03  0.26812533805E+03  0.00000000000E+00 0. -1.
         21    1    1    2  504  505  0.47011217124E+02  0.16434857152E+02 -0.38405491552E+02  0.62889910529E+02  0.00000000000E+00 0.  1.
         21    1    1    2  505  501  0.26104199061E+02  0.20009831330E+02  0.39906774991E+02  0.51714342775E+02  0.00000000000E+00 0.  1.
         21    1    1    2  506  504  0.56343695564E+02  0.92574211993E+01 -0.12096838633E+03  0.13376719466E+03  0.00000000000E+00 0.  1.
<scales pt_clust_3="108.60323" pt_clust_4="41.38034" pt_clust_5="32.89107" pt_clust_6="41.38034"></scales>
<clustering>
<clus scale="   32.891">  1  5  2 -1</clus>
<clus scale="   41.380">  4  6 -1 -1</clus>
<clus scale="  108.603">  1  3  2 -1</clus>
<clus scale="   32.891">  1  3  2 -1</clus>
</clustering>
</event>
<event>
 6    0  0.6549018E+002  0.9872388E+02  0.7546771E-02  0.1283003E+00
         21   -1    0    0  506  501  0.00000000000E+00  0.00000000000E+00  0.94776489408E+02  0.94776489408E+02  0.00000000000E+00 0.  1.
         21   -1    0    0  505  502 -0.00000000000E+00 -0.00000000000E+00 -0.68342829424E+03  0.68342829424E+03  0.00000000000E+00 0.  1.
         21    1    1    2  503  502  0.21589734390E+02 -0.27627648459E+02 -0.51361998524E+02  0.62188893565E+02  0.00000000000E+00 0. -1.
         21    1    1    2  504  501 -0.12385108233E+03 -0.15805437407E+02 -0.72452548070E+02  0.14435468183E+03  0.00000000000E+00 0.  1.
         21    1    1    2  505  504  0.75277569116E+02  0.10282699697E+02 -0.50638429468E+03  0.51205224365E+03  0.00000000000E+00 0.  1.
         21    1    1    2  506  503  0.26983778823E+02  0.33150386168E+02  0.41547036447E+02  0.59608964596E+02  0.00000000000E+00 0.  1.
<scales pt_clust_3="35.06285" pt_clust_4="14000.00000" pt_clust_5="98.72388" pt_clust_6="42.63474"></scales>
<clustering>
<clus scale="   35.063">  2  3  1 -1</clus>
<clus scale="   42.635">  1  6  2 -1</clus>
<clus scale="   98.724">  2  5  1 -1</clus>
<clus scale="   42.635">  1  3  2 -1</clus>
</clustering>
</event>
<event>
 6    0  0.6549018E+002  0.7816129E+02  0.7546771E-02  0.1334352E+00
         21   -1    0    0  503  501  0.00000000000E+00  0.00000000000E+00  0.99320168814E+02  0.99320168814E+02  0.00000000000E+00 0. -1.
         21   -1    0    0  505  502 -0.00000000000E+00 -0.00000000000E+00 -0.59063418508E+03  0.59063418508E+03  0.00000000000E+00 0. -1.
         21    1    1    2  503  502  0.15098445463E+02  0.95434844526E+02 -0.41856375564E+02  0.10529828479E+03  0.00000000000E+00 0. -1.
         21    1    1    2  504  506 -0.58021674715E+01 -0.46647695137E+02 -0.30623200535E+03  0.30981884015E+03  0.00000000000E+00 0. -1.
         21    1    1    2  505  504 -0.39017618184E+02  0.20922619337E+02 -0.18367556515E+03  0.18893608380E+03  0.00000000000E+00 0. -1.
         21    1    1    2  506  501  0.29721340193E+02 -0.69709768726E+02  0.40449929796E+02  0.85901145156E+02  0.00000000000E+00 0. -1.
<scales pt_clust_3="14000.00000" pt_clust_4="46.95897" pt_clust_5="44.27336" pt_clust_6="78.16129"></scales>
<clustering>
<clus scale="   44.273">  2  5  1 -1</clus>
<clus scale="   46.959">  2  4  1 -1</clus>
<clus scale="   78.161">  1  6  2 -1</clus>
<clus scale="   78.161">  1  3  2 -1</clus>
</clustering>
</event>
<event>
 6    0  0.6549018E+002  0.2042031E+03  0.7546771E-02  0.1146241E+00
         21   -1    0    0  506  501  0.00000000000E+00  0.00000000000E+00  0.14514420230E+04  0.14514420230E+04  0.00000000000E+00 0.  1.
         21   -1    0    0  505  502 -0.00000000000E+00 -0.00000000000E+00 -0.56948631777E+02  0.56948631777E+02  0.00000000000E+00 0.  1.
         21    1    1    2  503  501  0.52504307592E+02  0.10358575425E+03  0.17900343117E+03  0.21337511376E+03  0.00000000000E+00 0.  1.
         21    1    1    2  504  502 -0.13243709336E+03 -0.17562839041E+03  0.44591160604E+03  0.49721431558E+03  0.00000000000E+00 0.  1.
         21    1    1    2  505  503  0.55709500586E+02  0.50052335572E+02  0.88491175459E+02  0.11592874055E+03  0.00000000000E+00 0.  1.
         21    1    1    2  506  504  0.24223285185E+02  0.21990300592E+02  0.68108717858E+03  0.68187248492E+03  0.00000000000E+00 0.  1.
<scales pt_clust_3="31.84738" pt_clust_4="200.31509" pt_clust_5="31.84738" pt_clust_6="32.71606"></scales>
<clustering>
<clus scale="   31.847">  3  5 -1 -1</clus>
<clus scale="   32.716">  1  6  2 -1</clus>
<clus scale="  200.315">  1  4  2 -1</clus>
<clus scale="   32.716">  1  3  2 -1</clus>
</clustering>
</event>
<event>
 6    0  0.6549018E+002  0.1526797E+03  0.7546771E-02  0.1197218E+00
         21   -1    0    0  505  501  0.00000000000E+00  0.00000000000E+00  0.85420232609E+02  0.85420232609E+02  0.00000000000E+00 0.  1.
         21   -1    0    0  506  502 -0.00000000000E+00 -0.00000000000E+00 -0.13033663340E+04  0.13033663340E+04  0.00000000000E+00 0.  1.
         21    1    1    2  503  502  0.66753862549E+02  0.11441906555E+03 -0.85160230635E+03  0.86184354085E+03  0.00000000000E+00 0.  1.
         21    1    1    2  504  501 -0.16937883616E+02 -0.19717472803E+03 -0.22104536991E+03  0.29669145730E+03  0.00000000000E+00 0.  1.
         21    1    1    2  505  503 -0.15465351743E+02  0.52218672061E+02  0.20507013605E+02  0.58193680270E+02  0.00000000000E+00 0.  1.
         21    1    1    2  506  504 -0.34350627189E+02  0.30536990425E+02 -0.16580543871E+03  0.17205788816E+03  0.00000000000E+00 0.  1.
<scales pt_clust_3="14000.00000" pt_clust_4="152.67969" pt_clust_5="55.11054" pt_clust_6="45.96165"></scales>
<clustering>
<clus scale="   45.962">  2  6  1 -1</clus>
<clus scale="   55.111">  1  5  2 -1</clus>
<clus scale="  152.680">  1  4  2 -1</clus>
<clus scale="   55.111">  1  3  2 -1</clus>
</clustering>
</event>
<event>
 6    0  0.6549018E+002  0.1020580E+03  0.7546771E-02  0.1276027E+00
         21   -1    0    0  503  501  0.00000000000E+00  0.00000000000E+00  0.79240477881E+02  0.79240477881E+02  0.00000000000E+00 0.  1.
         21   -1    0    0  505  502 -0.00000000000E+00 -0.00000000000E+00 -0.17631787984E+04  0.17631787984E+04  0.00000000000E+00 0. -1.
         21    1    1    2  503  502 -0.66046237084E+02 -0.57085383888E+02  0.22513271654E+02  0.90153723646E+02  0.00000000000E+00 0.  1.
         21    1    1    2  504  501 -0.37320763451E+02  0.76807999492E+02 -0.75064186162E+02  0.11369670274E+03  0.00000000000E+00 0. -1.
         21    1    1    2  505  506 -0.28461139415E+01 -0.43684375741E+02 -0.40586964639E+03  0.40822370694E+03  0.00000000000E+00 0. -1.
         21    1    1    2  506  504  0.10621311448E+03  0.23961760137E+02 -0.12255177596E+04  0.12303451429E+04  0.00000000000E+00 0. -1.
<scales pt_clust_3="14000.00000" pt_clust_4="82.76078" pt_clust_5="43.77699" pt_clust_6="102.05800"></scales>
<clustering>
<clus scale="   43.777">  2  5  1 -1</clus>
<clus scale="   82.761">  1  4  2 -1</clus>
<clus scale="  102.058">  2  6  1 -1</clus>
<clus scale="   82.761">  1  3  2 -1</clus>
</clustering>
</event>
<event>
 6    0  0.6549018E+002  0.8046812E+02  0.7546771E-02  0.1327728E+00
         21   -1    0    0  503  501  0.00000000000E+00  0.00000000000E+00  0.43837471759E+03  0.43837471759E+03  0.00000000000E+00 0.  1.
         21   -1    0    0  504  502 -0.00000000000E+00 -0.00000000000E+00 -0.39661714115E+03  0.39661714115E+03  0.00000000000E+00 0. -1.
         21    1    1    2  503  505  0.16119643438E+02 -0.41503139171E+02  0.15179886609E+03  0.15819370788E+03  0.00000000000E+00 0.  1.
         21    1    1    2  504  501 -0.17209631056E+02  0.12145626203E+03  0.25959685677E+03  0.28712074643E+03  0.00000000000E+00 0.  1.
         21    1    1    2  505  506 -0.42488283724E+02 -0.61183413400E+02 -0.19615076707E+03  0.20981846380E+03  0.00000000000E+00 0. -1.
         21    1    1    2  506  502  0.43578271341E+02 -0.18769709459E+02 -0.17348737936E+03  0.17985894062E+03  0.00000000000E+00 0. -1.
<scales pt_clust_3="44.52363" pt_clust_4="80.46812" pt_clust_5="14000.00000" pt_clust_6="47.80092"></scales>
<clustering>
<clus scale="   44.524">  1  3  2 -1</clus>
<clus scale="   47.801">  2  6  1 -1</clus>
<clus scale="   80.468">  1  4  2 -1</clus>
<clus scale="   44.524">  1  3  2 -1</clus>
</clustering>
</event>
<event>
 6    0  0.6549018E+002  0.2637556E+03  0.7546771E-02  0.1104908E+00
         21   -1    0    0  504  501  0.00000000000E+00  0.00000000000E+00  0.23036748603E+04  0.23036748603E+04  0.00000000000E+00 0.  1.
         21   -1    0    0  505  502 -0.00000000000E+00 -0.00000000000E+00 -0.28352837038E+03  0.28352837038E+03  0.00000000000E+00 0. -1.
         21    1    1    2  503  502  0.10082113783E+03 -0.12984990005E+03 -0.13105002291E+03  0.21023797678E+03  0.00000000000E+00 0. -1.
         21    1    1    2  504  506 -0.18291335853E+03  0.10658952541E+03  0.21488161406E+04  0.21592196345E+04  0.00000000000E+00 0.  1.
         21    1    1    2  505  501 -0.14367332210E+02  0.51448517088E+02  0.76196086567E+02  0.93054896451E+02  0.00000000000E+00 0.  1.
         21    1    1    2  506  503  0.96459552911E+02 -0.28188142451E+02 -0.73815714337E+02  0.12469072301E+03  0.00000000000E+00 0. -1.
<scales pt_clust_3="62.18193" pt_clust_4="251.50636" pt_clust_5="53.41695" pt_clust_6="62.18193"></scales>
<clustering>
<clus scale="   53.417">  1  5  2 -1</clus>
<clus scale="   62.182">  3  6 -1 -1</clus>
<clus scale="  251.506">  1  4  2 -1</clus>
<clus scale="   53.417">  1  3  2 -1</clus>
</clustering>
</event>
<event>
 6    0  0.6549018E+002  0.6573826E+02  0.7546771E-02  0.1375216E+00
         21   -1    0    0  503  501  0.00000000000E+00  0.00000000000E+00  0.41269615069E+02  0.41269615069E+02  0.00000000000E+00 0.  1.
         21   -1    0    0  505  502 -0.00000000000E+00 -0.00000000000E+00 -0.56975010066E+03  0.56975010066E+03  0.00000000000E+00 0. -1.
         21    1    1    2  503  502  0.28037584579E+02  0.38200313692E+02 -0.56537267239E+02  0.73768778640E+02  0.00000000000E+00 0.  1.
         21    1    1    2  504  506 -0.60718220975E+02 -0.26695145258E+02 -0.24383990402E+03  0.25269988510E+03  0.00000000000E+00 0. -1.
         21    1    1    2  505  504 -0.13092113829E+02  0.54944689085E+02 -0.18425393786E+03  0.19271698399E+03  0.00000000000E+00 0. -1.
         21    1    1    2  506  501  0.45772750224E+02 -0.66449857519E+02 -0.43849376477E+02  0.91834067996E+02  0.00000000000E+00 0.  1.
<scales pt_clust_3="47.38534" pt_clust_4="14000.00000" pt_clust_5="60.63724" pt_clust_6="65.73826"></scales>
<clustering>
<clus scale="   47.385">  1  3  2 -1</clus>
<clus scale="   60.637">  2  5  1 -1</clus>
<clus scale="   65.738">  1  6  2 -1</clus>
<clus scale="   47.385">  1  3  2 -1</clus>
</clustering>
</event>
<event>
 6    0  0.6549018E+002  0.7860164E+02  0.7546771E-02  0.1333067E+00
         21   -1    0    0  506  501  0.00000000000E+00  0.00000000000E+00  0.39172939549E+03  0.39172939549E+03  0.00000000000E+00 0.  1.
         21   -1    0    0  504  502 -0.00000000000E+00 -0.00000000000E+00 -0.42541007078E+03  0.42541007078E+03  0.00000000000E+00 0. -1.
         21    1    1    2  503  502  0.14334333324E+02 -0.53779381362E+02 -0.25850537097E+03  0.26442904869E+03  0.00000000000E+00 0. -1.
         21    1    1    2  504  501  0.47942688518E+02  0.10320071168E+03 -0.13706059349E+03  0.17814178219E+03  0.00000000000E+00 0. -1.
         21    1    1    2  505  503 -0.26686291667E+02 -0.54038851111E+02  0.20814359107E+03  0.21669358573E+03  0.00000000000E+00 0.  1.
         21    1    1    2  506  505 -0.35590730175E+02  0.46175207956E+01  0.15374169809E+03  0.15787504966E+03  0.00000000000E+00 0.  1.
<scales pt_clust_3="55.48741" pt_clust_4="14000.00000" pt_clust_5="78.60164" pt_clust_6="35.88902"></scales>
<clustering>
<clus scale="   35.889">  1  6  2 -1</clus>
<clus scale="   55.487">  2  3  1 -1</clus>
<clus scale="   78.602">  1  5  2 -1</clus>
<clus scale="   35.889">  1  3  2 -1</clus>
</clustering>
</event>
<event>
 6    0  0.6549018E+002  0.1720741E+03  0.7546771E-02  0.1175702E+00
         21   -1    0    0  504  501  0.00000000000E+00  0.00000000000E+00  0.14885754668E+03  0.14885754668E+03  0.00000000000E+00 0.  1.
         21   -1    0    0  506  502 -0.00000000000E+00 -0.00000000000E+00 -0.64516490245E+03  0.64516490245E+03  0.00000000000E+00 0.  1.
         21    1    1    2  503  501 -0.68923901895E+02 -0.22916418695E+02  0.14663361213E+02  0.74099127258E+02  0.00000000000E+00 0. -1.
         21    1    1    2  504  505  0.27706995647E+02  0.44556000826E+02  0.36224086114E+02  0.63758130715E+02  0.00000000000E+00 0.  1.
         21    1    1    2  505  502 -0.15477859535E+03  0.21926279716E+02 -0.29448452501E+03  0.33340412533E+03  0.00000000000E+00 0.  1.
         21    1    1    2  506  503  0.19599550160E+03 -0.43565861847E+02 -0.25271027809E+03  0.32276106583E+03  0.00000000000E+00 0.  1.
<scales pt_clust_3="56.56138" pt_clust_4="52.46823" pt_clust_5="172.07414" pt_clust_6="14000.00000"></scales>
<clustering>
<clus scale="   52.468">  1  4  2 -1</clus>
<clus scale="   56.561">  1  3  2 -1</clus>
<clus scale="  172.074">  2  5  1 -1</clus>
<clus scale="   52.468">  1  3  2 -1</clus>
</clustering>
</event>
<event>
 6    0  0.6549018E+002  0.7701688E+02  0.7546771E-02  0.1337737E+00
         21   -1    0    0  505  501  0.00000000000E+00  0.00000000000E+00  0.32419037881E+03  0.32419037881E+03  0.00000000000E+00 0.  1.
         21   -1    0    0  503  502 -0.00000000000E+00 -0.00000000000E+00 -0.14998069861E+03  0.14998069861E+03  0.00000000000E+00 0.  1.
         21    1    1    2  503  504  0.10516987121E+02  0.34572618348E+02 -0.31962661548E+02  0.48244011968E+02  0.00000000000E+00 0. -1.
         21    1    1    2  504  506 -0.58209776511E+02  0.20368496145E+02  0.38264926151E+02  0.72577257388E+02  0.00000000000E+00 0.  1.
         21    1    1    2  505  502 -0.37604075592E+02 -0.65093133191E+02 -0.68572910444E+02  0.10175178886E+03  0.00000000000E+00 0.  1.
         21    1    1    2  506  501  0.85296864982E+02  0.10152018699E+02  0.23648032605E+03  0.25159801920E+03  0.00000000000E+00 0.  1.
<scales pt_clust_3="36.13686" pt_clust_4="14000.00000" pt_clust_5="48.31277" pt_clust_6="77.01688"></scales>
<clustering>
<clus scale="   36.137">  2  3  1 -1</clus>
<clus scale="   48.313">  2  5  1 -1</clus>
<clus scale="   77.017">  1  6  2 -1</clus>
<clus scale="   77.017">  1  3  2 -1</clus>
</clustering>
</event>
<event>
 6    0  0.6549018E+002  0.7400168E+02  0.7546771E-02  0.1346991E+00
         21   -1    0    0  503  501  0.00000000000E+00  0.00000000000E+00  0.16772041448E+03  0.16772041448E+03  0.00000000000E+00 0. -1.
         21   -1    0    0  504  502 -0.00000000000E+00 -0.00000000000E+00 -0.11062511095E+04  0.11062511095E+04  0.00000000000E+00 0. -1.
         21    1    1    2  503  502  0.10508960272E+03  0.34168761656E+02 -0.74732034630E+03  0.75544624486E+03  0.00000000000E+00 0. -1.
         21    1    1    2  504  505 -0.27945882625E+02 -0.24462061022E+02 -0.28948199756E+03  0.29185474418E+03  0.00000000000E+00 0. -1.
         21    1    1    2  505  506 -0.36524478243E+02 -0.44168134317E+02 -0.45608572769E+02  0.73246184269E+02  0.00000000000E+00 0.  1.
         21    1    1    2  506  501 -0.40619241851E+02  0.34461433683E+02  0.14388022159E+03  0.15342435069E+03  0.00000000000E+00 0. -1.
<scales pt_clust_3="14000.00000" pt_clust_4="37.13980" pt_clust_5="74.00168" pt_clust_6="53.30084"></scales>
<clustering>
<clus scale="   37.140">  2  4  1 -1</clus>
<clus scale="   53.301">  1  6  2 -1</clus>
<clus scale="   74.002">  1  5  2 -1</clus>
<clus scale="   53.301">  1  3  2 -1</clus>
</clustering>
</event>
<event>
 6    0  0.6549018E+002  0.7155398E+02  0.7546771E-02  0.1354887E+00
         21   -1    0    0  505  501  0.00000000000E+00  0.00000000000E+00  0.12422971090E+03  0.12422971090E+03  0.00000000000E+00 0. -1.
         21   -1    0    0  506  502 -0.00000000000E+00 -0.00000000000E+00 -0.73707541686E+03  0.73707541686E+03  0.00000000000E+00 0.  1.
         21    1    1    2  503  501  0.37336808991E+01 -0.41233929061E+02  0.94199797233E+02  0.10289693425E+03  0.00000000000E+00 0. -1.
         21    1    1    2  504  503 -0.16949583592E+02 -0.47951695254E+02 -0.75111522575E+02  0.90710497106E+02  0.00000000000E+00 0.  1.
         21    1    1    2  505  502  0.70371579015E+02  0.11514658392E+03 -0.28757692728E+03  0.31766552225E+03  0.00000000000E+00 0.  1.
         21    1    1    2  506  504 -0.57155676322E+02 -0.25960959601E+02 -0.34435705333E+03  0.35003217415E+03  0.00000000000E+00 0.  1.
<scales pt_clust_3="41.40262" pt_clust_4="62.50844" pt_clust_5="14000.00000" pt_clust_6="71.55398"></scales>
<clustering>
<clus scale="   41.403">  1  3  2 -1</clus>
<clus scale="   62.508">  1  4  2 -1</clus>
<clus scale="   71.554">  2  6  1 -1</clus>
<clus scale="   41.403">  1  3  2 -1</clus>
</clustering>
</event>
<event>
 6    0  0.6549018E+002  0.1061232E+03  0.7546771E-02  0.1267922E+00
         21   -1    0    0  505  501  0.00000000000E+00  0.00000000000E+00  0.69615299642E+03  0.69615299642E+03  0.00000000000E+00 0.  1.
         21   -1    0    0  504  502 -0.00000000000E+00 -0.00000000000E+00 -0.53859791183E+03  0.53859791183E+03  0.00000000000E+00 0. -1.
         21    1    1    2  503  506 -0.10466012184E+02  0.41948075625E+02 -0.12458461476E+03  0.13187306281E+03  0.00000000000E+00 0. -1.
         21    1    1    2  504  503 -0.44697421187E+02  0.27978038605E+02 -0.31461472268E+03  0.31900321916E+03  0.00000000000E+00 0.  1.
         21    1    1    2  505  502  0.84097971398E+02 -0.10180549734E+03 -0.45885813651E+02  0.13979390536E+03  0.00000000000E+00 0. -1.
         21    1    1    2  506  501 -0.28934538027E+02  0.31879383110E+02  0.64264023568E+03  0.64408072093E+03  0.00000000000E+00 0.  1.
<scales pt_clust_3="45.52914" pt_clust_4="45.52914" pt_clust_5="93.81601" pt_clust_6="43.05232"></scales>
<clustering>
<clus scale="   43.052">  1  6  2 -1</clus>
<clus scale="   45.529">  3  4 -1 -1</clus>
<clus scale="   93.816">  1  5  2 -1</clus>
<clus scale="   43.052">  1  3  2 -1</clus>
</clustering>
</event>
<event>
 6    0  0.6549018E+002  0.1169505E+03  0.7546771E-02  0.1248214E+00
         21   -1    0    0  505  501  0.00000000000E+00  0.00000000000E+00  0.42754766996E+03  0.42754766996E+03  0.00000000000E+00 0. -1.
         21   -1    0    0  504  502 -0.00000000000E+00 -0.00000000000E+00 -0.50573962313E+03  0.50573962313E+03  0.00000000000E+00 0. -1.
         21    1    1    2  503  506  0.32426137975E+02  0.15834223411E+02 -0.80776066154E+02  0.88470050968E+02  0.00000000000E+00 0.  1.
         21    1    1    2  504  503  0.49236569515E+02  0.51734052969E+02 -0.39924324720E+03  0.40558084576E+03  0.00000000000E+00 0. -1.
         21    1    1    2  505  502 -0.10436989803E+03 -0.44090717462E+02  0.38722203786E+03  0.40345752390E+03  0.00000000000E+00 0. -1.
         21    1    1    2  506  501  0.22707190543E+02 -0.23477558918E+02  0.14605322311E+02  0.35778872466E+02  0.00000000000E+00 0. -1.
<scales pt_clust_3="35.11507" pt_clust_4="35.11507" pt_clust_5="106.03745" pt_clust_6="32.66209"></scales>
<clustering>
<clus scale="   32.662">  1  6  2 -1</clus>
<clus scale="   35.115">  3  4 -1 -1</clus>
<clus scale="  106.037">  1  5  2 -1</clus>
<clus scale="   32.662">  1  3  2 -1</clus>
</clustering>
</event>
<event>
 6    0  0.6549018E+002  0.9950770E+02  0.7546771E-02  0.1281335E+00
         21   -1    0    0  503  501  0.00000000000E+00  0.00000000000E+00  0.75461642499E+03  0.75461642499E+03  0.00000000000E+00 0. -1.
         21   -1    0    0  504  502 -0.00000000000E+00 -0.00000000000E+00 -0.19187614047E+03  0.19187614047E+03  0.00000000000E+00 0.  1.
         21    1    1    2  503  506  0.69778985457E+02 -0.66765930458E+02  0.12944752131E+03  0.16150373697E+03  0.00000000000E+00 0. -1.
         21    1    1    2  504  505 -0.12672857449E+02  0.28442776748E+02 -0.10907901910E+02  0.32993562844E+02  0.00000000000E+00 0.  1.
         21    1    1    2  505  501 -0.35229279990E+02 -0.33065685640E+02  0.58799209574E+03  0.58997385230E+03  0.00000000000E+00 0. -1.
         21    1    1    2  506  502 -0.21876848018E+02  0.71388839350E+02 -0.14379143063E+03  0.16202141335E+03  0.00000000000E+00 0.  1.
<scales pt_clust_3="14000.00000" pt_clust_4="31.13829" pt_clust_5="48.25674" pt_clust_6="99.50770"></scales>
<clustering>
<clus scale="   31.138">  2  4  1 -1</clus>
<clus scale="   48.257">  1  5  2 -1</clus>
<clus scale="   99.508">  2  6  1 -1</clus>
<clus scale="   48.257">  1  3  2 -1</clus>
</clustering>
</event>
<event>
 6    0  0.6549018E+002  0.9676758E+02  0.7546771E-02  0.1287244E+00
         21   -1    0    0  505  501  0.00000000000E+00  0.00000000000E+00  0.26861461946E+03  0.26861461946E+03  0.00000000000E+00 0. -1.
         21   -1    0    0  504  502 -0.00000000000E+00 -0.00000000000E+00 -0.17476265269E+03  0.17476265269E+03  0.00000000000E+00 0. -1.
         21    1    1    2  503  506 -0.46148015863E+02 -0.77612539057E+02 -0.16189352006E+02  0.91735711178E+02  0.00000000000E+00 0. -1.
         21    1    1    2  504  503 -0.29723098123E+02  0.37290697983E+02 -0.61330955767E+02  0.77688769159E+02  0.00000000000E+00 0. -1.
         21    1    1    2  505  502 -0.26427251304E+02  0.89973478416E+02  0.45195025019E+02  0.10409715038E+03  0.00000000000E+00 0. -1.
         21    1    1    2  506  501  0.10229836529E+03 -0.49651637342E+02  0.12617724952E+03  0.16985564144E+03  0.00000000000E+00 0. -1.
<scales pt_clust_3="84.79313" pt_clust_4="47.68709" pt_clust_5="14000.00000" pt_clust_6="96.76758"></scales>
<clustering>
<clus scale="   47.687">  2  4  1 -1</clus>
<clus scale="   84.793">  2  3  1 -1</clus>
<clus scale="   96.768">  1  6  2 -1</clus>
<clus scale="   96.768">  1  3  2 -1</clus>
</clustering>
</event>
<event>
 6    0  0.6549018E+002  0.1196266E+03  0.7546771E-02  0.1243714E+00
         21   -1    0    0  505  501  0.00000000000E+00  0.00000000000E+00  0.88177289312E+02  0.88177289312E+02  0.00000000000E+00 0.  1.
         21   -1    0    0  503  502 -0.00000000000E+00 -0.00000000000E+00 -0.17564715931E+04  0.17564715931E+04  0.00000000000E+00 0.  1.
         21    1    1    2  503  506 -0.51006644880E+02 -0.14701846563E+02 -0.11665889173E+04  0.11677960113E+04  0.00000000000E+00 0.  1.
         21    1    1    2  504  502  0.12184917138E+03  0.66584307412E+01 -0.69973243361E+02  0.14066915103E+03  0.00000000000E+00 0.  1.
         21    1    1    2  505  504 -0.18931636240E+02  0.24574708533E+02  0.45930096488E+02  0.55424695882E+02  0.00000000000E+00 0.  1.
         21    1    1    2  506  501 -0.51910890255E+02 -0.16531292712E+02 -0.47766223961E+03  0.48075902416E+03  0.00000000000E+00 0.  1.
<scales pt_clust_3="50.25481" pt_clust_4="108.19530" pt_clust_5="31.02133" pt_clust_6="50.25481"></scales>
<clustering>
<clus scale="   31.021">  1  5  2 -1</clus>
<clus scale="   50.255">  3  6 -1 -1</clus>
<clus scale="  108.195">  1  4  2 -1</clus>
<clus scale="   31.021">  1  3  2 -1</clus>
</clustering>
</event>
<event>
 6    0  0.6549018E+002  0.2708204E+03  0.7546771E-02  0.1100811E+00
         21   -1    0    0  504  501  0.00000000000E+00  0.00000000000E+00  0.17833238535E+03  0.17833238535E+03  0.00000000000E+00 0.  1.
         21   -1    0    0  505  502 -0.00000000000E+00 -0.00000000000E+00 -0.51577494399E+03  0.51577494399E+03  0.00000000000E+00 0.  1.
         21    1    1    2  503  502 -0.13146611171E+03 -0.77162108522E+02 -0.10990738137E+03  0.18792807666E+03  0.00000000000E+00 0.  1.
         21    1    1    2  504  506  0.14841255255E+03  0.20019815375E+03 -0.12850356608E+03  0.28039035828E+03  0.00000000000E+00 0.  1.
         21    1    1    2  505  501  0.45827960006E+02 -0.11408302467E+02  0.19681006552E+02  0.51163398073E+02  0.00000000000E+00 0.  1.
         21    1    1    2  506  503 -0.62774400851E+02 -0.11162774276E+03 -0.11871261774E+03  0.17462549632E+03  0.00000000000E+00 0.  1.
<scales pt_clust_3="71.38518" pt_clust_4="259.87825" pt_clust_5="47.22660" pt_clust_6="71.38518"></scales>
<clustering>
<clus scale="   47.227">  1  5  2 -1</clus>
<clus scale="   71.385">  3  6 -1 -1</clus>
<clus scale="  259.878">  1  4  2 -1</clus>
<clus scale="   47.227">  1  3  2 -1</clus>
</clustering>
</event>
<event>
 6    0  0.6549018E+002  0.1858713E+03  0.7546771E-02  0.1162239E+00
         21   -1    0    0  504  501  0.00000000000E+00  0.00000000000E+00  0.82603732090E+03  0.82603732090E+03  0.00000000000E+00 0. -1.
         21   -1    0    0  503  502 -0.00000000000E+00 -0.00000000000E+00 -0.40078952724E+03  0.40078952724E+03  0.00000000000E+00 0. -1.
         21    1    1    2  503  506 -0.27597886315E+02  0.14952230848E+02 -0.52079450337E+02  0.60806921348E+02  0.00000000000E+00 0. -1.
         21    1    1    2  504  505 -0.63814999503E+02  0.19964360465E+03 -0.28584433941E+02  0.21153485033E+03  0.00000000000E+00 0. -1.
         21    1    1    2  505  502  0.55466021742E+02 -0.17994148053E+03 -0.18370419765E+03  0.26306396222E+03  0.00000000000E+00 0. -1.
         21    1    1    2  506  501  0.35946864076E+02 -0.34654354966E+02  0.68961587559E+03  0.69142111424E+03  0.00000000000E+00 0. -1.
<scales pt_clust_3="31.38810" pt_clust_4="185.87127" pt_clust_5="14000.00000" pt_clust_6="49.85169"></scales>
<clustering>
<clus scale="   31.388">  2  3  1 -1</clus>
<clus scale="   49.852">  1  6  2 -1</clus>
<clus scale="  185.871">  1  4  2 -1</clus>
<clus scale="   49.852">  1  3  2 -1</clus>
</clustering>
</event>
<event>
 6    0  0.6549018E+002  0.8009953E+02  0.7546771E-02  0.1328769E+00
         21   -1    0    0  505  501  0.00000000000E+00  0.00000000000E+00  0.13364708025E+04  0.13364708025E+04  0.00000000000E+00 0.  1.
         21   -1    0    0  506  502 -0.00000000000E+00 -0.00000000000E+00 -0.96970242214E+02  0.96970242214E+02  0.00000000000E+00 0.  1.
         21    1    1    2  503  501 -0.27615299199E+02 -0.43782320206E+02  0.65763535564E+03  0.65966943032E+03  0.00000000000E+00 0. -1.
         21    1    1    2  504  503  0.88710243841E+02 -0.99788054587E+01  0.61896986724E+03  0.62537411241E+03  0.00000000000E+00 0.  1.
         21    1    1    2  505  502  0.22407862205E+02  0.49537431803E+02  0.53398299935E+01  0.54631339198E+02  0.00000000000E+00 0.  1.
         21    1    1    2  506  504 -0.83502806847E+02  0.42236938617E+01 -0.42444492556E+02  0.93766162817E+02  0.00000000000E+00 0.  1.
<scales pt_clust_3="51.76385" pt_clust_4="80.09953" pt_clust_5="52.10249" pt_clust_6="14000.00000"></scales>
<clustering>
<clus scale="   51.764">  1  3  2 -1</clus>
<clus scale="   52.102">  2  5  1 -1</clus>
<clus scale="   80.100">  1  4  2 -1</clus>
<clus scale="   51.764">  1  3  2 -1</clus>
</clustering>
</event>
<event>
 6    0  0.6549018E+002  0.1086496E+03  0.7546771E-02  0.1263091E+00
         21   -1    0    0  504  501  0.00000000000E+00  0.00000000000E+00  0.38158987935E+03  0.38158987935E+03  0.00000000000E+00 0. -1.
         21   -1    0    0  505  502 -0.00000000000E+00 -0.00000000000E+00 -0.55633067799E+02  0.55633067799E+02  0.00000000000E+00 0. -1.
         21    1    1    2  503  501  0.93759774845E+02 -0.35194158319E+02  0.13953731795E+03  0.17175618551E+03  0.00000000000E+00 0. -1.
         21    1    1    2  504  506 -0.33970736313E+02 -0.25609551084E+02  0.70609083400E+02  0.82434839061E+02  0.00000000000E+00 0. -1.
         21    1    1    2  505  503  0.14905882501E+02  0.58075631796E+02  0.23851781076E+02  0.64528069878E+02  0.00000000000E+00 0. -1.
         21    1    1    2  506  502 -0.74694921032E+02  0.27280776061E+01  0.91958629120E+02  0.11850385270E+03  0.00000000000E+00 0. -1.
<scales pt_clust_3="100.93769" pt_clust_4="30.33076" pt_clust_5="59.95802" pt_clust_6="30.33076"></scales>
<clustering>
<clus scale="   30.331">  4  6 -1 -1</clus>
<clus scale="   59.958">  2  5  1 -1</clus>
<clus scale="  100.938">  1  3  2 -1</clus>
<clus scale="  100.938">  1  3  2 -1</clus>
</clustering>
</event>
<event>
 6    0  0.6549018E+002  0.9869802E+02  0.7546771E-02  0.1283058E+00
         21   -1    0    0  505  501  0.00000000000E+00  0.00000000000E+00  0.37491339601E+03  0.37491339601E+03  0.00000000000E+00 0.  1.
         21   -1    0    0  506  502 -0.00000000000E+00 -0.00000000000E+00 -0.11538675297E+03  0.11538675297E+03  0.00000000000E+00 0.  1.
         21    1    1    2  503  504  0.24764717590E+02  0.57626169949E+02 -0.57492633642E+02  0.85085072859E+02  0.00000000000E+00 0.  1.
         21    1    1    2  504  502  0.42367441939E+02  0.20627904079E+02  0.10335389997E+01  0.47133626701E+02  0.00000000000E+00 0.  1.
         21    1    1    2  505  503 -0.70666288331E+01  0.37334464300E+02  0.78644453026E+02  0.87342712686E+02  0.00000000000E+00 0.  1.
         21    1    1    2  506  501 -0.60065530696E+02 -0.11558853833E+03  0.23734128465E+03  0.27073873674E+03  0.00000000000E+00 0.  1.
<scales pt_clust_3="98.69802" pt_clust_4="48.04175" pt_clust_5="37.99736" pt_clust_6="14000.00000"></scales>
<clustering>
<clus scale="   37.997">  1  5  2 -1</clus>
<clus scale="   48.042">  2  4  1 -1</clus>
<clus scale="   98.698">  2  3  1 -1</clus>
<clus scale="   37.997">  1  3  2 -1</clus>
</clustering>
</event>
<event>
 6    0  0.6549018E+002  0.1137792E+03  0.7546771E-02  0.1253727E+00
         21   -1    0    0  506  501  0.00000000000E+00  0.00000000000E+00  0.14923518786E+04  0.14923518786E+04  0.00000000000E+00 0. -1.
         21   -1    0    0  504  502 -0.00000000000E+00 -0.00000000000E+00 -0.78261598957E+02  0.78261598957E+02  0.00000000000E+00 0. -1.
         21    1    1    2  503  502 -0.64061877241E+02 -0.77897600725E+01  0.42840811525E+01  0.64675790130E+02  0.00000000000E+00 0. -1.
         21    1    1    2  504  501 -0.40855846404E+02 -0.16161520270E+02  0.73624157219E+03  0.73755138637E+03  0.00000000000E+00 0. -1.
         21    1    1    2  505  503 -0.36010688347E+02 -0.16402531675E+02 -0.30034908606E+02  0.49678048024E+02  0.00000000000E+00 0. -1.
         21    1    1    2  506  505  0.14092841199E+03  0.40353812017E+02  0.70359953487E+03  0.71870825299E+03  0.00000000000E+00 0. -1.
<scales pt_clust_3="33.35027" pt_clust_4="43.93626" pt_clust_5="33.35027" pt_clust_6="105.50736"></scales>
<clustering>
<clus scale="   33.350">  3  5 -1 -1</clus>
<clus scale="   43.936">  1  4  2 -1</clus>
<clus scale="  105.507">  1  6  2 -1</clus>
<clus scale="   43.936">  1  3  2 -1</clus>
</clustering>
</event>
<event>
 6    0  0.6549018E+002  0.1694035E+03  0.7546771E-02  0.1178471E+00
         21   -1    0    0  503  501  0.00000000000E+00  0.00000000000E+00  0.30750561055E+03  0.30750561055E+03  0.00000000000E+00 0.  1.
         21   -1    0    0  505  502 -0.00000000000E+00 -0.00000000000E+00 -0.12062213680E+04  0.12062213680E+04  0.00000000000E+00 0. -1.
         21    1    1    2  503  504  0.53411580706E+02 -0.24751375963E+02 -0.23463020873E+02  0.63371451885E+02  0.00000000000E+00 0.  1.
         21    1    1    2  504  506  0.19025968533E+02  0.37995135192E+02 -0.19567420426E+03  0.20023489204E+03  0.00000000000E+00 0.  1.
         21    1    1    2  505  501 -0.48223127577E+02 -0.13434071673E+03  0.26313422169E+03  0.29935349811E+03  0.00000000000E+00 0.  1.
         21    1    1    2  506  502 -0.24214421662E+02  0.12109695750E+03 -0.94271275397E+03  0.95076713649E+03  0.00000000000E+00 0. -1.
<scales pt_clust_3="58.86788" pt_clust_4="34.91844" pt_clust_5="158.60004" pt_clust_6="34.91844"></scales>
<clustering>
<clus scale="   34.918">  4  6 -1 -1</clus>
<clus scale="   58.868">  1  3  2 -1</clus>
<clus scale="  158.600">  1  5  2 -1</clus>
<clus scale="   58.868">  1  3  2 -1</clus>
</clustering>
</event>
<event>
 6    0  0.6549018E+002  0.9515379E+02  0.7546771E-02  0.1290830E+00
         21   -1    0    0  505  501  0.00000000000E+00  0.00000000000E+00  0.75379672580E+03  0.75379672580E+03  0.00000000000E+00 0.  1.
         21   -1    0    0  504  502 -0.00000000000E+00 -0.00000000000E+00 -0.29329195516E+02  0.29329195516E+02  0.00000000000E+00 0.  1.
         21    1    1    2  503  502 -0.11318694378E+03  0.22295854176E+02  0.32254047520E+03  0.34255035761E+03  0.00000000000E+00 0.  1.
         21    1    1    2  504  501  0.49074552725E+02 -0.64908814532E+02  0.11756612628E+03  0.14297992859E+03  0.00000000000E+00 0.  1.
         21    1    1    2  505  506  0.43629938904E+02  0.60432610726E+01  0.11559287037E+03  0.12370046182E+03  0.00000000000E+00 0.  1.
         21    1    1    2  506  503  0.20482452156E+02  0.36569699283E+02  0.16876805844E+03  0.17389517331E+03  0.00000000000E+00 0.  1.
<scales pt_clust_3="85.31402" pt_clust_4="81.37239" pt_clust_5="41.10757" pt_clust_6="41.10757"></scales>
<clustering>
<clus scale="   41.108">  5  6 -1 -1</clus>
<clus scale="   81.372">  2  4  1 -1</clus>
<clus scale="   85.314">  2  3  1 -1</clus>
<clus scale="   95.154">  1  3  2 -1</clus>
</clustering>
</event>
<event>
 6    0  0.6549018E+002  0.1277894E+03  0.7546771E-02  0.1230773E+00
         21   -1    0    0  503  501  0.00000000000E+00  0.00000000000E+00  0.63823925925E+03  0.63823925925E+03  0.00000000000E+00 0. -1.
         21   -1    0    0  504  502 -0.00000000000E+00 -0.00000000000E+00 -0.32183874063E+03  0.32183874063E+03  0.00000000000E+00 0.  1.
         21    1    1    2  503  505  0.44658737679E+02  0.13306048675E+02  0.55298070059E+02  0.72314108821E+02  0.00000000000E+00 0. -1.
         21    1    1    2  504  506 -0.37059073011E+02 -0.82368852737E+02  0.34406952653E+03  0.35572720149E+03  0.00000000000E+00 0. -1.
         21    1    1    2  505  502 -0.21345738281E+02  0.11694387950E+03 -0.29298952863E+03  0.31618724734E+03  0.00000000000E+00 0.  1.
         21    1    1    2  506  501  0.13746073613E+02 -0.47881075433E+02  0.21002245067E+03  0.21584944222E+03  0.00000000000E+00 0. -1.
<scales pt_clust_3="46.59886" pt_clust_4="34.62221" pt_clust_5="118.98210" pt_clust_6="34.62221"></scales>
<clustering>
<clus scale="   34.622">  4  6 -1 -1</clus>
<clus scale="   46.599">  1  3  2 -1</clus>
<clus scale="  118.982">  2  5  1 -1</clus>
<clus scale="   46.599">  1  3  2 -1</clus>
</clustering>
</event>
<event>
 6    0  0.6549018E+002  0.7059366E+02  0.7546771E-02  0.1358086E+00
         21   -1    0    0  505  501  0.00000000000E+00  0.00000000000E+00  0.40063408446E+03  0.40063408446E+03  0.00000000000E+00 0.  1.
         21   -1    0    0  506  502 -0.00000000000E+00 -0.00000000000E+00 -0.17168530147E+03  0.17168530147E+03  0.00000000000E+00 0. -1.
         21    1    1    2  503  501 -0.65021923173E+02 -0.15534299143E+02  0.21168644091E+03  0.22199169852E+03  0.00000000000E+00 0.  1.
         21    1    1    2  504  503  0.11590332239E+01 -0.42861292023E+02 -0.18101654997E+02  0.46541418387E+02  0.00000000000E+00 0.  1.
         21    1    1    2  505  502  0.51825006846E+02  0.97952531982E+02  0.14737302653E+03  0.18438909622E+03  0.00000000000E+00 0.  1.
         21    1    1    2  506  504  0.12037883103E+02 -0.39556940816E+02 -0.11200902946E+03  0.11939717281E+03  0.00000000000E+00 0. -1.
<scales pt_clust_3="14000.00000" pt_clust_4="66.19820" pt_clust_5="70.59366" pt_clust_6="41.34806"></scales>
<clustering>
<clus scale="   41.348">  2  6  1 -1</clus>
<clus scale="   66.198">  2  4  1 -1</clus>
<clus scale="   70.594">  2  5  1 -1</clus>
<clus scale="   70.594">  1  3  2 -1</clus>
</clustering>
</event>
<event>
 6    0  0.6549018E+002  0.1336585E+03  0.7546771E-02  0.1222126E+00
         21   -1    0    0  503  501  0.00000000000E+00  0.00000000000E+00  0.84270517556E+03  0.84270517556E+03  0.00000000000E+00 0.  1.
         21   -1    0    0  504  502 -0.00000000000E+00 -0.00000000000E+00 -0.34895645780E+03  0.34895645780E+03  0.00000000000E+00 0.  1.
         21    1    1    2  503  502  0.13927642694E+03 -0.87365019824E+02  0.76502143772E+03  0.78248857497E+03  0.00000000000E+00 0.  1.
         21    1    1    2  504  505 -0.32333212728E+02  0.24050113713E+02 -0.21092852765E+02  0.45483547055E+02  0.00000000000E+00 0. -1.
         21    1    1    2  505  506 -0.87993552876E+02  0.35874286414E+02 -0.29379841160E+03  0.30878364016E+03  0.00000000000E+00 0.  1.
         21    1    1    2  506  501 -0.18949661338E+02  0.27440619697E+02  0.43618544400E+02  0.54905871177E+02  0.00000000000E+00 0. -1.
<scales pt_clust_3="133.65845" pt_clust_4="40.78271" pt_clust_5="14000.00000" pt_clust_6="33.34782"></scales>
<clustering>
<clus scale="   33.348">  1  6  2 -1</clus>
<clus scale="   40.783">  2  4  1 -1</clus>
<clus scale="  133.658">  1  3  2 -1</clus>
<clus scale="   33.348">  1  3  2 -1</clus>
</clustering>
</event>
<event>
 6    0  0.6549018E+002  0.1128417E+03  0.7546771E-02  0.1255396E+00
         21   -1    0    0  506  501  0.00000000000E+00  0.00000000000E+00  0.22216189401E+02  0.22216189401E+02  0.00000000000E+00 0. -1.
         21   -1    0    0  504  502 -0.00000000000E+00 -0.00000000000E+00 -0.28687160491E+04  0.28687160491E+04  0.00000000000E+00 0. -1.
         21    1    1    2  503  505  0.11845875390E+02  0.56419537173E+02 -0.79406179991E+03  0.79615176381E+03  0.00000000000E+00 0. -1.
         21    1    1    2  504  501  0.74293425727E+02 -0.19905848395E+02 -0.55926650723E+03  0.56453058555E+03  0.00000000000E+00 0. -1.
         21    1    1    2  505  502 -0.29287360067E+02  0.46216901317E+02 -0.13711635808E+04  0.13722548294E+04  0.00000000000E+00 0. -1.
         21    1    1    2  506  503 -0.56851941049E+02 -0.82730590095E+02 -0.12200797173E+03  0.15799505975E+03  0.00000000000E+00 0. -1.
<scales pt_clust_3="52.89340" pt_clust_4="76.91395" pt_clust_5="52.89340" pt_clust_6="98.92167"></scales>
<clustering>
<clus scale="   52.893">  3  5 -1 -1</clus>
<clus scale="   76.914">  2  4  1 -1</clus>
<clus scale="   98.922">  1  6  2 -1</clus>
<clus scale="   98.922">  1  3  2 -1</clus>
</clustering>
</event>
<event>
 6    0  0.6549018E+002  0.9201099E+02  0.7546771E-02  0.1298054E+00
         21   -1    0    0  503  501  0.00000000000E+00  0.00000000000E+00  0.10063757178E+04  0.10063757178E+04  0.00000000000E+00 0.  1.
         21   -1    0    0  505  502 -0.00000000000E+00 -0.00000000000E+00 -0.13289843977E+03  0.13289843977E+03  0.00000000000E+00 0. -1.
         21    1    1    2  503  504 -0.14292043685E+02  0.11180038671E+03  0.13459180999E+03  0.17555211277E+03  0.00000000000E+00 0.  1.
         21    1    1    2  504  502  0.50850823022E+02  0.36913720191E+01  0.42775830732E+01  0.51163758133E+02  0.00000000000E+00 0. -1.
         21    1    1    2  505  506 -0.10918501137E+03 -0.67933129183E+02 -0.38779725171E+02  0.13431360256E+03  0.00000000000E+00 0. -1.
         21    1    1    2  506  501  0.72626232031E+02 -0.47558629545E+02  0.77338761017E+03  0.77824468413E+03  0.00000000000E+00 0.  1.
<scales pt_clust_3="14000.00000" pt_clust_4="50.98463" pt_clust_5="92.01099" pt_clust_6="87.71410"></scales>
<clustering>
<clus scale="   50.985">  2  4  1 -1</clus>
<clus scale="   87.714">  1  6  2 -1</clus>
<clus scale="   92.011">  2  5  1 -1</clus>
<clus scale="   87.714">  1  3  2 -1</clus>
</clustering>
</event>
<event>
 6    0  0.6549018E+002  0.1717908E+03  0.7546771E-02  0.1175993E+00
         21   -1    0    0  506  501  0.00000000000E+00  0.00000000000E+00  0.56793083397E+03  0.56793083397E+03  0.00000000000E+00 0. -1.
         21   -1    0    0  505  502 -0.00000000000E+00 -0.00000000000E+00 -0.30491602746E+03  0.30491602746E+03  0.00000000000E+00 0. -1.
         21    1    1    2  503  504 -0.79988490789E+02  0.11819195091E+03  0.17919016817E+03  0.22907774289E+03  0.00000000000E+00 0. -1.
         21    1    1    2  504  502  0.12425672399E+03 -0.12494102106E+03 -0.24076119137E+03  0.29835539793E+03  0.00000000000E+00 0. -1.
         21    1    1    2  505  501  0.32806567053E+02  0.79400349577E+00  0.16322437593E+03  0.16649053481E+03  0.00000000000E+00 0.  1.
         21    1    1    2  506  503 -0.77074800256E+02  0.59550666559E+01  0.16136145377E+03  0.17892318580E+03  0.00000000000E+00 0. -1.
<scales pt_clust_3="171.79076" pt_clust_4="14000.00000" pt_clust_5="32.81617" pt_clust_6="63.53886"></scales>
<clustering>
<clus scale="   32.816">  1  5  2 -1</clus>
<clus scale="   63.539">  1  6  2 -1</clus>
<clus scale="  171.791">  1  3  2 -1</clus>
<clus scale="   32.816">  1  3  2 -1</clus>
</clustering>
</event>
<event>
 6    0  0.6549018E+002  0.9237758E+02  0.7546771E-02  0.1297194E+00
         21   -1    0    0  505  501  0.00000000000E+00  0.00000000000E+00  0.40932688411E+03  0.40932688411E+03  0.00000000000E+00 0.  1.
         21   -1    0    0  504  502 -0.00000000000E+00 -0.00000000000E+00 -0.15282670339E+04  0.15282670339E+04  0.00000000000E+00 0.  1.
         21    1    1    2  503  501  0.72588161310E+01 -0.38804200997E+02  0.19669682364E+03  0.20061928336E+03  0.00000000000E+00 0.  1.
         21    1    1    2  504  503  0.19405176979E+02 -0.83152460899E+02 -0.65292045976E+03  0.65848008279E+03  0.00000000000E+00 0.  1.
         21    1    1    2  505  506  0.34698278431E+02  0.37684389446E+02  0.20155302095E+03  0.20796082320E+03  0.00000000000E+00 0.  1.
         21    1    1    2  506  502 -0.61362271540E+02  0.84272272449E+02 -0.86426953459E+03  0.87053372864E+03  0.00000000000E+00 0.  1.
<scales pt_clust_3="39.47729" pt_clust_4="92.37758" pt_clust_5="41.75340" pt_clust_6="14000.00000"></scales>
<clustering>
<clus scale="   39.477">  1  3  2 -1</clus>
<clus scale="   41.753">  1  5  2 -1</clus>
<clus scale="   92.378">  2  4  1 -1</clus>
<clus scale="   39.477">  1  3  2 -1</clus>
</clustering>
</event>
<event>
 6    0  0.6549018E+002  0.9851541E+02  0.7546771E-02  0.1283449E+00
         21   -1    0    0  506  501  0.00000000000E+00  0.00000000000E+00  0.72045882012E+03  0.72045882012E+03  0.00000000000E+00 0.  1.
         21   -1    0    0  505  502 -0.00000000000E+00 -0.00000000000E+00 -0.93235608007E+02  0.93235608007E+02  0.00000000000E+00 0.  1.
         21    1    1    2  503  501 -0.82372386740E+02  0.65293625686E+02  0.59356330670E+03  0.60279836323E+03  0.00000000000E+00 0.  1.
         21    1    1    2  504  502  0.40226234639E+02 -0.25402010001E+02 -0.54613575089E+02  0.72429653108E+02  0.00000000000E+00 0.  1.
         21    1    1    2  505  503  0.65521194419E+02 -0.17619984763E+02  0.35436163588E+02  0.76545492820E+02  0.00000000000E+00 0.  1.
         21    1    1    2  506  504 -0.23375042318E+02 -0.22271630922E+02  0.52837316912E+02  0.61920918967E+02  0.00000000000E+00 0. -1.
<scales pt_clust_3="14000.00000" pt_clust_4="47.47143" pt_clust_5="98.51541" pt_clust_6="32.28650"></scales>
<clustering>
<clus scale="   32.287">  1  6  2 -1</clus>
<clus scale="   47.471">  2  4  1 -1</clus>
<clus scale="   98.515">  2  5  1 -1</clus>
<clus scale="   32.287">  1  3  2 -1</clus>
</clustering>
</event>
<event>
 6    0  0.6549018E+002  0.1809040E+03  0.7546771E-02  0.1166931E+00
         21   -1    0    0  503  501  0.00000000000E+00  0.00000000000E+00  0.47876788110E+03  0.47876788110E+03  0.00000000000E+00 0.  1.
         21   -1    0    0  501  502 -0.00000000000E+00 -0.00000000000E+00 -0.14776774950E+03  0.14776774950E+03  0.00000000000E+00 0.  1.
         21    1    1    2  503  506 -0.33124535635E+02 -0.18655622918E+02  0.19335013217E+03  0.19705212696E+03  0.00000000000E+00 0.  1.
         21    1    1    2  504  505 -0.78007019296E+02 -0.41621553088E+02  0.71883259055E+01  0.88708064854E+02  0.00000000000E+00 0.  1.
         21    1    1    2  505  502 -0.59900086188E+02 -0.51589702810E+02 -0.26186882483E+02  0.83278271929E+02  0.00000000000E+00 0.  1.
         21    1    1    2  506  504  0.17103164112E+03  0.11186687882E+03  0.15664855600E+03  0.25749716685E+03  0.00000000000E+00 0.  1.
<scales pt_clust_3="38.01667" pt_clust_4="36.76381" pt_clust_5="36.76381" pt_clust_6="176.67653"></scales>
<clustering>
<clus scale="   36.764">  4  5 -1 -1</clus>
<clus scale="   38.017">  1  3  2 -1</clus>
<clus scale="  176.677">  1  6  2 -1</clus>
<clus scale="   38.017">  1  3  2 -1</clus>
</clustering>
</event>
<event>
 6    0  0.6549018E+002  0.1502986E+03  0.7546771E-02  0.1200107E+00
         21   -1    0    0  505  501  0.00000000000E+00  0.00000000000E+00  0.23790329548E+03  0.23790329548E+03  0.00000000000E+00 0. -1.
         21   -1    0    0  504  502 -0.00000000000E+00 -0.00000000000E+00 -0.20942048905E+03  0.20942048905E+03  0.00000000000E+00 0. -1.
         21    1    1    2  503  501 -0.25865323109E+02  0.18570662092E+02  0.59360157601E+02  0.67361062495E+02  0.00000000000E+00 0. -1.
         21    1    1    2  504  506  0.62363197431E+02  0.66946546967E+02 -0.11498414981E+03  0.14694340152E+03  0.00000000000E+00 0. -1.
         21    1    1    2  505  502 -0.38101564918E+02 -0.13678312673E+03  0.10605876980E+03  0.17722814579E+03  0.00000000000E+00 0. -1.
         21    1    1    2  506  503  0.16036905956E+01  0.51265917674E+02 -0.21951971172E+02  0.55791174721E+02  0.00000000000E+00 0. -1.
<scales pt_clust_3="31.84155" pt_clust_4="49.93831" pt_clust_5="135.29902" pt_clust_6="49.93831"></scales>
<clustering>
<clus scale="   31.842">  1  3  2 -1</clus>
<clus scale="   49.938">  4  6 -1 -1</clus>
<clus scale="  135.299">  1  5  2 -1</clus>
<clus scale="   31.842">  1  3  2 -1</clus>
</clustering>
</event>
<event>
 6    0  0.6549018E+002  0.9623141E+02  0.7546771E-02  0.1288426E+00
         21   -1    0    0  504  501  0.00000000000E+00  0.00000000000E+00  0.11458521593E+04  0.11458521593E+04  0.00000000000E+00 0. -1.
         21   -1    0    0  505  502 -0.00000000000E+00 -0.00000000000E+00 -0.22957416308E+03  0.22957416308E+03  0.00000000000E+00 0. -1.
         21    1    1    2  503  502  0.17867366487E+02  0.76679194865E+02 -0.16816433218E+03  0.18568302111E+03  0.00000000000E+00 0. -1.
         21    1    1    2  504  506 -0.73336817988E+02 -0.69905130115E+02  0.10697341081E+04  0.10745213251E+04  0.00000000000E+00 0. -1.
         21    1    1    2  505  501  0.96438412125E+01 -0.43955380402E+02 -0.17151630922E+02  0.48158670900E+02  0.00000000000E+00 0. -1.
         21    1    1    2  506  503  0.45825610289E+02  0.37181315651E+02  0.31859851197E+02  0.67063305243E+02  0.00000000000E+00 0. -1.
<scales pt_clust_3="45.68177" pt_clust_4="14000.00000" pt_clust_5="45.00088" pt_clust_6="96.23141"></scales>
<clustering>
<clus scale="   45.001">  2  5  1 -1</clus>
<clus scale="   45.682">  2  3  1 -1</clus>
<clus scale="   96.231">  2  6  1 -1</clus>
<clus scale="   96.231">  1  3  2 -1</clus>
</clustering>
</event>
<event>
 6    0  0.6549018E+002  0.1020372E+03  0.7546771E-02  0.1276069E+00
         21   -1    0    0  504  501  0.00000000000E+00  0.00000000000E+00  0.89281962807E+02  0.89281962807E+02  0.00000000000E+00 0. -1.
         21   -1    0    0  503  502 -0.00000000000E+00 -0.00000000000E+00 -0.13273098587E+04  0.13273098587E+04  0.00000000000E+00 0. -1.
         21    1    1    2  503  505  0.50855953966E+02 -0.82406537135E+02 -0.18432423310E+03  0.20821284380E+03  0.00000000000E+00 0. -1.
         21    1    1    2  504  506 -0.41337193931E+02  0.95625198747E+02  0.26167366197E+02  0.10741356195E+03  0.00000000000E+00 0. -1.
         21    1    1    2  505  501 -0.10689612330E+03  0.24696309309E+02 -0.58084600652E+03  0.59111654702E+03  0.00000000000E+00 0. -1.
         21    1    1    2  506  502  0.97377363265E+02 -0.37914970921E+02 -0.49902502244E+03  0.50984886870E+03  0.00000000000E+00 0. -1.
<scales pt_clust_3="96.83577" pt_clust_4="102.03724" pt_clust_5="82.53437" pt_clust_6="14000.00000"></scales>
<clustering>
<clus scale="   96.836">  2  3  1 -1</clus>
<clus scale="   82.534">  2  5  1 -1</clus>
<clus scale="  102.037">  1  4  2 -1</clus>
<clus scale="  102.037">  1  3  2 -1</clus>
</clustering>
</event>
<event>
 6    0  0.6549018E+002  0.1390069E+03  0.7546771E-02  0.1214672E+00
         21   -1    0    0  506  501  0.00000000000E+00  0.00000000000E+00  0.14855077074E+04  0.14855077074E+04  0.00000000000E+00 0. -1.
         21   -1    0    0  504  502 -0.00000000000E+00 -0.00000000000E+00 -0.48120066199E+03  0.48120066199E+03  0.00000000000E+00 0. -1.
         21    1    1    2  503  502 -0.12175167020E+03  0.70063328647E+02 -0.28920133197E+03  0.32151166329E+03  0.00000000000E+00 0. -1.
         21    1    1    2  504  501  0.58547409478E+02  0.79412109213E+00 -0.57294142012E+02  0.81920989336E+02  0.00000000000E+00 0. -1.
         21    1    1    2  505  503  0.76098805019E+02 -0.12787164932E+03 -0.53222623028E+02  0.15803428244E+03  0.00000000000E+00 0. -1.
         21    1    1    2  506  505 -0.12894544293E+02  0.57014199577E+02  0.14040251424E+04  0.14052414343E+04  0.00000000000E+00 0. -1.
<scales pt_clust_3="14000.00000" pt_clust_4="57.37193" pt_clust_5="139.00685" pt_clust_6="58.45415"></scales>
<clustering>
<clus scale="   58.454">  1  6  2 -1</clus>
<clus scale="   57.372">  1  4  2 -1</clus>
<clus scale="  139.007">  1  5  2 -1</clus>
<clus scale="   58.454">  1  3  2 -1</clus>
</clustering>
</event>
<event>
 6    0  0.6549018E+002  0.2022082E+03  0.7546771E-02  0.1147889E+00
         21   -1    0    0  504  501  0.00000000000E+00  0.00000000000E+00  0.22676279069E+04  0.22676279069E+04  0.00000000000E+00 0. -1.
         21   -1    0    0  503  502 -0.00000000000E+00 -0.00000000000E+00 -0.27183701196E+03  0.27183701196E+03  0.00000000000E+00 0. -1.
         21    1    1    2  503  506 -0.13663527914E+02 -0.69950299905E+02 -0.22684614400E+03  0.23777911915E+03  0.00000000000E+00 0. -1.
         21    1    1    2  504  505 -0.62971312975E+02  0.16848040008E+03  0.30804416232E+03  0.35671029900E+03  0.00000000000E+00 0. -1.
         21    1    1    2  505  502 -0.53459469530E+02  0.15428494983E+02  0.58106605372E+02  0.80450798179E+02  0.00000000000E+00 0. -1.
         21    1    1    2  506  501  0.13009431042E+03 -0.11395859516E+03  0.18564862713E+04  0.18645247026E+04  0.00000000000E+00 0. -1.
<scales pt_clust_3="71.27227" pt_clust_4="54.67940" pt_clust_5="54.67940" pt_clust_6="176.70124"></scales>
<clustering>
<clus scale="   54.679">  4  5 -1 -1</clus>
<clus scale="   71.272">  2  3  1 -1</clus>
<clus scale="  176.701">  1  6  2 -1</clus>
<clus scale="  176.701">  1  3  2 -1</clus>
</clustering>
</event>
<event>
 6    0  0.6549018E+002  0.9777656E+02  0.7546771E-02  0.1285042E+00
         21   -1    0    0  503  501  0.00000000000E+00  0.00000000000E+00  0.33973536496E+03  0.33973536496E+03  0.00000000000E+00 0.  1.
         21   -1    0    0  504  502 -0.00000000000E+00 -0.00000000000E+00 -0.42737059848E+03  0.42737059848E+03  0.00000000000E+00 0.  1.
         21    1    1    2  503  502  0.36162414610E+02  0.14523806912E+03 -0.11195330792E+03  0.18691003212E+03  0.00000000000E+00 0.  1.
         21    1    1    2  504  505 -0.30956505382E+02 -0.25530664077E+02 -0.20431021019E+03  0.20821330894E+03  0.00000000000E+00 0.  1.
         21    1    1    2  505  506 -0.31523996518E+02 -0.27363931430E+02 -0.56997486534E+02  0.70648853996E+02  0.00000000000E+00 0.  1.
         21    1    1    2  506  501  0.26318087290E+02 -0.92343473612E+02  0.28562577113E+03  0.30133376839E+03  0.00000000000E+00 0.  1.
<scales pt_clust_3="14000.00000" pt_clust_4="40.12630" pt_clust_5="53.32342" pt_clust_6="97.77656"></scales>
<clustering>
<clus scale="   40.126">  2  4  1 -1</clus>
<clus scale="   53.323">  2  5  1 -1</clus>
<clus scale="   97.777">  1  6  2 -1</clus>
<clus scale="   97.777">  1  3  2 -1</clus>
</clustering>
</event>
<event>
 6    0  0.6549018E+002  0.1271769E+03  0.7546771E-02  0.1231706E+00
         21   -1    0    0  503  501  0.00000000000E+00  0.00000000000E+00  0.11460437343E+04  0.11460437343E+04  0.00000000000E+00 0. -1.
         21   -1    0    0  506  502 -0.00000000000E+00 -0.00000000000E+00 -0.93415428495E+03  0.93415428495E+03  0.00000000000E+00 0.  1.
         21    1    1    2  503  505 -0.49368926517E+02  0.48305601313E+02  0.30149216566E+03  0.30930284185E+03  0.00000000000E+00 0.  1.
         21    1    1    2  504  501 -0.77933968073E+02 -0.32960076050E+02  0.82668047913E+03  0.83099981021E+03  0.00000000000E+00 0. -1.
         21    1    1    2  505  502  0.10059838977E+03 -0.86119486143E+02 -0.63162253275E+03  0.64535542594E+03  0.00000000000E+00 0.  1.
         21    1    1    2  506  504  0.26704504815E+02  0.70773960881E+02 -0.28466066268E+03  0.29453994125E+03  0.00000000000E+00 0.  1.
<scales pt_clust_3="69.07041" pt_clust_4="14000.00000" pt_clust_5="127.17690" pt_clust_6="75.80853"></scales>
<clustering>
<clus scale="   69.070">  1  3  2 -1</clus>
<clus scale="   75.809">  2  6  1 -1</clus>
<clus scale="  127.177">  2  5  1 -1</clus>
<clus scale="   69.070">  1  3  2 -1</clus>
</clustering>
</event>
<event>
 6    0  0.6549018E+002  0.1128800E+03  0.7546771E-02  0.1255328E+00
         21   -1    0    0  505  501  0.00000000000E+00  0.00000000000E+00  0.22269784197E+04  0.22269784197E+04  0.00000000000E+00 0.  1.
         21   -1    0    0  503  502 -0.00000000000E+00 -0.00000000000E+00 -0.30483434290E+03  0.30483434290E+03  0.00000000000E+00 0.  1.
         21    1    1    2  503  506 -0.49476199600E+02 -0.59634677260E+02 -0.22923137378E+03  0.24197357663E+03  0.00000000000E+00 0.  1.
         21    1    1    2  504  502 -0.15787143651E+02  0.31717101114E+02 -0.42473337025E+02  0.55309969859E+02  0.00000000000E+00 0. -1.
         21    1    1    2  505  504  0.30016760637E+02  0.11231408410E+03  0.21009473015E+04  0.21041613587E+04  0.00000000000E+00 0.  1.
         21    1    1    2  506  501  0.35246582614E+02 -0.84396507958E+02  0.92901486020E+02  0.13036785741E+03  0.00000000000E+00 0.  1.
<scales pt_clust_3="70.87735" pt_clust_4="35.42892" pt_clust_5="14000.00000" pt_clust_6="112.88002"></scales>
<clustering>
<clus scale="   35.429">  2  4  1 -1</clus>
<clus scale="   70.877">  2  3  1 -1</clus>
<clus scale="  112.880">  2  6  1 -1</clus>
<clus scale="  112.880">  1  3  2 -1</clus>
</clustering>
</event>
<event>
 6    0  0.6549018E+002  0.9725044E+02  0.7546771E-02  0.1286186E+00
         21   -1    0    0  504  501  0.00000000000E+00  0.00000000000E+00  0.13900886608E+04  0.13900886608E+04  0.00000000000E+00 0.  1.
         21   -1    0    0  505  502 -0.00000000000E+00 -0.00000000000E+00 -0.25256143651E+02  0.25256143651E+02  0.00000000000E+00 0.  1.
         21    1    1    2  503  502 -0.12531690028E+03 -0.15161516353E+02  0.25034446527E+03  0.28036859376E+03  0.00000000000E+00 0.  1.
         21    1    1    2  504  503 -0.80408107895E+01  0.45117041150E+02  0.18907079511E+03  0.19454554120E+03  0.00000000000E+00 0.  1.
         21    1    1    2  505  506  0.45437544925E+02 -0.35648640101E+02  0.16278790826E+03  0.17272897587E+03  0.00000000000E+00 0.  1.
         21    1    1    2  506  501  0.87920166141E+02  0.56931153033E+01  0.76262934855E+03  0.76770169366E+03  0.00000000000E+00 0.  1.
<scales pt_clust_3="14000.00000" pt_clust_4="45.82796" pt_clust_5="53.14059" pt_clust_6="97.25044"></scales>
<clustering>
<clus scale="   45.828">  1  4  2 -1</clus>
<clus scale="   53.141">  2  5  1 -1</clus>
<clus scale="   97.250">  1  6  2 -1</clus>
<clus scale="   45.828">  1  3  2 -1</clus>
</clustering>
</event>
<event>
 6    0  0.6549018E+002  0.7707916E+02  0.7546771E-02  0.1337551E+00
         21   -1    0    0  504  501  0.00000000000E+00  0.00000000000E+00  0.19521869771E+03  0.19521869771E+03  0.00000000000E+00 0. -1.
         21   -1    0    0  505  502 -0.00000000000E+00 -0.00000000000E+00 -0.15601268894E+03  0.15601268894E+03  0.00000000000E+00 0. -1.
         21    1    1    2  503  501  0.74745267096E+02  0.69654819893E+02  0.80930140439E+02  0.13033931302E+03  0.00000000000E+00 0. -1.
         21    1    1    2  504  506  0.15924344353E+02 -0.58880125942E+02  0.49856044065E+02  0.78778671630E+02  0.00000000000E+00 0. -1.
         21    1    1    2  505  503 -0.39455666638E+02 -0.27677137425E+02 -0.19266487414E+02  0.51903478720E+02  0.00000000000E+00 0. -1.
         21    1    1    2  506  502 -0.51213944810E+02  0.16902443473E+02 -0.72313688329E+02  0.90209923280E+02  0.00000000000E+00 0. -1.
<scales pt_clust_3="14000.00000" pt_clust_4="63.20153" pt_clust_5="48.19516" pt_clust_6="77.07916"></scales>
<clustering>
<clus scale="   48.195">  2  5  1 -1</clus>
<clus scale="   63.202">  1  4  2 -1</clus>
<clus scale="   77.079">  2  6  1 -1</clus>
<clus scale="   63.202">  1  3  2 -1</clus>
</clustering>
</event>
<event>
 6    0  0.6549018E+002  0.8324977E+02  0.7546771E-02  0.1320074E+00
         21   -1    0    0  503  501  0.00000000000E+00  0.00000000000E+00  0.95315713424E+02  0.95315713424E+02  0.00000000000E+00 0.  1.
         21   -1    0    0  504  502 -0.00000000000E+00 -0.00000000000E+00 -0.71289993619E+03  0.71289993619E+03  0.00000000000E+00 0. -1.
         21    1    1    2  503  502  0.22180612125E+02  0.12747792476E+03 -0.11745430592E+02  0.12992519384E+03  0.00000000000E+00 0.  1.
         21    1    1    2  504  506 -0.30588941185E+02 -0.10277798017E+01 -0.28384887159E+03  0.28549417079E+03  0.00000000000E+00 0. -1.
         21    1    1    2  505  501  0.26850054834E+02 -0.59383085714E+02 -0.18606433655E+01  0.65197686365E+02  0.00000000000E+00 0.  1.
         21    1    1    2  506  505 -0.18441725774E+02 -0.67067059239E+02 -0.32012927722E+03  0.32759859862E+03  0.00000000000E+00 0. -1.
<scales pt_clust_3="83.24977" pt_clust_4="30.60620" pt_clust_5="64.29590" pt_clust_6="14000.00000"></scales>
<clustering>
<clus scale="   30.606">  2  4  1 -1</clus>
<clus scale="   64.296">  1  5  2 -1</clus>
<clus scale="   83.250">  1  3  2 -1</clus>
<clus scale="   64.296">  1  3  2 -1</clus>
</clustering>
</event>
<event>
 6    0  0.6549018E+002  0.7073287E+02  0.7546771E-02  0.1357618E+00
         21   -1    0    0  504  501  0.00000000000E+00  0.00000000000E+00  0.19891107403E+02  0.19891107403E+02  0.00000000000E+00 0. -1.
         21   -1    0    0  505  502 -0.00000000000E+00 -0.00000000000E+00 -0.14318863256E+04  0.14318863256E+04  0.00000000000E+00 0. -1.
         21    1    1    2  503  502  0.52393950121E+02  0.52195209317E+02 -0.53049511007E+03  0.53562536132E+03  0.00000000000E+00 0. -1.
         21    1    1    2  504  506  0.57158304678E+02 -0.73243247883E+02 -0.17561102448E+03  0.19867278896E+03  0.00000000000E+00 0. -1.
         21    1    1    2  505  501 -0.48465548471E+02  0.20777826673E+02 -0.49848059780E+03  0.50126194136E+03  0.00000000000E+00 0. -1.
         21    1    1    2  506  503 -0.61086706327E+02  0.27021189242E+00 -0.20740848581E+03  0.21621734133E+03  0.00000000000E+00 0. -1.
<scales pt_clust_3="68.66541" pt_clust_4="14000.00000" pt_clust_5="52.73166" pt_clust_6="70.73287"></scales>
<clustering>
<clus scale="   52.732">  2  5  1 -1</clus>
<clus scale="   68.665">  2  3  1 -1</clus>
<clus scale="   70.733">  2  6  1 -1</clus>
<clus scale="   70.733">  1  3  2 -1</clus>
</clustering>
</event>
<event>
 6    0  0.6549018E+002  0.7819380E+02  0.7546771E-02  0.1334257E+00
         21   -1    0    0  506  501  0.00000000000E+00  0.00000000000E+00  0.61493040514E+02  0.61493040514E+02  0.00000000000E+00 0.  1.
         21   -1    0    0  503  502 -0.00000000000E+00 -0.00000000000E+00 -0.69537658394E+03  0.69537658394E+03  0.00000000000E+00 0. -1.
         21    1    1    2  503  505  0.54730947637E+02 -0.18559030507E+02 -0.19010535361E+03  0.19869564593E+03  0.00000000000E+00 0. -1.
         21    1    1    2  504  502  0.24953577425E+02  0.47526522776E+02 -0.35659060569E+03  0.36060825207E+03  0.00000000000E+00 0. -1.
         21    1    1    2  505  501 -0.12165773047E+03  0.65093084867E+01 -0.53145331014E+02  0.13291877477E+03  0.00000000000E+00 0.  1.
         21    1    1    2  506  504  0.41973205404E+02 -0.35476800756E+02 -0.34042253110E+02  0.64646951672E+02  0.00000000000E+00 0. -1.
<scales pt_clust_3="78.19380" pt_clust_4="53.67915" pt_clust_5="14000.00000" pt_clust_6="53.80563"></scales>
<clustering>
<clus scale="   53.679">  2  4  1 -1</clus>
<clus scale="   53.806">  1  6  2 -1</clus>
<clus scale="   78.194">  2  3  1 -1</clus>
<clus scale="   53.806">  1  3  2 -1</clus>
</clustering>
</event>
<event>
 6    0  0.6549018E+002  0.1086251E+03  0.7546771E-02  0.1263137E+00
         21   -1    0    0  504  501  0.00000000000E+00  0.00000000000E+00  0.81155115277E+03  0.81155115277E+03  0.00000000000E+00 0.  1.
         21   -1    0    0  503  502 -0.00000000000E+00 -0.00000000000E+00 -0.20902251900E+03  0.20902251900E+03  0.00000000000E+00 0.  1.
         21    1    1    2  503  506  0.43334949708E+02  0.96438082425E+02 -0.15160447089E+03  0.18483002246E+03  0.00000000000E+00 0.  1.
         21    1    1    2  504  505 -0.29972693644E+02  0.33634085987E+02  0.57350593245E+03  0.57527269069E+03  0.00000000000E+00 0.  1.
         21    1    1    2  505  502  0.55248353697E+01 -0.15554233779E+03  0.15554317641E+03  0.22004004721E+03  0.00000000000E+00 0.  1.
         21    1    1    2  506  501 -0.18887091434E+02  0.25470169374E+02  0.25083995809E+02  0.40430911399E+02  0.00000000000E+00 0.  1.
<scales pt_clust_3="108.62507" pt_clust_4="68.37559" pt_clust_5="14000.00000" pt_clust_6="31.70886"></scales>
<clustering>
<clus scale="   31.709">  1  6  2 -1</clus>
<clus scale="   68.376">  1  4  2 -1</clus>
<clus scale="  108.625">  2  3  1 -1</clus>
<clus scale="   31.709">  1  3  2 -1</clus>
</clustering>
</event>
<event>
 6    0  0.6549018E+002  0.7680542E+02  0.7546771E-02  0.1338370E+00
         21   -1    0    0  505  501  0.00000000000E+00  0.00000000000E+00  0.63831034164E+03  0.63831034164E+03  0.00000000000E+00 0.  1.
         21   -1    0    0  503  502 -0.00000000000E+00 -0.00000000000E+00 -0.75498420513E+02  0.75498420513E+02  0.00000000000E+00 0.  1.
         21    1    1    2  503  501 -0.28311424346E+02 -0.58600294378E+02  0.10051961063E+03  0.11974858401E+03  0.00000000000E+00 0.  1.
         21    1    1    2  504  506 -0.40310204370E+02  0.79823911099E+02  0.54256245089E+02  0.10459689044E+03  0.00000000000E+00 0.  1.
         21    1    1    2  505  504  0.18315605938E+02  0.31178986292E+02  0.41492367248E+03  0.41649639205E+03  0.00000000000E+00 0.  1.
         21    1    1    2  506  502  0.50306022778E+02 -0.52402603013E+02 -0.68876070722E+01  0.72966895654E+02  0.00000000000E+00 0.  1.
<scales pt_clust_3="47.27104" pt_clust_4="76.80542" pt_clust_5="36.16062" pt_clust_6="14000.00000"></scales>
<clustering>
<clus scale="   36.161">  1  5  2 -1</clus>
<clus scale="   47.271">  1  3  2 -1</clus>
<clus scale="   76.805">  1  4  2 -1</clus>
<clus scale="   36.161">  1  3  2 -1</clus>
</clustering>
</event>
<event>
 6    0  0.6549018E+002  0.8758723E+02  0.7546771E-02  0.1308802E+00
         21   -1    0    0  506  501  0.00000000000E+00  0.00000000000E+00  0.67947651049E+02  0.67947651049E+02  0.00000000000E+00 0. -1.
         21   -1    0    0  504  502 -0.00000000000E+00 -0.00000000000E+00 -0.53254620820E+03  0.53254620820E+03  0.00000000000E+00 0.  1.
         21    1    1    2  503  502  0.19138508595E+02  0.29804915115E+02 -0.61111790144E+02  0.70634739122E+02  0.00000000000E+00 0. -1.
         21    1    1    2  504  505  0.13354323599E+02 -0.10873461274E+03 -0.38406022529E+03  0.39937928166E+03  0.00000000000E+00 0.  1.
         21    1    1    2  505  501 -0.31566530610E+02 -0.43824743720E+01 -0.33212618670E+02  0.46029664080E+02  0.00000000000E+00 0.  1.
         21    1    1    2  506  503 -0.92630158405E+00  0.83312171994E+02  0.13786076954E+02  0.84450174392E+02  0.00000000000E+00 0. -1.
<scales pt_clust_3="33.86732" pt_clust_4="87.58723" pt_clust_5="31.86929" pt_clust_6="14000.00000"></scales>
<clustering>
<clus scale="   31.869">  1  5  2 -1</clus>
<clus scale="   33.867">  2  3  1 -1</clus>
<clus scale="   87.587">  2  4  1 -1</clus>
<clus scale="   31.869">  1  3  2 -1</clus>
</clustering>
</event>
<event>
 6    0  0.6549018E+002  0.1110079E+03  0.7546771E-02  0.1258715E+00
         21   -1    0    0  506  501  0.00000000000E+00  0.00000000000E+00  0.18303466477E+03  0.18303466477E+03  0.00000000000E+00 0. -1.
         21   -1    0    0  504  502 -0.00000000000E+00 -0.00000000000E+00 -0.97399195739E+02  0.97399195739E+02  0.00000000000E+00 0. -1.
         21    1    1    2  503  502  0.96347343566E+02  0.51490303850E+02  0.81796252390E+01  0.10954893095E+03  0.00000000000E+00 0. -1.
         21    1    1    2  504  501 -0.34819042984E+02  0.16362757245E+02  0.50546285175E+02  0.63521905859E+02  0.00000000000E+00 0. -1.
         21    1    1    2  505  503 -0.28593253051E+01 -0.37929728597E+02  0.84321657346E+01  0.38960768365E+02  0.00000000000E+00 0.  1.
         21    1    1    2  506  505 -0.58668975277E+02 -0.29923332498E+02  0.18477392886E+02  0.68402255340E+02  0.00000000000E+00 0. -1.
<scales pt_clust_3="99.54811" pt_clust_4="38.47214" pt_clust_5="37.33089" pt_clust_6="37.33089"></scales>
<clustering>
<clus scale="   37.331">  5  6 -1 -1</clus>
<clus scale="   38.472">  1  4  2 -1</clus>
<clus scale="   99.548">  2  3  1 -1</clus>
<clus scale="   38.472">  1  3  2 -1</clus>
</clustering>
</event>
<event>
 6    0  0.6549018E+002  0.8039592E+02  0.7546771E-02  0.1327932E+00
         21   -1    0    0  506  501  0.00000000000E+00  0.00000000000E+00  0.18270262712E+03  0.18270262712E+03  0.00000000000E+00 0. -1.
         21   -1    0    0  503  502 -0.00000000000E+00 -0.00000000000E+00 -0.82329473602E+03  0.82329473602E+03  0.00000000000E+00 0.  1.
         21    1    1    2  503  505  0.13746909226E+02 -0.83143343892E+02 -0.65450310239E+03  0.65990613286E+03  0.00000000000E+00 0.  1.
         21    1    1    2  504  501 -0.46272851812E+02  0.15610323764E+01  0.18837957025E+02  0.49984820314E+02  0.00000000000E+00 0. -1.
         21    1    1    2  505  504  0.59887865224E+02  0.66598237387E+02 -0.13518595319E+03  0.16216387873E+03  0.00000000000E+00 0. -1.
         21    1    1    2  506  502 -0.27361922638E+02  0.14984074128E+02  0.13025898965E+03  0.13394253123E+03  0.00000000000E+00 0. -1.
<scales pt_clust_3="14000.00000" pt_clust_4="65.93565" pt_clust_5="80.39592" pt_clust_6="31.19611"></scales>
<clustering>
<clus scale="   31.196">  1  6  2 -1</clus>
<clus scale="   65.936">  1  4  2 -1</clus>
<clus scale="   80.396">  1  5  2 -1</clus>
<clus scale="   31.196">  1  3  2 -1</clus>
</clustering>
</event>
<event>
 6    0  0.6549018E+002  0.1084606E+03  0.7546771E-02  0.1263447E+00
         21   -1    0    0  502  501  0.00000000000E+00  0.00000000000E+00  0.48973131254E+02  0.48973131254E+02  0.00000000000E+00 0. -1.
         21   -1    0    0  503  502 -0.00000000000E+00 -0.00000000000E+00 -0.87847292776E+03  0.87847292776E+03  0.00000000000E+00 0.  1.
         21    1    1    2  503  506 -0.28425699134E+02 -0.27514420746E+02 -0.13362387755E+03  0.13935711095E+03  0.00000000000E+00 0.  1.
         21    1    1    2  504  505  0.23828385396E+02  0.23778718511E+02 -0.16688749128E+03  0.17024880073E+03  0.00000000000E+00 0.  1.
         21    1    1    2  505  501  0.26388217671E+02 -0.88123762135E+02 -0.12548434637E+02  0.92841793910E+02  0.00000000000E+00 0. -1.
         21    1    1    2  506  504 -0.21790903932E+02  0.91859464370E+02 -0.51643999304E+03  0.52499835343E+03  0.00000000000E+00 0.  1.
<scales pt_clust_3="39.56089" pt_clust_4="33.00927" pt_clust_5="93.31604" pt_clust_6="33.00927"></scales>
<clustering>
<clus scale="   33.009">  4  6 -1 -1</clus>
<clus scale="   39.561">  2  3  1 -1</clus>
<clus scale="   93.316">  1  5  2 -1</clus>
<clus scale="   93.316">  1  3  2 -1</clus>
</clustering>
</event>
<event>
 6    0  0.6549018E+002  0.1447829E+03  0.7546771E-02  0.1207034E+00
         21   -1    0    0  503  501  0.00000000000E+00  0.00000000000E+00  0.53570381124E+03  0.53570381124E+03  0.00000000000E+00 0.  1.
         21   -1    0    0  505  502 -0.00000000000E+00 -0.00000000000E+00 -0.15099659342E+04  0.15099659342E+04  0.00000000000E+00 0. -1.
         21    1    1    2  503  504 -0.79519342988E+02  0.56702760480E+01 -0.13013480258E+04  0.13037876216E+04  0.00000000000E+00 0. -1.
         21    1    1    2  504  502 -0.33836360424E+02  0.65758109963E+02 -0.19047691317E+03  0.20432934876E+03  0.00000000000E+00 0.  1.
         21    1    1    2  505  506  0.85251682544E+02 -0.55673490948E+02  0.28244108840E+03  0.30023383452E+03  0.00000000000E+00 0.  1.
         21    1    1    2  506  501  0.28104020868E+02 -0.15754895063E+02  0.23512172767E+03  0.23731894052E+03  0.00000000000E+00 0.  1.
<scales pt_clust_3="133.49868" pt_clust_4="73.95288" pt_clust_5="31.52211" pt_clust_6="31.52211"></scales>
<clustering>
<clus scale="   31.522">  5  6 -1 -1</clus>
<clus scale="   73.953">  2  4  1 -1</clus>
<clus scale="  133.499">  2  3  1 -1</clus>
<clus scale="  144.783">  1  3  2 -1</clus>
</clustering>
</event>
<event>
 6    0  0.6549018E+002  0.1788825E+03  0.7546771E-02  0.1168889E+00
         21   -1    0    0  506  501  0.00000000000E+00  0.00000000000E+00  0.34237352104E+03  0.34237352104E+03  0.00000000000E+00 0. -1.
         21   -1    0    0  505  502 -0.00000000000E+00 -0.00000000000E+00 -0.37201755814E+03  0.37201755814E+03  0.00000000000E+00 0. -1.
         21    1    1    2  503  502  0.24382193837E+03  0.56678363554E+01 -0.10263235729E+03  0.26460283968E+03  0.00000000000E+00 0. -1.
         21    1    1    2  504  501 -0.32493277179E+02  0.23092395670E+02 -0.59085749501E+02  0.71275504865E+02  0.00000000000E+00 0. -1.
         21    1    1    2  505  504 -0.43443734638E+02 -0.10269988006E+02 -0.89434636307E+02  0.99956915240E+02  0.00000000000E+00 0. -1.
         21    1    1    2  506  503 -0.16788492656E+03 -0.18490244020E+02  0.22150870600E+03  0.27855581941E+03  0.00000000000E+00 0. -1.
<scales pt_clust_3="178.88254" pt_clust_4="34.48033" pt_clust_5="85.21876" pt_clust_6="14000.00000"></scales>
<clustering>
<clus scale="   34.480">  4  5 -1 -1</clus>
<clus scale="   85.219">  2  4  1 -1</clus>
<clus scale="  178.883">  2  3  1 -1</clus>
<clus scale="  178.883">  1  3  2 -1</clus>
</clustering>
</event>
<event>
 6    0  0.6549018E+002  0.1476457E+03  0.7546771E-02  0.1203396E+00
         21   -1    0    0  503  501  0.00000000000E+00  0.00000000000E+00  0.16487597482E+04  0.16487597482E+04  0.00000000000E+00 0. -1.
         21   -1    0    0  505  502 -0.00000000000E+00 -0.00000000000E+00 -0.41145296269E+02  0.41145296269E+02  0.00000000000E+00 0. -1.
         21    1    1    2  503  502  0.10934177418E+03  0.76602675826E+02  0.11920845584E+03  0.17898114277E+03  0.00000000000E+00 0. -1.
         21    1    1    2  504  506 -0.28300572073E+02 -0.73302207642E+02  0.32239937358E+03  0.33183654426E+03  0.00000000000E+00 0. -1.
         21    1    1    2  505  504 -0.64226807260E+02 -0.31679927176E+02  0.19858530016E+03  0.21110381805E+03  0.00000000000E+00 0. -1.
         21    1    1    2  506  501 -0.16814394847E+02  0.28379458991E+02  0.96742132238E+03  0.96798353941E+03  0.00000000000E+00 0. -1.
<scales pt_clust_3="134.24829" pt_clust_4="60.10940" pt_clust_5="60.10940" pt_clust_6="32.98663"></scales>
<clustering>
<clus scale="   32.987">  1  6  2 -1</clus>
<clus scale="   60.109">  4  5 -1 -1</clus>
<clus scale="  134.248">  2  3  1 -1</clus>
<clus scale="   32.987">  1  3  2 -1</clus>
</clustering>
</event>
<event>
 6    0  0.6549018E+002  0.1165466E+03  0.7546771E-02  0.1248905E+00
         21   -1    0    0  503  501  0.00000000000E+00  0.00000000000E+00  0.14567903380E+03  0.14567903380E+03  0.00000000000E+00 0.  1.
         21   -1    0    0  505  502 -0.00000000000E+00 -0.00000000000E+00 -0.59184874829E+03  0.59184874829E+03  0.00000000000E+00 0. -1.
         21    1    1    2  503  502 -0.44971999328E+02 -0.11327883840E+03 -0.44916980202E+03  0.46541173921E+03  0.00000000000E+00 0. -1.
         21    1    1    2  504  501 -0.31734706494E+02  0.21073824156E+02  0.95447683983E+02  0.10276895464E+03  0.00000000000E+00 0.  1.
         21    1    1    2  505  506  0.36398889432E+02  0.88817702796E+02 -0.42233394702E+02  0.10486716888E+03  0.00000000000E+00 0. -1.
         21    1    1    2  506  504  0.40307816390E+02  0.33873114478E+01 -0.50214201762E+02  0.64479919351E+02  0.00000000000E+00 0. -1.
<scales pt_clust_3="116.54661" pt_clust_4="38.09459" pt_clust_5="14000.00000" pt_clust_6="36.05922"></scales>
<clustering>
<clus scale="   38.095">  1  4  2 -1</clus>
<clus scale="   36.059">  1  6  2 -1</clus>
<clus scale="  116.547">  2  3  1 -1</clus>
<clus scale="   38.095">  1  3  2 -1</clus>
</clustering>
</event>
<event>
 6    0  0.6549018E+002  0.1605233E+03  0.7546771E-02  0.1188107E+00
         21   -1    0    0  504  501  0.00000000000E+00  0.00000000000E+00  0.53829242616E+03  0.53829242616E+03  0.00000000000E+00 0. -1.
         21   -1    0    0  506  502 -0.00000000000E+00 -0.00000000000E+00 -0.62240278865E+03  0.62240278865E+03  0.00000000000E+00 0. -1.
         21    1    1    2  503  501  0.12816240028E+03 -0.68641884756E+02  0.48181664740E+03  0.50327387266E+03  0.00000000000E+00 0. -1.
         21    1    1    2  504  502  0.23317629583E+02  0.43999935083E+02  0.17070692642E+02  0.52641378059E+02  0.00000000000E+00 0. -1.
         21    1    1    2  505  503 -0.10150314860E+03  0.41888512262E+01 -0.44818405234E+03  0.45955345763E+03  0.00000000000E+00 0. -1.
         21    1    1    2  506  505 -0.49976881261E+02  0.20453098447E+02 -0.13481365020E+03  0.14522650645E+03  0.00000000000E+00 0. -1.
<scales pt_clust_3="153.12959" pt_clust_4="49.79665" pt_clust_5="35.10984" pt_clust_6="35.10984"></scales>
<clustering>
<clus scale="   35.110">  5  6 -1 -1</clus>
<clus scale="   49.797">  1  4  2 -1</clus>
<clus scale="  153.130">  1  3  2 -1</clus>
<clus scale="   49.797">  1  3  2 -1</clus>
</clustering>
</event>
<event>
 6    0  0.6549018E+002  0.1311313E+03  0.7546771E-02  0.1225787E+00
         21   -1    0    0  505  501  0.00000000000E+00  0.00000000000E+00  0.86355297246E+02  0.86355297246E+02  0.00000000000E+00 0.  1.
         21   -1    0    0  504  502 -0.00000000000E+00 -0.00000000000E+00 -0.16177339998E+04  0.16177339998E+04  0.00000000000E+00 0. -1.
         21    1    1    2  503  501 -0.17411421812E+02  0.31889552021E+02 -0.25042010705E+02  0.44127128138E+02  0.00000000000E+00 0.  1.
         21    1    1    2  504  506 -0.53962042266E+02  0.63319519115E+02 -0.81264326837E+03  0.81689065678E+03  0.00000000000E+00 0. -1.
         21    1    1    2  505  502  0.11390226813E+03 -0.10444850148E+03 -0.66855173423E+01  0.15468649679E+03  0.00000000000E+00 0.  1.
         21    1    1    2  506  503 -0.42528804051E+02  0.92394303484E+01 -0.68700790612E+03  0.68838501532E+03  0.00000000000E+00 0. -1.
<scales pt_clust_3="36.33320" pt_clust_4="34.88187" pt_clust_5="121.94057" pt_clust_6="34.88187"></scales>
<clustering>
<clus scale="   34.882">  4  6 -1 -1</clus>
<clus scale="   36.333">  1  3  2 -1</clus>
<clus scale="  121.941">  1  5  2 -1</clus>
<clus scale="   36.333">  1  3  2 -1</clus>
</clustering>
</event>
<event>
 6    0  0.6549018E+002  0.1086002E+03  0.7546771E-02  0.1263184E+00
         21   -1    0    0  504  501  0.00000000000E+00  0.00000000000E+00  0.99981694218E+03  0.99981694218E+03  0.00000000000E+00 0.  1.
         21   -1    0    0  505  502 -0.00000000000E+00 -0.00000000000E+00 -0.96671971252E+02  0.96671971252E+02  0.00000000000E+00 0. -1.
         21    1    1    2  503  502 -0.10421293771E+02 -0.29575563474E+02 -0.37931632961E+02  0.49215100302E+02  0.00000000000E+00 0. -1.
         21    1    1    2  504  506  0.41966186734E+02  0.10206066806E+03  0.88299524013E+03  0.88986411034E+03  0.00000000000E+00 0.  1.
         21    1    1    2  505  501  0.43377096627E+02 -0.80908626211E+01  0.34053024242E+02  0.55737267871E+02  0.00000000000E+00 0. -1.
         21    1    1    2  506  503 -0.74921989590E+02 -0.64394241960E+02  0.24028339523E+02  0.10167243492E+03  0.00000000000E+00 0. -1.
<scales pt_clust_3="31.35789" pt_clust_4="14000.00000" pt_clust_5="43.60216" pt_clust_6="108.60023"></scales>
<clustering>
<clus scale="   31.358">  2  3  1 -1</clus>
<clus scale="   43.602">  2  5  1 -1</clus>
<clus scale="  108.600">  2  6  1 -1</clus>
<clus scale="  108.600">  1  3  2 -1</clus>
</clustering>
</event>
<event>
 6    0  0.6549018E+002  0.7323633E+02  0.7546771E-02  0.1349421E+00
         21   -1    0    0  505  501  0.00000000000E+00  0.00000000000E+00  0.21815925856E+03  0.21815925856E+03  0.00000000000E+00 0. -1.
         21   -1    0    0  506  502 -0.00000000000E+00 -0.00000000000E+00 -0.33720533257E+03  0.33720533257E+03  0.00000000000E+00 0. -1.
         21    1    1    2  503  502  0.61804472072E+02  0.18015385942E+01 -0.14653970488E+03  0.15905006576E+03  0.00000000000E+00 0. -1.
         21    1    1    2  504  503 -0.10838266376E+03  0.16458234355E+02 -0.13601352909E+03  0.17469217320E+03  0.00000000000E+00 0. -1.
         21    1    1    2  505  504 -0.12984931977E+02  0.46600647026E+02  0.18144682828E+02  0.51666800526E+02  0.00000000000E+00 0. -1.
         21    1    1    2  506  501  0.59563123666E+02 -0.64860419975E+02  0.14536247713E+03  0.16995555165E+03  0.00000000000E+00 0. -1.
<scales pt_clust_3="73.23633" pt_clust_4="14000.00000" pt_clust_5="48.37591" pt_clust_6="54.36206"></scales>
<clustering>
<clus scale="   48.376">  1  5  2 -1</clus>
<clus scale="   54.362">  1  6  2 -1</clus>
<clus scale="   73.236">  2  3  1 -1</clus>
<clus scale="   48.376">  1  3  2 -1</clus>
</clustering>
</event>
<event>
 6    0  0.6549018E+002  0.8016982E+02  0.7546771E-02  0.1328570E+00
         21   -1    0    0  506  501  0.00000000000E+00  0.00000000000E+00  0.85607505108E+03  0.85607505108E+03  0.00000000000E+00 0. -1.
         21   -1    0    0  505  502 -0.00000000000E+00 -0.00000000000E+00 -0.14119128307E+04  0.14119128307E+04  0.00000000000E+00 0.  1.
         21    1    1    2  503  502 -0.70859424115E+02 -0.45792395758E+02 -0.13122664418E+04  0.13149757472E+04  0.00000000000E+00 0.  1.
         21    1    1    2  504  501  0.51728078312E+02 -0.24301439479E+02  0.16366712807E+03  0.17335882688E+03  0.00000000000E+00 0. -1.
         21    1    1    2  505  504  0.52877270952E+02 -0.32241691306E+02 -0.78392212131E+02  0.99904311040E+02  0.00000000000E+00 0.  1.
         21    1    1    2  506  503 -0.33745925150E+02  0.10233552654E+03  0.67115374620E+03  0.67974899669E+03  0.00000000000E+00 0. -1.
<scales pt_clust_3="14000.00000" pt_clust_4="57.15203" pt_clust_5="62.82058" pt_clust_6="80.16982"></scales>
<clustering>
<clus scale="   57.152">  1  4  2 -1</clus>
<clus scale="   62.821">  2  5  1 -1</clus>
<clus scale="   80.170">  1  6  2 -1</clus>
<clus scale="   57.152">  1  3  2 -1</clus>
</clustering>
</event>
<event>
 6    0  0.6549018E+002  0.1227330E+03  0.7546771E-02  0.1238655E+00
         21   -1    0    0  503  501  0.00000000000E+00  0.00000000000E+00  0.22687918090E+03  0.22687918090E+03  0.00000000000E+00 0. -1.
         21   -1    0    0  505  502 -0.00000000000E+00 -0.00000000000E+00 -0.21903471452E+03  0.21903471452E+03  0.00000000000E+00 0. -1.
         21    1    1    2  503  506 -0.24100024514E+02  0.13546561928E+03  0.86997027699E+02  0.16278890631E+03  0.00000000000E+00 0. -1.
         21    1    1    2  504  502 -0.16349564929E+02 -0.71817097204E+02 -0.10612895465E+03  0.12918343059E+03  0.00000000000E+00 0. -1.
         21    1    1    2  505  501  0.21516247229E+02 -0.22179445189E+02  0.78965637710E+02  0.84796513034E+02  0.00000000000E+00 0. -1.
         21    1    1    2  506  504  0.18933342213E+02 -0.41469076884E+02 -0.51989244380E+02  0.69145045493E+02  0.00000000000E+00 0. -1.
<scales pt_clust_3="116.49463" pt_clust_4="30.39206" pt_clust_5="30.90108" pt_clust_6="30.39206"></scales>
<clustering>
<clus scale="   30.392">  4  6 -1 -1</clus>
<clus scale="   30.901">  1  5  2 -1</clus>
<clus scale="  116.495">  1  3  2 -1</clus>
<clus scale="   30.901">  1  3  2 -1</clus>
</clustering>
</event>
<event>
 6    0  0.6549018E+002  0.1030463E+03  0.7546771E-02  0.1274017E+00
         21   -1    0    0  503  501  0.00000000000E+00  0.00000000000E+00  0.18606174590E+03  0.18606174590E+03  0.00000000000E+00 0.  1.
         21   -1    0    0  505  502 -0.00000000000E+00 -0.00000000000E+00 -0.23286639422E+03  0.23286639422E+03  0.00000000000E+00 0.  1.
         21    1    1    2  503  504  0.22803024863E+02  0.25389249617E+02  0.93530516474E+01  0.35384622566E+02  0.00000000000E+00 0.  1.
         21    1    1    2  504  502 -0.53299134048E+01  0.73515686253E+02 -0.51639153953E+02  0.89997590652E+02  0.00000000000E+00 0.  1.
         21    1    1    2  505  506 -0.12666310091E+02  0.36668671778E+02 -0.11323707657E+03  0.11969821390E+03  0.00000000000E+00 0.  1.
         21    1    1    2  506  501 -0.48068013672E+01 -0.13557360765E+03  0.10871853055E+03  0.17384771300E+03  0.00000000000E+00 0.  1.
<scales pt_clust_3="34.12612" pt_clust_4="103.04626" pt_clust_5="39.12579" pt_clust_6="14000.00000"></scales>
<clustering>
<clus scale="   34.126">  1  3  2 -1</clus>
<clus scale="   39.126">  2  5  1 -1</clus>
<clus scale="  103.046">  2  4  1 -1</clus>
<clus scale="   34.126">  1  3  2 -1</clus>
</clustering>
</event>
<event>
 6    0  0.6549018E+002  0.1227896E+03  0.7546771E-02  0.1238565E+00
         21   -1    0    0  506  501  0.00000000000E+00  0.00000000000E+00  0.19797084822E+03  0.19797084822E+03  0.00000000000E+00 0. -1.
         21   -1    0    0  503  502 -0.00000000000E+00 -0.00000000000E+00 -0.26677161556E+03  0.26677161556E+03  0.00000000000E+00 0. -1.
         21    1    1    2  503  504  0.48499352465E+02 -0.18437911713E+02 -0.10410076994E+03  0.11631471996E+03  0.00000000000E+00 0. -1.
         21    1    1    2  504  501  0.86218489083E+02 -0.31518811246E+02 -0.54980820915E+02  0.10700445781E+03  0.00000000000E+00 0. -1.
         21    1    1    2  505  502 -0.51781414429E+02 -0.10533171629E+02 -0.46513001177E+02  0.70396888165E+02  0.00000000000E+00 0. -1.
         21    1    1    2  506  505 -0.82936427119E+02  0.60489894588E+02  0.13679382469E+03  0.17102639785E+03  0.00000000000E+00 0. -1.
<scales pt_clust_3="47.07006" pt_clust_4="47.07006" pt_clust_5="52.84186" pt_clust_6="105.62836"></scales>
<clustering>
<clus scale="   47.070">  3  4 -1 -1</clus>
<clus scale="   52.842">  2  5  1 -1</clus>
<clus scale="  105.628">  1  6  2 -1</clus>
<clus scale="  105.628">  1  3  2 -1</clus>
</clustering>
</event>
<event>
 6    0  0.6549018E+002  0.7969864E+02  0.7546771E-02  0.1329909E+00
         21   -1    0    0  504  501  0.00000000000E+00  0.00000000000E+00  0.39685257841E+03  0.39685257841E+03  0.00000000000E+00 0. -1.
         21   -1    0    0  506  502 -0.00000000000E+00 -0.00000000000E+00 -0.21111478131E+04  0.21111478131E+04  0.00000000000E+00 0. -1.
         21    1    1    2  503  501 -0.71072518396E+02  0.30987905332E+02  0.31919924919E+03  0.32848091852E+03  0.00000000000E+00 0. -1.
         21    1    1    2  504  502  0.34339170760E+02  0.12866291877E+02 -0.17838277238E+04  0.17842046038E+04  0.00000000000E+00 0. -1.
         21    1    1    2  505  503  0.98142085719E+02 -0.14926204374E+02  0.32999768574E+02  0.10461187931E+03  0.00000000000E+00 0. -1.
         21    1    1    2  506  505 -0.61408738082E+02 -0.28927992836E+02 -0.28266652867E+03  0.29070298986E+03  0.00000000000E+00 0. -1.
<scales pt_clust_3="79.69864" pt_clust_4="36.67043" pt_clust_5="14000.00000" pt_clust_6="35.94800"></scales>
<clustering>
<clus scale="   36.670">  2  4  1 -1</clus>
<clus scale="   35.948">  2  6  1 -1</clus>
<clus scale="   79.699">  1  3  2 -1</clus>
<clus scale="   79.699">  1  3  2 -1</clus>
</clustering>
</event>
<event>
 6    0  0.6549018E+002  0.1060013E+03  0.7546771E-02  0.1268159E+00
         21   -1    0    0  506  501  0.00000000000E+00  0.00000000000E+00  0.12174590660E+03  0.12174590660E+03  0.00000000000E+00 0.  1.
         21   -1    0    0  503  502 -0.00000000000E+00 -0.00000000000E+00 -0.72013719752E+03  0.72013719752E+03  0.00000000000E+00 0.  1.
         21    1    1    2  503  504  0.53030444968E+02  0.57017692565E+02 -0.59115174718E+03  0.59625802598E+03  0.00000000000E+00 0.  1.
         21    1    1    2  504  505 -0.48690736799E+02 -0.95915538633E+02 -0.72470339009E+01  0.10781047213E+03  0.00000000000E+00 0.  1.
         21    1    1    2  505  501 -0.41618800629E+02 -0.21783565252E+02  0.34888383595E+02  0.58513653029E+02  0.00000000000E+00 0.  1.
         21    1    1    2  506  502  0.37279092461E+02  0.60681411319E+02 -0.34880893440E+02  0.79300952968E+02  0.00000000000E+00 0. -1.
<scales pt_clust_3="79.65863" pt_clust_4="46.21506" pt_clust_5="46.21506" pt_clust_6="71.21773"></scales>
<clustering>
<clus scale="   46.215">  4  5 -1 -1</clus>
<clus scale="   71.218">  1  6  2 -1</clus>
<clus scale="   79.659">  2  3  1 -1</clus>
<clus scale="   71.218">  1  3  2 -1</clus>
</clustering>
</event>
<event>
 6    0  0.6549018E+002  0.1371242E+03  0.7546771E-02  0.1217252E+00
         21   -1    0    0  502  501  0.00000000000E+00  0.00000000000E+00  0.11980974987E+04  0.11980974987E+04  0.00000000000E+00 0.  1.
         21   -1    0    0  503  502 -0.00000000000E+00 -0.00000000000E+00 -0.35514253806E+02  0.35514253806E+02  0.00000000000E+00 0. -1.
         21    1    1    2  503  505  0.16050990983E+02 -0.55517933047E+02  0.64761346657E+02  0.86798083056E+02  0.00000000000E+00 0. -1.
         21    1    1    2  504  506 -0.18854277438E+02  0.42575042126E+02  0.24300402453E+03  0.24742488542E+03  0.00000000000E+00 0. -1.
         21    1    1    2  505  504 -0.16301672435E+02 -0.70091909067E+02  0.44513807498E+02  0.84617369959E+02  0.00000000000E+00 0. -1.
         21    1    1    2  506  501  0.19104958889E+02  0.83034799988E+02  0.81030406621E+03  0.81477141407E+03  0.00000000000E+00 0.  1.
<scales pt_clust_3="36.55908" pt_clust_4="40.65962" pt_clust_5="132.06891" pt_clust_6="40.65962"></scales>
<clustering>
<clus scale="   36.559">  3  5 -1 -1</clus>
<clus scale="   40.660">  4  6 -1 -1</clus>
<clus scale="  132.069">  2  3  1 -1</clus>
<clus scale="  137.124">  1  3  2 -1</clus>
</clustering>
</event>
<event>
 6    0  0.6549018E+002  0.1829665E+03  0.7546771E-02  0.1164963E+00
         21   -1    0    0  503  501  0.00000000000E+00  0.00000000000E+00  0.37010519410E+03  0.37010519410E+03  0.00000000000E+00 0.  1.
         21   -1    0    0  504  502 -0.00000000000E+00 -0.00000000000E+00 -0.10572187496E+04  0.10572187496E+04  0.00000000000E+00 0.  1.
         21    1    1    2  503  505  0.15604153290E+03  0.14659017466E+03 -0.67814966091E+03  0.71114316554E+03  0.00000000000E+00 0.  1.
         21    1    1    2  504  506 -0.90263725115E+02 -0.92139400823E+02  0.12250875123E+03  0.17789211164E+03  0.00000000000E+00 0.  1.
         21    1    1    2  505  502 -0.33777409164E+02 -0.55821291287E+01 -0.32978241633E+03  0.33155469482E+03  0.00000000000E+00 0.  1.
         21    1    1    2  506  501 -0.32000398621E+02 -0.48868644707E+02  0.19830977055E+03  0.20673397167E+03  0.00000000000E+00 0.  1.
<scales pt_clust_3="182.96652" pt_clust_4="14000.00000" pt_clust_5="34.23556" pt_clust_6="58.54831"></scales>
<clustering>
<clus scale="   34.236">  2  5  1 -1</clus>
<clus scale="   58.548">  1  6  2 -1</clus>
<clus scale="  182.967">  2  3  1 -1</clus>
<clus scale="   58.548">  1  3  2 -1</clus>
</clustering>
</event>
<event>
 6    0  0.6549018E+002  0.1763388E+03  0.7546771E-02  0.1171394E+00
         21   -1    0    0  503  501  0.00000000000E+00  0.00000000000E+00  0.59275337722E+03  0.59275337722E+03  0.00000000000E+00 0.  1.
         21   -1    0    0  504  502 -0.00000000000E+00 -0.00000000000E+00 -0.87314063832E+02  0.87314063832E+02  0.00000000000E+00 0.  1.
         21    1    1    2  503  505  0.11103960856E+03 -0.12333796628E+01  0.12173520061E+03  0.16477492213E+03  0.00000000000E+00 0.  1.
         21    1    1    2  504  501 -0.13595759550E+03 -0.62802626138E+02  0.15222419120E+03  0.21354353657E+03  0.00000000000E+00 0.  1.
         21    1    1    2  505  506  0.92990710527E+02  0.39897637290E+01  0.16426076431E+03  0.18879827634E+03  0.00000000000E+00 0.  1.
         21    1    1    2  506  502 -0.68072723593E+02  0.60046242072E+02  0.67219157273E+02  0.11295070601E+03  0.00000000000E+00 0.  1.
<scales pt_clust_3="36.44115" pt_clust_4="171.78778" pt_clust_5="36.44115" pt_clust_6="90.77140"></scales>
<clustering>
<clus scale="   36.441">  3  5 -1 -1</clus>
<clus scale="   90.771">  2  6  1 -1</clus>
<clus scale="  171.788">  1  4  2 -1</clus>
<clus scale="  171.788">  1  3  2 -1</clus>
</clustering>
</event>
<event>
 6    0  0.6549018E+002  0.1725820E+03  0.7546771E-02  0.1175182E+00
         21   -1    0    0  503  501  0.00000000000E+00  0.00000000000E+00  0.31993459257E+03  0.31993459257E+03  0.00000000000E+00 0. -1.
         21   -1    0    0  504  502 -0.00000000000E+00 -0.00000000000E+00 -0.14927005065E+03  0.14927005065E+03  0.00000000000E+00 0. -1.
         21    1    1    2  503  506  0.86242560319E+02 -0.77191598021E+02  0.99117337336E+01  0.11616610728E+03  0.00000000000E+00 0. -1.
         21    1    1    2  504  501 -0.13194620779E+03  0.58401646789E+02  0.13212523079E+03  0.19564669870E+03  0.00000000000E+00 0. -1.
         21    1    1    2  505  502 -0.15932463472E+02  0.47936740852E+02 -0.37110573020E+02  0.62681489658E+02  0.00000000000E+00 0. -1.
         21    1    1    2  506  505  0.61636110948E+02 -0.29146789620E+02  0.65738150417E+02  0.94710347577E+02  0.00000000000E+00 0. -1.
<scales pt_clust_3="61.49096" pt_clust_4="155.61020" pt_clust_5="50.51509" pt_clust_6="61.49096"></scales>
<clustering>
<clus scale="   50.515">  2  5  1 -1</clus>
<clus scale="   61.491">  3  6 -1 -1</clus>
<clus scale="  155.610">  1  4  2 -1</clus>
<clus scale="  155.610">  1  3  2 -1</clus>
</clustering>
</event>
<event>
 6    0  0.6549018E+002  0.1839517E+03  0.7546771E-02  0.1164032E+00
         21   -1    0    0  503  501  0.00000000000E+00  0.00000000000E+00  0.68118334109E+03  0.68118334109E+03  0.00000000000E+00 0. -1.
         21   -1    0    0  506  502 -0.00000000000E+00 -0.00000000000E+00 -0.25524707440E+03  0.25524707440E+03  0.00000000000E+00 0. -1.
         21    1    1    2  503  504  0.18580991671E+02  0.26406975937E+03  0.11437950071E+03  0.28837607606E+03  0.00000000000E+00 0. -1.
         21    1    1    2  504  502 -0.11830122483E+02 -0.89006068315E+02 -0.10478683580E+03  0.13799388737E+03  0.00000000000E+00 0. -1.
         21    1    1    2  505  501  0.26811652026E+02 -0.16800202585E+03  0.43773880371E+03  0.46963688702E+03  0.00000000000E+00 0. -1.
         21    1    1    2  506  505 -0.33562521214E+02 -0.70616652016E+01 -0.21395201928E+02  0.40423565048E+02  0.00000000000E+00 0. -1.
<scales pt_clust_3="183.95171" pt_clust_4="97.55175" pt_clust_5="14000.00000" pt_clust_6="34.29738"></scales>
<clustering>
<clus scale="   34.297">  2  6  1 -1</clus>
<clus scale="   97.552">  2  4  1 -1</clus>
<clus scale="  183.952">  2  3  1 -1</clus>
<clus scale="  183.952">  1  3  2 -1</clus>
</clustering>
</event>
<event>
 6    0  0.6549018E+002  0.1250216E+03  0.7546771E-02  0.1235035E+00
         21   -1    0    0  503  501  0.00000000000E+00  0.00000000000E+00  0.13905653514E+04  0.13905653514E+04  0.00000000000E+00 0.  1.
         21   -1    0    0  504  502 -0.00000000000E+00 -0.00000000000E+00 -0.33725228263E+02  0.33725228263E+02  0.00000000000E+00 0.  1.
         21    1    1    2  503  505  0.18056468001E+02  0.14777964164E+03  0.95103796994E+03  0.96262042301E+03  0.00000000000E+00 0.  1.
         21    1    1    2  504  506 -0.26570459150E+02 -0.47862031371E+02  0.17216915515E+03  0.18066261742E+03  0.00000000000E+00 0.  1.
         21    1    1    2  505  502  0.27048769124E+01 -0.62102065124E+02  0.21992537403E+02  0.65936746608E+02  0.00000000000E+00 0.  1.
         21    1    1    2  506  501  0.58091142364E+01 -0.37815545142E+02  0.21164046066E+03  0.21507079265E+03  0.00000000000E+00 0. -1.
<scales pt_clust_3="118.77281" pt_clust_4="32.62990" pt_clust_5="62.16094" pt_clust_6="32.62990"></scales>
<clustering>
<clus scale="   32.630">  4  6 -1 -1</clus>
<clus scale="   62.161">  2  5  1 -1</clus>
<clus scale="  118.773">  2  3  1 -1</clus>
<clus scale="  125.022">  1  3  2 -1</clus>
</clustering>
</event>
<event>
 6    0  0.6549018E+002  0.1131630E+03  0.7546771E-02  0.1254822E+00
         21   -1    0    0  504  501  0.00000000000E+00  0.00000000000E+00  0.36888819837E+03  0.36888819837E+03  0.00000000000E+00 0.  1.
         21   -1    0    0  505  502 -0.00000000000E+00 -0.00000000000E+00 -0.30895217862E+03  0.30895217862E+03  0.00000000000E+00 0.  1.
         21    1    1    2  503  502 -0.17442502602E+02  0.32891724890E+02 -0.31328116918E+02  0.48657552064E+02  0.00000000000E+00 0.  1.
         21    1    1    2  504  503  0.53438871756E+02 -0.29967525201E+02  0.23745687988E+03  0.24523363429E+03  0.00000000000E+00 0.  1.
         21    1    1    2  505  506  0.84120298232E+01  0.88782228524E+02 -0.23338444214E+03  0.24984263884E+03  0.00000000000E+00 0.  1.
         21    1    1    2  506  501 -0.44408398978E+02 -0.91706428212E+02  0.87191698930E+02  0.13410655181E+03  0.00000000000E+00 0. -1.
<scales pt_clust_3="37.23045" pt_clust_4="60.81615" pt_clust_5="14000.00000" pt_clust_6="113.16298"></scales>
<clustering>
<clus scale="   37.230">  2  3  1 -1</clus>
<clus scale="   60.816">  1  4  2 -1</clus>
<clus scale="  113.163">  1  6  2 -1</clus>
<clus scale="   60.816">  1  3  2 -1</clus>
</clustering>
</event>
<event>
 6    0  0.6549018E+002  0.2570386E+03  0.7546771E-02  0.1108936E+00
         21   -1    0    0  506  501  0.00000000000E+00  0.00000000000E+00  0.39343279554E+03  0.39343279554E+03  0.00000000000E+00 0.  1.
         21   -1    0    0  505  502 -0.00000000000E+00 -0.00000000000E+00 -0.27490503680E+03  0.27490503680E+03  0.00000000000E+00 0.  1.
         21    1    1    2  503  504 -0.44328284463E+02 -0.51231716280E+02  0.22646867855E+02  0.71432248880E+02  0.00000000000E+00 0.  1.
         21    1    1    2  504  501 -0.15810707646E+03 -0.73693310606E+02  0.22036988647E+03  0.28105415584E+03  0.00000000000E+00 0.  1.
         21    1    1    2  505  503  0.22926035131E+03  0.95013121357E+02 -0.93842195328E+02  0.26531897697E+03  0.00000000000E+00 0.  1.
         21    1    1    2  506  502 -0.26824990393E+02  0.29911905529E+02 -0.30646800266E+02  0.50532450648E+02  0.00000000000E+00 0. -1.
<scales pt_clust_3="57.37322" pt_clust_4="57.37322" pt_clust_5="239.71994" pt_clust_6="40.17838"></scales>
<clustering>
<clus scale="   40.178">  2  6  1 -1</clus>
<clus scale="   57.373">  3  4 -1 -1</clus>
<clus scale="  239.720">  2  5  1 -1</clus>
<clus scale="  257.039">  1  3  2 -1</clus>
</clustering>
</event>
<event>
 6    0  0.6549018E+002  0.1247501E+03  0.7546771E-02  0.1235460E+00
         21   -1    0    0  506  501  0.00000000000E+00  0.00000000000E+00  0.51168786825E+03  0.51168786825E+03  0.00000000000E+00 0. -1.
         21   -1    0    0  504  502 -0.00000000000E+00 -0.00000000000E+00 -0.64466274160E+03  0.64466274160E+03  0.00000000000E+00 0. -1.
         21    1    1    2  503  501 -0.36928919007E+02 -0.82192577931E+02  0.38905730499E+03  0.39935567042E+03  0.00000000000E+00 0. -1.
         21    1    1    2  504  505  0.19655051337E+01  0.12448444610E+03 -0.57564550621E+03  0.58895499773E+03  0.00000000000E+00 0. -1.
         21    1    1    2  505  503 -0.30401250083E+02 -0.10020871654E+02  0.83369645866E+02  0.89303705003E+02  0.00000000000E+00 0. -1.
         21    1    1    2  506  502  0.65364663956E+02 -0.32270996515E+02 -0.29756317996E+02  0.78736236707E+02  0.00000000000E+00 0.  1.
<scales pt_clust_3="30.18077" pt_clust_4="114.01093" pt_clust_5="30.18077" pt_clust_6="72.89689"></scales>
<clustering>
<clus scale="   30.181">  3  5 -1 -1</clus>
<clus scale="   72.897">  2  6  1 -1</clus>
<clus scale="  114.011">  2  4  1 -1</clus>
<clus scale="  124.750">  1  3  2 -1</clus>
</clustering>
</event>
<event>
 6    0  0.6549018E+002  0.1236937E+03  0.7546771E-02  0.1237125E+00
         21   -1    0    0  503  501  0.00000000000E+00  0.00000000000E+00  0.49903637284E+03  0.49903637284E+03  0.00000000000E+00 0.  1.
         21   -1    0    0  504  502 -0.00000000000E+00 -0.00000000000E+00 -0.36675127497E+03  0.36675127497E+03  0.00000000000E+00 0.  1.
         21    1    1    2  503  505 -0.35434622772E+02 -0.14521860354E+02  0.26956581119E+03  0.27227233330E+03  0.00000000000E+00 0.  1.
         21    1    1    2  504  501 -0.85639198483E+01 -0.72972015840E+02 -0.13138462799E+03  0.15053297410E+03  0.00000000000E+00 0.  1.
         21    1    1    2  505  506 -0.75612160586E+02  0.80695347496E+02  0.18621555618E+03  0.21657601736E+03  0.00000000000E+00 0.  1.
         21    1    1    2  506  502  0.11961070321E+03  0.67985286972E+01 -0.19211164150E+03  0.22640632305E+03  0.00000000000E+00 0. -1.
<scales pt_clust_3="38.29487" pt_clust_4="74.26482" pt_clust_5="14000.00000" pt_clust_6="123.69366"></scales>
<clustering>
<clus scale="   38.295">  1  3  2 -1</clus>
<clus scale="   74.265">  2  4  1 -1</clus>
<clus scale="  123.694">  2  6  1 -1</clus>
<clus scale="   38.295">  1  3  2 -1</clus>
</clustering>
</event>
<event>
 6    0  0.6549018E+002  0.1480392E+03  0.7546771E-02  0.1202903E+00
         21   -1    0    0  503  501  0.00000000000E+00  0.00000000000E+00  0.38205540203E+03  0.38205540203E+03  0.00000000000E+00 0. -1.
         21   -1    0    0  504  502 -0.00000000000E+00 -0.00000000000E+00 -0.11834249316E+03  0.11834249316E+03  0.00000000000E+00 0.  1.
         21    1    1    2  503  505  0.36278636446E+02 -0.38037415894E+02 -0.36201007870E+02  0.63823956639E+02  0.00000000000E+00 0.  1.
         21    1    1    2  504  506 -0.58019446492E+02  0.71036341205E+02  0.21557050907E+03  0.23427134337E+03  0.00000000000E+00 0. -1.
         21    1    1    2  505  502  0.18807312742E+02 -0.88060744688E+02 -0.12451905358E+02  0.90903573718E+02  0.00000000000E+00 0.  1.
         21    1    1    2  506  501  0.29334973043E+01  0.55061819378E+02  0.96795313030E+02  0.11139902147E+03  0.00000000000E+00 0.  1.
<scales pt_clust_3="39.24392" pt_clust_4="42.32911" pt_clust_5="146.87921" pt_clust_6="42.32911"></scales>
<clustering>
<clus scale="   39.244">  3  5 -1 -1</clus>
<clus scale="   42.329">  4  6 -1 -1</clus>
<clus scale="  146.879">  2  3  1 -1</clus>
<clus scale="  148.039">  1  3  2 -1</clus>
</clustering>
</event>
<event>
 6    0  0.6549018E+002  0.2126312E+03  0.7546771E-02  0.1139499E+00
         21   -1    0    0  505  501  0.00000000000E+00  0.00000000000E+00  0.67651165488E+03  0.67651165488E+03  0.00000000000E+00 0. -1.
         21   -1    0    0  506  502 -0.00000000000E+00 -0.00000000000E+00 -0.12495639692E+04  0.12495639692E+04  0.00000000000E+00 0. -1.
         21    1    1    2  503  502  0.24180865270E+02 -0.31888125518E+02 -0.75665138522E+02  0.85596611976E+02  0.00000000000E+00 0. -1.
         21    1    1    2  504  501  0.23837832645E+03 -0.79646858285E+02  0.24614831790E+03  0.35179090801E+03  0.00000000000E+00 0. -1.
         21    1    1    2  505  503 -0.17979973971E+03  0.73276227382E+02  0.34524580374E+03  0.39609596930E+03  0.00000000000E+00 0. -1.
         21    1    1    2  506  504 -0.82759452006E+02  0.38258756421E+02 -0.10887812975E+04  0.10925921348E+04  0.00000000000E+00 0. -1.
<scales pt_clust_3="40.01958" pt_clust_4="212.63123" pt_clust_5="14000.00000" pt_clust_6="60.79508"></scales>
<clustering>
<clus scale="   40.020">  2  3  1 -1</clus>
<clus scale="   60.795">  2  6  1 -1</clus>
<clus scale="  212.631">  2  4  1 -1</clus>
<clus scale="  212.631">  1  3  2 -1</clus>
</clustering>
</event>
<event>
 6    0  0.6549018E+002  0.2057255E+03  0.7546771E-02  0.1144996E+00
         21   -1    0    0  502  501  0.00000000000E+00  0.00000000000E+00  0.27226694412E+03  0.27226694412E+03  0.00000000000E+00 0. -1.
         21   -1    0    0  506  502 -0.00000000000E+00 -0.00000000000E+00 -0.20698136003E+03  0.20698136003E+03  0.00000000000E+00 0. -1.
         21    1    1    2  503  501 -0.33086474316E+02  0.16394562468E+02  0.52302672243E+02  0.64023948527E+02  0.00000000000E+00 0. -1.
         21    1    1    2  504  505  0.38598447725E+01  0.12083923912E+03  0.27883040783E+02  0.12407451018E+03  0.00000000000E+00 0. -1.
         21    1    1    2  505  503 -0.28130786778E+02  0.66145899960E+02  0.25000350184E+02  0.76102817001E+02  0.00000000000E+00 0. -1.
         21    1    1    2  506  504  0.57357416321E+02 -0.20337970155E+03 -0.39900479112E+02  0.21504702844E+03  0.00000000000E+00 0. -1.
<scales pt_clust_3="36.92555" pt_clust_4="31.99461" pt_clust_5="31.99461" pt_clust_6="201.49742"></scales>
<clustering>
<clus scale="   31.995">  4  5 -1 -1</clus>
<clus scale="   36.926">  1  3  2 -1</clus>
<clus scale="  201.497">  2  6  1 -1</clus>
<clus scale="   36.926">  1  3  2 -1</clus>
</clustering>
</event>
<event>
 6    0  0.6549018E+002  0.1337103E+03  0.7546771E-02  0.1222052E+00
         21   -1    0    0  506  501  0.00000000000E+00  0.00000000000E+00  0.22807841649E+03  0.22807841649E+03  0.00000000000E+00 0.  1.
         21   -1    0    0  505  502 -0.00000000000E+00 -0.00000000000E+00 -0.26485581595E+03  0.26485581595E+03  0.00000000000E+00 0.  1.
         21    1    1    2  503  501  0.38776921126E+02  0.41491819792E+01  0.78763738402E+02  0.87889657015E+02  0.00000000000E+00 0.  1.
         21    1    1    2  504  502  0.73697874539E+02  0.53573334412E+02 -0.84080579951E+02  0.12397992901E+03  0.00000000000E+00 0.  1.
         21    1    1    2  505  503  0.75834083464E+02 -0.41512240194E+02 -0.31635932683E+02  0.92059255578E+02  0.00000000000E+00 0.  1.
         21    1    1    2  506  504 -0.18830887913E+03 -0.16210276197E+02  0.17537477395E+00  0.18900539085E+03  0.00000000000E+00 0.  1.
<scales pt_clust_3="38.99827" pt_clust_4="133.71026" pt_clust_5="93.25191" pt_clust_6="14000.00000"></scales>
<clustering>
<clus scale="   38.998">  1  3  2 -1</clus>
<clus scale="   93.252">  2  5  1 -1</clus>
<clus scale="  133.710">  2  4  1 -1</clus>
<clus scale="   38.998">  1  3  2 -1</clus>
</clustering>
</event>
<event>
 6    0  0.6549018E+002  0.1115194E+03  0.7546771E-02  0.1257782E+00
         21   -1    0    0  506  501  0.00000000000E+00  0.00000000000E+00  0.30803083519E+03  0.30803083519E+03  0.00000000000E+00 0.  1.
         21   -1    0    0  505  502 -0.00000000000E+00 -0.00000000000E+00 -0.10690951941E+03  0.10690951941E+03  0.00000000000E+00 0. -1.
         21    1    1    2  503  501 -0.22601812663E+02  0.21180260427E+02  0.82742886539E+02  0.88350611996E+02  0.00000000000E+00 0.  1.
         21    1    1    2  504  502  0.20499216133E+01  0.48835270565E+02 -0.71105363810E+01  0.49392768270E+02  0.00000000000E+00 0. -1.
         21    1    1    2  505  503  0.36325924183E+02 -0.12315504005E+03  0.16503781860E+03  0.20910336732E+03  0.00000000000E+00 0.  1.
         21    1    1    2  506  504 -0.15774033132E+02  0.53139509056E+02 -0.39548852975E+02  0.68093607010E+02  0.00000000000E+00 0. -1.
<scales pt_clust_3="30.97492" pt_clust_4="30.26457" pt_clust_5="106.76069" pt_clust_6="30.26457"></scales>
<clustering>
<clus scale="   30.265">  4  6 -1 -1</clus>
<clus scale="   30.975">  1  3  2 -1</clus>
<clus scale="  106.761">  1  5  2 -1</clus>
<clus scale="   30.975">  1  3  2 -1</clus>
</clustering>
</event>
<event>
 6    0  0.6549018E+002  0.1554570E+03  0.7546771E-02  0.1193923E+00
         21   -1    0    0  504  501  0.00000000000E+00  0.00000000000E+00  0.13945066122E+03  0.13945066122E+03  0.00000000000E+00 0. -1.
         21   -1    0    0  506  502 -0.00000000000E+00 -0.00000000000E+00 -0.97074199698E+03  0.97074199698E+03  0.00000000000E+00 0. -1.
         21    1    1    2  503  502  0.37057074763E+02  0.25553855799E+01 -0.33183550634E+03  0.33390801136E+03  0.00000000000E+00 0. -1.
         21    1    1    2  504  503  0.53790734224E+02  0.59028624819E+02 -0.47380488137E+03  0.48048817597E+03  0.00000000000E+00 0. -1.
         21    1    1    2  505  501 -0.15174427385E+03 -0.22910049566E+01  0.70608660942E+02  0.16738326185E+03  0.00000000000E+00 0. -1.
         21    1    1    2  506  505  0.60896464858E+02 -0.59293005442E+02 -0.96259608997E+02  0.12841320902E+03  0.00000000000E+00 0. -1.
<scales pt_clust_3="31.54044" pt_clust_4="31.54044" pt_clust_5="148.41856" pt_clust_6="84.99435"></scales>
<clustering>
<clus scale="   31.540">  3  4 -1 -1</clus>
<clus scale="   84.994">  2  6  1 -1</clus>
<clus scale="  148.419">  1  5  2 -1</clus>
<clus scale="  148.419">  1  3  2 -1</clus>
</clustering>
</event>
<event>
 6    0  0.6549018E+002  0.1590094E+03  0.7546771E-02  0.1189820E+00
         21   -1    0    0  503  501  0.00000000000E+00  0.00000000000E+00  0.68121501876E+02  0.68121501876E+02  0.00000000000E+00 0. -1.
         21   -1    0    0  506  502 -0.00000000000E+00 -0.00000000000E+00 -0.17763811889E+04  0.17763811889E+04  0.00000000000E+00 0. -1.
         21    1    1    2  503  505  0.11401529329E+03 -0.14557375304E+03 -0.10395100725E+03  0.21212500227E+03  0.00000000000E+00 0. -1.
         21    1    1    2  504  501 -0.15885129807E+02  0.30283037559E+02 -0.45482469962E+02  0.56903908360E+02  0.00000000000E+00 0. -1.
         21    1    1    2  505  502 -0.22573037772E+01 -0.42421187234E+02 -0.22986403728E+03  0.23375655752E+03  0.00000000000E+00 0. -1.
         21    1    1    2  506  504 -0.95872859705E+02  0.15771190272E+03 -0.13289621726E+04  0.13417172227E+04  0.00000000000E+00 0. -1.
<scales pt_clust_3="14000.00000" pt_clust_4="34.19649" pt_clust_5="41.56806" pt_clust_6="159.00938"></scales>
<clustering>
<clus scale="   34.196">  1  4  2 -1</clus>
<clus scale="   41.568">  2  5  1 -1</clus>
<clus scale="  159.009">  2  6  1 -1</clus>
<clus scale="   34.196">  1  3  2 -1</clus>
</clustering>
</event>
<event>
 6    0  0.6549018E+002  0.1536107E+03  0.7546771E-02  0.1196105E+00
         21   -1    0    0  506  501  0.00000000000E+00  0.00000000000E+00  0.30132229226E+03  0.30132229226E+03  0.00000000000E+00 0.  1.
         21   -1    0    0  503  502 -0.00000000000E+00 -0.00000000000E+00 -0.38437419331E+03  0.38437419331E+03  0.00000000000E+00 0.  1.
         21    1    1    2  503  501 -0.85766482220E+02  0.13750630529E+03 -0.27640818057E+03  0.32041435011E+03  0.00000000000E+00 0.  1.
         21    1    1    2  504  505  0.18560227021E+01 -0.58541289242E+02 -0.32902159883E+02  0.67179457361E+02  0.00000000000E+00 0. -1.
         21    1    1    2  505  502  0.13814316532E+02 -0.64125608127E+02  0.52917011974E+01  0.65809809758E+02  0.00000000000E+00 0.  1.
         21    1    1    2  506  504  0.70096142986E+02 -0.14839407925E+02  0.22096673821E+03  0.23229286834E+03  0.00000000000E+00 0.  1.
<scales pt_clust_3="148.20652" pt_clust_4="38.16251" pt_clust_5="38.16251" pt_clust_6="71.64968"></scales>
<clustering>
<clus scale="   38.163">  4  5 -1 -1</clus>
<clus scale="   71.650">  1  6  2 -1</clus>
<clus scale="  148.207">  2  3  1 -1</clus>
<clus scale="   71.650">  1  3  2 -1</clus>
</clustering>
</event>
<event>
 6    0  0.6549018E+002  0.1639583E+03  0.7546771E-02  0.1184299E+00
         21   -1    0    0  502  501  0.00000000000E+00  0.00000000000E+00  0.29046659245E+03  0.29046659245E+03  0.00000000000E+00 0.  1.
         21   -1    0    0  505  502 -0.00000000000E+00 -0.00000000000E+00 -0.85127555979E+02  0.85127555979E+02  0.00000000000E+00 0.  1.
         21    1    1    2  503  506 -0.25451685418E+02  0.39458751943E+02  0.25675405170E+02  0.53516425760E+02  0.00000000000E+00 0.  1.
         21    1    1    2  504  503 -0.49201662191E+02  0.45592420131E+01  0.69235502321E+01  0.49895148040E+02  0.00000000000E+00 0.  1.
         21    1    1    2  505  504 -0.59412999945E+02  0.18760723418E+02  0.51628589660E+02  0.80915885807E+02  0.00000000000E+00 0.  1.
         21    1    1    2  506  501  0.13406634755E+03 -0.62778717374E+02  0.12111149141E+03  0.19126668882E+03  0.00000000000E+00 0.  1.
<scales pt_clust_3="36.05325" pt_clust_4="32.62630" pt_clust_5="36.05325" pt_clust_6="148.03700"></scales>
<clustering>
<clus scale="   32.626">  4  5 -1 -1</clus>
<clus scale="   36.053">  3  4 -1 -1</clus>
<clus scale="  148.037">  1  6  2 -1</clus>
<clus scale="  148.037">  1  3  2 -1</clus>
</clustering>
</event>
<event>
 6    0  0.6549018E+002  0.1172478E+03  0.7546771E-02  0.1247708E+00
         21   -1    0    0  506  501  0.00000000000E+00  0.00000000000E+00  0.28685647131E+03  0.28685647131E+03  0.00000000000E+00 0.  1.
         21   -1    0    0  503  502 -0.00000000000E+00 -0.00000000000E+00 -0.50407554265E+03  0.50407554265E+03  0.00000000000E+00 0. -1.
         21    1    1    2  503  504  0.10483092893E+02 -0.53428477978E+02 -0.62068791987E+02  0.82565322227E+02  0.00000000000E+00 0.  1.
         21    1    1    2  504  505  0.14127049592E+03  0.40287871390E+02  0.19199327404E+03  0.24174756022E+03  0.00000000000E+00 0.  1.
         21    1    1    2  505  501 -0.39247804588E+02  0.14979133046E+02  0.43273697931E+02  0.60310675045E+02  0.00000000000E+00 0.  1.
         21    1    1    2  506  502 -0.11250578423E+03 -0.18385264577E+01 -0.39041725132E+03  0.40630845646E+03  0.00000000000E+00 0. -1.
<scales pt_clust_3="53.49947" pt_clust_4="14000.00000" pt_clust_5="42.00910" pt_clust_6="117.24780"></scales>
<clustering>
<clus scale="   42.009">  1  5  2 -1</clus>
<clus scale="   53.499">  2  3  1 -1</clus>
<clus scale="  117.248">  2  6  1 -1</clus>
<clus scale="   42.009">  1  3  2 -1</clus>
</clustering>
</event>
<event>
 6    0  0.6549018E+002  0.2180814E+03  0.7546771E-02  0.1135322E+00
         21   -1    0    0  503  501  0.00000000000E+00  0.00000000000E+00  0.23692907835E+04  0.23692907835E+04  0.00000000000E+00 0. -1.
         21   -1    0    0  506  502 -0.00000000000E+00 -0.00000000000E+00 -0.11763853447E+03  0.11763853447E+03  0.00000000000E+00 0. -1.
         21    1    1    2  503  505 -0.18883328673E+02 -0.28508247941E+02  0.12423199694E+03  0.12885219970E+03  0.00000000000E+00 0.  1.
         21    1    1    2  504  502  0.15814172540E+03  0.18859100496E+03  0.10550964404E+03  0.26778285503E+03  0.00000000000E+00 0. -1.
         21    1    1    2  505  504 -0.13999281831E+03 -0.11763838934E+03  0.21232936429E+03  0.28021516512E+03  0.00000000000E+00 0. -1.
         21    1    1    2  506  501  0.73442158148E+00 -0.42444367684E+02  0.18095812438E+04  0.18100790981E+04  0.00000000000E+00 0. -1.
<scales pt_clust_3="34.19503" pt_clust_4="218.08141" pt_clust_5="14000.00000" pt_clust_6="67.03745"></scales>
<clustering>
<clus scale="   34.195">  1  3  2 -1</clus>
<clus scale="   67.037">  1  6  2 -1</clus>
<clus scale="  218.081">  2  4  1 -1</clus>
<clus scale="   34.195">  1  3  2 -1</clus>
</clustering>
</event>
<event>
 6    0  0.6549018E+002  0.1225772E+03  0.7546771E-02  0.1238905E+00
         21   -1    0    0  506  501  0.00000000000E+00  0.00000000000E+00  0.18905566046E+03  0.18905566046E+03  0.00000000000E+00 0.  1.
         21   -1    0    0  505  502 -0.00000000000E+00 -0.00000000000E+00 -0.26711266675E+03  0.26711266675E+03  0.00000000000E+00 0.  1.
         21    1    1    2  503  502 -0.75616942467E+02 -0.42446084575E+02  0.14417906424E+02  0.87906018619E+02  0.00000000000E+00 0.  1.
         21    1    1    2  504  501  0.25362797572E+02  0.39353579829E+02 -0.11115868740E+03  0.12061604176E+03  0.00000000000E+00 0.  1.
         21    1    1    2  505  504  0.52300422605E+02  0.63829902783E+02 -0.90633394662E+02  0.12257243949E+03  0.00000000000E+00 0.  1.
         21    1    1    2  506  503 -0.20462777105E+01 -0.60737398038E+02  0.10931716934E+03  0.12507382734E+03  0.00000000000E+00 0.  1.
<scales pt_clust_3="115.25182" pt_clust_4="31.43952" pt_clust_5="31.43952" pt_clust_6="60.77186"></scales>
<clustering>
<clus scale="   31.440">  4  5 -1 -1</clus>
<clus scale="   60.772">  1  6  2 -1</clus>
<clus scale="  115.252">  1  3  2 -1</clus>
<clus scale="   60.772">  1  3  2 -1</clus>
</clustering>
</event>
<event>
 6    0  0.6549018E+002  0.1575270E+03  0.7546771E-02  0.1191517E+00
         21   -1    0    0  506  501  0.00000000000E+00  0.00000000000E+00  0.42841040681E+02  0.42841040681E+02  0.00000000000E+00 0. -1.
         21   -1    0    0  501  502 -0.00000000000E+00 -0.00000000000E+00 -0.89575260908E+03  0.89575260908E+03  0.00000000000E+00 0. -1.
         21    1    1    2  503  504 -0.57522970380E+02 -0.65176446746E+02 -0.27006993578E+03  0.28371575837E+03  0.00000000000E+00 0. -1.
         21    1    1    2  504  502 -0.27564243644E+02 -0.53428790949E+02 -0.29348225243E+03  0.29957679436E+03  0.00000000000E+00 0. -1.
         21    1    1    2  505  503  0.86944469609E+02  0.14929458546E+03 -0.26369850845E+03  0.31525405216E+03  0.00000000000E+00 0. -1.
         21    1    1    2  506  505 -0.18572555842E+01 -0.30689347769E+02 -0.25660871743E+02  0.40047044878E+02  0.00000000000E+00 0. -1.
<scales pt_clust_3="30.35235" pt_clust_4="30.35235" pt_clust_5="153.24050" pt_clust_6="30.74550"></scales>
<clustering>
<clus scale="   30.352">  3  4 -1 -1</clus>
<clus scale="   30.745">  1  6  2 -1</clus>
<clus scale="  153.240">  1  5  2 -1</clus>
<clus scale="   30.745">  1  3  2 -1</clus>
</clustering>
</event>
<event>
 6    0  0.6549018E+002  0.1832201E+03  0.7546771E-02  0.1164722E+00
         21   -1    0    0  504  501  0.00000000000E+00  0.00000000000E+00  0.81858960910E+03  0.81858960910E+03  0.00000000000E+00 0.  1.
         21   -1    0    0  505  502 -0.00000000000E+00 -0.00000000000E+00 -0.11819652877E+04  0.11819652877E+04  0.00000000000E+00 0. -1.
         21    1    1    2  503  502  0.15506483839E+03  0.19446437330E+02 -0.96757532029E+03  0.98011492615E+03  0.00000000000E+00 0. -1.
         21    1    1    2  504  506 -0.79898307898E+02  0.35756268269E+02  0.75386141744E+03  0.75892640423E+03  0.00000000000E+00 0.  1.
         21    1    1    2  505  501  0.48439881919E+02  0.47657723859E+01 -0.10717280187E+03  0.11770787657E+03  0.00000000000E+00 0. -1.
         21    1    1    2  506  503 -0.12360641241E+03 -0.59968477984E+02 -0.42488973924E+02  0.14380568989E+03  0.00000000000E+00 0.  1.
<scales pt_clust_3="14000.00000" pt_clust_4="87.43422" pt_clust_5="48.67376" pt_clust_6="183.22014"></scales>
<clustering>
<clus scale="   48.674">  2  5  1 -1</clus>
<clus scale="   87.434">  1  4  2 -1</clus>
<clus scale="  183.220">  1  6  2 -1</clus>
<clus scale="   87.434">  1  3  2 -1</clus>
</clustering>
</event>
<event>
 6    0  0.6549018E+002  0.9912899E+02  0.7546771E-02  0.1282138E+00
         21   -1    0    0  503  501  0.00000000000E+00  0.00000000000E+00  0.35672726945E+03  0.35672726945E+03  0.00000000000E+00 0. -1.
         21   -1    0    0  506  502 -0.00000000000E+00 -0.00000000000E+00 -0.22371723878E+03  0.22371723878E+03  0.00000000000E+00 0.  1.
         21    1    1    2  503  502  0.32782034080E+00  0.68358677890E+02 -0.90282666818E+02  0.11324299641E+03  0.00000000000E+00 0.  1.
         21    1    1    2  504  501 -0.18995079880E+02 -0.10515058783E+03  0.30087435163E+03  0.31928488008E+03  0.00000000000E+00 0. -1.
         21    1    1    2  505  504  0.39485906573E+02  0.59130315740E+02 -0.75310789664E+01  0.71499987467E+02  0.00000000000E+00 0.  1.
         21    1    1    2  506  505 -0.20818647033E+02 -0.22338405798E+02 -0.70050575182E+02  0.76416644268E+02  0.00000000000E+00 0.  1.
<scales pt_clust_3="54.99923" pt_clust_4="14000.00000" pt_clust_5="99.12899" pt_clust_6="30.53556"></scales>
<clustering>
<clus scale="   30.536">  2  6  1 -1</clus>
<clus scale="   54.999">  2  3  1 -1</clus>
<clus scale="   99.129">  2  5  1 -1</clus>
<clus scale="   99.129">  1  3  2 -1</clus>
</clustering>
</event>
<event>
 6    0  0.6549018E+002  0.1677939E+03  0.7546771E-02  0.1180168E+00
         21   -1    0    0  505  501  0.00000000000E+00  0.00000000000E+00  0.12230078785E+04  0.12230078785E+04  0.00000000000E+00 0. -1.
         21   -1    0    0  501  502 -0.00000000000E+00 -0.00000000000E+00 -0.18656863976E+03  0.18656863976E+03  0.00000000000E+00 0. -1.
         21    1    1    2  503  506 -0.12401621329E+03  0.17638657811E+03  0.33526869365E+03  0.39861929587E+03  0.00000000000E+00 0. -1.
         21    1    1    2  504  502  0.35227343105E+02 -0.39142653783E+02 -0.61447779804E+02  0.80925537936E+02  0.00000000000E+00 0. -1.
         21    1    1    2  505  503  0.58163578119E+02 -0.37700249112E+02  0.81187111152E+03  0.81482452854E+03  0.00000000000E+00 0. -1.
         21    1    1    2  506  504  0.30625292070E+02 -0.99543675219E+02 -0.49252786591E+02  0.11520715593E+03  0.00000000000E+00 0. -1.
<scales pt_clust_3="159.72428" pt_clust_4="36.55615" pt_clust_5="69.31313" pt_clust_6="36.55615"></scales>
<clustering>
<clus scale="   36.556">  4  6 -1 -1</clus>
<clus scale="   69.313">  1  5  2 -1</clus>
<clus scale="  159.724">  1  3  2 -1</clus>
<clus scale="   69.313">  1  3  2 -1</clus>
</clustering>
</event>
<event>
 6    0  0.6549018E+002  0.8104128E+02  0.7546771E-02  0.1326122E+00
         21   -1    0    0  505  501  0.00000000000E+00  0.00000000000E+00  0.75981115821E+02  0.75981115821E+02  0.00000000000E+00 0. -1.
         21   -1    0    0  506  502 -0.00000000000E+00 -0.00000000000E+00 -0.14350359861E+04  0.14350359861E+04  0.00000000000E+00 0.  1.
         21    1    1    2  503  501 -0.27555288065E+02 -0.75231824231E+02  0.40936966634E+02  0.89971976274E+02  0.00000000000E+00 0. -1.
         21    1    1    2  504  502 -0.10361543908E+02 -0.37014790629E+02 -0.35700469764E+03  0.35906797470E+03  0.00000000000E+00 0.  1.
         21    1    1    2  505  504  0.81270768888E+00  0.95607197115E+02 -0.24560418592E+03  0.26355798750E+03  0.00000000000E+00 0.  1.
         21    1    1    2  506  503  0.37104124284E+02  0.16639417745E+02 -0.79738295337E+03  0.79841916347E+03  0.00000000000E+00 0.  1.
<scales pt_clust_3="81.04128" pt_clust_4="38.43769" pt_clust_5="14000.00000" pt_clust_6="31.34115"></scales>
<clustering>
<clus scale="   38.438">  2  4  1 -1</clus>
<clus scale="   31.341">  2  6  1 -1</clus>
<clus scale="   81.041">  1  3  2 -1</clus>
<clus scale="   81.041">  1  3  2 -1</clus>
</clustering>
</event>
<event>
 6    0  0.6549018E+002  0.1469412E+03  0.7546771E-02  0.1204283E+00
         21   -1    0    0  503  501  0.00000000000E+00  0.00000000000E+00  0.21181076743E+04  0.21181076743E+04  0.00000000000E+00 0.  1.
         21   -1    0    0  506  502 -0.00000000000E+00 -0.00000000000E+00 -0.75754448860E+02  0.75754448860E+02  0.00000000000E+00 0.  1.
         21    1    1    2  503  504 -0.99086742934E+01  0.13629756557E+03  0.12366309406E+04  0.12441588690E+04  0.00000000000E+00 0.  1.
         21    1    1    2  504  502  0.26294307529E+02 -0.12920984980E+03  0.23416259702E+02  0.13392123473E+03  0.00000000000E+00 0.  1.
         21    1    1    2  505  501  0.34384042646E+02  0.12376235515E+02  0.75324358417E+03  0.75412951851E+03  0.00000000000E+00 0.  1.
         21    1    1    2  506  505 -0.50769675882E+02 -0.19463951285E+02  0.29062440987E+02  0.61652500882E+02  0.00000000000E+00 0.  1.
<scales pt_clust_3="14000.00000" pt_clust_4="146.94120" pt_clust_5="36.54358" pt_clust_6="53.15828"></scales>
<clustering>
<clus scale="   36.544">  1  5  2 -1</clus>
<clus scale="   53.158">  2  6  1 -1</clus>
<clus scale="  146.941">  2  4  1 -1</clus>
<clus scale="   36.544">  1  3  2 -1</clus>
</clustering>
</event>
<event>
 6    0  0.6549018E+002  0.1132959E+03  0.7546771E-02  0.1254585E+00
         21   -1    0    0  505  501  0.00000000000E+00  0.00000000000E+00  0.86744054545E+02  0.86744054545E+02  0.00000000000E+00 0.  1.
         21   -1    0    0  506  502 -0.00000000000E+00 -0.00000000000E+00 -0.30854830609E+03  0.30854830609E+03  0.00000000000E+00 0. -1.
         21    1    1    2  503  504 -0.95173024009E+01 -0.61461956724E+02 -0.74124279246E+02  0.96760322152E+02  0.00000000000E+00 0. -1.
         21    1    1    2  504  501  0.45806408283E+01 -0.30809914530E+02  0.28916024907E+02  0.42501407037E+02  0.00000000000E+00 0.  1.
         21    1    1    2  505  502 -0.35276851983E+01  0.12822830697E+03 -0.76546521735E+02  0.14937976189E+03  0.00000000000E+00 0.  1.
         21    1    1    2  506  503  0.84643467709E+01 -0.35956435717E+02 -0.10004947547E+03  0.10665086956E+03  0.00000000000E+00 0. -1.
<scales pt_clust_3="30.32333" pt_clust_4="31.14857" pt_clust_5="106.24399" pt_clust_6="30.32333"></scales>
<clustering>
<clus scale="   30.323">  3  6 -1 -1</clus>
<clus scale="   31.149">  1  4  2 -1</clus>
<clus scale="  106.244">  1  5  2 -1</clus>
<clus scale="   31.149">  1  3  2 -1</clus>
</clustering>
</event>
<event>
 6    0  0.6549018E+002  0.8751656E+02  0.7546771E-02  0.1308980E+00
         21   -1    0    0  504  501  0.00000000000E+00  0.00000000000E+00  0.88689592113E+02  0.88689592113E+02  0.00000000000E+00 0.  1.
         21   -1    0    0  506  502 -0.00000000000E+00 -0.00000000000E+00 -0.25041073322E+04  0.25041073322E+04  0.00000000000E+00 0.  1.
         21    1    1    2  503  502  0.45549339610E+02 -0.13422778350E+02 -0.65134603904E+03  0.65307470927E+03  0.00000000000E+00 0.  1.
         21    1    1    2  504  503 -0.65933664125E+02  0.10107381901E+03 -0.82824090430E+03  0.83698635623E+03  0.00000000000E+00 0.  1.
         21    1    1    2  505  501  0.68785765998E+02 -0.52920577467E+02  0.59754901660E+02  0.10536943293E+03  0.00000000000E+00 0.  1.
         21    1    1    2  506  505 -0.48401441483E+02 -0.34730463191E+02 -0.99558569845E+03  0.99736642593E+03  0.00000000000E+00 0.  1.
<scales pt_clust_3="47.48593" pt_clust_4="87.51656" pt_clust_5="14000.00000" pt_clust_6="48.27928"></scales>
<clustering>
<clus scale="   47.486">  2  3  1 -1</clus>
<clus scale="   48.279">  2  6  1 -1</clus>
<clus scale="   87.517">  2  4  1 -1</clus>
<clus scale="   87.517">  1  3  2 -1</clus>
</clustering>
</event>
<event>
 6    0  0.6549018E+002  0.1264629E+03  0.7546771E-02  0.1232801E+00
         21   -1    0    0  504  501  0.00000000000E+00  0.00000000000E+00  0.31985839236E+02  0.31985839236E+02  0.00000000000E+00 0.  1.
         21   -1    0    0  506  502 -0.00000000000E+00 -0.00000000000E+00 -0.11509648500E+04  0.11509648500E+04  0.00000000000E+00 0.  1.
         21    1    1    2  503  502  0.89059542346E+02 -0.74219347880E+02 -0.89500533161E+03  0.90248249695E+03  0.00000000000E+00 0.  1.
         21    1    1    2  504  505 -0.38769642933E+02  0.47563271454E+02 -0.30214502782E+02  0.68397852181E+02  0.00000000000E+00 0.  1.
         21    1    1    2  505  503 -0.14041699904E+02  0.43267318481E+02 -0.88371454852E+02  0.99391871989E+02  0.00000000000E+00 0.  1.
         21    1    1    2  506  501 -0.36248199509E+02 -0.16611242055E+02 -0.10538772149E+03  0.11267846809E+03  0.00000000000E+00 0.  1.
<scales pt_clust_3="113.75999" pt_clust_4="43.51987" pt_clust_5="43.51987" pt_clust_6="39.87312"></scales>
<clustering>
<clus scale="   39.873">  1  6  2 -1</clus>
<clus scale="   43.520">  4  5 -1 -1</clus>
<clus scale="  113.760">  2  3  1 -1</clus>
<clus scale="   39.873">  1  3  2 -1</clus>
</clustering>
</event>
<event>
 6    0  0.6549018E+002  0.1987613E+03  0.7546771E-02  0.1150788E+00
         21   -1    0    0  504  501  0.00000000000E+00  0.00000000000E+00  0.16752796965E+03  0.16752796965E+03  0.00000000000E+00 0. -1.
         21   -1    0    0  503  502 -0.00000000000E+00 -0.00000000000E+00 -0.62991305181E+03  0.62991305181E+03  0.00000000000E+00 0. -1.
         21    1    1    2  503  505 -0.23947340509E+02 -0.21446420833E+03 -0.12223401567E+02  0.21614296963E+03  0.00000000000E+00 0. -1.
         21    1    1    2  504  506  0.57039826384E+02  0.47948182307E+02 -0.10295350793E+03  0.12709049837E+03  0.00000000000E+00 0.  1.
         21    1    1    2  505  501 -0.80443501543E+02  0.65143425947E+02 -0.16163960610E+02  0.10476686741E+03  0.00000000000E+00 0. -1.
         21    1    1    2  506  502  0.47351015668E+02  0.10137260008E+03 -0.33104421206E+03  0.34944068606E+03  0.00000000000E+00 0. -1.
<scales pt_clust_3="184.31562" pt_clust_4="60.70817" pt_clust_5="103.51243" pt_clust_6="60.70817"></scales>
<clustering>
<clus scale="   60.708">  4  6 -1 -1</clus>
<clus scale="  103.512">  1  5  2 -1</clus>
<clus scale="  184.316">  1  3  2 -1</clus>
<clus scale="  103.512">  1  3  2 -1</clus>
</clustering>
</event>
<event>
 6    0  0.6549018E+002  0.7279012E+02  0.7546771E-02  0.1350854E+00
         21   -1    0    0  505  501  0.00000000000E+00  0.00000000000E+00  0.12580939558E+04  0.12580939558E+04  0.00000000000E+00 0.  1.
         21   -1    0    0  503  502 -0.00000000000E+00 -0.00000000000E+00 -0.61338081697E+03  0.61338081697E+03  0.00000000000E+00 0. -1.
         21    1    1    2  503  506  0.38623085912E+02  0.60058244496E+02 -0.54489310814E+03  0.54955184906E+03  0.00000000000E+00 0. -1.
         21    1    1    2  504  502 -0.87638707680E+02 -0.61579691427E+02 -0.17906295621E+02  0.10859667077E+03  0.00000000000E+00 0.  1.
         21    1    1    2  505  504  0.78965109733E+02 -0.30796950831E+00  0.10510763017E+04  0.10540384126E+04  0.00000000000E+00 0.  1.
         21    1    1    2  506  501 -0.29949487965E+02  0.18294164393E+01  0.15643624093E+03  0.15928784031E+03  0.00000000000E+00 0.  1.
<scales pt_clust_3="14000.00000" pt_clust_4="72.79012" pt_clust_5="50.33404" pt_clust_6="30.00531"></scales>
<clustering>
<clus scale="   30.005">  1  6  2 -1</clus>
<clus scale="   50.334">  1  5  2 -1</clus>
<clus scale="   72.790">  1  4  2 -1</clus>
<clus scale="   30.005">  1  3  2 -1</clus>
</clustering>
</event>
<event>
 6    0  0.6549018E+002  0.2995152E+03  0.7546771E-02  0.1085483E+00
         21   -1    0    0  503  501  0.00000000000E+00  0.00000000000E+00  0.23361726639E+03  0.23361726639E+03  0.00000000000E+00 0. -1.
         21   -1    0    0  505  502 -0.00000000000E+00 -0.00000000000E+00 -0.16299644369E+04  0.16299644369E+04  0.00000000000E+00 0. -1.
         21    1    1    2  503  504  0.16163638324E+03  0.75547305782E+02  0.10281755675E+03  0.20592514605E+03  0.00000000000E+00 0. -1.
         21    1    1    2  504  502 -0.40755009654E+03 -0.21501968316E+02 -0.98872789786E+03  0.10696458628E+04  0.00000000000E+00 0. -1.
         21    1    1    2  505  506  0.22256315868E+03 -0.82509905146E+02 -0.49322490449E+03  0.54736920854E+03  0.00000000000E+00 0. -1.
         21    1    1    2  506  501  0.23350554614E+02  0.28464567681E+02 -0.17211924880E+02  0.40641485850E+02  0.00000000000E+00 0. -1.
<scales pt_clust_3="201.82428" pt_clust_4="14000.00000" pt_clust_5="299.51518" pt_clust_6="36.81684"></scales>
<clustering>
<clus scale="   36.817">  1  6  2 -1</clus>
<clus scale="  201.824">  1  3  2 -1</clus>
<clus scale="  299.515">  2  5  1 -1</clus>
<clus scale="   36.817">  1  3  2 -1</clus>
</clustering>
</event>
<event>
 6    0  0.6549018E+002  0.1027549E+03  0.7546771E-02  0.1274607E+00
         21   -1    0    0  504  501  0.00000000000E+00  0.00000000000E+00  0.32422054933E+03  0.32422054933E+03  0.00000000000E+00 0.  1.
         21   -1    0    0  506  502 -0.00000000000E+00 -0.00000000000E+00 -0.33632830596E+03  0.33632830596E+03  0.00000000000E+00 0. -1.
         21    1    1    2  503  501  0.50502207380E+02  0.31832657296E+02  0.11545126116E+01  0.59708658670E+02  0.00000000000E+00 0.  1.
         21    1    1    2  504  505 -0.36245427572E+01 -0.10409135578E+03  0.27345119267E+03  0.29261528058E+03  0.00000000000E+00 0.  1.
         21    1    1    2  505  502 -0.76560964518E+01  0.70863820319E+02 -0.21455048335E+03  0.22608008924E+03  0.00000000000E+00 0. -1.
         21    1    1    2  506  503 -0.39221568171E+02  0.13948781653E+01 -0.72162978563E+02  0.82144826800E+02  0.00000000000E+00 0. -1.
<scales pt_clust_3="56.08894" pt_clust_4="14000.00000" pt_clust_5="102.75487" pt_clust_6="39.24636"></scales>
<clustering>
<clus scale="   39.246">  2  6  1 -1</clus>
<clus scale="   56.089">  2  3  1 -1</clus>
<clus scale="  102.755">  2  5  1 -1</clus>
<clus scale="  102.755">  1  3  2 -1</clus>
</clustering>
</event>
<event>
 6    0  0.6549018E+002  0.1103726E+03  0.7546771E-02  0.1259882E+00
         21   -1    0    0  504  501  0.00000000000E+00  0.00000000000E+00  0.21267213060E+04  0.21267213060E+04  0.00000000000E+00 0. -1.
         21   -1    0    0  505  502 -0.00000000000E+00 -0.00000000000E+00 -0.30520784804E+02  0.30520784804E+02  0.00000000000E+00 0.  1.
         21    1    1    2  503  502 -0.36813236366E+02 -0.29105558495E+02  0.52589503183E+02  0.70484067363E+02  0.00000000000E+00 0.  1.
         21    1    1    2  504  506  0.14494027061E+02 -0.27412479116E+02  0.73190244369E+03  0.73255901326E+03  0.00000000000E+00 0. -1.
         21    1    1    2  505  501  0.10137636827E+03  0.10127097685E+02  0.12209923288E+04  0.12252354847E+04  0.00000000000E+00 0. -1.
         21    1    1    2  506  503 -0.79057158964E+02  0.46390939926E+02  0.90716245607E+02  0.12896352549E+03  0.00000000000E+00 0.  1.
<scales pt_clust_3="47.19688" pt_clust_4="31.00840" pt_clust_5="14000.00000" pt_clust_6="110.37255"></scales>
<clustering>
<clus scale="   31.008">  1  4  2 -1</clus>
<clus scale="   47.197">  2  3  1 -1</clus>
<clus scale="  110.373">  2  6  1 -1</clus>
<clus scale="   31.008">  1  3  2 -1</clus>
</clustering>
</event>
<event>
 6    0  0.6549018E+002  0.1694592E+03  0.7546771E-02  0.1178413E+00
         21   -1    0    0  505  501  0.00000000000E+00  0.00000000000E+00  0.28033936081E+03  0.28033936081E+03  0.00000000000E+00 0. -1.
         21   -1    0    0  503  502 -0.00000000000E+00 -0.00000000000E+00 -0.11592761688E+04  0.11592761688E+04  0.00000000000E+00 0. -1.
         21    1    1    2  503  501 -0.20018245841E+02 -0.16135734148E+03  0.85528909515E+02  0.18371749013E+03  0.00000000000E+00 0. -1.
         21    1    1    2  504  502  0.68710505620E+02 -0.32256899785E+02 -0.64798049174E+03  0.65241118847E+03  0.00000000000E+00 0. -1.
         21    1    1    2  505  506 -0.10189261705E+03  0.17516608102E+03  0.68878117323E+02  0.21403143787E+03  0.00000000000E+00 0. -1.
         21    1    1    2  506  504  0.53200357269E+02  0.18448160239E+02 -0.38536334309E+03  0.38945541314E+03  0.00000000000E+00 0.  1.
<scales pt_clust_3="169.45915" pt_clust_4="132.99073" pt_clust_5="14000.00000" pt_clust_6="44.20015"></scales>
<clustering>
<clus scale="   44.200">  4  6 -1 -1</clus>
<clus scale="  132.991">  2  4  1 -1</clus>
<clus scale="  169.459">  1  3  2 -1</clus>
<clus scale="  169.459">  1  3  2 -1</clus>
</clustering>
</event>
<event>
 6    0  0.6549018E+002  0.1467672E+03  0.7546771E-02  0.1204503E+00
         21   -1    0    0  504  501  0.00000000000E+00  0.00000000000E+00  0.28766029503E+03  0.28766029503E+03  0.00000000000E+00 0. -1.
         21   -1    0    0  503  502 -0.00000000000E+00 -0.00000000000E+00 -0.63976071047E+03  0.63976071047E+03  0.00000000000E+00 0. -1.
         21    1    1    2  503  505  0.10403940748E+03  0.76908661119E+02 -0.18277076275E+03  0.22392921243E+03  0.00000000000E+00 0. -1.
         21    1    1    2  504  506 -0.21075472110E+02 -0.23272425189E+02 -0.51854331289E+01  0.31822476579E+02  0.00000000000E+00 0. -1.
         21    1    1    2  505  501 -0.12543458395E+03 -0.24527896438E+02  0.23591412451E+03  0.26831124967E+03  0.00000000000E+00 0. -1.
         21    1    1    2  506  502  0.42470648583E+02 -0.29108339491E+02 -0.40005834407E+03  0.40335806683E+03  0.00000000000E+00 0. -1.
<scales pt_clust_3="146.76724" pt_clust_4="31.39715" pt_clust_5="14000.00000" pt_clust_6="51.46328"></scales>
<clustering>
<clus scale="   31.397">  1  4  2 -1</clus>
<clus scale="   51.463">  2  6  1 -1</clus>
<clus scale="  146.767">  2  3  1 -1</clus>
<clus scale="   31.397">  1  3  2 -1</clus>
</clustering>
</event>
<event>
 6    0  0.6549018E+002  0.1284963E+03  0.7546771E-02  0.1229704E+00
         21   -1    0    0  504  501  0.00000000000E+00  0.00000000000E+00  0.94666445948E+03  0.94666445948E+03  0.00000000000E+00 0. -1.
         21   -1    0    0  503  502 -0.00000000000E+00 -0.00000000000E+00 -0.68274016363E+02  0.68274016363E+02  0.00000000000E+00 0.  1.
         21    1    1    2  503  506 -0.29619428079E+02 -0.10120773594E+03  0.42559660556E+02  0.11371737352E+03  0.00000000000E+00 0.  1.
         21    1    1    2  504  505  0.27285798734E+02 -0.30560395518E+02  0.11721630484E+03  0.12416970124E+03  0.00000000000E+00 0.  1.
         21    1    1    2  505  502  0.48516267761E+02 -0.28415786472E+02  0.21362369970E+02  0.60146787188E+02  0.00000000000E+00 0.  1.
         21    1    1    2  506  501 -0.46182638416E+02  0.16018391793E+03  0.69725210775E+03  0.71690461389E+03  0.00000000000E+00 0. -1.
<scales pt_clust_3="14000.00000" pt_clust_4="40.96892" pt_clust_5="58.15242" pt_clust_6="128.49628"></scales>
<clustering>
<clus scale="   40.969">  1  4  2 -1</clus>
<clus scale="   58.152">  2  5  1 -1</clus>
<clus scale="  128.496">  1  6  2 -1</clus>
<clus scale="   40.969">  1  3  2 -1</clus>
</clustering>
</event>
<event>
 6    0  0.6549018E+002  0.1049464E+03  0.7546771E-02  0.1270225E+00
         21   -1    0    0  505  501  0.00000000000E+00  0.00000000000E+00  0.11964027964E+03  0.11964027964E+03  0.00000000000E+00 0.  1.
         21   -1    0    0  503  502 -0.00000000000E+00 -0.00000000000E+00 -0.89062590069E+03  0.89062590069E+03  0.00000000000E+00 0. -1.
         21    1    1    2  503  506  0.23891821752E+02 -0.52853886926E+02 -0.34521793118E+03  0.35005681327E+03  0.00000000000E+00 0. -1.
         21    1    1    2  504  501 -0.77370276496E+02 -0.22311538245E+02  0.80728474251E+02  0.11402215126E+03  0.00000000000E+00 0.  1.
         21    1    1    2  505  502  0.87789121602E+01  0.10043402132E+03 -0.12194633345E+03  0.15822442978E+03  0.00000000000E+00 0. -1.
         21    1    1    2  506  504  0.44699542583E+02 -0.25268596146E+02 -0.38454983068E+03  0.38796278602E+03  0.00000000000E+00 0. -1.
<scales pt_clust_3="33.97660" pt_clust_4="80.52307" pt_clust_5="98.53783" pt_clust_6="33.97660"></scales>
<clustering>
<clus scale="   33.977">  3  6 -1 -1</clus>
<clus scale="   80.523">  1  4  2 -1</clus>
<clus scale="   98.538">  1  5  2 -1</clus>
<clus scale="   80.523">  1  3  2 -1</clus>
</clustering>
</event>
<event>
 6    0  0.6549018E+002  0.2135415E+03  0.7546771E-02  0.1138792E+00
         21   -1    0    0  503  501  0.00000000000E+00  0.00000000000E+00  0.94423674816E+03  0.94423674816E+03  0.00000000000E+00 0.  1.
         21   -1    0    0  505  502 -0.00000000000E+00 -0.00000000000E+00 -0.78474827595E+02  0.78474827595E+02  0.00000000000E+00 0.  1.
         21    1    1    2  503  504 -0.25044665962E+02  0.41982732358E+02  0.31932554915E+03  0.32304580395E+03  0.00000000000E+00 0.  1.
         21    1    1    2  504  502  0.12230510662E+03  0.14693569219E+03  0.36808521253E+03  0.41477145566E+03  0.00000000000E+00 0.  1.
         21    1    1    2  505  506 -0.79096731214E+02 -0.90887186004E+02  0.11631794481E+03  0.16747130427E+03  0.00000000000E+00 0.  1.
         21    1    1    2  506  501 -0.18163709442E+02 -0.98031238539E+02  0.62033214069E+02  0.11742301188E+03  0.00000000000E+00 0.  1.
<scales pt_clust_3="48.88543" pt_clust_4="203.45541" pt_clust_5="58.16945" pt_clust_6="58.16945"></scales>
<clustering>
<clus scale="   48.885">  1  3  2 -1</clus>
<clus scale="   58.169">  5  6 -1 -1</clus>
<clus scale="  203.455">  1  4  2 -1</clus>
<clus scale="   48.885">  1  3  2 -1</clus>
</clustering>
</event>
<event>
 6    0  0.6549018E+002  0.1066328E+03  0.7546771E-02  0.1266936E+00
         21   -1    0    0  503  501  0.00000000000E+00  0.00000000000E+00  0.12929961378E+04  0.12929961378E+04  0.00000000000E+00 0.  1.
         21   -1    0    0  504  502 -0.00000000000E+00 -0.00000000000E+00 -0.91572402041E+02  0.91572402041E+02  0.00000000000E+00 0.  1.
         21    1    1    2  503  505 -0.23858476138E+02 -0.39919392976E+02  0.86329793867E+03  0.86454966065E+03  0.00000000000E+00 0.  1.
         21    1    1    2  504  506 -0.98235057585E+02  0.86339659591E+02 -0.35817249012E+01  0.13083383397E+03  0.00000000000E+00 0.  1.
         21    1    1    2  505  502  0.32145949533E+02 -0.30701083021E+01 -0.91959127091E+00  0.32305313564E+02  0.00000000000E+00 0.  1.
         21    1    1    2  506  501  0.89947584190E+02 -0.43350158313E+02  0.34262711325E+03  0.35687973165E+03  0.00000000000E+00 0.  1.
<scales pt_clust_3="46.39070" pt_clust_4="14000.00000" pt_clust_5="32.29222" pt_clust_6="106.63280"></scales>
<clustering>
<clus scale="   32.292">  2  5  1 -1</clus>
<clus scale="   46.391">  1  3  2 -1</clus>
<clus scale="  106.633">  1  6  2 -1</clus>
<clus scale="   46.391">  1  3  2 -1</clus>
</clustering>
</event>
<event>
 6    0  0.6549018E+002  0.8703990E+02  0.7546771E-02  0.1310183E+00
         21   -1    0    0  504  501  0.00000000000E+00  0.00000000000E+00  0.95143513327E+03  0.95143513327E+03  0.00000000000E+00 0. -1.
         21   -1    0    0  506  502 -0.00000000000E+00 -0.00000000000E+00 -0.19661762394E+03  0.19661762394E+03  0.00000000000E+00 0. -1.
         21    1    1    2  503  502 -0.45613003877E+02 -0.68794769050E+02 -0.10433651575E+03  0.13303899763E+03  0.00000000000E+00 0. -1.
         21    1    1    2  504  503  0.84910031448E+01  0.47745496921E+02  0.47980938698E+03  0.48225385166E+03  0.00000000000E+00 0. -1.
         21    1    1    2  505  501  0.75791741730E+02 -0.17487853834E+02  0.44249691615E+03  0.44928135277E+03  0.00000000000E+00 0. -1.
         21    1    1    2  506  505 -0.38669740998E+02  0.38537125963E+02 -0.63152278054E+02  0.83478555148E+02  0.00000000000E+00 0. -1.
<scales pt_clust_3="87.03990" pt_clust_4="48.49463" pt_clust_5="14000.00000" pt_clust_6="55.19850"></scales>
<clustering>
<clus scale="   48.495">  1  4  2 -1</clus>
<clus scale="   55.199">  2  6  1 -1</clus>
<clus scale="   87.040">  2  3  1 -1</clus>
<clus scale="   48.495">  1  3  2 -1</clus>
</clustering>
</event>
<event>
 6    0  0.6549018E+002  0.9004856E+02  0.7546771E-02  0.1302734E+00
         21   -1    0    0  504  501  0.00000000000E+00  0.00000000000E+00  0.52807258334E+03  0.52807258334E+03  0.00000000000E+00 0. -1.
         21   -1    0    0  503  502 -0.00000000000E+00 -0.00000000000E+00 -0.93886407981E+02  0.93886407981E+02  0.00000000000E+00 0. -1.
         21    1    1    2  503  505  0.13403286093E+02 -0.59226762508E+02  0.41486030045E+01  0.60865987071E+02  0.00000000000E+00 0. -1.
         21    1    1    2  504  502  0.33423048420E+00  0.42541875664E+02 -0.36622351886E+02  0.56134833684E+02  0.00000000000E+00 0. -1.
         21    1    1    2  505  506  0.46229836117E+02 -0.59750969522E+02  0.98155493310E+02  0.12386233073E+03  0.00000000000E+00 0. -1.
         21    1    1    2  506  501 -0.59967352694E+02  0.76435856366E+02  0.36850443093E+03  0.38109583984E+03  0.00000000000E+00 0. -1.
<scales pt_clust_3="36.46458" pt_clust_4="42.54319" pt_clust_5="90.04856" pt_clust_6="14000.00000"></scales>
<clustering>
<clus scale="   42.543">  2  4  1 -1</clus>
<clus scale="   36.465">  2  3  1 -1</clus>
<clus scale="   90.049">  2  5  1 -1</clus>
<clus scale="   90.049">  1  3  2 -1</clus>
</clustering>
</event>
<event>
 6    0  0.6549018E+002  0.1084631E+03  0.7546771E-02  0.1263443E+00
         21   -1    0    0  505  501  0.00000000000E+00  0.00000000000E+00  0.67137482736E+03  0.67137482736E+03  0.00000000000E+00 0.  1.
         21   -1    0    0  504  502 -0.00000000000E+00 -0.00000000000E+00 -0.39194355022E+04  0.39194355022E+04  0.00000000000E+00 0. -1.
         21    1    1    2  503  502  0.43050746285E+02 -0.31860460692E+02 -0.27839503497E+04  0.27844654793E+04  0.00000000000E+00 0. -1.
         21    1    1    2  504  506  0.26669711117E+02  0.31186088980E+02 -0.10802389335E+04  0.10810180382E+04  0.00000000000E+00 0. -1.
         21    1    1    2  505  503 -0.75669695858E+02  0.83502512282E+02  0.63098354388E+03  0.64096708580E+03  0.00000000000E+00 0.  1.
         21    1    1    2  506  501  0.59492384557E+01 -0.82828140570E+02 -0.14854935628E+02  0.84359726298E+02  0.00000000000E+00 0. -1.
<scales pt_clust_3="69.21924" pt_clust_4="41.03469" pt_clust_5="14000.00000" pt_clust_6="108.46306"></scales>
<clustering>
<clus scale="   41.035">  2  4  1 -1</clus>
<clus scale="   69.219">  2  3  1 -1</clus>
<clus scale="  108.463">  2  6  1 -1</clus>
<clus scale="  108.463">  1  3  2 -1</clus>
</clustering>
</event>
<event>
 6    0  0.6549018E+002  0.1371721E+03  0.7546771E-02  0.1217186E+00
         21   -1    0    0  506  501  0.00000000000E+00  0.00000000000E+00  0.67493052391E+03  0.67493052391E+03  0.00000000000E+00 0.  1.
         21   -1    0    0  503  502 -0.00000000000E+00 -0.00000000000E+00 -0.37207954236E+03  0.37207954236E+03  0.00000000000E+00 0.  1.
         21    1    1    2  503  505  0.16800801662E+03  0.68087025472E+02 -0.21986587517E+03  0.28496234795E+03  0.00000000000E+00 0.  1.
         21    1    1    2  504  502 -0.54876800374E+02 -0.87473542220E+01 -0.59053118437E+02  0.81087916624E+02  0.00000000000E+00 0.  1.
         21    1    1    2  505  501  0.21026042728E+02 -0.37312924806E+02  0.53570481341E+03  0.53741417542E+03  0.00000000000E+00 0.  1.
         21    1    1    2  506  504 -0.13415725898E+03 -0.22026746444E+02  0.46065161753E+02  0.14354562627E+03  0.00000000000E+00 0.  1.
<scales pt_clust_3="137.17207" pt_clust_4="54.47790" pt_clust_5="42.82930" pt_clust_6="14000.00000"></scales>
<clustering>
<clus scale="   42.829">  1  5  2 -1</clus>
<clus scale="   54.478">  2  4  1 -1</clus>
<clus scale="  137.172">  2  3  1 -1</clus>
<clus scale="   42.829">  1  3  2 -1</clus>
</clustering>
</event>
<event>
 6    0  0.6549018E+002  0.2186109E+03  0.7546771E-02  0.1134923E+00
         21   -1    0    0  506  501  0.00000000000E+00  0.00000000000E+00  0.12914082841E+04  0.12914082841E+04  0.00000000000E+00 0. -1.
         21   -1    0    0  504  502 -0.00000000000E+00 -0.00000000000E+00 -0.10860687334E+04  0.10860687334E+04  0.00000000000E+00 0.  1.
         21    1    1    2  503  501  0.25098791791E+02 -0.24990866249E+02  0.63586995470E+01  0.35985077535E+02  0.00000000000E+00 0.  1.
         21    1    1    2  504  503  0.87972435560E+02  0.16086523403E+03 -0.95885262773E+03  0.97622494060E+03  0.00000000000E+00 0.  1.
         21    1    1    2  505  502  0.76932242321E+02 -0.15648494334E+02 -0.77097478825E+02  0.11003393351E+03  0.00000000000E+00 0. -1.
         21    1    1    2  506  505 -0.19000346967E+03 -0.12022587345E+03  0.12349309577E+04  0.12552330658E+04  0.00000000000E+00 0. -1.
<scales pt_clust_3="35.41882" pt_clust_4="14000.00000" pt_clust_5="78.89147" pt_clust_6="218.61086"></scales>
<clustering>
<clus scale="   35.419">  1  3  2 -1</clus>
<clus scale="   78.891">  2  5  1 -1</clus>
<clus scale="  218.611">  1  6  2 -1</clus>
<clus scale="   35.419">  1  3  2 -1</clus>
</clustering>
</event>
<event>
 6    0  0.6549018E+002  0.1273286E+03  0.7546771E-02  0.1231474E+00
         21   -1    0    0  504  501  0.00000000000E+00  0.00000000000E+00  0.43613622506E+03  0.43613622506E+03  0.00000000000E+00 0.  1.
         21   -1    0    0  503  502 -0.00000000000E+00 -0.00000000000E+00 -0.79971850431E+02  0.79971850431E+02  0.00000000000E+00 0.  1.
         21    1    1    2  503  505 -0.88193251016E+02  0.47372954127E+02  0.67418661058E+02  0.12069599068E+03  0.00000000000E+00 0.  1.
         21    1    1    2  504  506  0.61763130621E+02 -0.10469586623E+03  0.14704460343E+03  0.19078266197E+03  0.00000000000E+00 0.  1.
         21    1    1    2  505  501  0.11999170516E+02  0.95948203917E+02  0.12952186716E+03  0.16163524369E+03  0.00000000000E+00 0.  1.
         21    1    1    2  506  502  0.14430949879E+02 -0.38625291810E+02  0.12179242982E+02  0.42994179158E+02  0.00000000000E+00 0.  1.
<scales pt_clust_3="115.15069" pt_clust_4="31.64882" pt_clust_5="96.69559" pt_clust_6="31.64882"></scales>
<clustering>
<clus scale="   31.649">  4  6 -1 -1</clus>
<clus scale="   96.696">  1  5  2 -1</clus>
<clus scale="  115.151">  2  3  1 -1</clus>
<clus scale="   96.696">  1  3  2 -1</clus>
</clustering>
</event>
<event>
 6    0  0.6549018E+002  0.8257697E+02  0.7546771E-02  0.1321893E+00
         21   -1    0    0  505  501  0.00000000000E+00  0.00000000000E+00  0.18001008617E+04  0.18001008617E+04  0.00000000000E+00 0. -1.
         21   -1    0    0  503  502 -0.00000000000E+00 -0.00000000000E+00 -0.11766581485E+03  0.11766581485E+03  0.00000000000E+00 0. -1.
         21    1    1    2  503  506  0.29483351044E+02  0.97995497790E+02 -0.64991190200E+02  0.12122805112E+03  0.00000000000E+00 0. -1.
         21    1    1    2  504  502  0.25123258127E+02 -0.38721673678E+02  0.14673327619E+02  0.48434003085E+02  0.00000000000E+00 0.  1.
         21    1    1    2  505  504 -0.24149560636E+02  0.62162544734E+02  0.21281830183E+03  0.22302244918E+03  0.00000000000E+00 0.  1.
         21    1    1    2  506  501 -0.30457048535E+02 -0.12143636885E+03  0.15199346076E+04  0.15250821732E+04  0.00000000000E+00 0. -1.
<scales pt_clust_3="14000.00000" pt_clust_4="46.15784" pt_clust_5="64.40273" pt_clust_6="82.57697"></scales>
<clustering>
<clus scale="   46.158">  2  4  1 -1</clus>
<clus scale="   64.403">  1  5  2 -1</clus>
<clus scale="   82.577">  1  6  2 -1</clus>
<clus scale="   64.403">  1  3  2 -1</clus>
</clustering>
</event>
<event>
 6    0  0.6549018E+002  0.9897557E+02  0.7546771E-02  0.1282465E+00
         21   -1    0    0  503  501  0.00000000000E+00  0.00000000000E+00  0.18765980036E+02  0.18765980036E+02  0.00000000000E+00 0. -1.
         21   -1    0    0  505  502 -0.00000000000E+00 -0.00000000000E+00 -0.14338163989E+04  0.14338163989E+04  0.00000000000E+00 0.  1.
         21    1    1    2  503  504  0.99527364310E+02  0.57834598262E+01 -0.20331492729E+03  0.22644227589E+03  0.00000000000E+00 0. -1.
         21    1    1    2  504  502  0.30417711849E+02  0.13871445939E+02 -0.22791965097E+03  0.23035846306E+03  0.00000000000E+00 0.  1.
         21    1    1    2  505  506 -0.32659774056E+02 -0.42864897573E+02 -0.34709758819E+03  0.35125602631E+03  0.00000000000E+00 0.  1.
         21    1    1    2  506  501 -0.97285302103E+02  0.23209991808E+02 -0.63671825238E+03  0.64452561364E+03  0.00000000000E+00 0.  1.
<scales pt_clust_3="14000.00000" pt_clust_4="33.43134" pt_clust_5="45.57820" pt_clust_6="98.97557"></scales>
<clustering>
<clus scale="   33.431">  2  4  1 -1</clus>
<clus scale="   45.578">  2  5  1 -1</clus>
<clus scale="   98.976">  2  6  1 -1</clus>
<clus scale="   98.976">  1  3  2 -1</clus>
</clustering>
</event>
<event>
 6    0  0.6549018E+002  0.1127603E+03  0.7546771E-02  0.1255542E+00
         21   -1    0    0  504  501  0.00000000000E+00  0.00000000000E+00  0.18876609635E+04  0.18876609635E+04  0.00000000000E+00 0. -1.
         21   -1    0    0  505  502 -0.00000000000E+00 -0.00000000000E+00 -0.64086528929E+02  0.64086528929E+02  0.00000000000E+00 0. -1.
         21    1    1    2  503  501  0.54154570887E+02 -0.83558540806E+02  0.16540717398E+04  0.16570661024E+04  0.00000000000E+00 0. -1.
         21    1    1    2  504  506 -0.67744764153E+02 -0.16185490094E+02  0.42134441477E+02  0.81404141899E+02  0.00000000000E+00 0. -1.
         21    1    1    2  505  503  0.67519950391E+02  0.77388978077E+02  0.44546779817E+02  0.11194826136E+03  0.00000000000E+00 0. -1.
         21    1    1    2  506  502 -0.53929757125E+02  0.22355052823E+02  0.82821473388E+02  0.10132898669E+03  0.00000000000E+00 0. -1.
<scales pt_clust_3="99.57282" pt_clust_4="49.59573" pt_clust_5="98.89498" pt_clust_6="49.59573"></scales>
<clustering>
<clus scale="   49.596">  4  6 -1 -1</clus>
<clus scale="   99.573">  1  3  2 -1</clus>
<clus scale="   98.895">  2  5  1 -1</clus>
<clus scale="   99.573">  1  3  2 -1</clus>
</clustering>
</event>
<event>
 6    0  0.6551449E+002  0.6779451E+02  0.7546771E-02  0.1367758E+00
         21   -1    0    0  506  501  0.00000000000E+00  0.00000000000E+00  0.11991595132E+04  0.11991595132E+04  0.00000000000E+00 0.  1.
         21   -1    0    0  505  502 -0.00000000000E+00 -0.00000000000E+00 -0.42666463736E+03  0.42666463736E+03  0.00000000000E+00 0.  1.
         21    1    1    2  503  501 -0.11932257179E+03  0.14400642158E+02  0.97445371378E+03  0.98183771314E+03  0.00000000000E+00 0.  1.
         21    1    1    2  504  502  0.74163338566E+02  0.52652016130E+01 -0.39963232899E+03  0.40648975572E+03  0.00000000000E+00 0.  1.
         21    1    1    2  505  503 -0.12661774793E+02 -0.31202508827E+02  0.26755427990E+01  0.33779810942E+02  0.00000000000E+00 0. -1.
         21    1    1    2  506  504  0.57821008021E+02  0.11536665056E+02  0.19499794827E+03  0.20371687077E+03  0.00000000000E+00 0.  1.
<scales pt_clust_3="14000.00000" pt_clust_4="67.79451" pt_clust_5="33.67369" pt_clust_6="58.76504"></scales>
<clustering>
<clus scale="   33.674">  2  5  1 -1</clus>
<clus scale="   58.765">  1  6  2 -1</clus>
<clus scale="   67.795">  2  4  1 -1</clus>
<clus scale="   58.765">  1  3  2 -1</clus>
</clustering>
</event>
<event>
 6    0  0.6549018E+002  0.1353157E+03  0.7546771E-02  0.1219775E+00
         21   -1    0    0  505  501  0.00000000000E+00  0.00000000000E+00  0.15662896578E+03  0.15662896578E+03  0.00000000000E+00 0.  1.
         21   -1    0    0  504  502 -0.00000000000E+00 -0.00000000000E+00 -0.73581764744E+03  0.73581764744E+03  0.00000000000E+00 0.  1.
         21    1    1    2  503  502 -0.10161770188E+03  0.65240181293E+02 -0.46422239278E+03  0.47967162575E+03  0.00000000000E+00 0.  1.
         21    1    1    2  504  506  0.96655389546E+02  0.74207035493E+02 -0.16441847445E+03  0.20465185849E+03  0.00000000000E+00 0. -1.
         21    1    1    2  505  503 -0.26110678208E+02  0.16687288458E+02 -0.17309644126E+02  0.35494462841E+02  0.00000000000E+00 0. -1.
         21    1    1    2  506  501  0.31072990545E+02 -0.15613450524E+03  0.66761829689E+02  0.17262866614E+03  0.00000000000E+00 0.  1.
<scales pt_clust_3="14000.00000" pt_clust_4="120.48346" pt_clust_5="30.98763" pt_clust_6="135.31566"></scales>
<clustering>
<clus scale="   30.988">  1  5  2 -1</clus>
<clus scale="  120.483">  2  4  1 -1</clus>
<clus scale="  135.316">  1  6  2 -1</clus>
<clus scale="   30.988">  1  3  2 -1</clus>
</clustering>
</event>
<event>
 6    0  0.6549018E+002  0.7536458E+02  0.7546771E-02  0.1342746E+00
         21   -1    0    0  506  501  0.00000000000E+00  0.00000000000E+00  0.51279270658E+03  0.51279270658E+03  0.00000000000E+00 0. -1.
         21   -1    0    0  504  502 -0.00000000000E+00 -0.00000000000E+00 -0.37506514439E+03  0.37506514439E+03  0.00000000000E+00 0. -1.
         21    1    1    2  503  502 -0.17316834972E+02  0.97348492986E+02 -0.11135088933E+03  0.14891481597E+03  0.00000000000E+00 0. -1.
         21    1    1    2  504  505  0.51247184093E+02 -0.50882471247E+02 -0.22597868979E+03  0.23723757712E+03  0.00000000000E+00 0. -1.
         21    1    1    2  505  501  0.31466485081E+02  0.14818367740E+02  0.25056696902E+02  0.42866790940E+02  0.00000000000E+00 0.  1.
         21    1    1    2  506  503 -0.65396834202E+02 -0.61284389479E+02  0.45000044441E+03  0.45883866695E+03  0.00000000000E+00 0. -1.
<scales pt_clust_3="14000.00000" pt_clust_4="75.36458" pt_clust_5="34.78108" pt_clust_6="59.09799"></scales>
<clustering>
<clus scale="   34.781">  1  5  2 -1</clus>
<clus scale="   59.098">  1  6  2 -1</clus>
<clus scale="   75.365">  2  4  1 -1</clus>
<clus scale="   34.781">  1  3  2 -1</clus>
</clustering>
</event>
<event>
 6    0  0.6549018E+002  0.1201671E+03  0.7546771E-02  0.1242822E+00
         21   -1    0    0  505  501  0.00000000000E+00  0.00000000000E+00  0.21032170408E+03  0.21032170408E+03  0.00000000000E+00 0. -1.
         21   -1    0    0  506  502 -0.00000000000E+00 -0.00000000000E+00 -0.16978918301E+04  0.16978918301E+04  0.00000000000E+00 0.  1.
         21    1    1    2  503  501 -0.77456159350E+02 -0.18784831952E+03 -0.29035246607E+03  0.35438820850E+03  0.00000000000E+00 0. -1.
         21    1    1    2  504  502  0.25656928698E+02  0.42520803987E+02 -0.25638401730E+03  0.26114949950E+03  0.00000000000E+00 0.  1.
         21    1    1    2  505  504 -0.12436484487E+02  0.10609204722E+03  0.15829949831E+03  0.19096837381E+03  0.00000000000E+00 0. -1.
         21    1    1    2  506  503  0.64235715139E+02  0.39235468320E+02 -0.10991331409E+04  0.11017074524E+04  0.00000000000E+00 0.  1.
<scales pt_clust_3="14000.00000" pt_clust_4="49.66182" pt_clust_5="107.26448" pt_clust_6="120.16712"></scales>
<clustering>
<clus scale="   49.662">  2  4  1 -1</clus>
<clus scale="  107.264">  1  5  2 -1</clus>
<clus scale="  120.167">  2  6  1 -1</clus>
<clus scale="  107.264">  1  3  2 -1</clus>
</clustering>
</event>
<event>
 6    0  0.6549018E+002  0.1555695E+03  0.7546771E-02  0.1193792E+00
         21   -1    0    0  503  501  0.00000000000E+00  0.00000000000E+00  0.24570027564E+03  0.24570027564E+03  0.00000000000E+00 0.  1.
         21   -1    0    0  504  502 -0.00000000000E+00 -0.00000000000E+00 -0.35785168446E+03  0.35785168446E+03  0.00000000000E+00 0.  1.
         21    1    1    2  503  505 -0.51697831035E+02 -0.13815255317E+03  0.75278012096E+02  0.16560668098E+03  0.00000000000E+00 0. -1.
         21    1    1    2  504  506 -0.69600295556E+02  0.36252313736E+02 -0.16181708913E+03  0.17984215781E+03  0.00000000000E+00 0.  1.
         21    1    1    2  505  502  0.15638090749E+03  0.36061479059E+02  0.32247580168E+02  0.16369277603E+03  0.00000000000E+00 0.  1.
         21    1    1    2  506  501 -0.35082780898E+02  0.65838760372E+02 -0.57859911956E+02  0.94410345273E+02  0.00000000000E+00 0. -1.
<scales pt_clust_3="147.50862" pt_clust_4="72.80214" pt_clust_5="136.47909" pt_clust_6="72.80214"></scales>
<clustering>
<clus scale="   72.802">  4  6 -1 -1</clus>
<clus scale="  147.509">  1  3  2 -1</clus>
<clus scale="  136.479">  1  5  2 -1</clus>
<clus scale="  147.509">  1  3  2 -1</clus>
</clustering>
</event>
<event>
 6    0  0.6549018E+002  0.7730568E+02  0.7546771E-02  0.1336876E+00
         21   -1    0    0  504  501  0.00000000000E+00  0.00000000000E+00  0.21794194524E+04  0.21794194524E+04  0.00000000000E+00 0.  1.
         21   -1    0    0  505  502 -0.00000000000E+00 -0.00000000000E+00 -0.14852838836E+02  0.14852838836E+02  0.00000000000E+00 0.  1.
         21    1    1    2  503  506  0.39096417079E+01  0.86318984317E+02  0.39841980824E+03  0.40768197894E+03  0.00000000000E+00 0.  1.
         21    1    1    2  504  503 -0.35773826226E+02 -0.67371442080E+02  0.92388341596E+03  0.92702710000E+03  0.00000000000E+00 0.  1.
         21    1    1    2  505  501  0.92964960012E+02 -0.31481587426E+02  0.65175633642E+03  0.65910537564E+03  0.00000000000E+00 0.  1.
         21    1    1    2  506  502 -0.61100775494E+02  0.12534045189E+02  0.19050705292E+03  0.20045783663E+03  0.00000000000E+00 0.  1.
<scales pt_clust_3="14000.00000" pt_clust_4="77.30568" pt_clust_5="75.18094" pt_clust_6="62.37313"></scales>
<clustering>
<clus scale="   62.373">  2  6  1 -1</clus>
<clus scale="   75.181">  2  5  1 -1</clus>
<clus scale="   77.306">  1  4  2 -1</clus>
<clus scale="   77.306">  1  3  2 -1</clus>
</clustering>
</event>
<event>
 6    0  0.6549018E+002  0.1302112E+03  0.7546771E-02  0.1227143E+00
         21   -1    0    0  503  501  0.00000000000E+00  0.00000000000E+00  0.34252620715E+02  0.34252620715E+02  0.00000000000E+00 0. -1.
         21   -1    0    0  504  502 -0.00000000000E+00 -0.00000000000E+00 -0.11087221989E+04  0.11087221989E+04  0.00000000000E+00 0.  1.
         21    1    1    2  503  506 -0.33932902382E+01 -0.12575429471E+03 -0.12025411403E+03  0.17403077026E+03  0.00000000000E+00 0. -1.
         21    1    1    2  504  501  0.37448364500E+02  0.24811672780E+02 -0.15540371723E+03  0.16176623393E+03  0.00000000000E+00 0.  1.
         21    1    1    2  505  502 -0.16800929544E+02  0.30783583468E+02 -0.13634986566E+03  0.14078773423E+03  0.00000000000E+00 0.  1.
         21    1    1    2  506  505 -0.17254144717E+02  0.70159038458E+02 -0.66246188125E+03  0.66639008118E+03  0.00000000000E+00 0.  1.
<scales pt_clust_3="121.93559" pt_clust_4="44.92214" pt_clust_5="31.82552" pt_clust_6="31.82552"></scales>
<clustering>
<clus scale="   31.826">  5  6 -1 -1</clus>
<clus scale="   44.922">  2  4  1 -1</clus>
<clus scale="  121.936">  1  3  2 -1</clus>
<clus scale="  121.936">  1  3  2 -1</clus>
</clustering>
</event>
<event>
 6    0  0.6549018E+002  0.9176436E+02  0.7546771E-02  0.1298634E+00
         21   -1    0    0  503  501  0.00000000000E+00  0.00000000000E+00  0.14754348046E+03  0.14754348046E+03  0.00000000000E+00 0. -1.
         21   -1    0    0  506  502 -0.00000000000E+00 -0.00000000000E+00 -0.60016182603E+03  0.60016182603E+03  0.00000000000E+00 0. -1.
         21    1    1    2  503  505 -0.10728306876E+03  0.19097631570E+02  0.87158784254E+02  0.13953863281E+03  0.00000000000E+00 0. -1.
         21    1    1    2  504  501  0.46711275553E+02 -0.58311041738E+02 -0.17064893532E+02  0.76637663349E+02  0.00000000000E+00 0. -1.
         21    1    1    2  505  502  0.18816737839E+02  0.48652179979E+02 -0.24082801937E+03  0.24641274146E+03  0.00000000000E+00 0. -1.
         21    1    1    2  506  504  0.41755055370E+02 -0.94387698113E+01 -0.28188421692E+03  0.28511626887E+03  0.00000000000E+00 0. -1.
<scales pt_clust_3="14000.00000" pt_clust_4="91.76436" pt_clust_5="65.63627" pt_clust_6="42.80859"></scales>
<clustering>
<clus scale="   42.809">  2  6  1 -1</clus>
<clus scale="   65.636">  2  5  1 -1</clus>
<clus scale="   91.764">  2  4  1 -1</clus>
<clus scale="   91.764">  1  3  2 -1</clus>
</clustering>
</event>
<event>
 6    0  0.6549018E+002  0.2081199E+03  0.7546771E-02  0.1143064E+00
         21   -1    0    0  506  501  0.00000000000E+00  0.00000000000E+00  0.40964123016E+03  0.40964123016E+03  0.00000000000E+00 0. -1.
         21   -1    0    0  503  502 -0.00000000000E+00 -0.00000000000E+00 -0.12516524619E+03  0.12516524619E+03  0.00000000000E+00 0.  1.
         21    1    1    2  503  501 -0.14337159476E+03  0.13937291144E+03  0.10926675154E+03  0.22785838939E+03  0.00000000000E+00 0. -1.
         21    1    1    2  504  505  0.10930365786E+03 -0.11477497710E+03  0.88452429299E+02  0.18150597026E+03  0.00000000000E+00 0.  1.
         21    1    1    2  505  502  0.42057556759E+02  0.74514492957E+01  0.13032136126E+02  0.44656452492E+02  0.00000000000E+00 0.  1.
         21    1    1    2  506  504 -0.79896198639E+01 -0.32049383633E+02  0.73724667007E+02  0.80785664212E+02  0.00000000000E+00 0. -1.
<scales pt_clust_3="192.07321" pt_clust_4="40.12094" pt_clust_5="40.12094" pt_clust_6="33.03024"></scales>
<clustering>
<clus scale="   33.030">  1  6  2 -1</clus>
<clus scale="   40.121">  4  5 -1 -1</clus>
<clus scale="  192.073">  1  3  2 -1</clus>
<clus scale="   33.030">  1  3  2 -1</clus>
</clustering>
</event>
<event>
 6    0  0.6549018E+002  0.1776326E+03  0.7546771E-02  0.1170114E+00
         21   -1    0    0  503  501  0.00000000000E+00  0.00000000000E+00  0.58209857758E+03  0.58209857758E+03  0.00000000000E+00 0.  1.
         21   -1    0    0  504  502 -0.00000000000E+00 -0.00000000000E+00 -0.95915354048E+03  0.95915354048E+03  0.00000000000E+00 0.  1.
         21    1    1    2  503  502  0.13448014051E+02 -0.67030598776E+02 -0.24798292450E+03  0.25723429223E+03  0.00000000000E+00 0.  1.
         21    1    1    2  504  505 -0.99991356573E+02 -0.89143520758E+02 -0.65448394576E+03  0.66805244850E+03  0.00000000000E+00 0.  1.
         21    1    1    2  505  506  0.13013184510E+03  0.20850689809E+03  0.45993756065E+03  0.52149015653E+03  0.00000000000E+00 0.  1.
         21    1    1    2  506  501 -0.43588502577E+02 -0.52332778558E+02  0.65474346711E+02  0.94475220803E+02  0.00000000000E+00 0. -1.
<scales pt_clust_3="68.76173" pt_clust_4="14000.00000" pt_clust_5="177.63261" pt_clust_6="68.10784"></scales>
<clustering>
<clus scale="   68.108">  1  6  2 -1</clus>
<clus scale="   68.762">  2  3  1 -1</clus>
<clus scale="  177.633">  1  5  2 -1</clus>
<clus scale="   68.108">  1  3  2 -1</clus>
</clustering>
</event>
<event>
 6    0  0.6549018E+002  0.9145892E+02  0.7546771E-02  0.1299357E+00
         21   -1    0    0  506  501  0.00000000000E+00  0.00000000000E+00  0.43474207773E+03  0.43474207773E+03  0.00000000000E+00 0.  1.
         21   -1    0    0  504  502 -0.00000000000E+00 -0.00000000000E+00 -0.58604302685E+02  0.58604302685E+02  0.00000000000E+00 0. -1.
         21    1    1    2  503  501 -0.28915710028E+02  0.64400552016E+02  0.37907197413E+02  0.80128053777E+02  0.00000000000E+00 0. -1.
         21    1    1    2  504  503 -0.45645616671E+02 -0.35068857413E+01  0.15902341836E+02  0.48463440291E+02  0.00000000000E+00 0. -1.
         21    1    1    2  505  502  0.11493382733E+03 -0.61445048880E+02  0.24306886541E+03  0.27580382888E+03  0.00000000000E+00 0.  1.
         21    1    1    2  506  505 -0.40372500629E+02  0.55138260515E+00  0.79259370393E+02  0.88951057469E+02  0.00000000000E+00 0.  1.
<scales pt_clust_3="91.45892" pt_clust_4="49.47205" pt_clust_5="14000.00000" pt_clust_6="40.37627"></scales>
<clustering>
<clus scale="   40.376">  1  6  2 -1</clus>
<clus scale="   49.472">  2  4  1 -1</clus>
<clus scale="   91.459">  2  3  1 -1</clus>
<clus scale="   40.376">  1  3  2 -1</clus>
</clustering>
</event>
<event>
 6    0  0.6549018E+002  0.1618031E+03  0.7546771E-02  0.1186676E+00
         21   -1    0    0  506  501  0.00000000000E+00  0.00000000000E+00  0.19222310934E+04  0.19222310934E+04  0.00000000000E+00 0.  1.
         21   -1    0    0  505  502 -0.00000000000E+00 -0.00000000000E+00 -0.58871323907E+02  0.58871323907E+02  0.00000000000E+00 0. -1.
         21    1    1    2  503  502 -0.58039522286E+02 -0.15164111257E+02  0.25810092594E+02  0.65304649889E+02  0.00000000000E+00 0. -1.
         21    1    1    2  504  503 -0.10090287260E+03  0.26782821097E+02  0.47949330140E+02  0.11488188484E+03  0.00000000000E+00 0. -1.
         21    1    1    2  505  501  0.38942695250E+02  0.31917727859E+02  0.20159050668E+03  0.20778355866E+03  0.00000000000E+00 0.  1.
         21    1    1    2  506  504  0.11999969963E+03 -0.43536437700E+02  0.15880098401E+04  0.15931323239E+04  0.00000000000E+00 0.  1.
<scales pt_clust_3="30.59537" pt_clust_4="30.59537" pt_clust_5="50.35151" pt_clust_6="156.68823"></scales>
<clustering>
<clus scale="   30.595">  3  4 -1 -1</clus>
<clus scale="   50.352">  1  5  2 -1</clus>
<clus scale="  156.688">  1  6  2 -1</clus>
<clus scale="   50.352">  1  3  2 -1</clus>
</clustering>
</event>
<event>
 6    0  0.6549018E+002  0.1048673E+03  0.7546771E-02  0.1270381E+00
         21   -1    0    0  503  501  0.00000000000E+00  0.00000000000E+00  0.13655491741E+02  0.13655491741E+02  0.00000000000E+00 0.  1.
         21   -1    0    0  506  502 -0.00000000000E+00 -0.00000000000E+00 -0.24253318188E+04  0.24253318188E+04  0.00000000000E+00 0. -1.
         21    1    1    2  503  504 -0.12595495229E+01  0.39162869877E+02 -0.92591521080E+02  0.10054106931E+03  0.00000000000E+00 0.  1.
         21    1    1    2  504  502  0.51208233016E+02  0.78355437496E+02 -0.12945109117E+04  0.12978907344E+04  0.00000000000E+00 0. -1.
         21    1    1    2  505  501  0.30695661458E+02  0.85278141758E+01 -0.19788959769E+03  0.20043762152E+03  0.00000000000E+00 0. -1.
         21    1    1    2  506  505 -0.80644344951E+02 -0.12604612155E+03 -0.82668429652E+03  0.84011788533E+03  0.00000000000E+00 0.  1.
<scales pt_clust_3="42.77288" pt_clust_4="14000.00000" pt_clust_5="31.85824" pt_clust_6="104.86729"></scales>
<clustering>
<clus scale="   31.858">  1  5  2 -1</clus>
<clus scale="   42.773">  1  3  2 -1</clus>
<clus scale="  104.867">  1  6  2 -1</clus>
<clus scale="   31.858">  1  3  2 -1</clus>
</clustering>
</event>
<event>
 6    0  0.6549018E+002  0.1976183E+03  0.7546771E-02  0.1151764E+00
         21   -1    0    0  505  501  0.00000000000E+00  0.00000000000E+00  0.87603423029E+03  0.87603423029E+03  0.00000000000E+00 0. -1.
         21   -1    0    0  503  502 -0.00000000000E+00 -0.00000000000E+00 -0.13741566855E+03  0.13741566855E+03  0.00000000000E+00 0. -1.
         21    1    1    2  503  506 -0.68563981796E+02  0.17812472898E+03 -0.34955976809E+02  0.19403958098E+03  0.00000000000E+00 0. -1.
         21    1    1    2  504  502  0.26966599807E+02 -0.12010169841E+03  0.17853641819E+03  0.21685679165E+03  0.00000000000E+00 0. -1.
         21    1    1    2  505  504  0.33129329026E+02 -0.20276794135E+02  0.12427362797E+03  0.13020228658E+03  0.00000000000E+00 0. -1.
         21    1    1    2  506  501  0.84680529628E+01 -0.37746236435E+02  0.47076449239E+03  0.47235123963E+03  0.00000000000E+00 0. -1.
<scales pt_clust_3="183.34268" pt_clust_4="42.92623" pt_clust_5="42.92623" pt_clust_6="38.68445"></scales>
<clustering>
<clus scale="   38.684">  1  6  2 -1</clus>
<clus scale="   42.926">  4  5 -1 -1</clus>
<clus scale="  183.343">  2  3  1 -1</clus>
<clus scale="   38.684">  1  3  2 -1</clus>
</clustering>
</event>
<event>
 6    0  0.6549018E+002  0.1035272E+03  0.7546771E-02  0.1273049E+00
         21   -1    0    0  505  501  0.00000000000E+00  0.00000000000E+00  0.15663128041E+03  0.15663128041E+03  0.00000000000E+00 0. -1.
         21   -1    0    0  506  502 -0.00000000000E+00 -0.00000000000E+00 -0.16526291074E+03  0.16526291074E+03  0.00000000000E+00 0.  1.
         21    1    1    2  503  502  0.25510229614E+02 -0.34592274062E+02 -0.41262756671E+01  0.43178969309E+02  0.00000000000E+00 0. -1.
         21    1    1    2  504  501  0.86350028842E+02  0.25182990438E+02 -0.19805825620E+02  0.92102015270E+02  0.00000000000E+00 0. -1.
         21    1    1    2  505  503  0.12124099196E+02 -0.36677369745E+02  0.35912521173E+02  0.52744027243E+02  0.00000000000E+00 0. -1.
         21    1    1    2  506  504 -0.12398435765E+03  0.46086653370E+02 -0.20612050218E+02  0.13386917933E+03  0.00000000000E+00 0.  1.
<scales pt_clust_3="49.40915" pt_clust_4="103.52717" pt_clust_5="38.62931" pt_clust_6="14000.00000"></scales>
<clustering>
<clus scale="   38.629">  1  5  2 -1</clus>
<clus scale="   49.409">  2  3  1 -1</clus>
<clus scale="  103.527">  1  4  2 -1</clus>
<clus scale="   38.629">  1  3  2 -1</clus>
</clustering>
</event>
<event>
 6    0  0.6549018E+002  0.1361840E+03  0.7546771E-02  0.1218558E+00
         21   -1    0    0  506  501  0.00000000000E+00  0.00000000000E+00  0.80968942232E+03  0.80968942232E+03  0.00000000000E+00 0. -1.
         21   -1    0    0  504  502 -0.00000000000E+00 -0.00000000000E+00 -0.84031304496E+03  0.84031304496E+03  0.00000000000E+00 0.  1.
         21    1    1    2  503  505 -0.64754903058E+02 -0.86082253914E+02 -0.40195581870E+02  0.11497406973E+03  0.00000000000E+00 0.  1.
         21    1    1    2  504  503 -0.19618327211E+02 -0.28056895343E+02 -0.75159345161E+03  0.75237276974E+03  0.00000000000E+00 0.  1.
         21    1    1    2  505  501  0.44128488984E+02  0.11860135712E+03  0.68301026745E+03  0.69463417055E+03  0.00000000000E+00 0. -1.
         21    1    1    2  506  502  0.40244741284E+02 -0.44622078624E+01  0.78155143391E+02  0.88021457262E+02  0.00000000000E+00 0. -1.
<scales pt_clust_3="14000.00000" pt_clust_4="34.23548" pt_clust_5="136.18395" pt_clust_6="39.61061"></scales>
<clustering>
<clus scale="   34.235">  2  4  1 -1</clus>
<clus scale="   39.611">  1  6  2 -1</clus>
<clus scale="  136.184">  1  5  2 -1</clus>
<clus scale="   39.611">  1  3  2 -1</clus>
</clustering>
</event>
<event>
 6    0  0.6549018E+002  0.8600815E+02  0.7546771E-02  0.1312817E+00
         21   -1    0    0  505  501  0.00000000000E+00  0.00000000000E+00  0.14834204741E+04  0.14834204741E+04  0.00000000000E+00 0.  1.
         21   -1    0    0  504  502 -0.00000000000E+00 -0.00000000000E+00 -0.36063458834E+03  0.36063458834E+03  0.00000000000E+00 0. -1.
         21    1    1    2  503  502  0.11323118322E+02  0.30696220653E+02 -0.25697419542E+02  0.41603225140E+02  0.00000000000E+00 0.  1.
         21    1    1    2  504  506  0.38249368550E+02 -0.30585426372E+02 -0.31956257805E+03  0.32329355668E+03  0.00000000000E+00 0. -1.
         21    1    1    2  505  503 -0.31008028594E+02  0.85378005701E+02  0.87362839971E+03  0.87833790905E+03  0.00000000000E+00 0.  1.
         21    1    1    2  506  501 -0.18564458279E+02 -0.85488799982E+02  0.59441748365E+03  0.60082037158E+03  0.00000000000E+00 0.  1.
<scales pt_clust_3="32.71805" pt_clust_4="49.38179" pt_clust_5="86.00815" pt_clust_6="14000.00000"></scales>
<clustering>
<clus scale="   32.718">  2  3  1 -1</clus>
<clus scale="   49.382">  2  4  1 -1</clus>
<clus scale="   86.008">  1  5  2 -1</clus>
<clus scale="   86.008">  1  3  2 -1</clus>
</clustering>
</event>
<event>
 6    0  0.6549018E+002  0.1687606E+03  0.7546771E-02  0.1179147E+00
         21   -1    0    0  504  501  0.00000000000E+00  0.00000000000E+00  0.97177667035E+03  0.97177667035E+03  0.00000000000E+00 0. -1.
         21   -1    0    0  505  502 -0.00000000000E+00 -0.00000000000E+00 -0.26236486942E+03  0.26236486942E+03  0.00000000000E+00 0. -1.
         21    1    1    2  503  501 -0.29664188986E+02  0.64436567021E+01  0.36613687243E+03  0.36739310578E+03  0.00000000000E+00 0. -1.
         21    1    1    2  504  506  0.87229420625E+02 -0.10519444548E+03 -0.18556286106E+03  0.23045263849E+03  0.00000000000E+00 0. -1.
         21    1    1    2  505  503 -0.46754827907E+02  0.12977247391E+03  0.56838532463E+03  0.58488356634E+03  0.00000000000E+00 0. -1.
         21    1    1    2  506  502 -0.10810403731E+02 -0.31021685125E+02 -0.39547535076E+02  0.51412229162E+02  0.00000000000E+00 0. -1.
<scales pt_clust_3="30.35597" pt_clust_4="32.56701" pt_clust_5="155.24734" pt_clust_6="32.56701"></scales>
<clustering>
<clus scale="   30.356">  1  3  2 -1</clus>
<clus scale="   32.567">  4  6 -1 -1</clus>
<clus scale="  155.247">  1  5  2 -1</clus>
<clus scale="   30.356">  1  3  2 -1</clus>
</clustering>
</event>
<event>
 6    0  0.6549018E+002  0.1022065E+03  0.7546771E-02  0.1275723E+00
         21   -1    0    0  504  501  0.00000000000E+00  0.00000000000E+00  0.20217258039E+03  0.20217258039E+03  0.00000000000E+00 0. -1.
         21   -1    0    0  505  502 -0.00000000000E+00 -0.00000000000E+00 -0.33754015208E+03  0.33754015208E+03  0.00000000000E+00 0. -1.
         21    1    1    2  503  502 -0.49042086625E+02 -0.25488868738E+02 -0.16577184504E+03  0.17474299213E+03  0.00000000000E+00 0.  1.
         21    1    1    2  504  503 -0.10321996067E+03  0.55880424183E+02 -0.81859045890E+02  0.14310096255E+03  0.00000000000E+00 0. -1.
         21    1    1    2  505  506  0.69994942835E+02  0.25884480382E+02  0.40369932720E+01  0.74736842733E+02  0.00000000000E+00 0. -1.
         21    1    1    2  506  501  0.82267104459E+02 -0.56276035826E+02  0.10822632596E+03  0.14713193506E+03  0.00000000000E+00 0. -1.
<scales pt_clust_3="55.27032" pt_clust_4="102.20646" pt_clust_5="63.05621" pt_clust_6="14000.00000"></scales>
<clustering>
<clus scale="   55.270">  2  3  1 -1</clus>
<clus scale="   63.056">  2  5  1 -1</clus>
<clus scale="  102.206">  2  4  1 -1</clus>
<clus scale="  102.206">  1  3  2 -1</clus>
</clustering>
</event>
<event>
 6    0  0.6549018E+002  0.7501720E+02  0.7546771E-02  0.1343818E+00
         21   -1    0    0  506  501  0.00000000000E+00  0.00000000000E+00  0.19725087530E+04  0.19725087530E+04  0.00000000000E+00 0.  1.
         21   -1    0    0  503  502 -0.00000000000E+00 -0.00000000000E+00 -0.11994576231E+03  0.11994576231E+03  0.00000000000E+00 0.  1.
         21    1    1    2  503  505  0.12289176818E+03  0.13769596144E+02  0.66802679605E+03  0.67937602894E+03  0.00000000000E+00 0.  1.
         21    1    1    2  504  502 -0.24148845148E+02 -0.36146080543E+02 -0.98552082028E+02  0.10771359586E+03  0.00000000000E+00 0.  1.
         21    1    1    2  505  501 -0.50747945925E+02  0.22616347283E+02  0.12388387507E+04  0.12400839905E+04  0.00000000000E+00 0.  1.
         21    1    1    2  506  504 -0.47994977108E+02 -0.23986288345E+00  0.44249525959E+02  0.65280900035E+02  0.00000000000E+00 0.  1.
<scales pt_clust_3="75.01720" pt_clust_4="43.47075" pt_clust_5="55.85395" pt_clust_6="14000.00000"></scales>
<clustering>
<clus scale="   43.471">  2  4  1 -1</clus>
<clus scale="   55.854">  1  5  2 -1</clus>
<clus scale="   75.017">  1  3  2 -1</clus>
<clus scale="   55.854">  1  3  2 -1</clus>
</clustering>
</event>
<event>
 6    0  0.6549018E+002  0.1969907E+03  0.7546771E-02  0.1152303E+00
         21   -1    0    0  504  501  0.00000000000E+00  0.00000000000E+00  0.19419868086E+04  0.19419868086E+04  0.00000000000E+00 0. -1.
         21   -1    0    0  505  502 -0.00000000000E+00 -0.00000000000E+00 -0.32261182134E+03  0.32261182134E+03  0.00000000000E+00 0. -1.
         21    1    1    2  503  502  0.14125332211E+03 -0.17364007757E+03  0.77649362273E+03  0.80811244495E+03  0.00000000000E+00 0. -1.
         21    1    1    2  504  503 -0.56436830995E+01  0.53066311100E+02  0.11178078080E+04  0.11190809533E+04  0.00000000000E+00 0. -1.
         21    1    1    2  505  506 -0.11587588327E+03  0.70249967738E+02 -0.23074397730E+03  0.26759122061E+03  0.00000000000E+00 0. -1.
         21    1    1    2  506  501 -0.19733755739E+02  0.50323798728E+02 -0.44182466096E+02  0.69814011089E+02  0.00000000000E+00 0. -1.
<scales pt_clust_3="182.96335" pt_clust_4="53.36557" pt_clust_5="46.10921" pt_clust_6="46.10921"></scales>
<clustering>
<clus scale="   46.109">  5  6 -1 -1</clus>
<clus scale="   53.366">  1  4  2 -1</clus>
<clus scale="  182.963">  1  3  2 -1</clus>
<clus scale="   53.366">  1  3  2 -1</clus>
</clustering>
</event>
<event>
 6    0  0.6549018E+002  0.9382969E+02  0.7546771E-02  0.1293834E+00
         21   -1    0    0  504  501  0.00000000000E+00  0.00000000000E+00  0.48696346437E+03  0.48696346437E+03  0.00000000000E+00 0. -1.
         21   -1    0    0  503  502 -0.00000000000E+00 -0.00000000000E+00 -0.86764854776E+03  0.86764854776E+03  0.00000000000E+00 0. -1.
         21    1    1    2  503  501 -0.37804510179E+02  0.19533206030E+01 -0.15378475919E+03  0.15837534092E+03  0.00000000000E+00 0. -1.
         21    1    1    2  504  505  0.33059708670E+02  0.36018217891E+02  0.44079801457E+03  0.44350101015E+03  0.00000000000E+00 0. -1.
         21    1    1    2  505  506  0.16091969220E+02 -0.11637089962E+03 -0.46243134684E+02  0.12625199110E+03  0.00000000000E+00 0. -1.
         21    1    1    2  506  502 -0.11347167711E+02  0.78399361124E+02 -0.62145520408E+03  0.62648366996E+03  0.00000000000E+00 0. -1.
<scales pt_clust_3="37.85494" pt_clust_4="48.84446" pt_clust_5="14000.00000" pt_clust_6="93.82969"></scales>
<clustering>
<clus scale="   37.855">  2  3  1 -1</clus>
<clus scale="   48.844">  1  4  2 -1</clus>
<clus scale="   93.830">  2  6  1 -1</clus>
<clus scale="   48.844">  1  3  2 -1</clus>
</clustering>
</event>
<event>
 6    0  0.6549018E+002  0.1636697E+03  0.7546771E-02  0.1184615E+00
         21   -1    0    0  506  501  0.00000000000E+00  0.00000000000E+00  0.17084142437E+03  0.17084142437E+03  0.00000000000E+00 0. -1.
         21   -1    0    0  503  502 -0.00000000000E+00 -0.00000000000E+00 -0.35564711849E+03  0.35564711849E+03  0.00000000000E+00 0. -1.
         21    1    1    2  503  504  0.67282398550E+02  0.79518409451E+01 -0.68887827200E+02  0.96621352016E+02  0.00000000000E+00 0. -1.
         21    1    1    2  504  505  0.47908613540E+02  0.69011663028E+02 -0.58187986953E+02  0.10219435753E+03  0.00000000000E+00 0. -1.
         21    1    1    2  505  501 -0.16311505115E+03  0.20542400267E+02  0.52811502570E+02  0.17267763296E+03  0.00000000000E+00 0. -1.
         21    1    1    2  506  502  0.47924039062E+02 -0.97505904240E+02 -0.11054138253E+03  0.15499520036E+03  0.00000000000E+00 0. -1.
<scales pt_clust_3="58.10909" pt_clust_4="58.10909" pt_clust_5="150.33531" pt_clust_6="108.64674"></scales>
<clustering>
<clus scale="   58.109">  3  4 -1 -1</clus>
<clus scale="  108.647">  2  6  1 -1</clus>
<clus scale="  150.335">  1  5  2 -1</clus>
<clus scale="  150.335">  1  3  2 -1</clus>
</clustering>
</event>
<event>
 6    0  0.6549018E+002  0.1640762E+03  0.7546771E-02  0.1184170E+00
         21   -1    0    0  504  501  0.00000000000E+00  0.00000000000E+00  0.99088174402E+03  0.99088174402E+03  0.00000000000E+00 0.  1.
         21   -1    0    0  505  502 -0.00000000000E+00 -0.00000000000E+00 -0.47814459883E+03  0.47814459883E+03  0.00000000000E+00 0. -1.
         21    1    1    2  503  506  0.14767981234E+03 -0.63859029284E+02 -0.47794637973E+02  0.16784406458E+03  0.00000000000E+00 0. -1.
         21    1    1    2  504  502  0.64255775161E+02  0.97749319579E+02  0.10887092473E+03  0.15980179089E+03  0.00000000000E+00 0. -1.
         21    1    1    2  505  503 -0.53555752032E+02  0.20846547709E+02 -0.33356181928E+03  0.33847641633E+03  0.00000000000E+00 0. -1.
         21    1    1    2  506  501 -0.15837983547E+03 -0.54736838004E+02  0.78522267772E+03  0.80290407106E+03  0.00000000000E+00 0.  1.
<scales pt_clust_3="164.07618" pt_clust_4="115.26842" pt_clust_5="57.46997" pt_clust_6="14000.00000"></scales>
<clustering>
<clus scale="   57.470">  2  5  1 -1</clus>
<clus scale="  115.268">  2  4  1 -1</clus>
<clus scale="  164.076">  2  3  1 -1</clus>
<clus scale="  164.076">  1  3  2 -1</clus>
</clustering>
</event>
<event>
 6    0  0.6549018E+002  0.9608061E+02  0.7546771E-02  0.1288761E+00
         21   -1    0    0  503  501  0.00000000000E+00  0.00000000000E+00  0.47247910389E+02  0.47247910389E+02  0.00000000000E+00 0.  1.
         21   -1    0    0  501  502 -0.00000000000E+00 -0.00000000000E+00 -0.76411179805E+03  0.76411179805E+03  0.00000000000E+00 0. -1.
         21    1    1    2  503  506  0.24775539600E+02  0.17843055103E+02 -0.29930330179E+02  0.42755428222E+02  0.00000000000E+00 0. -1.
         21    1    1    2  504  502 -0.27307373967E+02  0.28620304577E+02 -0.29805426256E+03  0.30066785319E+03  0.00000000000E+00 0. -1.
         21    1    1    2  505  504  0.60113032291E+02  0.60840551924E+02 -0.31294988566E+03  0.32442684899E+03  0.00000000000E+00 0. -1.
         21    1    1    2  506  505 -0.57581197923E+02 -0.10730391160E+03 -0.75929409258E+02  0.14350957804E+03  0.00000000000E+00 0.  1.
<scales pt_clust_3="30.53198" pt_clust_4="39.43542" pt_clust_5="96.08061" pt_clust_6="14000.00000"></scales>
<clustering>
<clus scale="   30.532">  1  3  2 -1</clus>
<clus scale="   39.435">  2  4  1 -1</clus>
<clus scale="   96.081">  2  5  1 -1</clus>
<clus scale="   30.532">  1  3  2 -1</clus>
</clustering>
</event>
<event>
 6    0  0.6549018E+002  0.1243851E+03  0.7546771E-02  0.1236033E+00
         21   -1    0    0  506  501  0.00000000000E+00  0.00000000000E+00  0.49876469572E+03  0.49876469572E+03  0.00000000000E+00 0.  1.
         21   -1    0    0  503  502 -0.00000000000E+00 -0.00000000000E+00 -0.17065113761E+03  0.17065113761E+03  0.00000000000E+00 0.  1.
         21    1    1    2  503  501  0.11424835063E+02  0.30833724559E+02  0.82416279751E+01  0.33899407931E+02  0.00000000000E+00 0. -1.
         21    1    1    2  504  502  0.55820818439E+02  0.12616644278E+02 -0.10805686649E+03  0.12227603968E+03  0.00000000000E+00 0.  1.
         21    1    1    2  505  504  0.27102076635E+02 -0.13025485855E+03  0.11797011662E+03  0.17781394532E+03  0.00000000000E+00 0.  1.
         21    1    1    2  506  505 -0.94347730137E+02  0.86804489714E+02  0.30995868000E+03  0.33542644041E+03  0.00000000000E+00 0.  1.
<scales pt_clust_3="32.88230" pt_clust_4="73.13962" pt_clust_5="124.38514" pt_clust_6="14000.00000"></scales>
<clustering>
<clus scale="   32.882">  2  3  1 -1</clus>
<clus scale="   73.140">  2  4  1 -1</clus>
<clus scale="  124.385">  2  5  1 -1</clus>
<clus scale="  124.385">  1  3  2 -1</clus>
</clustering>
</event>
<event>
 6    0  0.6549018E+002  0.1121792E+03  0.7546771E-02  0.1256587E+00
         21   -1    0    0  505  501  0.00000000000E+00  0.00000000000E+00  0.16662183909E+03  0.16662183909E+03  0.00000000000E+00 0. -1.
         21   -1    0    0  504  502 -0.00000000000E+00 -0.00000000000E+00 -0.42813754678E+03  0.42813754678E+03  0.00000000000E+00 0. -1.
         21    1    1    2  503  501  0.76948132429E+02 -0.99586687235E+02  0.11667664269E+03  0.17161574027E+03  0.00000000000E+00 0. -1.
         21    1    1    2  504  503 -0.25558533714E+01  0.59306696679E+02 -0.11909123093E+03  0.13306591578E+03  0.00000000000E+00 0. -1.
         21    1    1    2  505  506 -0.60696332960E+02  0.90666226794E+01 -0.52733279573E+02  0.80913826112E+02  0.00000000000E+00 0. -1.
         21    1    1    2  506  502 -0.13695946097E+02  0.31213367877E+02 -0.20636783989E+03  0.20916390371E+03  0.00000000000E+00 0. -1.
<scales pt_clust_3="112.17917" pt_clust_4="14000.00000" pt_clust_5="67.44521" pt_clust_6="34.08597"></scales>
<clustering>
<clus scale="   34.086">  2  6  1 -1</clus>
<clus scale="   67.445">  2  5  1 -1</clus>
<clus scale="  112.179">  1  3  2 -1</clus>
<clus scale="  112.179">  1  3  2 -1</clus>
</clustering>
</event>
<event>
 6    0  0.6549018E+002  0.9228688E+02  0.7546771E-02  0.1297406E+00
         21   -1    0    0  506  501  0.00000000000E+00  0.00000000000E+00  0.16336810400E+04  0.16336810400E+04  0.00000000000E+00 0.  1.
         21   -1    0    0  504  502 -0.00000000000E+00 -0.00000000000E+00 -0.13404586512E+03  0.13404586512E+03  0.00000000000E+00 0.  1.
         21    1    1    2  503  502 -0.47489922600E+01 -0.40663356105E+02  0.18375653664E+02  0.44874559661E+02  0.00000000000E+00 0.  1.
         21    1    1    2  504  505 -0.69758606016E+02  0.10547307725E+02 -0.10338771533E+03  0.12516600375E+03  0.00000000000E+00 0.  1.
         21    1    1    2  505  501  0.54255488141E+02  0.10921416982E+03  0.97409680451E+03  0.98170055386E+03  0.00000000000E+00 0.  1.
         21    1    1    2  506  503  0.20252110135E+02 -0.79098121440E+02  0.61055043199E+03  0.61598578781E+03  0.00000000000E+00 0.  1.
<scales pt_clust_3="40.93973" pt_clust_4="79.32754" pt_clust_5="92.28688" pt_clust_6="14000.00000"></scales>
<clustering>
<clus scale="   40.940">  2  3  1 -1</clus>
<clus scale="   79.328">  2  4  1 -1</clus>
<clus scale="   92.287">  2  5  1 -1</clus>
<clus scale="   92.287">  1  3  2 -1</clus>
</clustering>
</event>
<event>
 6    0  0.6549018E+002  0.1122767E+03  0.7546771E-02  0.1256411E+00
         21   -1    0    0  504  501  0.00000000000E+00  0.00000000000E+00  0.79984436524E+02  0.79984436524E+02  0.00000000000E+00 0.  1.
         21   -1    0    0  505  502 -0.00000000000E+00 -0.00000000000E+00 -0.60507488228E+03  0.60507488228E+03  0.00000000000E+00 0.  1.
         21    1    1    2  503  501  0.43148496789E+02 -0.36665784016E+02  0.26199165316E+02  0.62390454045E+02  0.00000000000E+00 0.  1.
         21    1    1    2  504  506 -0.98675103977E+02 -0.70004078464E+02 -0.12082719824E+03  0.17098701407E+03  0.00000000000E+00 0.  1.
         21    1    1    2  505  503  0.69332660764E+02  0.74894802874E+02 -0.31327951389E+03  0.32948490583E+03  0.00000000000E+00 0.  1.
         21    1    1    2  506  502 -0.13806053576E+02  0.31775059606E+02 -0.11718289895E+03  0.12219694486E+03  0.00000000000E+00 0.  1.
<scales pt_clust_3="55.46670" pt_clust_4="14000.00000" pt_clust_5="112.27668" pt_clust_6="34.64479"></scales>
<clustering>
<clus scale="   34.645">  2  6  1 -1</clus>
<clus scale="   55.467">  1  3  2 -1</clus>
<clus scale="  112.277">  2  5  1 -1</clus>
<clus scale="   55.467">  1  3  2 -1</clus>
</clustering>
</event>
<event>
 6    0  0.6549018E+002  0.1510842E+03  0.7546771E-02  0.1199147E+00
         21   -1    0    0  504  501  0.00000000000E+00  0.00000000000E+00  0.10746006339E+04  0.10746006339E+04  0.00000000000E+00 0.  1.
         21   -1    0    0  503  502 -0.00000000000E+00 -0.00000000000E+00 -0.98049478368E+03  0.98049478368E+03  0.00000000000E+00 0. -1.
         21    1    1    2  503  505 -0.14236521582E+03  0.57006005482E+02 -0.94734554928E+03  0.95967761726E+03  0.00000000000E+00 0. -1.
         21    1    1    2  504  502  0.58487929975E+02 -0.50506147898E+02  0.20468505309E+03  0.21878683664E+03  0.00000000000E+00 0.  1.
         21    1    1    2  505  506  0.81247184582E+02  0.41365912301E+02  0.89268214700E+02  0.12759724863E+03  0.00000000000E+00 0.  1.
         21    1    1    2  506  501  0.26301012607E+01 -0.47865769885E+02  0.74749813167E+03  0.74903371501E+03  0.00000000000E+00 0.  1.
<scales pt_clust_3="151.08418" pt_clust_4="14000.00000" pt_clust_5="85.97764" pt_clust_6="47.93797"></scales>
<clustering>
<clus scale="   47.938">  1  6  2 -1</clus>
<clus scale="   85.978">  1  5  2 -1</clus>
<clus scale="  151.084">  2  3  1 -1</clus>
<clus scale="   47.938">  1  3  2 -1</clus>
</clustering>
</event>
<event>
 6    0  0.6549018E+002  0.1208446E+03  0.7546771E-02  0.1241710E+00
         21   -1    0    0  506  501  0.00000000000E+00  0.00000000000E+00  0.14811303986E+03  0.14811303986E+03  0.00000000000E+00 0. -1.
         21   -1    0    0  503  502 -0.00000000000E+00 -0.00000000000E+00 -0.16178010436E+04  0.16178010436E+04  0.00000000000E+00 0. -1.
         21    1    1    2  503  505  0.62513502166E+02  0.65818761282E+01 -0.64046286555E+03  0.64354016285E+03  0.00000000000E+00 0. -1.
         21    1    1    2  504  501 -0.28403525959E+01 -0.86142411287E+02  0.11368658330E+03  0.14266471830E+03  0.00000000000E+00 0. -1.
         21    1    1    2  505  504 -0.15375400624E+03  0.22385759826E+02 -0.52146744467E+03  0.54412288366E+03  0.00000000000E+00 0. -1.
         21    1    1    2  506  502  0.94080856667E+02  0.57174775333E+02 -0.42144427685E+03  0.43558631867E+03  0.00000000000E+00 0. -1.
<scales pt_clust_3="62.85904" pt_clust_4="86.06592" pt_clust_5="120.84463" pt_clust_6="14000.00000"></scales>
<clustering>
<clus scale="   62.859">  2  3  1 -1</clus>
<clus scale="   86.066">  1  4  2 -1</clus>
<clus scale="  120.845">  2  5  1 -1</clus>
<clus scale="   86.066">  1  3  2 -1</clus>
</clustering>
</event>
<event>
 6    0  0.6549018E+002  0.1293846E+03  0.7546771E-02  0.1228372E+00
         21   -1    0    0  505  501  0.00000000000E+00  0.00000000000E+00  0.39638172179E+03  0.39638172179E+03  0.00000000000E+00 0. -1.
         21   -1    0    0  503  502 -0.00000000000E+00 -0.00000000000E+00 -0.15264589442E+03  0.15264589442E+03  0.00000000000E+00 0.  1.
         21    1    1    2  503  501 -0.43543748129E+02 -0.13783969208E+03  0.26486737385E+03  0.30174586069E+03  0.00000000000E+00 0. -1.
         21    1    1    2  504  502  0.49684043471E+01  0.67899478344E+02  0.14462031098E+02  0.69600104487E+02  0.00000000000E+00 0. -1.
         21    1    1    2  505  506 -0.26583493755E+02  0.16936290457E+02  0.49134444207E+02  0.58375625754E+02  0.00000000000E+00 0. -1.
         21    1    1    2  506  504  0.65158837537E+02  0.53003923276E+02 -0.84728021784E+02  0.11930602528E+03  0.00000000000E+00 0.  1.
<scales pt_clust_3="129.38464" pt_clust_4="69.99793" pt_clust_5="31.52015" pt_clust_6="14000.00000"></scales>
<clustering>
<clus scale="   31.520">  1  5  2 -1</clus>
<clus scale="   69.998">  2  4  1 -1</clus>
<clus scale="  129.385">  1  3  2 -1</clus>
<clus scale="   31.520">  1  3  2 -1</clus>
</clustering>
</event>
<event>
 6    0  0.6549018E+002  0.1170739E+03  0.7546771E-02  0.1248004E+00
         21   -1    0    0  504  501  0.00000000000E+00  0.00000000000E+00  0.34684305367E+03  0.34684305367E+03  0.00000000000E+00 0. -1.
         21   -1    0    0  506  502 -0.00000000000E+00 -0.00000000000E+00 -0.86112952301E+03  0.86112952301E+03  0.00000000000E+00 0. -1.
         21    1    1    2  503  501 -0.54110590915E+02 -0.24164602998E+02  0.28200306615E+02  0.65628815168E+02  0.00000000000E+00 0. -1.
         21    1    1    2  504  502 -0.54692110801E+02 -0.53956759660E+02 -0.10353736744E+03  0.12892845052E+03  0.00000000000E+00 0.  1.
         21    1    1    2  505  503  0.70912947368E+02 -0.90904859798E+02  0.26472095528E+03  0.28873781152E+03  0.00000000000E+00 0. -1.
         21    1    1    2  506  505  0.37889754348E+02  0.16902622246E+03 -0.70367036380E+03  0.72467749948E+03  0.00000000000E+00 0. -1.
<scales pt_clust_3="59.26115" pt_clust_4="79.18186" pt_clust_5="117.07387" pt_clust_6="14000.00000"></scales>
<clustering>
<clus scale="   59.261">  1  3  2 -1</clus>
<clus scale="   79.182">  2  4  1 -1</clus>
<clus scale="  117.074">  1  5  2 -1</clus>
<clus scale="   59.261">  1  3  2 -1</clus>
</clustering>
</event>
<event>
 6    0  0.6549018E+002  0.1984435E+03  0.7546771E-02  0.1151059E+00
         21   -1    0    0  504  501  0.00000000000E+00  0.00000000000E+00  0.95511816960E+03  0.95511816960E+03  0.00000000000E+00 0. -1.
         21   -1    0    0  505  502 -0.00000000000E+00 -0.00000000000E+00 -0.79728453136E+02  0.79728453136E+02  0.00000000000E+00 0. -1.
         21    1    1    2  503  506 -0.33721863563E+02  0.41776133609E+02  0.24813403761E+03  0.25387577680E+03  0.00000000000E+00 0. -1.
         21    1    1    2  504  502 -0.85824592009E+01 -0.24362483719E+03  0.28895852715E+03  0.37805257613E+03  0.00000000000E+00 0. -1.
         21    1    1    2  505  503  0.57309589370E+02  0.15797436022E+03  0.22773020273E+03  0.28302178848E+03  0.00000000000E+00 0. -1.
         21    1    1    2  506  501 -0.15005266607E+02  0.43874343366E+02  0.11056694897E+03  0.11989648134E+03  0.00000000000E+00 0. -1.
<scales pt_clust_3="105.06809" pt_clust_4="14000.00000" pt_clust_5="198.44352" pt_clust_6="33.87922"></scales>
<clustering>
<clus scale="   33.879">  3  6 -1 -1</clus>
<clus scale="  105.068">  1  3  2 -1</clus>
<clus scale="  198.444">  2  5  1 -1</clus>
<clus scale="  105.068">  1  3  2 -1</clus>
</clustering>
</event>
<event>
 6    0  0.6549018E+002  0.1007236E+03  0.7546771E-02  0.1278782E+00
         21   -1    0    0  503  501  0.00000000000E+00  0.00000000000E+00  0.54798689026E+03  0.54798689026E+03  0.00000000000E+00 0. -1.
         21   -1    0    0  505  502 -0.00000000000E+00 -0.00000000000E+00 -0.16437613885E+03  0.16437613885E+03  0.00000000000E+00 0. -1.
         21    1    1    2  503  506  0.78052312428E+01  0.29965134635E+02  0.14774736522E+03  0.15095732794E+03  0.00000000000E+00 0. -1.
         21    1    1    2  504  501 -0.52455751943E+02 -0.72138359245E+02  0.32029903805E+03  0.33248612386E+03  0.00000000000E+00 0. -1.
         21    1    1    2  505  504  0.11911344187E+03  0.68885168371E+01 -0.85040651961E+02  0.14651749446E+03  0.00000000000E+00 0. -1.
         21    1    1    2  506  502 -0.74462921169E+02  0.35284707772E+02  0.60500009881E+00  0.82402082842E+02  0.00000000000E+00 0.  1.
<scales pt_clust_3="30.96500" pt_clust_4="66.24265" pt_clust_5="14000.00000" pt_clust_6="100.72359"></scales>
<clustering>
<clus scale="   30.965">  1  3  2 -1</clus>
<clus scale="   66.243">  1  4  2 -1</clus>
<clus scale="  100.724">  1  6  2 -1</clus>
<clus scale="   30.965">  1  3  2 -1</clus>
</clustering>
</event>
<event>
 6    0  0.6549018E+002  0.2831554E+03  0.7546771E-02  0.1093978E+00
         21   -1    0    0  503  501  0.00000000000E+00  0.00000000000E+00  0.90377771615E+03  0.90377771615E+03  0.00000000000E+00 0.  1.
         21   -1    0    0  504  502 -0.00000000000E+00 -0.00000000000E+00 -0.23409157441E+03  0.23409157441E+03  0.00000000000E+00 0.  1.
         21    1    1    2  503  505 -0.22314374326E+02  0.46931979300E+02  0.38175098564E+03  0.38527179629E+03  0.00000000000E+00 0.  1.
         21    1    1    2  504  506 -0.89985770396E+00 -0.66785718614E+02 -0.55400502190E+02  0.86777633049E+02  0.00000000000E+00 0.  1.
         21    1    1    2  505  502  0.40004485887E+02  0.23541656705E+03  0.37773609090E+03  0.44688463087E+03  0.00000000000E+00 0.  1.
         21    1    1    2  506  501 -0.16790253857E+02 -0.21556282773E+03 -0.34400432611E+02  0.21893523035E+03  0.00000000000E+00 0.  1.
<scales pt_clust_3="51.96674" pt_clust_4="40.70069" pt_clust_5="273.52233" pt_clust_6="40.70069"></scales>
<clustering>
<clus scale="   40.701">  4  6 -1 -1</clus>
<clus scale="   51.967">  1  3  2 -1</clus>
<clus scale="  273.522">  1  5  2 -1</clus>
<clus scale="   51.967">  1  3  2 -1</clus>
</clustering>
</event>
<event>
 6    0  0.6549018E+002  0.2118398E+03  0.7546771E-02  0.1140117E+00
         21   -1    0    0  505  501  0.00000000000E+00  0.00000000000E+00  0.11577328824E+04  0.11577328824E+04  0.00000000000E+00 0. -1.
         21   -1    0    0  503  502 -0.00000000000E+00 -0.00000000000E+00 -0.72314777746E+02  0.72314777746E+02  0.00000000000E+00 0. -1.
         21    1    1    2  503  504 -0.17867585313E+03 -0.28789594477E+02  0.12953516500E+03  0.22256068883E+03  0.00000000000E+00 0. -1.
         21    1    1    2  504  501 -0.60331428832E+02  0.12749261109E+00  0.22037623931E+03  0.22848541401E+03  0.00000000000E+00 0. -1.
         21    1    1    2  505  506  0.11438715235E+03  0.48318297747E+02  0.45090203870E+03  0.46768763831E+03  0.00000000000E+00 0. -1.
         21    1    1    2  506  502  0.12462012961E+03 -0.19656195881E+02  0.28460466165E+03  0.31131391902E+03  0.00000000000E+00 0. -1.
<scales pt_clust_3="192.22066" pt_clust_4="60.33156" pt_clust_5="84.94185" pt_clust_6="84.94185"></scales>
<clustering>
<clus scale="   60.332">  1  4  2 -1</clus>
<clus scale="   84.942">  5  6 -1 -1</clus>
<clus scale="  192.221">  2  3  1 -1</clus>
<clus scale="   60.332">  1  3  2 -1</clus>
</clustering>
</event>
<event>
 6    0  0.6549018E+002  0.1357337E+03  0.7546771E-02  0.1219188E+00
         21   -1    0    0  503  501  0.00000000000E+00  0.00000000000E+00  0.21495555918E+03  0.21495555918E+03  0.00000000000E+00 0. -1.
         21   -1    0    0  506  502 -0.00000000000E+00 -0.00000000000E+00 -0.35688065508E+03  0.35688065508E+03  0.00000000000E+00 0. -1.
         21    1    1    2  503  504  0.72641441185E+02  0.13012719984E+03  0.15020690997E+03  0.21159391040E+03  0.00000000000E+00 0. -1.
         21    1    1    2  504  505 -0.19575514054E+02 -0.98054375279E+02 -0.24893615205E+03  0.26826678709E+03  0.00000000000E+00 0. -1.
         21    1    1    2  505  502 -0.28925707359E+02 -0.13933086936E+02 -0.51473124175E+02  0.60665558352E+02  0.00000000000E+00 0. -1.
         21    1    1    2  506  501 -0.24140219772E+02 -0.18139737626E+02  0.82772703569E+01  0.31309958421E+02  0.00000000000E+00 0. -1.
<scales pt_clust_3="123.96145" pt_clust_4="31.49430" pt_clust_5="31.49430" pt_clust_6="30.19603"></scales>
<clustering>
<clus scale="   30.196">  1  6  2 -1</clus>
<clus scale="   31.494">  4  5 -1 -1</clus>
<clus scale="  123.961">  1  3  2 -1</clus>
<clus scale="   30.196">  1  3  2 -1</clus>
</clustering>
</event>
<event>
 6    0  0.6549018E+002  0.1081034E+03  0.7546771E-02  0.1264123E+00
         21   -1    0    0  505  501  0.00000000000E+00  0.00000000000E+00  0.17242529112E+04  0.17242529112E+04  0.00000000000E+00 0.  1.
         21   -1    0    0  506  502 -0.00000000000E+00 -0.00000000000E+00 -0.98608277706E+03  0.98608277706E+03  0.00000000000E+00 0.  1.
         21    1    1    2  503  501 -0.31879570387E+02  0.10841390697E+02  0.14574843595E+03  0.14958759756E+03  0.00000000000E+00 0.  1.
         21    1    1    2  504  502 -0.86335439293E+02  0.37579609074E+01 -0.87098713886E+03  0.87526368964E+03  0.00000000000E+00 0.  1.
         21    1    1    2  505  504  0.12473152236E+03 -0.66141877204E+02  0.15650129480E+04  0.15713682662E+04  0.00000000000E+00 0.  1.
         21    1    1    2  506  503 -0.65165126765E+01  0.51542525600E+02 -0.10160411093E+03  0.11411613488E+03  0.00000000000E+00 0.  1.
<scales pt_clust_3="33.67258" pt_clust_4="108.10336" pt_clust_5="14000.00000" pt_clust_6="52.01152"></scales>
<clustering>
<clus scale="   33.673">  1  3  2 -1</clus>
<clus scale="   52.012">  2  6  1 -1</clus>
<clus scale="  108.103">  2  4  1 -1</clus>
<clus scale="   33.673">  1  3  2 -1</clus>
</clustering>
</event>
<event>
 6    0  0.6549018E+002  0.1732872E+03  0.7546771E-02  0.1174463E+00
         21   -1    0    0  505  501  0.00000000000E+00  0.00000000000E+00  0.13162181661E+03  0.13162181661E+03  0.00000000000E+00 0. -1.
         21   -1    0    0  503  502 -0.00000000000E+00 -0.00000000000E+00 -0.53166506981E+03  0.53166506981E+03  0.00000000000E+00 0. -1.
         21    1    1    2  503  506  0.44186170966E+02 -0.15384460269E+03 -0.36744891255E+03  0.40079830690E+03  0.00000000000E+00 0. -1.
         21    1    1    2  504  502 -0.51598096446E+02  0.11892944444E+03 -0.38246457204E+02  0.13516422530E+03  0.00000000000E+00 0. -1.
         21    1    1    2  505  504 -0.40376262759E+02  0.18747006224E+02 -0.39579707040E+02  0.59567155767E+02  0.00000000000E+00 0. -1.
         21    1    1    2  506  501  0.47788188239E+02  0.16168152025E+02  0.45231823599E+02  0.67757198445E+02  0.00000000000E+00 0. -1.
<scales pt_clust_3="159.93479" pt_clust_4="39.08730" pt_clust_5="39.08730" pt_clust_6="50.44918"></scales>
<clustering>
<clus scale="   39.087">  4  5 -1 -1</clus>
<clus scale="   50.449">  1  6  2 -1</clus>
<clus scale="  159.935">  2  3  1 -1</clus>
<clus scale="   50.449">  1  3  2 -1</clus>
</clustering>
</event>
<event>
 6    0  0.6549018E+002  0.1240555E+03  0.7546771E-02  0.1236553E+00
         21   -1    0    0  504  501  0.00000000000E+00  0.00000000000E+00  0.15205072319E+04  0.15205072319E+04  0.00000000000E+00 0.  1.
         21   -1    0    0  506  502 -0.00000000000E+00 -0.00000000000E+00 -0.92223200397E+02  0.92223200397E+02  0.00000000000E+00 0.  1.
         21    1    1    2  503  501  0.74555370459E+02  0.88723172127E+02  0.41821337221E+03  0.43397318953E+03  0.00000000000E+00 0.  1.
         21    1    1    2  504  505 -0.91524047445E+01 -0.13830359090E+03  0.96803202043E+03  0.97790472049E+03  0.00000000000E+00 0.  1.
         21    1    1    2  505  502 -0.72730167292E+02 -0.47981757841E+02  0.53657378251E+02  0.10232810250E+03  0.00000000000E+00 0.  1.
         21    1    1    2  506  503  0.73272015771E+01  0.97562176616E+02 -0.11618739388E+02  0.98524419785E+02  0.00000000000E+00 0.  1.
<scales pt_clust_3="124.05553" pt_clust_4="14000.00000" pt_clust_5="87.13166" pt_clust_6="78.15720"></scales>
<clustering>
<clus scale="   87.132">  2  5  1 -1</clus>
<clus scale="   78.157">  2  6  1 -1</clus>
<clus scale="  124.056">  2  3  1 -1</clus>
<clus scale="  124.056">  1  3  2 -1</clus>
</clustering>
</event>
<event>
 6    0  0.6549018E+002  0.1237577E+03  0.7546771E-02  0.1237024E+00
         21   -1    0    0  504  501  0.00000000000E+00  0.00000000000E+00  0.17260609767E+03  0.17260609767E+03  0.00000000000E+00 0. -1.
         21   -1    0    0  503  502 -0.00000000000E+00 -0.00000000000E+00 -0.25290515587E+04  0.25290515587E+04  0.00000000000E+00 0. -1.
         21    1    1    2  503  505 -0.40043973442E+02 -0.21057610688E+02 -0.14373728406E+04  0.14380847074E+04  0.00000000000E+00 0. -1.
         21    1    1    2  504  506 -0.28312664567E+02  0.14320223201E+02 -0.55456636580E+01  0.32209162560E+02  0.00000000000E+00 0.  1.
         21    1    1    2  505  501  0.88559583561E+02  0.95541155155E+02  0.12989996691E+03  0.18396987137E+03  0.00000000000E+00 0. -1.
         21    1    1    2  506  502 -0.20202945553E+02 -0.88803767668E+02 -0.10434269237E+04  0.10473939151E+04  0.00000000000E+00 0. -1.
<scales pt_clust_3="45.28429" pt_clust_4="31.72815" pt_clust_5="123.75769" pt_clust_6="14000.00000"></scales>
<clustering>
<clus scale="   31.728">  1  4  2 -1</clus>
<clus scale="   45.284">  2  3  1 -1</clus>
<clus scale="  123.758">  1  5  2 -1</clus>
<clus scale="   31.728">  1  3  2 -1</clus>
</clustering>
</event>
<event>
 6    0  0.6549018E+002  0.1098443E+03  0.7546771E-02  0.1260859E+00
         21   -1    0    0  506  501  0.00000000000E+00  0.00000000000E+00  0.44965562978E+03  0.44965562978E+03  0.00000000000E+00 0. -1.
         21   -1    0    0  505  502 -0.00000000000E+00 -0.00000000000E+00 -0.50870192280E+03  0.50870192280E+03  0.00000000000E+00 0. -1.
         21    1    1    2  503  502  0.30796756259E+01 -0.11170289618E+03  0.24253657424E+03  0.26704121641E+03  0.00000000000E+00 0. -1.
         21    1    1    2  504  501  0.47385524040E+02  0.52796828242E+02  0.13306723015E+02  0.72180065381E+02  0.00000000000E+00 0.  1.
         21    1    1    2  505  504 -0.23402914956E+02  0.89206772382E+02 -0.45963568983E+03  0.46879687716E+03  0.00000000000E+00 0. -1.
         21    1    1    2  506  503 -0.27062284710E+02 -0.30300704441E+02  0.14474609955E+03  0.15033939363E+03  0.00000000000E+00 0. -1.
<scales pt_clust_3="35.56200" pt_clust_4="70.94289" pt_clust_5="92.66743" pt_clust_6="35.56200"></scales>
<clustering>
<clus scale="   35.562">  3  6 -1 -1</clus>
<clus scale="   70.943">  1  4  2 -1</clus>
<clus scale="   92.667">  2  5  1 -1</clus>
<clus scale="   70.943">  1  3  2 -1</clus>
</clustering>
</event>
<event>
 6    0  0.6549018E+002  0.8365186E+02  0.7546771E-02  0.1318996E+00
         21   -1    0    0  505  501  0.00000000000E+00  0.00000000000E+00  0.28290282122E+04  0.28290282122E+04  0.00000000000E+00 0. -1.
         21   -1    0    0  506  502 -0.00000000000E+00 -0.00000000000E+00 -0.27358004543E+03  0.27358004543E+03  0.00000000000E+00 0.  1.
         21    1    1    2  503  502 -0.35520342116E+02  0.63715986788E+01 -0.81415127332E+01  0.36994272575E+02  0.00000000000E+00 0.  1.
         21    1    1    2  504  501  0.33199095372E+02  0.50924546335E+01  0.91466535494E+03  0.91528182794E+03  0.00000000000E+00 0.  1.
         21    1    1    2  505  503 -0.11418948972E+03 -0.23143064466E+02  0.18840571764E+04  0.18876562942E+04  0.00000000000E+00 0. -1.
         21    1    1    2  506  504  0.11651073647E+03  0.11679011154E+02 -0.23513285178E+03  0.26267586300E+03  0.00000000000E+00 0.  1.
<scales pt_clust_3="35.84786" pt_clust_4="33.58739" pt_clust_5="83.65186" pt_clust_6="14000.00000"></scales>
<clustering>
<clus scale="   33.587">  1  4  2 -1</clus>
<clus scale="   35.848">  2  3  1 -1</clus>
<clus scale="   83.652">  1  5  2 -1</clus>
<clus scale="   33.587">  1  3  2 -1</clus>
</clustering>
</event>
<event>
 6    0  0.6549018E+002  0.1322939E+03  0.7546771E-02  0.1224091E+00
         21   -1    0    0  504  501  0.00000000000E+00  0.00000000000E+00  0.13753584069E+03  0.13753584069E+03  0.00000000000E+00 0.  1.
         21   -1    0    0  506  502 -0.00000000000E+00 -0.00000000000E+00 -0.28900693130E+03  0.28900693130E+03  0.00000000000E+00 0.  1.
         21    1    1    2  503  502 -0.57378184511E+02  0.21564424484E+02 -0.92724503476E+02  0.11115356047E+03  0.00000000000E+00 0.  1.
         21    1    1    2  504  505 -0.63422916463E+00 -0.30956308457E+02  0.59729182653E+02  0.67277563424E+02  0.00000000000E+00 0.  1.
         21    1    1    2  505  503 -0.70418893141E+02 -0.93790532503E+01 -0.90988962296E+02  0.11543733543E+03  0.00000000000E+00 0.  1.
         21    1    1    2  506  501  0.12843130682E+03  0.18770937223E+02 -0.27486807495E+02  0.13267431266E+03  0.00000000000E+00 0.  1.
<scales pt_clust_3="30.47656" pt_clust_4="30.96280" pt_clust_5="30.47656" pt_clust_6="128.02126"></scales>
<clustering>
<clus scale="   30.963">  1  4  2 -1</clus>
<clus scale="   30.477">  3  5 -1 -1</clus>
<clus scale="  128.021">  1  6  2 -1</clus>
<clus scale="   30.963">  1  3  2 -1</clus>
</clustering>
</event>
<event>
 6    0  0.6549018E+002  0.6076965E+02  0.7546771E-02  0.1394630E+00
         21   -1    0    0  505  501  0.00000000000E+00  0.00000000000E+00  0.33609073381E+03  0.33609073381E+03  0.00000000000E+00 0.  1.
         21   -1    0    0  503  502 -0.00000000000E+00 -0.00000000000E+00 -0.18540351056E+03  0.18540351056E+03  0.00000000000E+00 0.  1.
         21    1    1    2  503  504 -0.22276504395E+01 -0.79219605565E+02 -0.10708049907E+03  0.13321764753E+03  0.00000000000E+00 0.  1.
         21    1    1    2  504  501 -0.52217968596E+02  0.45093093345E+02  0.99427239307E+02  0.12102016042E+03  0.00000000000E+00 0.  1.
         21    1    1    2  505  506  0.55919589378E+02 -0.18503233436E+02  0.19460619470E+03  0.20332471847E+03  0.00000000000E+00 0.  1.
         21    1    1    2  506  502 -0.14739703427E+01  0.52629745656E+02 -0.36265711687E+02  0.63931717954E+02  0.00000000000E+00 0. -1.
<scales pt_clust_3="32.67694" pt_clust_4="14000.00000" pt_clust_5="60.76965" pt_clust_6="52.65038"></scales>
<clustering>
<clus scale="   52.650">  2  6  1 -1</clus>
<clus scale="   32.677">  2  3  1 -1</clus>
<clus scale="   60.770">  1  5  2 -1</clus>
<clus scale="   60.770">  1  3  2 -1</clus>
</clustering>
</event>
<event>
 6    0  0.6549018E+002  0.1104220E+03  0.7546771E-02  0.1259790E+00
         21   -1    0    0  506  501  0.00000000000E+00  0.00000000000E+00  0.69170043912E+03  0.69170043912E+03  0.00000000000E+00 0. -1.
         21   -1    0    0  503  502 -0.00000000000E+00 -0.00000000000E+00 -0.49201734930E+03  0.49201734930E+03  0.00000000000E+00 0. -1.
         21    1    1    2  503  505 -0.29372862559E+02 -0.10496489153E+03 -0.29930865290E+03  0.31853738118E+03  0.00000000000E+00 0. -1.
         21    1    1    2  504  501 -0.55373657850E+02 -0.17496891588E+02  0.47234311745E+03  0.47589957323E+03  0.00000000000E+00 0. -1.
         21    1    1    2  505  504  0.13637407883E+03  0.51702187552E+02 -0.13926984056E+03  0.20166083920E+03  0.00000000000E+00 0. -1.
         21    1    1    2  506  502 -0.51627558423E+02  0.70759595566E+02  0.16591846582E+03  0.18761999481E+03  0.00000000000E+00 0. -1.
<scales pt_clust_3="110.42204" pt_clust_4="58.07222" pt_clust_5="109.49995" pt_clust_6="14000.00000"></scales>
<clustering>
<clus scale="   58.072">  1  4  2 -1</clus>
<clus scale="  110.422">  2  3  1 -1</clus>
<clus scale="  109.500">  2  5  1 -1</clus>
<clus scale="   58.072">  1  3  2 -1</clus>
</clustering>
</event>
<event>
 6    0  0.6549018E+002  0.7953985E+02  0.7546771E-02  0.1330362E+00
         21   -1    0    0  505  501  0.00000000000E+00  0.00000000000E+00  0.13551241993E+03  0.13551241993E+03  0.00000000000E+00 0.  1.
         21   -1    0    0  503  502 -0.00000000000E+00 -0.00000000000E+00 -0.28772579889E+03  0.28772579889E+03  0.00000000000E+00 0.  1.
         21    1    1    2  503  504 -0.44274237614E+02  0.84995165483E+02 -0.11343937361E+03  0.14850211364E+03  0.00000000000E+00 0.  1.
         21    1    1    2  504  501  0.84377313825E+02 -0.50029338818E+02  0.49335430446E+02  0.10980186942E+03  0.00000000000E+00 0.  1.
         21    1    1    2  505  506 -0.85223886795E+01  0.43858975142E+02 -0.31121900014E+01  0.44787571222E+02  0.00000000000E+00 0.  1.
         21    1    1    2  506  502 -0.31580687532E+02 -0.78824801807E+02 -0.84997245798E+02  0.12014666453E+03  0.00000000000E+00 0.  1.
<scales pt_clust_3="79.53985" pt_clust_4="14000.00000" pt_clust_5="44.67931" pt_clust_6="79.24897"></scales>
<clustering>
<clus scale="   44.679">  1  5  2 -1</clus>
<clus scale="   79.249">  2  6  1 -1</clus>
<clus scale="   79.540">  2  3  1 -1</clus>
<clus scale="   44.679">  1  3  2 -1</clus>
</clustering>
</event>
<event>
 6    0  0.6549018E+002  0.1265760E+03  0.7546771E-02  0.1232627E+00
         21   -1    0    0  503  501  0.00000000000E+00  0.00000000000E+00  0.23348179558E+04  0.23348179558E+04  0.00000000000E+00 0. -1.
         21   -1    0    0  504  502 -0.00000000000E+00 -0.00000000000E+00 -0.95163031287E+02  0.95163031287E+02  0.00000000000E+00 0.  1.
         21    1    1    2  503  502 -0.23838867091E+02 -0.41866414082E+02  0.18104798315E+04  0.18111207327E+04  0.00000000000E+00 0. -1.
         21    1    1    2  504  506 -0.72273974569E+02  0.12055888659E+03 -0.20425989197E+02  0.14203940851E+03  0.00000000000E+00 0.  1.
         21    1    1    2  505  501  0.50368320680E+01 -0.66289304173E+02  0.17215918560E+03  0.18454925281E+03  0.00000000000E+00 0.  1.
         21    1    1    2  506  505  0.91076009592E+02 -0.12403168338E+02  0.27744189661E+03  0.29227159305E+03  0.00000000000E+00 0.  1.
<scales pt_clust_3="48.17767" pt_clust_4="14000.00000" pt_clust_5="80.59768" pt_clust_6="126.57602"></scales>
<clustering>
<clus scale="   48.178">  1  3  2 -1</clus>
<clus scale="   80.598">  1  5  2 -1</clus>
<clus scale="  126.576">  1  6  2 -1</clus>
<clus scale="   48.178">  1  3  2 -1</clus>
</clustering>
</event>
<event>
 6    0  0.6549018E+002  0.1908728E+03  0.7546771E-02  0.1157676E+00
         21   -1    0    0  503  501  0.00000000000E+00  0.00000000000E+00  0.48926349919E+03  0.48926349919E+03  0.00000000000E+00 0.  1.
         21   -1    0    0  504  502 -0.00000000000E+00 -0.00000000000E+00 -0.80101122136E+03  0.80101122136E+03  0.00000000000E+00 0.  1.
         21    1    1    2  503  505 -0.90687281970E+02  0.10589289247E+03  0.34999766095E+03  0.37674374640E+03  0.00000000000E+00 0.  1.
         21    1    1    2  504  506  0.26649662218E+03  0.23994215819E+02 -0.21295315506E+03  0.34197254023E+03  0.00000000000E+00 0.  1.
         21    1    1    2  505  502 -0.15118388585E+03 -0.92347711103E+02 -0.48342084678E+03  0.51485957521E+03  0.00000000000E+00 0.  1.
         21    1    1    2  506  501 -0.24625454355E+02 -0.37539397181E+02  0.34628618719E+02  0.56698858695E+02  0.00000000000E+00 0. -1.
<scales pt_clust_3="133.92596" pt_clust_4="190.87284" pt_clust_5="14000.00000" pt_clust_6="44.89565"></scales>
<clustering>
<clus scale="   44.896">  1  6  2 -1</clus>
<clus scale="  133.926">  1  3  2 -1</clus>
<clus scale="  190.873">  1  4  2 -1</clus>
<clus scale="   44.896">  1  3  2 -1</clus>
</clustering>
</event>
<event>
 6    0  0.7553305E+002  0.6280039E+02  0.7546771E-02  0.1386442E+00
         21   -1    0    0  506  501  0.00000000000E+00  0.00000000000E+00  0.19529026241E+04  0.19529026241E+04  0.00000000000E+00 0.  1.
         21   -1    0    0  504  502 -0.00000000000E+00 -0.00000000000E+00 -0.23000109073E+03  0.23000109073E+03  0.00000000000E+00 0. -1.
         21    1    1    2  503  501  0.45199515555E+02 -0.10546927691E+03  0.17436440048E+04  0.17474155717E+04  0.00000000000E+00 0.  1.
         21    1    1    2  504  503 -0.18279412402E+02 -0.43132476636E+02  0.33145760709E+02  0.57386312928E+02  0.00000000000E+00 0.  1.
         21    1    1    2  505  502  0.29597783505E+01  0.10125688297E+03 -0.19859709532E+03  0.22294062642E+03  0.00000000000E+00 0. -1.
         21    1    1    2  506  505 -0.29879881503E+02  0.47344870576E+02  0.14470886311E+03  0.15516120376E+03  0.00000000000E+00 0.  1.
<scales pt_clust_3="62.80039" pt_clust_4="46.84600" pt_clust_5="14000.00000" pt_clust_6="55.35200"></scales>
<clustering>
<clus scale="   46.846">  2  4  1 -1</clus>
<clus scale="   55.352">  1  6  2 -1</clus>
<clus scale="   62.800">  1  3  2 -1</clus>
<clus scale="   55.352">  1  3  2 -1</clus>
</clustering>
</event>
<event>
 6    0  0.6549018E+002  0.2387301E+03  0.7546771E-02  0.1120642E+00
         21   -1    0    0  505  501  0.00000000000E+00  0.00000000000E+00  0.61820157430E+03  0.61820157430E+03  0.00000000000E+00 0. -1.
         21   -1    0    0  506  502 -0.00000000000E+00 -0.00000000000E+00 -0.36535670952E+03  0.36535670952E+03  0.00000000000E+00 0. -1.
         21    1    1    2  503  502 -0.10410641174E+02  0.23715024324E+03 -0.24582648517E+03  0.34172983500E+03  0.00000000000E+00 0. -1.
         21    1    1    2  504  503 -0.67551069756E+02 -0.19303082035E+03  0.34106030670E+03  0.39767597041E+03  0.00000000000E+00 0. -1.
         21    1    1    2  505  504  0.31992255951E+02 -0.51523393380E+02  0.18182352951E+03  0.19167149081E+03  0.00000000000E+00 0. -1.
         21    1    1    2  506  501  0.45969454978E+02  0.74039704922E+01 -0.24212486260E+02  0.52480987614E+02  0.00000000000E+00 0. -1.
<scales pt_clust_3="14000.00000" pt_clust_4="238.73015" pt_clust_5="60.92173" pt_clust_6="46.56189"></scales>
<clustering>
<clus scale="   46.562">  2  6  1 -1</clus>
<clus scale="   60.922">  1  5  2 -1</clus>
<clus scale="  238.730">  1  4  2 -1</clus>
<clus scale="   60.922">  1  3  2 -1</clus>
</clustering>
</event>
<event>
 6    0  0.6549018E+002  0.1665147E+03  0.7546771E-02  0.1181532E+00
         21   -1    0    0  506  501  0.00000000000E+00  0.00000000000E+00  0.42831328688E+03  0.42831328688E+03  0.00000000000E+00 0.  1.
         21   -1    0    0  503  502 -0.00000000000E+00 -0.00000000000E+00 -0.24647619517E+03  0.24647619517E+03  0.00000000000E+00 0. -1.
         21    1    1    2  503  504 -0.79440419901E+02  0.65018924571E+02 -0.10042016041E+03  0.14360518613E+03  0.00000000000E+00 0. -1.
         21    1    1    2  504  505 -0.60524994209E+02  0.12169282755E+02 -0.88179950204E+02  0.10764325332E+03  0.00000000000E+00 0. -1.
         21    1    1    2  505  501  0.85963839078E+01  0.29113147683E+02  0.26356026002E+02  0.40200911568E+02  0.00000000000E+00 0. -1.
         21    1    1    2  506  502  0.13136903020E+03 -0.10630135501E+03  0.34408117631E+03  0.38334013104E+03  0.00000000000E+00 0.  1.
<scales pt_clust_3="34.61783" pt_clust_4="34.61783" pt_clust_5="30.35578" pt_clust_6="160.37362"></scales>
<clustering>
<clus scale="   30.356">  1  5  2 -1</clus>
<clus scale="   34.618">  3  4 -1 -1</clus>
<clus scale="  160.374">  1  6  2 -1</clus>
<clus scale="   30.356">  1  3  2 -1</clus>
</clustering>
</event>
<event>
 6    0  0.6549018E+002  0.9184095E+02  0.7546771E-02  0.1298454E+00
         21   -1    0    0  504  501  0.00000000000E+00  0.00000000000E+00  0.15555042500E+04  0.15555042500E+04  0.00000000000E+00 0. -1.
         21   -1    0    0  501  502 -0.00000000000E+00 -0.00000000000E+00 -0.43544129481E+02  0.43544129481E+02  0.00000000000E+00 0.  1.
         21    1    1    2  503  502  0.50153349803E+02 -0.85012136143E+01 -0.33087694203E+01  0.50976240391E+02  0.00000000000E+00 0. -1.
         21    1    1    2  504  505 -0.56727125408E+02 -0.33423845764E+02  0.75767720227E+03  0.76053261801E+03  0.00000000000E+00 0. -1.
         21    1    1    2  505  506 -0.49099930127E+02  0.75591902675E+02  0.68145479643E+03  0.68739041197E+03  0.00000000000E+00 0. -1.
         21    1    1    2  506  503  0.55673705732E+02 -0.33666843297E+02  0.76136891237E+02  0.10014910911E+03  0.00000000000E+00 0.  1.
<scales pt_clust_3="50.86874" pt_clust_4="62.52111" pt_clust_5="14000.00000" pt_clust_6="91.84095"></scales>
<clustering>
<clus scale="   50.869">  2  3  1 -1</clus>
<clus scale="   62.521">  1  4  2 -1</clus>
<clus scale="   91.841">  2  6  1 -1</clus>
<clus scale="   62.521">  1  3  2 -1</clus>
</clustering>
</event>
<event>
 6    0  0.6549018E+002  0.1045282E+03  0.7546771E-02  0.1271052E+00
         21   -1    0    0  505  501  0.00000000000E+00  0.00000000000E+00  0.59346415613E+02  0.59346415613E+02  0.00000000000E+00 0. -1.
         21   -1    0    0  503  502 -0.00000000000E+00 -0.00000000000E+00 -0.61380353619E+03  0.61380353619E+03  0.00000000000E+00 0.  1.
         21    1    1    2  503  506 -0.60879125112E+02  0.82148565058E+02 -0.31417187554E+03  0.33039161914E+03  0.00000000000E+00 0.  1.
         21    1    1    2  504  502 -0.10817785105E+02 -0.31861153650E+02 -0.62512643326E+02  0.70992874024E+02  0.00000000000E+00 0. -1.
         21    1    1    2  505  504  0.11530644386E+03 -0.61894739276E+02 -0.18443575775E+03  0.22614836608E+03  0.00000000000E+00 0. -1.
         21    1    1    2  506  501 -0.43609533640E+02  0.11607327868E+02  0.66631560453E+01  0.45617092554E+02  0.00000000000E+00 0. -1.
<scales pt_clust_3="14000.00000" pt_clust_4="33.64755" pt_clust_5="104.52816" pt_clust_6="45.22406"></scales>
<clustering>
<clus scale="   33.648">  2  4  1 -1</clus>
<clus scale="   45.224">  1  6  2 -1</clus>
<clus scale="  104.528">  1  5  2 -1</clus>
<clus scale="   45.224">  1  3  2 -1</clus>
</clustering>
</event>
<event>
 6    0  0.6549018E+002  0.2935808E+03  0.7546771E-02  0.1088494E+00
         21   -1    0    0  504  501  0.00000000000E+00  0.00000000000E+00  0.27874779650E+03  0.27874779650E+03  0.00000000000E+00 0.  1.
         21   -1    0    0  503  502 -0.00000000000E+00 -0.00000000000E+00 -0.42587160314E+03  0.42587160314E+03  0.00000000000E+00 0.  1.
         21    1    1    2  503  506 -0.96859490566E+02 -0.11347026768E+02 -0.15005965214E+03  0.17896484328E+03  0.00000000000E+00 0.  1.
         21    1    1    2  504  505  0.61181442167E+01 -0.36027991446E+02  0.47608937280E+01  0.36852597810E+02  0.00000000000E+00 0.  1.
         21    1    1    2  505  502  0.26995837525E+03  0.22063234957E+02  0.90553579226E+02  0.28559457525E+03  0.00000000000E+00 0.  1.
         21    1    1    2  506  501 -0.17921702890E+03  0.25311783257E+02 -0.92378627452E+02  0.20320738330E+03  0.00000000000E+00 0.  1.
<scales pt_clust_3="76.95800" pt_clust_4="36.54378" pt_clust_5="274.45157" pt_clust_6="76.95800"></scales>
<clustering>
<clus scale="   36.544">  1  4  2 -1</clus>
<clus scale="   76.958">  3  6 -1 -1</clus>
<clus scale="  274.452">  1  5  2 -1</clus>
<clus scale="   36.544">  1  3  2 -1</clus>
</clustering>
</event>
<event>
 6    0  0.6549018E+002  0.1347186E+03  0.7546771E-02  0.1220618E+00
         21   -1    0    0  503  501  0.00000000000E+00  0.00000000000E+00  0.61402224150E+02  0.61402224150E+02  0.00000000000E+00 0.  1.
         21   -1    0    0  506  502 -0.00000000000E+00 -0.00000000000E+00 -0.19720986830E+04  0.19720986830E+04  0.00000000000E+00 0.  1.
         21    1    1    2  503  504 -0.81304482919E+01 -0.30056121864E+02  0.38824770288E+02  0.49767835385E+02  0.00000000000E+00 0.  1.
         21    1    1    2  504  502 -0.55142136889E+02 -0.85629262683E+02 -0.16579163971E+03  0.19457618993E+03  0.00000000000E+00 0.  1.
         21    1    1    2  505  501  0.46349281641E+02  0.70186300156E+02 -0.84577144718E+03  0.84994335899E+03  0.00000000000E+00 0.  1.
         21    1    1    2  506  505  0.16923303539E+02  0.45499084391E+02 -0.93795814226E+03  0.93921352286E+03  0.00000000000E+00 0.  1.
<scales pt_clust_3="31.13639" pt_clust_4="127.06110" pt_clust_5="34.35560" pt_clust_6="34.35560"></scales>
<clustering>
<clus scale="   31.136">  1  3  2 -1</clus>
<clus scale="   34.356">  5  6 -1 -1</clus>
<clus scale="  127.061">  1  4  2 -1</clus>
<clus scale="   31.136">  1  3  2 -1</clus>
</clustering>
</event>
<event>
 6    0  0.6549018E+002  0.8440412E+02  0.7546771E-02  0.1316998E+00
         21   -1    0    0  503  501  0.00000000000E+00  0.00000000000E+00  0.11122401705E+04  0.11122401705E+04  0.00000000000E+00 0.  1.
         21   -1    0    0  505  502 -0.00000000000E+00 -0.00000000000E+00 -0.52187361904E+03  0.52187361904E+03  0.00000000000E+00 0. -1.
         21    1    1    2  503  504 -0.12072921782E+03 -0.57559670744E+02  0.78844600755E+02  0.15525827127E+03  0.00000000000E+00 0. -1.
         21    1    1    2  504  502  0.73244136356E+02 -0.54547504754E+01 -0.35019014288E+03  0.35780943808E+03  0.00000000000E+00 0. -1.
         21    1    1    2  505  506 -0.30370138187E+02  0.36549284228E+02 -0.12354209451E+03  0.13236632724E+03  0.00000000000E+00 0. -1.
         21    1    1    2  506  501  0.77855219647E+02  0.26465136991E+02  0.98525418814E+03  0.98867975298E+03  0.00000000000E+00 0.  1.
<scales pt_clust_3="84.40412" pt_clust_4="53.49585" pt_clust_5="47.52047" pt_clust_6="14000.00000"></scales>
<clustering>
<clus scale="   47.520">  2  5  1 -1</clus>
<clus scale="   53.496">  2  4  1 -1</clus>
<clus scale="   84.404">  2  3  1 -1</clus>
<clus scale="   84.404">  1  3  2 -1</clus>
</clustering>
</event>
<event>
 6    0  0.6549018E+002  0.9376165E+02  0.7546771E-02  0.1293990E+00
         21   -1    0    0  505  501  0.00000000000E+00  0.00000000000E+00  0.33333280588E+04  0.33333280588E+04  0.00000000000E+00 0. -1.
         21   -1    0    0  504  502 -0.00000000000E+00 -0.00000000000E+00 -0.11332387010E+02  0.11332387010E+02  0.00000000000E+00 0. -1.
         21    1    1    2  503  501  0.43180011941E+02 -0.15956554337E+03  0.16073691248E+04  0.16158468923E+04  0.00000000000E+00 0. -1.
         21    1    1    2  504  503  0.27131495286E+02  0.62793046324E+02  0.47389855696E+03  0.47880990695E+03  0.00000000000E+00 0. -1.
         21    1    1    2  505  506 -0.44428365223E+02  0.59753601364E+02  0.10927784106E+04  0.10953122967E+04  0.00000000000E+00 0. -1.
         21    1    1    2  506  502 -0.25883142004E+02  0.37018895684E+02  0.14794957937E+03  0.15469134983E+03  0.00000000000E+00 0.  1.
<scales pt_clust_3="93.76165" pt_clust_4="76.64178" pt_clust_5="14000.00000" pt_clust_6="45.17008"></scales>
<clustering>
<clus scale="   45.170">  2  6  1 -1</clus>
<clus scale="   76.642">  2  4  1 -1</clus>
<clus scale="   93.762">  2  3  1 -1</clus>
<clus scale="   93.762">  1  3  2 -1</clus>
</clustering>
</event>
<event>
 6    0  0.6549018E+002  0.1601530E+03  0.7546771E-02  0.1188524E+00
         21   -1    0    0  505  501  0.00000000000E+00  0.00000000000E+00  0.16939648235E+04  0.16939648235E+04  0.00000000000E+00 0.  1.
         21   -1    0    0  503  502 -0.00000000000E+00 -0.00000000000E+00 -0.13657556132E+03  0.13657556132E+03  0.00000000000E+00 0. -1.
         21    1    1    2  503  504  0.39595139837E+02 -0.59496618810E+02 -0.61502453371E+02  0.94287721996E+02  0.00000000000E+00 0. -1.
         21    1    1    2  504  501  0.12605023785E+03 -0.32955352075E+02  0.24809289164E+03  0.28022276955E+03  0.00000000000E+00 0. -1.
         21    1    1    2  505  506 -0.13632170642E+03  0.10627961262E+03  0.14010590043E+04  0.14116817266E+04  0.00000000000E+00 0.  1.
         21    1    1    2  506  502 -0.29323671268E+02 -0.13827641737E+02 -0.30260180365E+02  0.44348166685E+02  0.00000000000E+00 0. -1.
<scales pt_clust_3="72.27552" pt_clust_4="160.15303" pt_clust_5="14000.00000" pt_clust_6="32.42039"></scales>
<clustering>
<clus scale="   32.420">  2  6  1 -1</clus>
<clus scale="   72.276">  2  3  1 -1</clus>
<clus scale="  160.153">  2  4  1 -1</clus>
<clus scale="  160.153">  1  3  2 -1</clus>
</clustering>
</event>
<event>
 6    0  0.6549018E+002  0.9110290E+02  0.7546771E-02  0.1300203E+00
         21   -1    0    0  503  501  0.00000000000E+00  0.00000000000E+00  0.62708269644E+02  0.62708269644E+02  0.00000000000E+00 0.  1.
         21   -1    0    0  504  502 -0.00000000000E+00 -0.00000000000E+00 -0.22707140704E+04  0.22707140704E+04  0.00000000000E+00 0. -1.
         21    1    1    2  503  505  0.30768101218E+02  0.11090754717E+02 -0.83494351588E+02  0.89671554240E+02  0.00000000000E+00 0.  1.
         21    1    1    2  504  506 -0.12425149374E+02  0.53364033934E+02 -0.16855943188E+04  0.16864846018E+04  0.00000000000E+00 0. -1.
         21    1    1    2  505  502  0.35701749817E+02  0.44813600278E+02 -0.43133875768E+03  0.43512756473E+03  0.00000000000E+00 0. -1.
         21    1    1    2  506  501 -0.54044701660E+02 -0.10926838893E+03 -0.75783727086E+01  0.12213861932E+03  0.00000000000E+00 0.  1.
<scales pt_clust_3="32.70598" pt_clust_4="54.82055" pt_clust_5="91.10290" pt_clust_6="14000.00000"></scales>
<clustering>
<clus scale="   32.706">  1  3  2 -1</clus>
<clus scale="   54.821">  2  4  1 -1</clus>
<clus scale="   91.103">  2  5  1 -1</clus>
<clus scale="   32.706">  1  3  2 -1</clus>
</clustering>
</event>
<event>
 6    0  0.6549018E+002  0.1143542E+03  0.7546771E-02  0.1252713E+00
         21   -1    0    0  505  501  0.00000000000E+00  0.00000000000E+00  0.31234049434E+03  0.31234049434E+03  0.00000000000E+00 0.  1.
         21   -1    0    0  503  502 -0.00000000000E+00 -0.00000000000E+00 -0.22452739497E+03  0.22452739497E+03  0.00000000000E+00 0. -1.
         21    1    1    2  503  501  0.14973373792E+03 -0.49811641462E+02  0.47029167975E+02  0.16466066481E+03  0.00000000000E+00 0.  1.
         21    1    1    2  504  502 -0.28098868551E+02 -0.29485831296E+02 -0.43572583673E+02  0.59645039265E+02  0.00000000000E+00 0. -1.
         21    1    1    2  505  506 -0.77625821786E+02  0.72494405339E+02  0.17890118571E+03  0.20805489964E+03  0.00000000000E+00 0.  1.
         21    1    1    2  506  504 -0.44009047583E+02  0.68030674193E+01 -0.94544670647E+02  0.10450728560E+03  0.00000000000E+00 0. -1.
<scales pt_clust_3="14000.00000" pt_clust_4="40.73034" pt_clust_5="114.35422" pt_clust_6="61.03470"></scales>
<clustering>
<clus scale="   40.730">  2  4  1 -1</clus>
<clus scale="   61.035">  2  6  1 -1</clus>
<clus scale="  114.354">  1  5  2 -1</clus>
<clus scale="  114.354">  1  3  2 -1</clus>
</clustering>
</event>
<event>
 6    0  0.6549018E+002  0.9086493E+02  0.7546771E-02  0.1300771E+00
         21   -1    0    0  505  501  0.00000000000E+00  0.00000000000E+00  0.28585928231E+03  0.28585928231E+03  0.00000000000E+00 0.  1.
         21   -1    0    0  503  502 -0.00000000000E+00 -0.00000000000E+00 -0.30404501096E+03  0.30404501096E+03  0.00000000000E+00 0. -1.
         21    1    1    2  503  504  0.85925526259E+02  0.26613591756E+02 -0.24883753141E+03  0.26459704527E+03  0.00000000000E+00 0. -1.
         21    1    1    2  504  501  0.32929363501E+02  0.26263882772E+02 -0.48905640259E+01  0.42403444852E+02  0.00000000000E+00 0. -1.
         21    1    1    2  505  506 -0.22551566259E+02  0.24208602717E+02  0.43410984329E+02  0.54581527522E+02  0.00000000000E+00 0. -1.
         21    1    1    2  506  502 -0.96303323501E+02 -0.77086077244E+02  0.19213138245E+03  0.22832227562E+03  0.00000000000E+00 0.  1.
<scales pt_clust_3="14000.00000" pt_clust_4="42.00101" pt_clust_5="33.08519" pt_clust_6="90.86493"></scales>
<clustering>
<clus scale="   33.085">  1  5  2 -1</clus>
<clus scale="   42.001">  1  4  2 -1</clus>
<clus scale="   90.865">  1  6  2 -1</clus>
<clus scale="   33.085">  1  3  2 -1</clus>
</clustering>
</event>
<event>
 6    0  0.6549018E+002  0.1096556E+03  0.7546771E-02  0.1261209E+00
         21   -1    0    0  505  501  0.00000000000E+00  0.00000000000E+00  0.67373101872E+03  0.67373101872E+03  0.00000000000E+00 0.  1.
         21   -1    0    0  503  502 -0.00000000000E+00 -0.00000000000E+00 -0.14361729434E+03  0.14361729434E+03  0.00000000000E+00 0.  1.
         21    1    1    2  503  501  0.36516600479E+02 -0.52232538114E+01  0.22350345592E+02  0.43130991630E+02  0.00000000000E+00 0. -1.
         21    1    1    2  504  506 -0.86526601637E+02 -0.43074647226E+02  0.10861035994E+03  0.14539081233E+03  0.00000000000E+00 0.  1.
         21    1    1    2  505  504  0.18276705480E+02 -0.61760038620E+02  0.48274713920E+03  0.48702478452E+03  0.00000000000E+00 0.  1.
         21    1    1    2  506  502  0.31733295677E+02  0.11005793966E+03 -0.83594120349E+02  0.14180172458E+03  0.00000000000E+00 0.  1.
<scales pt_clust_3="36.88827" pt_clust_4="109.65565" pt_clust_5="64.65661" pt_clust_6="14000.00000"></scales>
<clustering>
<clus scale="   36.888">  2  3  1 -1</clus>
<clus scale="   64.657">  1  5  2 -1</clus>
<clus scale="  109.656">  1  4  2 -1</clus>
<clus scale="   64.657">  1  3  2 -1</clus>
</clustering>
</event>
<event>
 6    0  0.6549018E+002  0.9159088E+02  0.7546771E-02  0.1299044E+00
         21   -1    0    0  506  501  0.00000000000E+00  0.00000000000E+00  0.18126692454E+04  0.18126692454E+04  0.00000000000E+00 0. -1.
         21   -1    0    0  505  502 -0.00000000000E+00 -0.00000000000E+00 -0.61068966013E+02  0.61068966013E+02  0.00000000000E+00 0.  1.
         21    1    1    2  503  502  0.19679524255E+02 -0.34880878896E+02  0.93004601645E+02  0.10126112440E+03  0.00000000000E+00 0.  1.
         21    1    1    2  504  501 -0.63700132648E+02  0.10064183527E+03  0.31299729589E+03  0.33489370424E+03  0.00000000000E+00 0. -1.
         21    1    1    2  505  504 -0.18375344854E+01 -0.56520700828E+02 -0.28059461262E+02  0.63129228740E+02  0.00000000000E+00 0.  1.
         21    1    1    2  506  503  0.45858142878E+02 -0.92402555456E+01  0.13736578431E+04  0.13744541541E+04  0.00000000000E+00 0. -1.
<scales pt_clust_3="40.04946" pt_clust_4="91.59088" pt_clust_5="14000.00000" pt_clust_6="46.96337"></scales>
<clustering>
<clus scale="   40.049">  2  3  1 -1</clus>
<clus scale="   46.963">  1  6  2 -1</clus>
<clus scale="   91.591">  1  4  2 -1</clus>
<clus scale="   46.963">  1  3  2 -1</clus>
</clustering>
</event>
<event>
 6    0  0.6549018E+002  0.1081477E+03  0.7546771E-02  0.1264039E+00
         21   -1    0    0  504  501  0.00000000000E+00  0.00000000000E+00  0.22855728439E+04  0.22855728439E+04  0.00000000000E+00 0.  1.
         21   -1    0    0  503  502 -0.00000000000E+00 -0.00000000000E+00 -0.15542292301E+03  0.15542292301E+03  0.00000000000E+00 0. -1.
         21    1    1    2  503  501  0.59229876191E+01  0.69662995422E+02 -0.60990250077E+02  0.92778366648E+02  0.00000000000E+00 0.  1.
         21    1    1    2  504  505 -0.98810872211E+02 -0.70846117682E+02  0.20896303255E+04  0.20931645082E+04  0.00000000000E+00 0.  1.
         21    1    1    2  505  506  0.59729550521E+02  0.23757505138E+02  0.16661346810E+03  0.17858355470E+03  0.00000000000E+00 0. -1.
         21    1    1    2  506  502  0.33158334070E+02 -0.22574382877E+02 -0.65103622655E+02  0.76469337407E+02  0.00000000000E+00 0. -1.
<scales pt_clust_3="60.95512" pt_clust_4="108.14767" pt_clust_5="14000.00000" pt_clust_6="40.11331"></scales>
<clustering>
<clus scale="   40.113">  2  6  1 -1</clus>
<clus scale="   60.955">  2  3  1 -1</clus>
<clus scale="  108.148">  1  4  2 -1</clus>
<clus scale="  108.148">  1  3  2 -1</clus>
</clustering>
</event>
<event>
 6    0  0.6549018E+002  0.1290038E+03  0.7546771E-02  0.1228942E+00
         21   -1    0    0  504  501  0.00000000000E+00  0.00000000000E+00  0.12132823411E+04  0.12132823411E+04  0.00000000000E+00 0.  1.
         21   -1    0    0  505  502 -0.00000000000E+00 -0.00000000000E+00 -0.10449621600E+03  0.10449621600E+03  0.00000000000E+00 0.  1.
         21    1    1    2  503  506 -0.11326569663E+03 -0.48362823129E+02  0.34514794966E+03  0.36646307842E+03  0.00000000000E+00 0.  1.
         21    1    1    2  504  503  0.74211770147E+02  0.11978242509E+03  0.82242371671E+03  0.83440756588E+03  0.00000000000E+00 0.  1.
         21    1    1    2  505  501  0.31208400797E+02 -0.88864663344E+01 -0.27320602675E+01  0.32563748518E+02  0.00000000000E+00 0. -1.
         21    1    1    2  506  502  0.78455256821E+01 -0.62533135630E+02 -0.56053480967E+02  0.84344164312E+02  0.00000000000E+00 0.  1.
<scales pt_clust_3="129.00375" pt_clust_4="14000.00000" pt_clust_5="32.44894" pt_clust_6="77.16226"></scales>
<clustering>
<clus scale="   32.449">  2  5  1 -1</clus>
<clus scale="   77.162">  2  6  1 -1</clus>
<clus scale="  129.004">  2  3  1 -1</clus>
<clus scale="  129.004">  1  3  2 -1</clus>
</clustering>
</event>
<event>
 6    0  0.6549018E+002  0.7084389E+02  0.7546771E-02  0.1357247E+00
         21   -1    0    0  503  501  0.00000000000E+00  0.00000000000E+00  0.13028437475E+04  0.13028437475E+04  0.00000000000E+00 0. -1.
         21   -1    0    0  504  502 -0.00000000000E+00 -0.00000000000E+00 -0.30524312703E+02  0.30524312703E+02  0.00000000000E+00 0. -1.
         21    1    1    2  503  506  0.69007210387E+02  0.94901330253E+00  0.70028992110E+03  0.70368236393E+03  0.00000000000E+00 0. -1.
         21    1    1    2  504  505 -0.58316256698E+02 -0.38203336936E+02  0.64745470419E+02  0.95143348102E+02  0.00000000000E+00 0. -1.
         21    1    1    2  505  501 -0.72019132497E+02  0.63099706676E+02  0.36679935408E+03  0.37909114284E+03  0.00000000000E+00 0. -1.
         21    1    1    2  506  502  0.61328178807E+02 -0.25845383042E+02  0.14048468925E+03  0.15545120538E+03  0.00000000000E+00 0. -1.
<scales pt_clust_3="14000.00000" pt_clust_4="58.06744" pt_clust_5="70.84389" pt_clust_6="66.55170"></scales>
<clustering>
<clus scale="   66.552">  2  6  1 -1</clus>
<clus scale="   58.067">  2  4  1 -1</clus>
<clus scale="   70.844">  2  5  1 -1</clus>
<clus scale="   70.844">  1  3  2 -1</clus>
</clustering>
</event>
<event>
 6    0  0.6549018E+002  0.1542192E+03  0.7546771E-02  0.1195382E+00
         21   -1    0    0  503  501  0.00000000000E+00  0.00000000000E+00  0.72344873799E+03  0.72344873799E+03  0.00000000000E+00 0.  1.
         21   -1    0    0  505  502 -0.00000000000E+00 -0.00000000000E+00 -0.18079161350E+04  0.18079161350E+04  0.00000000000E+00 0.  1.
         21    1    1    2  503  502  0.15017551125E+03 -0.25612449467E+02  0.42447606476E+02  0.15814702350E+03  0.00000000000E+00 0.  1.
         21    1    1    2  504  501  0.17705769535E+02  0.68989809769E+02  0.60180494821E+03  0.60600518465E+03  0.00000000000E+00 0.  1.
         21    1    1    2  505  506 -0.11181699812E+03 -0.10962608012E+03 -0.16225302982E+04  0.16300691663E+04  0.00000000000E+00 0.  1.
         21    1    1    2  506  504 -0.56064282669E+02  0.66248719823E+02 -0.10618965354E+03  0.13714349853E+03  0.00000000000E+00 0. -1.
<scales pt_clust_3="14000.00000" pt_clust_4="71.22561" pt_clust_5="154.21916" pt_clust_6="92.43132"></scales>
<clustering>
<clus scale="   71.226">  1  4  2 -1</clus>
<clus scale="   92.431">  1  6  2 -1</clus>
<clus scale="  154.219">  2  5  1 -1</clus>
<clus scale="   71.226">  1  3  2 -1</clus>
</clustering>
</event>
<event>
 6    0  0.6549018E+002  0.2088242E+03  0.7546771E-02  0.1142501E+00
         21   -1    0    0  506  501  0.00000000000E+00  0.00000000000E+00  0.58411553083E+03  0.58411553083E+03  0.00000000000E+00 0. -1.
         21   -1    0    0  503  502 -0.00000000000E+00 -0.00000000000E+00 -0.58981893982E+03  0.58981893982E+03  0.00000000000E+00 0.  1.
         21    1    1    2  503  505  0.14061462012E+03  0.12102634252E+03  0.33931930383E+02  0.18860334800E+03  0.00000000000E+00 0. -1.
         21    1    1    2  504  502 -0.85177419866E+02 -0.17316635217E+03 -0.46508284167E+03  0.50353135751E+03  0.00000000000E+00 0.  1.
         21    1    1    2  505  501  0.37116338814E+01  0.33886828447E+02 -0.14841851410E+02  0.37180289422E+02  0.00000000000E+00 0. -1.
         21    1    1    2  506  504 -0.59148834138E+02  0.18253181196E+02  0.44028935371E+03  0.44461947573E+03  0.00000000000E+00 0. -1.
<scales pt_clust_3="32.60503" pt_clust_4="194.47845" pt_clust_5="32.60503" pt_clust_6="61.90124"></scales>
<clustering>
<clus scale="   32.605">  3  5 -1 -1</clus>
<clus scale="   61.901">  1  6  2 -1</clus>
<clus scale="  194.478">  2  4  1 -1</clus>
<clus scale="   61.901">  1  3  2 -1</clus>
</clustering>
</event>
<event>
 6    0  0.6549018E+002  0.1151602E+03  0.7546771E-02  0.1251302E+00
         21   -1    0    0  502  501  0.00000000000E+00  0.00000000000E+00  0.11057644047E+02  0.11057644047E+02  0.00000000000E+00 0.  1.
         21   -1    0    0  504  502 -0.00000000000E+00 -0.00000000000E+00 -0.24338850723E+04  0.24338850723E+04  0.00000000000E+00 0. -1.
         21    1    1    2  503  506  0.74474812709E+02  0.13292145569E+02 -0.38434159256E+03  0.39171627312E+03  0.00000000000E+00 0.  1.
         21    1    1    2  504  505 -0.79473471340E+02 -0.89176042005E+01 -0.11115668341E+04  0.11144399414E+04  0.00000000000E+00 0. -1.
         21    1    1    2  505  503 -0.26103147615E+02 -0.41363015907E+02 -0.81994970115E+03  0.82140719854E+03  0.00000000000E+00 0. -1.
         21    1    1    2  506  501  0.31101806246E+02  0.36988474539E+02 -0.10696930041E+03  0.11737930325E+03  0.00000000000E+00 0.  1.
<scales pt_clust_3="100.93765" pt_clust_4="43.35577" pt_clust_5="43.35577" pt_clust_6="48.32670"></scales>
<clustering>
<clus scale="   43.356">  4  5 -1 -1</clus>
<clus scale="   48.327">  1  6  2 -1</clus>
<clus scale="  100.938">  1  3  2 -1</clus>
<clus scale="   48.327">  1  3  2 -1</clus>
</clustering>
</event>
<event>
 6    0  0.6549018E+002  0.1859887E+03  0.7546771E-02  0.1162130E+00
         21   -1    0    0  504  501  0.00000000000E+00  0.00000000000E+00  0.96548384760E+03  0.96548384760E+03  0.00000000000E+00 0. -1.
         21   -1    0    0  501  502 -0.00000000000E+00 -0.00000000000E+00 -0.27220094851E+03  0.27220094851E+03  0.00000000000E+00 0.  1.
         21    1    1    2  503  502 -0.74541229086E+01  0.44894441870E+02 -0.61305107997E+02  0.76350449413E+02  0.00000000000E+00 0.  1.
         21    1    1    2  504  506  0.16740913209E+03 -0.49038730594E+02  0.91119238033E+03  0.92774035623E+03  0.00000000000E+00 0. -1.
         21    1    1    2  505  503 -0.70007063403E+02  0.12167434673E+02 -0.11258115264E+03  0.13312982882E+03  0.00000000000E+00 0.  1.
         21    1    1    2  506  505 -0.89947945780E+02 -0.80231459488E+01 -0.44023220610E+02  0.10046416164E+03  0.00000000000E+00 0.  1.
<scales pt_clust_3="45.50906" pt_clust_4="173.64725" pt_clust_5="63.42629" pt_clust_6="63.42629"></scales>
<clustering>
<clus scale="   45.509">  2  3  1 -1</clus>
<clus scale="   63.426">  5  6 -1 -1</clus>
<clus scale="  173.647">  1  4  2 -1</clus>
<clus scale="  173.647">  1  3  2 -1</clus>
</clustering>
</event>
<event>
 6    0  0.6549018E+002  0.1326918E+03  0.7546771E-02  0.1223515E+00
         21   -1    0    0  506  501  0.00000000000E+00  0.00000000000E+00  0.28943905260E+03  0.28943905260E+03  0.00000000000E+00 0. -1.
         21   -1    0    0  503  502 -0.00000000000E+00 -0.00000000000E+00 -0.17227553864E+03  0.17227553864E+03  0.00000000000E+00 0. -1.
         21    1    1    2  503  501  0.25368280018E+02 -0.12971619048E+03  0.14507847958E+03  0.19625902512E+03  0.00000000000E+00 0.  1.
         21    1    1    2  504  502 -0.41160778221E+02  0.63826295477E+02 -0.85500397921E+02  0.11436049887E+03  0.00000000000E+00 0. -1.
         21    1    1    2  505  504 -0.31135356281E+02  0.42097054167E+02 -0.21089772398E+02  0.56447771259E+02  0.00000000000E+00 0. -1.
         21    1    1    2  506  505  0.46927854484E+02  0.23792840839E+02  0.78675204699E+02  0.94647295979E+02  0.00000000000E+00 0. -1.
<scales pt_clust_3="127.43465" pt_clust_4="30.70502" pt_clust_5="30.70502" pt_clust_6="52.61485"></scales>
<clustering>
<clus scale="   30.705">  4  5 -1 -1</clus>
<clus scale="   52.615">  1  6  2 -1</clus>
<clus scale="  127.435">  1  3  2 -1</clus>
<clus scale="   52.615">  1  3  2 -1</clus>
</clustering>
</event>
<event>
 6    0  0.6549018E+002  0.8501398E+02  0.7546771E-02  0.1315396E+00
         21   -1    0    0  505  501  0.00000000000E+00  0.00000000000E+00  0.37957361489E+03  0.37957361489E+03  0.00000000000E+00 0. -1.
         21   -1    0    0  503  502 -0.00000000000E+00 -0.00000000000E+00 -0.23461510956E+03  0.23461510956E+03  0.00000000000E+00 0. -1.
         21    1    1    2  503  504  0.47998370302E+02  0.16549431203E+02 -0.28803417951E+02  0.58372631519E+02  0.00000000000E+00 0. -1.
         21    1    1    2  504  506  0.78784183320E+02 -0.83961152777E+02  0.56445572396E+02  0.12822841089E+03  0.00000000000E+00 0. -1.
         21    1    1    2  505  502 -0.46171565225E+02  0.68502140709E+02 -0.13745296721E+03  0.16036731248E+03  0.00000000000E+00 0. -1.
         21    1    1    2  506  501 -0.80610988398E+02 -0.10904191362E+01  0.25476931810E+03  0.26722036956E+03  0.00000000000E+00 0. -1.
<scales pt_clust_3="50.77132" pt_clust_4="85.01398" pt_clust_5="14000.00000" pt_clust_6="79.04865"></scales>
<clustering>
<clus scale="   50.771">  2  3  1 -1</clus>
<clus scale="   79.049">  1  6  2 -1</clus>
<clus scale="   85.014">  1  4  2 -1</clus>
<clus scale="   79.049">  1  3  2 -1</clus>
</clustering>
</event>
<event>
 6    0  0.6549018E+002  0.1305611E+03  0.7546771E-02  0.1226626E+00
         21   -1    0    0  506  501  0.00000000000E+00  0.00000000000E+00  0.16739352115E+03  0.16739352115E+03  0.00000000000E+00 0.  1.
         21   -1    0    0  505  502 -0.00000000000E+00 -0.00000000000E+00 -0.16568266597E+03  0.16568266597E+03  0.00000000000E+00 0.  1.
         21    1    1    2  503  504  0.40835781579E+02  0.54584360765E+02 -0.95970156761E+01  0.68841239146E+02  0.00000000000E+00 0.  1.
         21    1    1    2  504  502  0.13151996247E+01  0.54552182160E+02 -0.19991350515E+02  0.58114752206E+02  0.00000000000E+00 0.  1.
         21    1    1    2  505  501 -0.12935548146E+02 -0.13506721438E+03 -0.24627254184E+02  0.13790207560E+03  0.00000000000E+00 0.  1.
         21    1    1    2  506  503 -0.29215433058E+02  0.25930671455E+02  0.55926475552E+02  0.68218120163E+02  0.00000000000E+00 0.  1.
<scales pt_clust_3="35.27943" pt_clust_4="35.27943" pt_clust_5="124.46422" pt_clust_6="39.06330"></scales>
<clustering>
<clus scale="   35.279">  3  4 -1 -1</clus>
<clus scale="   39.063">  1  6  2 -1</clus>
<clus scale="  124.464">  1  5  2 -1</clus>
<clus scale="   39.063">  1  3  2 -1</clus>
</clustering>
</event>
<event>
 6    0  0.6549018E+002  0.8218794E+02  0.7546771E-02  0.1322955E+00
         21   -1    0    0  503  501  0.00000000000E+00  0.00000000000E+00  0.25491888311E+02  0.25491888311E+02  0.00000000000E+00 0.  1.
         21   -1    0    0  504  502 -0.00000000000E+00 -0.00000000000E+00 -0.93785611263E+03  0.93785611263E+03  0.00000000000E+00 0.  1.
         21    1    1    2  503  505 -0.39264764837E+02  0.11691538497E+03 -0.23666382631E+03  0.26687205864E+03  0.00000000000E+00 0.  1.
         21    1    1    2  504  506  0.37938737182E+02 -0.16821431032E+02 -0.31313841461E+03  0.31587651864E+03  0.00000000000E+00 0.  1.
         21    1    1    2  505  502 -0.17135226897E+02 -0.42672254850E+02 -0.23550708353E+03  0.23995442010E+03  0.00000000000E+00 0.  1.
         21    1    1    2  506  501  0.18461254552E+02 -0.57421699087E+02 -0.12705489987E+03  0.14064500356E+03  0.00000000000E+00 0.  1.
<scales pt_clust_3="82.18794" pt_clust_4="41.50070" pt_clust_5="49.15992" pt_clust_6="14000.00000"></scales>
<clustering>
<clus scale="   41.501">  2  4  1 -1</clus>
<clus scale="   49.160">  2  5  1 -1</clus>
<clus scale="   82.188">  2  3  1 -1</clus>
<clus scale="   82.188">  1  3  2 -1</clus>
</clustering>
</event>
<event>
 6    0  0.6549018E+002  0.1193735E+03  0.7546771E-02  0.1244134E+00
         21   -1    0    0  506  501  0.00000000000E+00  0.00000000000E+00  0.23603205122E+03  0.23603205122E+03  0.00000000000E+00 0. -1.
         21   -1    0    0  505  502 -0.00000000000E+00 -0.00000000000E+00 -0.52545122062E+03  0.52545122062E+03  0.00000000000E+00 0. -1.
         21    1    1    2  503  501 -0.77181535768E+01 -0.37206884146E+02  0.76978007449E+02  0.85846000217E+02  0.00000000000E+00 0.  1.
         21    1    1    2  504  503 -0.99470809046E+02 -0.22509094374E+02  0.12729195739E+03  0.16310837992E+03  0.00000000000E+00 0. -1.
         21    1    1    2  505  504  0.87171026601E+02  0.37017835317E+02 -0.44675854919E+03  0.45668622629E+03  0.00000000000E+00 0. -1.
         21    1    1    2  506  502  0.20017936022E+02  0.22698143203E+02 -0.46930585050E+02  0.55842665415E+02  0.00000000000E+00 0.  1.
<scales pt_clust_3="37.75333" pt_clust_4="119.37349" pt_clust_5="14000.00000" pt_clust_6="30.26423"></scales>
<clustering>
<clus scale="   30.264">  2  6  1 -1</clus>
<clus scale="   37.753">  1  3  2 -1</clus>
<clus scale="  119.373">  1  4  2 -1</clus>
<clus scale="   37.753">  1  3  2 -1</clus>
</clustering>
</event>
<event>
 6    0  0.6549018E+002  0.1233066E+03  0.7546771E-02  0.1237740E+00
         21   -1    0    0  506  501  0.00000000000E+00  0.00000000000E+00  0.14658015196E+03  0.14658015196E+03  0.00000000000E+00 0.  1.
         21   -1    0    0  503  502 -0.00000000000E+00 -0.00000000000E+00 -0.26321856534E+03  0.26321856534E+03  0.00000000000E+00 0. -1.
         21    1    1    2  503  501 -0.26956091166E+02 -0.15624174025E+02 -0.97962526770E+01  0.32660560795E+02  0.00000000000E+00 0.  1.
         21    1    1    2  504  505  0.27699980109E+02 -0.11117780911E+03 -0.38800817272E+02  0.12096816754E+03  0.00000000000E+00 0.  1.
         21    1    1    2  505  502  0.56794024318E+02  0.13662729496E+03 -0.10992597867E+03  0.18432661151E+03  0.00000000000E+00 0. -1.
         21    1    1    2  506  504 -0.57537913260E+02 -0.98253118204E+01  0.41884635237E+02  0.71843377452E+02  0.00000000000E+00 0.  1.
<scales pt_clust_3="31.15679" pt_clust_4="14000.00000" pt_clust_5="123.30658" pt_clust_6="60.18213"></scales>
<clustering>
<clus scale="   31.157">  2  3  1 -1</clus>
<clus scale="   60.182">  1  6  2 -1</clus>
<clus scale="  123.307">  2  5  1 -1</clus>
<clus scale="   60.182">  1  3  2 -1</clus>
</clustering>
</event>
<event>
 6    0  0.6549018E+002  0.1641549E+03  0.7546771E-02  0.1184084E+00
         21   -1    0    0  505  501  0.00000000000E+00  0.00000000000E+00  0.44563090632E+02  0.44563090632E+02  0.00000000000E+00 0. -1.
         21   -1    0    0  504  502 -0.00000000000E+00 -0.00000000000E+00 -0.12593274571E+04  0.12593274571E+04  0.00000000000E+00 0.  1.
         21    1    1    2  503  501 -0.23082068976E+02  0.24764854671E+02 -0.93090984487E+01  0.35110386626E+02  0.00000000000E+00 0. -1.
         21    1    1    2  504  506 -0.97100093762E+02 -0.58244856177E+02 -0.78359797793E+03  0.79173649814E+03  0.00000000000E+00 0.  1.
         21    1    1    2  505  502  0.16331928827E+03  0.35028223871E+02 -0.25609070426E+03  0.30574926851E+03  0.00000000000E+00 0. -1.
         21    1    1    2  506  503 -0.43137125529E+02 -0.15482223651E+01 -0.16576658581E+03  0.17129439443E+03  0.00000000000E+00 0. -1.
<scales pt_clust_3="33.85380" pt_clust_4="33.21354" pt_clust_5="155.09058" pt_clust_6="33.21354"></scales>
<clustering>
<clus scale="   33.214">  4  6 -1 -1</clus>
<clus scale="   33.854">  1  3  2 -1</clus>
<clus scale="  155.091">  1  5  2 -1</clus>
<clus scale="   33.854">  1  3  2 -1</clus>
</clustering>
</event>
<event>
 6    0  0.6549018E+002  0.1188189E+03  0.7546771E-02  0.1245058E+00
         21   -1    0    0  506  501  0.00000000000E+00  0.00000000000E+00  0.30007484876E+04  0.30007484876E+04  0.00000000000E+00 0.  1.
         21   -1    0    0  505  502 -0.00000000000E+00 -0.00000000000E+00 -0.47773417944E+03  0.47773417944E+03  0.00000000000E+00 0. -1.
         21    1    1    2  503  501 -0.24190150764E+02  0.10564420016E+03  0.23134706184E+04  0.23160078071E+04  0.00000000000E+00 0.  1.
         21    1    1    2  504  502 -0.22763391815E+01  0.89411820036E+02 -0.43612969290E+03  0.44520642887E+03  0.00000000000E+00 0. -1.
         21    1    1    2  505  503 -0.47583913541E+02  0.12548730103E+02  0.18640148211E+02  0.52622757248E+02  0.00000000000E+00 0. -1.
         21    1    1    2  506  504  0.74050403486E+02 -0.20760475030E+03  0.62703323445E+03  0.66464567381E+03  0.00000000000E+00 0. -1.
<scales pt_clust_3="108.44131" pt_clust_4="118.81889" pt_clust_5="49.21077" pt_clust_6="14000.00000"></scales>
<clustering>
<clus scale="   49.211">  2  5  1 -1</clus>
<clus scale="  108.441">  1  3  2 -1</clus>
<clus scale="  118.819">  2  4  1 -1</clus>
<clus scale="  108.441">  1  3  2 -1</clus>
</clustering>
</event>
<event>
 6    0  0.6549018E+002  0.1366629E+03  0.7546771E-02  0.1217891E+00
         21   -1    0    0  505  501  0.00000000000E+00  0.00000000000E+00  0.31589477088E+03  0.31589477088E+03  0.00000000000E+00 0.  1.
         21   -1    0    0  503  502 -0.00000000000E+00 -0.00000000000E+00 -0.24270259360E+03  0.24270259360E+03  0.00000000000E+00 0.  1.
         21    1    1    2  503  506  0.42870598126E+02 -0.29644729199E+02  0.30803390112E+02  0.60543760995E+02  0.00000000000E+00 0.  1.
         21    1    1    2  504  502 -0.13583720924E+03  0.40446931572E+02 -0.18416346215E+03  0.23238735438E+03  0.00000000000E+00 0.  1.
         21    1    1    2  505  504  0.82414568819E+02 -0.43634076920E+02  0.20442981594E+03  0.22469455594E+03  0.00000000000E+00 0.  1.
         21    1    1    2  506  501  0.10552042294E+02  0.32831874547E+02  0.22122433372E+02  0.40971693170E+02  0.00000000000E+00 0. -1.
<scales pt_clust_3="50.79405" pt_clust_4="14000.00000" pt_clust_5="136.66292" pt_clust_6="34.48590"></scales>
<clustering>
<clus scale="   34.486">  1  6  2 -1</clus>
<clus scale="   50.794">  1  3  2 -1</clus>
<clus scale="  136.663">  1  5  2 -1</clus>
<clus scale="   34.486">  1  3  2 -1</clus>
</clustering>
</event>
<event>
 6    0  0.6549018E+002  0.1188865E+03  0.7546771E-02  0.1244945E+00
         21   -1    0    0  504  501  0.00000000000E+00  0.00000000000E+00  0.28923571190E+03  0.28923571190E+03  0.00000000000E+00 0. -1.
         21   -1    0    0  506  502 -0.00000000000E+00 -0.00000000000E+00 -0.48608373334E+03  0.48608373334E+03  0.00000000000E+00 0. -1.
         21    1    1    2  503  505 -0.41706100015E+02  0.80483862507E+02  0.11962582626E+03  0.15009126960E+03  0.00000000000E+00 0. -1.
         21    1    1    2  504  503 -0.21069282475E+02  0.25799310933E+02  0.14178082584E+03  0.14564107142E+03  0.00000000000E+00 0. -1.
         21    1    1    2  505  502  0.57987004544E+02 -0.72297412572E+02 -0.41016910852E+03  0.42050934133E+03  0.00000000000E+00 0. -1.
         21    1    1    2  506  501  0.47883779454E+01 -0.33985760867E+02 -0.48085565017E+02  0.59077762890E+02  0.00000000000E+00 0.  1.
<scales pt_clust_3="118.88653" pt_clust_4="33.30944" pt_clust_5="14000.00000" pt_clust_6="33.25196"></scales>
<clustering>
<clus scale="   33.309">  1  4  2 -1</clus>
<clus scale="   33.252">  2  6  1 -1</clus>
<clus scale="  118.887">  1  3  2 -1</clus>
<clus scale="   33.309">  1  3  2 -1</clus>
</clustering>
</event>
<event>
 6    0  0.6549018E+002  0.1741063E+03  0.7546771E-02  0.1173632E+00
         21   -1    0    0  504  501  0.00000000000E+00  0.00000000000E+00  0.13179833417E+04  0.13179833417E+04  0.00000000000E+00 0. -1.
         21   -1    0    0  503  502 -0.00000000000E+00 -0.00000000000E+00 -0.10162984507E+03  0.10162984507E+03  0.00000000000E+00 0. -1.
         21    1    1    2  503  505  0.18489053516E+03 -0.12247328968E+03  0.18449813182E+03  0.28848531561E+03  0.00000000000E+00 0. -1.
         21    1    1    2  504  502 -0.11236036434E+03 -0.45401480732E+02  0.14480159046E+03  0.18882173214E+03  0.00000000000E+00 0. -1.
         21    1    1    2  505  506  0.20128497875E+02  0.18404414337E+03  0.33920866042E+03  0.38644523343E+03  0.00000000000E+00 0. -1.
         21    1    1    2  506  501 -0.92658668694E+02 -0.16169372958E+02  0.54784511395E+03  0.55586090561E+03  0.00000000000E+00 0. -1.
<scales pt_clust_3="174.10631" pt_clust_4="141.27614" pt_clust_5="14000.00000" pt_clust_6="94.05890"></scales>
<clustering>
<clus scale="   94.059">  1  6  2 -1</clus>
<clus scale="  141.276">  2  4  1 -1</clus>
<clus scale="  174.106">  2  3  1 -1</clus>
<clus scale="   94.059">  1  3  2 -1</clus>
</clustering>
</event>
<event>
 6    0  0.6549018E+002  0.1894970E+03  0.7546771E-02  0.1158916E+00
         21   -1    0    0  503  501  0.00000000000E+00  0.00000000000E+00  0.37103303032E+03  0.37103303032E+03  0.00000000000E+00 0. -1.
         21   -1    0    0  504  502 -0.00000000000E+00 -0.00000000000E+00 -0.94797526125E+02  0.94797526125E+02  0.00000000000E+00 0. -1.
         21    1    1    2  503  506 -0.30238104834E+02  0.13940445375E+02  0.50673073898E+02  0.60633649234E+02  0.00000000000E+00 0. -1.
         21    1    1    2  504  505  0.72090133765E+02 -0.12987755381E+03  0.13159514585E+03  0.19845011661E+03  0.00000000000E+00 0. -1.
         21    1    1    2  505  501  0.39687270744E+02 -0.31293744809E+01  0.22051916566E+02  0.45509993056E+02  0.00000000000E+00 0. -1.
         21    1    1    2  506  502 -0.81539299676E+02  0.11906648292E+03  0.71915367888E+02  0.16123679755E+03  0.00000000000E+00 0. -1.
<scales pt_clust_3="30.43101" pt_clust_4="39.16740" pt_clust_5="39.16740" pt_clust_6="184.92855"></scales>
<clustering>
<clus scale="   30.431">  3  6 -1 -1</clus>
<clus scale="   39.167">  4  5 -1 -1</clus>
<clus scale="  184.929">  2  3  1 -1</clus>
<clus scale="  189.497">  1  3  2 -1</clus>
</clustering>
</event>
<event>
 6    0  0.6549018E+002  0.7875422E+02  0.7546771E-02  0.1332624E+00
         21   -1    0    0  503  501  0.00000000000E+00  0.00000000000E+00  0.51368238489E+03  0.51368238489E+03  0.00000000000E+00 0. -1.
         21   -1    0    0  505  502 -0.00000000000E+00 -0.00000000000E+00 -0.29903894829E+03  0.29903894829E+03  0.00000000000E+00 0.  1.
         21    1    1    2  503  504 -0.82405308138E+02 -0.13062636806E+02  0.36765720345E+03  0.37700541977E+03  0.00000000000E+00 0. -1.
         21    1    1    2  504  502 -0.38096479261E+02  0.19514155889E+02 -0.71238731954E+02  0.83108970289E+02  0.00000000000E+00 0.  1.
         21    1    1    2  505  506  0.83749225618E+02  0.45047931391E+02 -0.19835083022E+03  0.21996886316E+03  0.00000000000E+00 0.  1.
         21    1    1    2  506  501  0.36752561781E+02 -0.51499450474E+02  0.11657579533E+03  0.13263807995E+03  0.00000000000E+00 0.  1.
<scales pt_clust_3="78.75422" pt_clust_4="42.80355" pt_clust_5="14000.00000" pt_clust_6="61.89687"></scales>
<clustering>
<clus scale="   42.804">  2  4  1 -1</clus>
<clus scale="   61.897">  1  6  2 -1</clus>
<clus scale="   78.754">  1  3  2 -1</clus>
<clus scale="   61.897">  1  3  2 -1</clus>
</clustering>
</event>
<event>
 6    0  0.6549018E+002  0.1404026E+03  0.7546771E-02  0.1212788E+00
         21   -1    0    0  502  501  0.00000000000E+00  0.00000000000E+00  0.20526874902E+04  0.20526874902E+04  0.00000000000E+00 0. -1.
         21   -1    0    0  503  502 -0.00000000000E+00 -0.00000000000E+00 -0.10314671222E+03  0.10314671222E+03  0.00000000000E+00 0. -1.
         21    1    1    2  503  504  0.10229470352E+03 -0.10476106164E+03 -0.28012368940E+02  0.14907642073E+03  0.00000000000E+00 0. -1.
         21    1    1    2  504  505 -0.46820967426E+02  0.10958368873E+03  0.27030023038E+03  0.29540311842E+03  0.00000000000E+00 0. -1.
         21    1    1    2  505  506 -0.32956778389E+02  0.26551023580E+02  0.24759332167E+03  0.25118431287E+03  0.00000000000E+00 0. -1.
         21    1    1    2  506  501 -0.22516957701E+02 -0.31373650674E+02  0.14596595948E+04  0.14601703504E+04  0.00000000000E+00 0. -1.
<scales pt_clust_3="140.40259" pt_clust_4="14000.00000" pt_clust_5="44.48115" pt_clust_6="38.61760"></scales>
<clustering>
<clus scale="   38.618">  1  6  2 -1</clus>
<clus scale="   44.481">  1  5  2 -1</clus>
<clus scale="  140.403">  2  3  1 -1</clus>
<clus scale="   38.618">  1  3  2 -1</clus>
</clustering>
</event>
<event>
 6    0  0.6549018E+002  0.7987682E+02  0.7546771E-02  0.1329401E+00
         21   -1    0    0  504  501  0.00000000000E+00  0.00000000000E+00  0.62968748731E+02  0.62968748731E+02  0.00000000000E+00 0.  1.
         21   -1    0    0  505  502 -0.00000000000E+00 -0.00000000000E+00 -0.14975857595E+04  0.14975857595E+04  0.00000000000E+00 0.  1.
         21    1    1    2  503  502  0.61283017022E+02 -0.97382056706E+02 -0.28675699454E+03  0.30897968714E+03  0.00000000000E+00 0.  1.
         21    1    1    2  504  503 -0.59538375203E+02  0.12178202264E+02  0.27070171316E+02  0.66527595081E+02  0.00000000000E+00 0.  1.
         21    1    1    2  505  506 -0.25383449374E+01  0.49499859144E+02 -0.11086549462E+04  0.11097623480E+04  0.00000000000E+00 0.  1.
         21    1    1    2  506  501  0.79370311840E+00  0.35703995298E+02 -0.66275241265E+02  0.75284877961E+02  0.00000000000E+00 0.  1.
<scales pt_clust_3="79.87682" pt_clust_4="14000.00000" pt_clust_5="49.90222" pt_clust_6="35.71282"></scales>
<clustering>
<clus scale="   35.713">  1  6  2 -1</clus>
<clus scale="   49.902">  2  5  1 -1</clus>
<clus scale="   79.877">  2  3  1 -1</clus>
<clus scale="   35.713">  1  3  2 -1</clus>
</clustering>
</event>
<event>
 6    0  0.6549018E+002  0.1038089E+03  0.7546771E-02  0.1272484E+00
         21   -1    0    0  506  501  0.00000000000E+00  0.00000000000E+00  0.61380904256E+03  0.61380904256E+03  0.00000000000E+00 0. -1.
         21   -1    0    0  504  502 -0.00000000000E+00 -0.00000000000E+00 -0.13765871537E+03  0.13765871537E+03  0.00000000000E+00 0. -1.
         21    1    1    2  503  501 -0.23336330452E+02  0.44134535523E+02  0.28916523803E+03  0.29344331042E+03  0.00000000000E+00 0. -1.
         21    1    1    2  504  505  0.28871651401E+02 -0.10120064511E+03 -0.71334263390E+02  0.12713661927E+03  0.00000000000E+00 0. -1.
         21    1    1    2  505  503  0.50803613133E+02  0.10701209186E+03  0.21095150148E+03  0.24193621243E+03  0.00000000000E+00 0. -1.
         21    1    1    2  506  502 -0.56338934082E+02 -0.49945982271E+02  0.47367851075E+02  0.88951615803E+02  0.00000000000E+00 0. -1.
<scales pt_clust_3="49.92436" pt_clust_4="103.80888" pt_clust_5="14000.00000" pt_clust_6="73.51178"></scales>
<clustering>
<clus scale="   49.924">  1  3  2 -1</clus>
<clus scale="   73.512">  1  6  2 -1</clus>
<clus scale="  103.809">  2  4  1 -1</clus>
<clus scale="   49.924">  1  3  2 -1</clus>
</clustering>
</event>
<event>
 6    0  0.6549018E+002  0.6285577E+02  0.7546771E-02  0.1386224E+00
         21   -1    0    0  505  501  0.00000000000E+00  0.00000000000E+00  0.53815110469E+03  0.53815110469E+03  0.00000000000E+00 0.  1.
         21   -1    0    0  506  502 -0.00000000000E+00 -0.00000000000E+00 -0.14458482121E+03  0.14458482121E+03  0.00000000000E+00 0.  1.
         21    1    1    2  503  504 -0.10591172659E+03  0.20116489152E+02  0.36911766093E+03  0.38453844356E+03  0.00000000000E+00 0.  1.
         21    1    1    2  504  502  0.10269234095E+02  0.42208432426E+02 -0.90219533190E+02  0.10013277738E+03  0.00000000000E+00 0.  1.
         21    1    1    2  505  503  0.46203413756E+02 -0.17370480160E+02  0.12125719423E+03  0.13091904436E+03  0.00000000000E+00 0.  1.
         21    1    1    2  506  501  0.49439078739E+02 -0.44954441418E+02 -0.65890384835E+01  0.67145660604E+02  0.00000000000E+00 0.  1.
<scales pt_clust_3="62.85577" pt_clust_4="43.43972" pt_clust_5="49.02998" pt_clust_6="14000.00000"></scales>
<clustering>
<clus scale="   43.440">  2  4  1 -1</clus>
<clus scale="   49.030">  1  5  2 -1</clus>
<clus scale="   62.856">  1  3  2 -1</clus>
<clus scale="   49.030">  1  3  2 -1</clus>
</clustering>
</event>
<event>
 6    0  0.6549018E+002  0.1931945E+03  0.7546771E-02  0.1155611E+00
         21   -1    0    0  505  501  0.00000000000E+00  0.00000000000E+00  0.10083846410E+03  0.10083846410E+03  0.00000000000E+00 0. -1.
         21   -1    0    0  504  502 -0.00000000000E+00 -0.00000000000E+00 -0.12462097854E+04  0.12462097854E+04  0.00000000000E+00 0. -1.
         21    1    1    2  503  506 -0.11592990063E+03 -0.48615173933E+02 -0.59170470481E+03  0.60491126183E+03  0.00000000000E+00 0. -1.
         21    1    1    2  504  501  0.33202654311E+02 -0.49510866747E+02 -0.89846447650E+01  0.60286532666E+02  0.00000000000E+00 0. -1.
         21    1    1    2  505  503  0.14724259396E+03  0.10190908705E+03 -0.54147233323E+02  0.18707689963E+03  0.00000000000E+00 0. -1.
         21    1    1    2  506  502 -0.64515347636E+02 -0.37830463680E+01 -0.49053473843E+03  0.49477355540E+03  0.00000000000E+00 0. -1.
<scales pt_clust_3="37.65725" pt_clust_4="59.61327" pt_clust_5="185.91855" pt_clust_6="37.65725"></scales>
<clustering>
<clus scale="   37.657">  3  6 -1 -1</clus>
<clus scale="   59.613">  1  4  2 -1</clus>
<clus scale="  185.919">  1  5  2 -1</clus>
<clus scale="   59.613">  1  3  2 -1</clus>
</clustering>
</event>
<event>
 6    0  0.6549018E+002  0.9777357E+02  0.7546771E-02  0.1285049E+00
         21   -1    0    0  503  501  0.00000000000E+00  0.00000000000E+00  0.40871970206E+02  0.40871970206E+02  0.00000000000E+00 0. -1.
         21   -1    0    0  504  502 -0.00000000000E+00 -0.00000000000E+00 -0.14148154335E+04  0.14148154335E+04  0.00000000000E+00 0. -1.
         21    1    1    2  503  506  0.32387494911E+02 -0.76306516832E+02 -0.74662368088E+02  0.11156210623E+03  0.00000000000E+00 0. -1.
         21    1    1    2  504  501 -0.82026688485E+02  0.17731848866E+01 -0.62365630088E+02  0.10305820503E+03  0.00000000000E+00 0. -1.
         21    1    1    2  505  502 -0.32662854754E+01  0.35391105023E+02 -0.41118291289E+03  0.41271610920E+03  0.00000000000E+00 0. -1.
         21    1    1    2  506  505  0.52905479049E+02  0.39142226923E+02 -0.82573255218E+03  0.82835098320E+03  0.00000000000E+00 0. -1.
<scales pt_clust_3="85.38897" pt_clust_4="82.04585" pt_clust_5="35.00076" pt_clust_6="35.00076"></scales>
<clustering>
<clus scale="   35.001">  5  6 -1 -1</clus>
<clus scale="   82.046">  1  4  2 -1</clus>
<clus scale="   85.389">  1  3  2 -1</clus>
<clus scale="   82.046">  1  3  2 -1</clus>
</clustering>
</event>
<event>
 6    0  0.6549018E+002  0.9223049E+02  0.7546771E-02  0.1297538E+00
         21   -1    0    0  506  501  0.00000000000E+00  0.00000000000E+00  0.37770066249E+03  0.37770066249E+03  0.00000000000E+00 0.  1.
         21   -1    0    0  504  502 -0.00000000000E+00 -0.00000000000E+00 -0.13021136870E+03  0.13021136870E+03  0.00000000000E+00 0.  1.
         21    1    1    2  503  505 -0.10956341134E+02 -0.75622668984E+02  0.17261627678E+03  0.18877290188E+03  0.00000000000E+00 0.  1.
         21    1    1    2  504  501  0.12051873362E+03  0.32911128223E+02 -0.39429258451E+02  0.13100600725E+03  0.00000000000E+00 0.  1.
         21    1    1    2  505  502 -0.54262353900E+02  0.47664267127E+02  0.14115221488E+02  0.73590249960E+02  0.00000000000E+00 0.  1.
         21    1    1    2  506  503 -0.55300038584E+02 -0.49527263648E+01  0.10018705397E+03  0.11454287210E+03  0.00000000000E+00 0. -1.
<scales pt_clust_3="92.23049" pt_clust_4="14000.00000" pt_clust_5="78.70412" pt_clust_6="55.52138"></scales>
<clustering>
<clus scale="   55.521">  1  6  2 -1</clus>
<clus scale="   78.704">  2  5  1 -1</clus>
<clus scale="   92.230">  1  3  2 -1</clus>
<clus scale="   55.521">  1  3  2 -1</clus>
</clustering>
</event>
<event>
 6    0  0.6549018E+002  0.8904882E+02  0.7546771E-02  0.1305172E+00
         21   -1    0    0  506  501  0.00000000000E+00  0.00000000000E+00  0.55757154352E+03  0.55757154352E+03  0.00000000000E+00 0. -1.
         21   -1    0    0  505  502 -0.00000000000E+00 -0.00000000000E+00 -0.92772675707E+02  0.92772675707E+02  0.00000000000E+00 0.  1.
         21    1    1    2  503  504  0.26453056491E+02  0.10938476092E+03  0.20623484433E+03  0.23494169731E+03  0.00000000000E+00 0. -1.
         21    1    1    2  504  501 -0.45231347368E+02 -0.17986765677E+02  0.29863413039E+03  0.30257518464E+03  0.00000000000E+00 0. -1.
         21    1    1    2  505  503  0.13128514767E+02 -0.59327461716E+02 -0.50099806650E+02  0.78753388752E+02  0.00000000000E+00 0.  1.
         21    1    1    2  506  502  0.56497761103E+01 -0.32070533530E+02  0.10029699736E+02  0.34073948520E+02  0.00000000000E+00 0. -1.
<scales pt_clust_3="89.04882" pt_clust_4="48.84374" pt_clust_5="14000.00000" pt_clust_6="32.56438"></scales>
<clustering>
<clus scale="   32.564">  2  6  1 -1</clus>
<clus scale="   48.844">  1  4  2 -1</clus>
<clus scale="   89.049">  1  3  2 -1</clus>
<clus scale="   48.844">  1  3  2 -1</clus>
</clustering>
</event>
<event>
 6    0  0.6549018E+002  0.1159546E+03  0.7546771E-02  0.1249924E+00
         21   -1    0    0  504  501  0.00000000000E+00  0.00000000000E+00  0.14025345140E+03  0.14025345140E+03  0.00000000000E+00 0. -1.
         21   -1    0    0  505  502 -0.00000000000E+00 -0.00000000000E+00 -0.10294079468E+04  0.10294079468E+04  0.00000000000E+00 0. -1.
         21    1    1    2  503  501 -0.91215464477E+02 -0.34769992810E+02 -0.62142421686E+02  0.11571903012E+03  0.00000000000E+00 0. -1.
         21    1    1    2  504  506  0.20515543486E+03  0.54893720061E+02 -0.42038671957E+01  0.21241408959E+03  0.00000000000E+00 0. -1.
         21    1    1    2  505  503 -0.52097708900E+02  0.52551255232E+02 -0.24630731709E+03  0.25718300906E+03  0.00000000000E+00 0.  1.
         21    1    1    2  506  502 -0.61842261488E+02 -0.72674982483E+02 -0.57650088942E+03  0.58434526941E+03  0.00000000000E+00 0. -1.
<scales pt_clust_3="101.33996" pt_clust_4="14000.00000" pt_clust_5="73.99869" pt_clust_6="115.95456"></scales>
<clustering>
<clus scale="   73.999">  2  5  1 -1</clus>
<clus scale="  101.340">  1  3  2 -1</clus>
<clus scale="  115.955">  2  6  1 -1</clus>
<clus scale="  101.340">  1  3  2 -1</clus>
</clustering>
</event>
<event>
 6    0  0.6549018E+002  0.6041401E+02  0.7546771E-02  0.1396102E+00
         21   -1    0    0  504  501  0.00000000000E+00  0.00000000000E+00  0.58181469347E+02  0.58181469347E+02  0.00000000000E+00 0. -1.
         21   -1    0    0  503  502 -0.00000000000E+00 -0.00000000000E+00 -0.81734180476E+03  0.81734180476E+03  0.00000000000E+00 0. -1.
         21    1    1    2  503  501  0.50472965327E+02  0.55892614125E+02  0.13779140921E+02  0.76559579852E+02  0.00000000000E+00 0. -1.
         21    1    1    2  504  506 -0.50289395382E+02 -0.12792542775E+02 -0.89186889498E+02  0.10318417367E+03  0.00000000000E+00 0. -1.
         21    1    1    2  505  502  0.52008456589E+02  0.11108313836E+02 -0.25728186934E+03  0.26272082994E+03  0.00000000000E+00 0. -1.
         21    1    1    2  506  505 -0.52192026535E+02 -0.54208385186E+02 -0.42647071749E+03  0.43305869064E+03  0.00000000000E+00 0. -1.
<scales pt_clust_3="45.01718" pt_clust_4="51.89097" pt_clust_5="14000.00000" pt_clust_6="60.41401"></scales>
<clustering>
<clus scale="   51.891">  1  4  2 -1</clus>
<clus scale="   45.017">  1  3  2 -1</clus>
<clus scale="   60.414">  1  6  2 -1</clus>
<clus scale="   51.891">  1  3  2 -1</clus>
</clustering>
</event>
<event>
 6    0  0.6549018E+002  0.1375038E+03  0.7546771E-02  0.1216728E+00
         21   -1    0    0  506  501  0.00000000000E+00  0.00000000000E+00  0.13209646362E+04  0.13209646362E+04  0.00000000000E+00 0.  1.
         21   -1    0    0  504  502 -0.00000000000E+00 -0.00000000000E+00 -0.55306772052E+02  0.55306772052E+02  0.00000000000E+00 0.  1.
         21    1    1    2  503  501 -0.82550582409E+02  0.12423629650E+03  0.70695711800E+03  0.72252171090E+03  0.00000000000E+00 0.  1.
         21    1    1    2  504  503 -0.36774783676E+02 -0.10152844847E+03  0.69077178341E+02  0.12818762472E+03  0.00000000000E+00 0.  1.
         21    1    1    2  505  502 -0.33254883819E+02 -0.57173525913E+01  0.53978846795E+02  0.63657610069E+02  0.00000000000E+00 0. -1.
         21    1    1    2  506  505  0.15258024990E+03 -0.16990495433E+02  0.43564472106E+03  0.46190446261E+03  0.00000000000E+00 0.  1.
<scales pt_clust_3="137.50376" pt_clust_4="119.00911" pt_clust_5="33.74278" pt_clust_6="14000.00000"></scales>
<clustering>
<clus scale="   33.743">  2  5  1 -1</clus>
<clus scale="  119.009">  2  4  1 -1</clus>
<clus scale="  137.504">  1  3  2 -1</clus>
<clus scale="  137.504">  1  3  2 -1</clus>
</clustering>
</event>
<event>
 6    0  0.6549018E+002  0.2036245E+03  0.7546771E-02  0.1146717E+00
         21   -1    0    0  506  501  0.00000000000E+00  0.00000000000E+00  0.50872940222E+03  0.50872940222E+03  0.00000000000E+00 0.  1.
         21   -1    0    0  505  502 -0.00000000000E+00 -0.00000000000E+00 -0.18888369966E+03  0.18888369966E+03  0.00000000000E+00 0.  1.
         21    1    1    2  503  502  0.54170280700E+02 -0.30805784673E+02 -0.49102032609E+02  0.79337414168E+02  0.00000000000E+00 0.  1.
         21    1    1    2  504  503  0.11236038245E+03 -0.46481876981E+02 -0.11173845360E+02  0.12210763798E+03  0.00000000000E+00 0.  1.
         21    1    1    2  505  501 -0.22991123408E+03  0.97228676100E+02  0.27132265508E+03  0.36868492534E+03  0.00000000000E+00 0.  1.
         21    1    1    2  506  504  0.63380570931E+02 -0.19941014446E+02  0.10879892544E+03  0.12748312439E+03  0.00000000000E+00 0.  1.
<scales pt_clust_3="40.75587" pt_clust_4="40.75587" pt_clust_5="195.50407" pt_clust_6="66.44352"></scales>
<clustering>
<clus scale="   40.756">  3  4 -1 -1</clus>
<clus scale="   66.444">  1  6  2 -1</clus>
<clus scale="  195.504">  1  5  2 -1</clus>
<clus scale="   66.444">  1  3  2 -1</clus>
</clustering>
</event>
<event>
 6    0  0.6549018E+002  0.1323677E+03  0.7546771E-02  0.1223984E+00
         21   -1    0    0  503  501  0.00000000000E+00  0.00000000000E+00  0.17778675163E+03  0.17778675163E+03  0.00000000000E+00 0.  1.
         21   -1    0    0  505  502 -0.00000000000E+00 -0.00000000000E+00 -0.42728972692E+03  0.42728972692E+03  0.00000000000E+00 0. -1.
         21    1    1    2  503  502  0.71059006772E+02  0.25644266071E+02 -0.28372789760E+03  0.29361289261E+03  0.00000000000E+00 0. -1.
         21    1    1    2  504  501 -0.29842324475E+02 -0.23065330466E+02  0.44215846763E+02  0.58117251351E+02  0.00000000000E+00 0.  1.
         21    1    1    2  505  506  0.53477803744E+02 -0.30369716085E+02 -0.10155394722E+03  0.11872404703E+03  0.00000000000E+00 0. -1.
         21    1    1    2  506  504 -0.94694486041E+02  0.27790780479E+02  0.91563022773E+02  0.13462228755E+03  0.00000000000E+00 0.  1.
<scales pt_clust_3="119.75114" pt_clust_4="34.86661" pt_clust_5="61.49955" pt_clust_6="34.86661"></scales>
<clustering>
<clus scale="   34.867">  4  6 -1 -1</clus>
<clus scale="   61.500">  2  5  1 -1</clus>
<clus scale="  119.751">  2  3  1 -1</clus>
<clus scale="  132.368">  1  3  2 -1</clus>
</clustering>
</event>
<event>
 6    0  0.6549018E+002  0.2320996E+03  0.7546771E-02  0.1125171E+00
         21   -1    0    0  503  501  0.00000000000E+00  0.00000000000E+00  0.16259270896E+03  0.16259270896E+03  0.00000000000E+00 0. -1.
         21   -1    0    0  506  502 -0.00000000000E+00 -0.00000000000E+00 -0.78176265810E+03  0.78176265810E+03  0.00000000000E+00 0. -1.
         21    1    1    2  503  505  0.80769745388E+02 -0.27027395806E+03 -0.74521793403E+02  0.29176233799E+03  0.00000000000E+00 0. -1.
         21    1    1    2  504  501  0.28064077691E+02  0.17421464932E+03 -0.21707646679E+03  0.27975083365E+03  0.00000000000E+00 0. -1.
         21    1    1    2  505  502 -0.69240605673E+01  0.39642110358E+02 -0.18203558872E+03  0.18643067099E+03  0.00000000000E+00 0. -1.
         21    1    1    2  506  504 -0.10190976251E+03  0.56417198377E+02 -0.14553610023E+03  0.18641152443E+03  0.00000000000E+00 0. -1.
<scales pt_clust_3="14000.00000" pt_clust_4="232.09960" pt_clust_5="40.24226" pt_clust_6="123.80588"></scales>
<clustering>
<clus scale="   40.242">  2  5  1 -1</clus>
<clus scale="  123.806">  2  6  1 -1</clus>
<clus scale="  232.100">  2  4  1 -1</clus>
<clus scale="  232.100">  1  3  2 -1</clus>
</clustering>
</event>
<event>
 6    0  0.6549018E+002  0.8713562E+02  0.7546771E-02  0.1309940E+00
         21   -1    0    0  504  501  0.00000000000E+00  0.00000000000E+00  0.54936063399E+03  0.54936063399E+03  0.00000000000E+00 0.  1.
         21   -1    0    0  506  502 -0.00000000000E+00 -0.00000000000E+00 -0.30849708511E+03  0.30849708511E+03  0.00000000000E+00 0.  1.
         21    1    1    2  503  502  0.79071363308E+02 -0.25542996265E+02 -0.20300108552E+03  0.21934941503E+03  0.00000000000E+00 0.  1.
         21    1    1    2  504  505  0.10082126859E+02  0.73929301908E+02  0.43448178407E+03  0.44084193499E+03  0.00000000000E+00 0.  1.
         21    1    1    2  505  503  0.30938269875E+02 -0.68449611237E+02 -0.37096444973E+01  0.75208292652E+02  0.00000000000E+00 0.  1.
         21    1    1    2  506  501 -0.12009176004E+03  0.20063305594E+02  0.13092494831E+02  0.12245807643E+03  0.00000000000E+00 0.  1.
<scales pt_clust_3="87.13562" pt_clust_4="74.61361" pt_clust_5="56.33167" pt_clust_6="14000.00000"></scales>
<clustering>
<clus scale="   74.614">  1  4  2 -1</clus>
<clus scale="   56.332">  1  5  2 -1</clus>
<clus scale="   87.136">  2  3  1 -1</clus>
<clus scale="   74.614">  1  3  2 -1</clus>
</clustering>
</event>
<event>
 6    0  0.6549018E+002  0.9620082E+02  0.7546771E-02  0.1288494E+00
         21   -1    0    0  504  501  0.00000000000E+00  0.00000000000E+00  0.12711530051E+04  0.12711530051E+04  0.00000000000E+00 0.  1.
         21   -1    0    0  503  502 -0.00000000000E+00 -0.00000000000E+00 -0.96520225215E+02  0.96520225215E+02  0.00000000000E+00 0.  1.
         21    1    1    2  503  505 -0.57849257410E+01 -0.60407683932E+02  0.48503891532E+02  0.77686428272E+02  0.00000000000E+00 0.  1.
         21    1    1    2  504  506  0.13291652996E+02 -0.59341709461E+02  0.97677446687E+03  0.97866565571E+03  0.00000000000E+00 0.  1.
         21    1    1    2  505  501 -0.86436047601E+02  0.11722539638E+03  0.37671612386E+01  0.14569548855E+03  0.00000000000E+00 0.  1.
         21    1    1    2  506  502  0.78929320347E+02  0.25239970154E+01  0.14558726022E+03  0.16562565776E+03  0.00000000000E+00 0.  1.
<scales pt_clust_3="60.68405" pt_clust_4="61.47820" pt_clust_5="96.20082" pt_clust_6="14000.00000"></scales>
<clustering>
<clus scale="   60.684">  2  3  1 -1</clus>
<clus scale="   61.478">  1  4  2 -1</clus>
<clus scale="   96.201">  2  5  1 -1</clus>
<clus scale="   61.478">  1  3  2 -1</clus>
</clustering>
</event>
<event>
 6    0  0.6549018E+002  0.8121672E+02  0.7546771E-02  0.1325634E+00
         21   -1    0    0  506  501  0.00000000000E+00  0.00000000000E+00  0.18649389443E+04  0.18649389443E+04  0.00000000000E+00 0. -1.
         21   -1    0    0  505  502 -0.00000000000E+00 -0.00000000000E+00 -0.30416875437E+03  0.30416875437E+03  0.00000000000E+00 0.  1.
         21    1    1    2  503  502  0.29535429825E+02 -0.10108154871E+02 -0.33739733385E+02  0.45966139916E+02  0.00000000000E+00 0. -1.
         21    1    1    2  504  501 -0.13037349258E+03 -0.71255565606E+02  0.15784932269E+04  0.15854701103E+04  0.00000000000E+00 0. -1.
         21    1    1    2  505  504  0.47986094650E+02  0.35036115625E+02 -0.25286730627E+03  0.25975386284E+03  0.00000000000E+00 0.  1.
         21    1    1    2  506  503  0.52851968110E+02  0.46327604852E+02  0.26888400266E+03  0.27791758561E+03  0.00000000000E+00 0.  1.
<scales pt_clust_3="31.21725" pt_clust_4="14000.00000" pt_clust_5="81.21672" pt_clust_6="70.54933"></scales>
<clustering>
<clus scale="   31.217">  2  3  1 -1</clus>
<clus scale="   70.549">  1  6  2 -1</clus>
<clus scale="   81.217">  2  5  1 -1</clus>
<clus scale="   70.549">  1  3  2 -1</clus>
</clustering>
</event>
<event>
 6    0  0.6549018E+002  0.1251247E+03  0.7546771E-02  0.1234874E+00
         21   -1    0    0  505  501  0.00000000000E+00  0.00000000000E+00  0.49549197936E+03  0.49549197936E+03  0.00000000000E+00 0.  1.
         21   -1    0    0  506  502 -0.00000000000E+00 -0.00000000000E+00 -0.11310709275E+04  0.11310709275E+04  0.00000000000E+00 0. -1.
         21    1    1    2  503  502 -0.16670804936E+01 -0.40918480350E+02 -0.53991597207E+03  0.54146685779E+03  0.00000000000E+00 0. -1.
         21    1    1    2  504  503  0.34153400582E+02 -0.44300241266E+02 -0.79348457649E+02  0.97083180205E+02  0.00000000000E+00 0.  1.
         21    1    1    2  505  504 -0.11042184322E+03  0.61243070253E+02  0.47422248324E+03  0.49074500581E+03  0.00000000000E+00 0.  1.
         21    1    1    2  506  501  0.77935523131E+02  0.23975651363E+02 -0.49053700164E+03  0.49726786303E+03  0.00000000000E+00 0. -1.
<scales pt_clust_3="40.95243" pt_clust_4="60.75451" pt_clust_5="125.12473" pt_clust_6="14000.00000"></scales>
<clustering>
<clus scale="   40.952">  2  3  1 -1</clus>
<clus scale="   60.755">  2  4  1 -1</clus>
<clus scale="  125.125">  1  5  2 -1</clus>
<clus scale="  125.125">  1  3  2 -1</clus>
</clustering>
</event>
<event>
 6    0  0.6549018E+002  0.1350343E+03  0.7546771E-02  0.1220171E+00
         21   -1    0    0  503  501  0.00000000000E+00  0.00000000000E+00  0.48303050097E+03  0.48303050097E+03  0.00000000000E+00 0. -1.
         21   -1    0    0  504  502 -0.00000000000E+00 -0.00000000000E+00 -0.88252690136E+03  0.88252690136E+03  0.00000000000E+00 0.  1.
         21    1    1    2  503  505 -0.12841001483E+02 -0.11474124994E+03  0.23974550206E+03  0.26609838691E+03  0.00000000000E+00 0. -1.
         21    1    1    2  504  506  0.96745324555E+02  0.43722244789E+02 -0.72658879246E+03  0.73430413715E+03  0.00000000000E+00 0.  1.
         21    1    1    2  505  502  0.16281271032E+02  0.36338871022E+02 -0.12317129959E+03  0.12944791376E+03  0.00000000000E+00 0.  1.
         21    1    1    2  506  501 -0.10018559410E+03  0.34680134127E+02  0.21051818960E+03  0.23570696452E+03  0.00000000000E+00 0. -1.
<scales pt_clust_3="14000.00000" pt_clust_4="135.03435" pt_clust_5="39.81951" pt_clust_6="105.96202"></scales>
<clustering>
<clus scale="   39.820">  2  5  1 -1</clus>
<clus scale="  105.962">  1  6  2 -1</clus>
<clus scale="  135.034">  2  4  1 -1</clus>
<clus scale="  105.962">  1  3  2 -1</clus>
</clustering>
</event>
<event>
 6    0  0.6549018E+002  0.1426894E+03  0.7546771E-02  0.1209755E+00
         21   -1    0    0  503  501  0.00000000000E+00  0.00000000000E+00  0.90047894869E+03  0.90047894869E+03  0.00000000000E+00 0. -1.
         21   -1    0    0  504  502 -0.00000000000E+00 -0.00000000000E+00 -0.47388403243E+03  0.47388403243E+03  0.00000000000E+00 0.  1.
         21    1    1    2  503  505  0.10990846388E+03 -0.92315429835E+02  0.84303362025E+03  0.85516530209E+03  0.00000000000E+00 0. -1.
         21    1    1    2  504  501 -0.77951084780E+02  0.73428939252E+02 -0.24573749429E+03  0.26805801021E+03  0.00000000000E+00 0.  1.
         21    1    1    2  505  506  0.28331147300E+02  0.84909264549E+02 -0.55524932109E+02  0.10533401729E+03  0.00000000000E+00 0.  1.
         21    1    1    2  506  502 -0.60288526401E+02 -0.66022773966E+02 -0.11517627760E+03  0.14580565153E+03  0.00000000000E+00 0.  1.
<scales pt_clust_3="142.68940" pt_clust_4="14000.00000" pt_clust_5="70.88442" pt_clust_6="89.40757"></scales>
<clustering>
<clus scale="   89.408">  2  6  1 -1</clus>
<clus scale="   70.884">  2  5  1 -1</clus>
<clus scale="  142.689">  1  3  2 -1</clus>
<clus scale="  142.689">  1  3  2 -1</clus>
</clustering>
</event>
<event>
 6    0  0.6549018E+002  0.1385806E+03  0.7546771E-02  0.1215252E+00
         21   -1    0    0  503  501  0.00000000000E+00  0.00000000000E+00  0.34497589052E+04  0.34497589052E+04  0.00000000000E+00 0. -1.
         21   -1    0    0  506  502 -0.00000000000E+00 -0.00000000000E+00 -0.20918182039E+03  0.20918182039E+03  0.00000000000E+00 0. -1.
         21    1    1    2  503  502 -0.19221487869E+03 -0.22706214749E+02  0.24930504654E+04  0.25005524899E+04  0.00000000000E+00 0. -1.
         21    1    1    2  504  501  0.97438601456E+02  0.14515256956E+02  0.88410298539E+03  0.88957465258E+03  0.00000000000E+00 0. -1.
         21    1    1    2  505  504  0.10825422083E+03  0.58274739021E+02 -0.16799342813E+03  0.20817471852E+03  0.00000000000E+00 0. -1.
         21    1    1    2  506  505 -0.13477943596E+02 -0.50083781229E+02  0.31417062178E+02  0.60638864614E+02  0.00000000000E+00 0. -1.
<scales pt_clust_3="138.58060" pt_clust_4="14000.00000" pt_clust_5="95.73480" pt_clust_6="51.86560"></scales>
<clustering>
<clus scale="   51.866">  2  6  1 -1</clus>
<clus scale="   95.735">  2  5  1 -1</clus>
<clus scale="  138.581">  2  3  1 -1</clus>
<clus scale="  138.581">  1  3  2 -1</clus>
</clustering>
</event>
<event>
 6    0  0.6549018E+002  0.9662310E+02  0.7546771E-02  0.1287562E+00
         21   -1    0    0  505  501  0.00000000000E+00  0.00000000000E+00  0.43537115560E+03  0.43537115560E+03  0.00000000000E+00 0. -1.
         21   -1    0    0  504  502 -0.00000000000E+00 -0.00000000000E+00 -0.49032254420E+03  0.49032254420E+03  0.00000000000E+00 0. -1.
         21    1    1    2  503  506  0.92054059202E+02 -0.13782004802E+03  0.31060433327E+03  0.35205591501E+03  0.00000000000E+00 0. -1.
         21    1    1    2  504  501 -0.99323845458E+01  0.41216502916E+02 -0.14321530378E+03  0.14935888193E+03  0.00000000000E+00 0. -1.
         21    1    1    2  505  503 -0.12076665442E+02  0.80891306002E+02  0.79476308292E+02  0.11404267979E+03  0.00000000000E+00 0.  1.
         21    1    1    2  506  502 -0.70045009214E+02  0.15712239099E+02 -0.30181672638E+03  0.31023622306E+03  0.00000000000E+00 0. -1.
<scales pt_clust_3="96.62310" pt_clust_4="42.39637" pt_clust_5="83.90960" pt_clust_6="14000.00000"></scales>
<clustering>
<clus scale="   42.396">  2  4  1 -1</clus>
<clus scale="   83.910">  1  5  2 -1</clus>
<clus scale="   96.623">  1  3  2 -1</clus>
<clus scale="   83.910">  1  3  2 -1</clus>
</clustering>
</event>
<event>
 6    0  0.1371982E+003  0.1131697E+03  0.7546771E-02  0.1254810E+00
         21   -1    0    0  505  501  0.00000000000E+00  0.00000000000E+00  0.19836506130E+03  0.19836506130E+03  0.00000000000E+00 0. -1.
         21   -1    0    0  504  502 -0.00000000000E+00 -0.00000000000E+00 -0.96832726358E+03  0.96832726358E+03  0.00000000000E+00 0.  1.
         21    1    1    2  503  506 -0.61888001122E+02  0.53756876866E+02  0.20553565141E+02  0.84512576184E+02  0.00000000000E+00 0. -1.
         21    1    1    2  504  501  0.15405998035E+02  0.27368344184E+02 -0.50927765220E+02  0.59833170643E+02  0.00000000000E+00 0. -1.
         21    1    1    2  505  503 -0.41459312097E+02  0.37847349751E+01  0.13396348159E+03  0.14028333179E+03  0.00000000000E+00 0. -1.
         21    1    1    2  506  502  0.87941315183E+02 -0.84909956025E+02 -0.87355148380E+03  0.88206324625E+03  0.00000000000E+00 0.  1.
<scales pt_clust_3="113.16965" pt_clust_4="31.40654" pt_clust_5="41.58733" pt_clust_6="14000.00000"></scales>
<clustering>
<clus scale="   31.407">  2  4  1 -1</clus>
<clus scale="   41.587">  1  5  2 -1</clus>
<clus scale="  113.170">  1  3  2 -1</clus>
<clus scale="   41.587">  1  3  2 -1</clus>
</clustering>
</event>
<event>
 6    0  0.6549018E+002  0.1800957E+03  0.7546771E-02  0.1167710E+00
         21   -1    0    0  503  501  0.00000000000E+00  0.00000000000E+00  0.19652295926E+04  0.19652295926E+04  0.00000000000E+00 0.  1.
         21   -1    0    0  504  502 -0.00000000000E+00 -0.00000000000E+00 -0.90351659747E+03  0.90351659747E+03  0.00000000000E+00 0. -1.
         21    1    1    2  503  502  0.44369045318E+02 -0.20291369125E+02  0.16716869709E+03  0.17414282969E+03  0.00000000000E+00 0. -1.
         21    1    1    2  504  506  0.71989778858E+02 -0.32514232391E+02 -0.53439189327E+03  0.54019848126E+03  0.00000000000E+00 0. -1.
         21    1    1    2  505  501 -0.20340597642E+03  0.87146984398E+02  0.17786628219E+04  0.17923755248E+04  0.00000000000E+00 0.  1.
         21    1    1    2  506  505  0.87047152241E+02 -0.34341382882E+02 -0.34972663053E+03  0.36202935433E+03  0.00000000000E+00 0. -1.
<scales pt_clust_3="48.78885" pt_clust_4="46.73187" pt_clust_5="172.76393" pt_clust_6="46.73187"></scales>
<clustering>
<clus scale="   46.732">  4  6 -1 -1</clus>
<clus scale="   48.789">  1  3  2 -1</clus>
<clus scale="  172.764">  1  5  2 -1</clus>
<clus scale="   48.789">  1  3  2 -1</clus>
</clustering>
</event>
<event>
 6    0  0.6549018E+002  0.6837577E+02  0.7546771E-02  0.1365705E+00
         21   -1    0    0  504  501  0.00000000000E+00  0.00000000000E+00  0.35618360126E+03  0.35618360126E+03  0.00000000000E+00 0.  1.
         21   -1    0    0  503  502 -0.00000000000E+00 -0.00000000000E+00 -0.28568620717E+03  0.28568620717E+03  0.00000000000E+00 0.  1.
         21    1    1    2  503  505 -0.47159573903E+02  0.78064518522E+01 -0.22988572504E+02  0.53041875599E+02  0.00000000000E+00 0.  1.
         21    1    1    2  504  506  0.99468857105E+01  0.40440577728E+02  0.27739708795E+02  0.50038708080E+02  0.00000000000E+00 0. -1.
         21    1    1    2  505  501 -0.85669124189E+01 -0.10670556486E+03  0.28651959367E+03  0.30586426257E+03  0.00000000000E+00 0.  1.
         21    1    1    2  506  502  0.45779600612E+02  0.58458535283E+02 -0.22077333587E+03  0.23292496219E+03  0.00000000000E+00 0.  1.
<scales pt_clust_3="47.68990" pt_clust_4="41.64590" pt_clust_5="14000.00000" pt_clust_6="68.37577"></scales>
<clustering>
<clus scale="   41.646">  1  4  2 -1</clus>
<clus scale="   47.690">  2  3  1 -1</clus>
<clus scale="   68.376">  2  6  1 -1</clus>
<clus scale="   41.646">  1  3  2 -1</clus>
</clustering>
</event>
<event>
 6    0  0.6549018E+002  0.1101865E+03  0.7546771E-02  0.1260225E+00
         21   -1    0    0  505  501  0.00000000000E+00  0.00000000000E+00  0.69287160889E+02  0.69287160889E+02  0.00000000000E+00 0. -1.
         21   -1    0    0  504  502 -0.00000000000E+00 -0.00000000000E+00 -0.58729960463E+03  0.58729960463E+03  0.00000000000E+00 0. -1.
         21    1    1    2  503  501 -0.29221181133E+01 -0.70858733498E+02 -0.66920294304E+02  0.97508074932E+02  0.00000000000E+00 0. -1.
         21    1    1    2  504  506  0.54011526336E+02  0.24163628651E+02 -0.33955419287E+03  0.34467111255E+03  0.00000000000E+00 0.  1.
         21    1    1    2  505  502 -0.50482829666E+02  0.84640603315E+02 -0.20982399279E+01  0.98574593234E+02  0.00000000000E+00 0. -1.
         21    1    1    2  506  503 -0.60657855736E+00 -0.37945498468E+02 -0.10943971664E+03  0.11583298481E+03  0.00000000000E+00 0. -1.
<scales pt_clust_3="37.01771" pt_clust_4="59.17031" pt_clust_5="97.87910" pt_clust_6="37.01771"></scales>
<clustering>
<clus scale="   37.018">  3  6 -1 -1</clus>
<clus scale="   59.170">  2  4  1 -1</clus>
<clus scale="   97.879">  1  5  2 -1</clus>
<clus scale="   97.879">  1  3  2 -1</clus>
</clustering>
</event>
<event>
 6    0  0.6549018E+002  0.1609826E+03  0.7546771E-02  0.1187592E+00
         21   -1    0    0  506  501  0.00000000000E+00  0.00000000000E+00  0.28066290216E+03  0.28066290216E+03  0.00000000000E+00 0.  1.
         21   -1    0    0  501  502 -0.00000000000E+00 -0.00000000000E+00 -0.10983799463E+04  0.10983799463E+04  0.00000000000E+00 0. -1.
         21    1    1    2  503  504  0.12254482069E+02 -0.58788329756E+02 -0.29359863228E+03  0.29967715449E+03  0.00000000000E+00 0. -1.
         21    1    1    2  504  502 -0.47993230136E+01 -0.59916580077E+02 -0.66824151281E+03  0.67093945294E+03  0.00000000000E+00 0. -1.
         21    1    1    2  505  503 -0.16108618385E+03  0.12796402681E+03  0.12833965377E+02  0.20612680915E+03  0.00000000000E+00 0. -1.
         21    1    1    2  506  505  0.15363102479E+03 -0.92591169811E+01  0.13128913556E+03  0.20229943189E+03  0.00000000000E+00 0.  1.
<scales pt_clust_3="53.01937" pt_clust_4="130.23108" pt_clust_5="14000.00000" pt_clust_6="160.98259"></scales>
<clustering>
<clus scale="   53.019">  3  4 -1 -1</clus>
<clus scale="  130.231">  2  3  1 -1</clus>
<clus scale="  160.983">  1  6  2 -1</clus>
<clus scale="  160.983">  1  3  2 -1</clus>
</clustering>
</event>
<event>
 6    0  0.6549018E+002  0.1116702E+03  0.7546771E-02  0.1257508E+00
         21   -1    0    0  506  501  0.00000000000E+00  0.00000000000E+00  0.32315615465E+03  0.32315615465E+03  0.00000000000E+00 0. -1.
         21   -1    0    0  503  502 -0.00000000000E+00 -0.00000000000E+00 -0.37221000785E+03  0.37221000785E+03  0.00000000000E+00 0. -1.
         21    1    1    2  503  504 -0.33281827346E+02 -0.34844853908E+01 -0.56589683308E+02  0.65743546655E+02  0.00000000000E+00 0. -1.
         21    1    1    2  504  505 -0.41078295518E+02  0.15647219127E+02 -0.26083864206E+03  0.26451665168E+03  0.00000000000E+00 0. -1.
         21    1    1    2  505  501  0.13836182251E+03  0.59075394139E+02  0.14522684667E+03  0.20910459851E+03  0.00000000000E+00 0. -1.
         21    1    1    2  506  502 -0.64001699646E+02 -0.71238127875E+02  0.12314762549E+03  0.15600136565E+03  0.00000000000E+00 0.  1.
<scales pt_clust_3="33.46374" pt_clust_4="70.34177" pt_clust_5="14000.00000" pt_clust_6="111.67020"></scales>
<clustering>
<clus scale="   33.464">  2  3  1 -1</clus>
<clus scale="   70.342">  2  4  1 -1</clus>
<clus scale="  111.670">  1  6  2 -1</clus>
<clus scale="  111.670">  1  3  2 -1</clus>
</clustering>
</event>
<event>
 6    0  0.6549018E+002  0.9137968E+02  0.7546771E-02  0.1299545E+00
         21   -1    0    0  503  501  0.00000000000E+00  0.00000000000E+00  0.11020128172E+04  0.11020128172E+04  0.00000000000E+00 0. -1.
         21   -1    0    0  505  502 -0.00000000000E+00 -0.00000000000E+00 -0.35991819584E+02  0.35991819584E+02  0.00000000000E+00 0. -1.
         21    1    1    2  503  506  0.57966011135E+02 -0.85121406351E+02  0.64562858537E+03  0.65379047294E+03  0.00000000000E+00 0. -1.
         21    1    1    2  504  501 -0.55852083694E+02  0.20390466568E+02  0.35005729978E+02  0.68997300752E+02  0.00000000000E+00 0. -1.
         21    1    1    2  505  504 -0.32430778657E+02 -0.27742582607E+02  0.48729100316E+02  0.64776010310E+02  0.00000000000E+00 0.  1.
         21    1    1    2  506  502  0.30316851215E+02  0.92473522390E+02  0.33665758198E+03  0.35044085281E+03  0.00000000000E+00 0.  1.
<scales pt_clust_3="14000.00000" pt_clust_4="75.64208" pt_clust_5="42.67794" pt_clust_6="91.37968"></scales>
<clustering>
<clus scale="   42.678">  2  5  1 -1</clus>
<clus scale="   75.642">  2  4  1 -1</clus>
<clus scale="   91.380">  2  6  1 -1</clus>
<clus scale="   91.380">  1  3  2 -1</clus>
</clustering>
</event>
<event>
 6    0  0.6549018E+002  0.7878085E+02  0.7546771E-02  0.1332547E+00
         21   -1    0    0  505  501  0.00000000000E+00  0.00000000000E+00  0.60581610245E+03  0.60581610245E+03  0.00000000000E+00 0.  1.
         21   -1    0    0  506  502 -0.00000000000E+00 -0.00000000000E+00 -0.23129734478E+03  0.23129734478E+03  0.00000000000E+00 0.  1.
         21    1    1    2  503  501  0.29631877469E+02 -0.16894913174E+02  0.78258511914E+02  0.85369086562E+02  0.00000000000E+00 0.  1.
         21    1    1    2  504  502  0.49648099800E+02 -0.18494007079E+02 -0.70259618120E+02  0.87996454758E+02  0.00000000000E+00 0.  1.
         21    1    1    2  505  504  0.95294148507E+01 -0.51537127228E+02  0.48750261933E+03  0.49031182841E+03  0.00000000000E+00 0.  1.
         21    1    1    2  506  503 -0.88809392120E+02  0.86926047481E+02 -0.12098275545E+03  0.17343607749E+03  0.00000000000E+00 0.  1.
<scales pt_clust_3="34.10991" pt_clust_4="53.55062" pt_clust_5="78.78085" pt_clust_6="14000.00000"></scales>
<clustering>
<clus scale="   34.110">  1  3  2 -1</clus>
<clus scale="   53.551">  2  4  1 -1</clus>
<clus scale="   78.781">  1  5  2 -1</clus>
<clus scale="   34.110">  1  3  2 -1</clus>
</clustering>
</event>
<event>
 6    0  0.6549018E+002  0.1706205E+03  0.7546771E-02  0.1177202E+00
         21   -1    0    0  505  501  0.00000000000E+00  0.00000000000E+00  0.38496682464E+03  0.38496682464E+03  0.00000000000E+00 0.  1.
         21   -1    0    0  504  502 -0.00000000000E+00 -0.00000000000E+00 -0.27541237649E+03  0.27541237649E+03  0.00000000000E+00 0.  1.
         21    1    1    2  503  501 -0.13460725583E+03 -0.65914078181E+02  0.10032564139E+02  0.15021461769E+03  0.00000000000E+00 0.  1.
         21    1    1    2  504  503  0.67113592507E+02 -0.95510724080E+01  0.64079560137E+01  0.68091990599E+02  0.00000000000E+00 0.  1.
         21    1    1    2  505  506 -0.43363816093E+01  0.18534757143E+03  0.20005245756E+03  0.27275174100E+03  0.00000000000E+00 0.  1.
         21    1    1    2  506  502  0.71830044928E+02 -0.10988242084E+03 -0.10693852956E+03  0.16932085184E+03  0.00000000000E+00 0.  1.
<scales pt_clust_3="134.25347" pt_clust_4="67.78980" pt_clust_5="170.62053" pt_clust_6="14000.00000"></scales>
<clustering>
<clus scale="   67.790">  2  4  1 -1</clus>
<clus scale="  134.253">  2  3  1 -1</clus>
<clus scale="  170.621">  1  5  2 -1</clus>
<clus scale="  170.621">  1  3  2 -1</clus>
</clustering>
</event>
<event>
 6    0  0.6549018E+002  0.3092299E+03  0.7546771E-02  0.1080716E+00
         21   -1    0    0  504  501  0.00000000000E+00  0.00000000000E+00  0.84473369990E+03  0.84473369990E+03  0.00000000000E+00 0. -1.
         21   -1    0    0  506  502 -0.00000000000E+00 -0.00000000000E+00 -0.21418988555E+03  0.21418988555E+03  0.00000000000E+00 0. -1.
         21    1    1    2  503  501  0.29436396264E+02  0.11211825202E+02  0.13168601234E+03  0.13540093167E+03  0.00000000000E+00 0. -1.
         21    1    1    2  504  502 -0.30223818157E+03 -0.10699954129E+03  0.52902460516E+03  0.61859829704E+03  0.00000000000E+00 0. -1.
         21    1    1    2  505  503  0.73104910372E+02 -0.16988634760E+00  0.23817381494E+02  0.76887088923E+02  0.00000000000E+00 0. -1.
         21    1    1    2  506  505  0.19969687494E+03  0.95957602431E+02 -0.53984184650E+02  0.22803726782E+03  0.00000000000E+00 0. -1.
<scales pt_clust_3="31.49931" pt_clust_4="295.21249" pt_clust_5="53.16464" pt_clust_6="53.16464"></scales>
<clustering>
<clus scale="   31.499">  1  3  2 -1</clus>
<clus scale="   53.165">  5  6 -1 -1</clus>
<clus scale="  295.212">  1  4  2 -1</clus>
<clus scale="   31.499">  1  3  2 -1</clus>
</clustering>
</event>
<event>
 6    0  0.6549018E+002  0.1068621E+03  0.7546771E-02  0.1266494E+00
         21   -1    0    0  505  501  0.00000000000E+00  0.00000000000E+00  0.56148452939E+03  0.56148452939E+03  0.00000000000E+00 0.  1.
         21   -1    0    0  503  502 -0.00000000000E+00 -0.00000000000E+00 -0.10857835394E+03  0.10857835394E+03  0.00000000000E+00 0.  1.
         21    1    1    2  503  506 -0.80266371480E+02  0.20713873200E+02  0.18869398861E+02  0.85016522788E+02  0.00000000000E+00 0.  1.
         21    1    1    2  504  502  0.12473512617E+03 -0.62274650022E+02 -0.42029197999E+01  0.13947992067E+03  0.00000000000E+00 0.  1.
         21    1    1    2  505  504 -0.36804327111E+02  0.87858293136E+01  0.12713938087E+03  0.13265056147E+03  0.00000000000E+00 0. -1.
         21    1    1    2  506  501 -0.76644275750E+01  0.32774947508E+02  0.31110031552E+03  0.31291587839E+03  0.00000000000E+00 0.  1.
<scales pt_clust_3="106.86213" pt_clust_4="14000.00000" pt_clust_5="48.29588" pt_clust_6="33.65918"></scales>
<clustering>
<clus scale="   33.659">  1  6  2 -1</clus>
<clus scale="   48.296">  1  5  2 -1</clus>
<clus scale="  106.862">  2  3  1 -1</clus>
<clus scale="   33.659">  1  3  2 -1</clus>
</clustering>
</event>
<event>
 6    0  0.6549018E+002  0.1984259E+03  0.7546771E-02  0.1151074E+00
         21   -1    0    0  505  501  0.00000000000E+00  0.00000000000E+00  0.36855562352E+03  0.36855562352E+03  0.00000000000E+00 0. -1.
         21   -1    0    0  506  502 -0.00000000000E+00 -0.00000000000E+00 -0.29305025804E+03  0.29305025804E+03  0.00000000000E+00 0. -1.
         21    1    1    2  503  502 -0.31555110532E+02 -0.81707496430E+02 -0.28702548757E+02  0.92171992919E+02  0.00000000000E+00 0. -1.
         21    1    1    2  504  503  0.35648947582E+02 -0.92855359850E+02  0.28063285183E+02  0.10334656884E+03  0.00000000000E+00 0. -1.
         21    1    1    2  505  504 -0.41788507082E+02 -0.21888858817E+01  0.22690720164E+03  0.23073350147E+03  0.00000000000E+00 0. -1.
         21    1    1    2  506  501  0.37694670032E+02  0.17675174216E+03 -0.15076257259E+03  0.23535381832E+03  0.00000000000E+00 0. -1.
<scales pt_clust_3="86.40298" pt_clust_4="86.40298" pt_clust_5="41.84579" pt_clust_6="177.86148"></scales>
<clustering>
<clus scale="   41.846">  1  5  2 -1</clus>
<clus scale="   86.403">  3  4 -1 -1</clus>
<clus scale="  177.861">  2  6  1 -1</clus>
<clus scale="   41.846">  1  3  2 -1</clus>
</clustering>
</event>
<event>
 6    0  0.1675954E+003  0.1850113E+03  0.7546771E-02  0.1163039E+00
         21   -1    0    0  506  501  0.00000000000E+00  0.00000000000E+00  0.10250116098E+04  0.10250116098E+04  0.00000000000E+00 0. -1.
         21   -1    0    0  505  502 -0.00000000000E+00 -0.00000000000E+00 -0.43452771685E+03  0.43452771685E+03  0.00000000000E+00 0. -1.
         21    1    1    2  503  502 -0.31342980000E+02  0.18344464957E+02  0.27959205657E+02  0.45832509977E+02  0.00000000000E+00 0. -1.
         21    1    1    2  504  503 -0.98599299081E+02  0.12082851295E+02  0.22873424069E+03  0.24937355501E+03  0.00000000000E+00 0. -1.
         21    1    1    2  505  501  0.17078547874E+03 -0.51546532870E+02 -0.39535478123E+03  0.43373970056E+03  0.00000000000E+00 0. -1.
         21    1    1    2  506  504 -0.40843199655E+02  0.21119216618E+02  0.72914522786E+03  0.73059356114E+03  0.00000000000E+00 0. -1.
<scales pt_clust_3="35.48517" pt_clust_4="35.48517" pt_clust_5="175.45623" pt_clust_6="45.98030"></scales>
<clustering>
<clus scale="   35.485">  3  4 -1 -1</clus>
<clus scale="   45.980">  1  6  2 -1</clus>
<clus scale="  175.456">  2  5  1 -1</clus>
<clus scale="   45.980">  1  3  2 -1</clus>
</clustering>
</event>
<event>
 6    0  0.6549018E+002  0.2393391E+03  0.7546771E-02  0.1120234E+00
         21   -1    0    0  505  501  0.00000000000E+00  0.00000000000E+00  0.38408493019E+03  0.38408493019E+03  0.00000000000E+00 0. -1.
         21   -1    0    0  506  502 -0.00000000000E+00 -0.00000000000E+00 -0.42444267220E+03  0.42444267220E+03  0.00000000000E+00 0. -1.
         21    1    1    2  503  501 -0.97258421723E+02  0.14913641114E+03  0.25908927965E+03  0.31436940778E+03  0.00000000000E+00 0. -1.
         21    1    1    2  504  502  0.39709120671E+02 -0.58361966993E+02 -0.72292436066E+02  0.10104023836E+03  0.00000000000E+00 0. -1.
         21    1    1    2  505  504  0.11367729497E+03 -0.10489071404E+03 -0.27665662957E+03  0.31695974503E+03  0.00000000000E+00 0. -1.
         21    1    1    2  506  503 -0.56127993916E+02  0.14116269894E+02  0.49502043978E+02  0.76158211210E+02  0.00000000000E+00 0.  1.
<scales pt_clust_3="48.05564" pt_clust_4="35.61718" pt_clust_5="230.12722" pt_clust_6="48.05564"></scales>
<clustering>
<clus scale="   35.617">  4  5 -1 -1</clus>
<clus scale="   48.056">  3  6 -1 -1</clus>
<clus scale="  230.127">  2  4  1 -1</clus>
<clus scale="  239.339">  1  3  2 -1</clus>
</clustering>
</event>
<event>
 6    0  0.6549018E+002  0.1289914E+03  0.7546771E-02  0.1228960E+00
         21   -1    0    0  505  501  0.00000000000E+00  0.00000000000E+00  0.64905795000E+02  0.64905795000E+02  0.00000000000E+00 0. -1.
         21   -1    0    0  506  502 -0.00000000000E+00 -0.00000000000E+00 -0.55151525303E+03  0.55151525303E+03  0.00000000000E+00 0. -1.
         21    1    1    2  503  502  0.40010260383E+02 -0.35369650318E+02 -0.14565231883E+03  0.15513359107E+03  0.00000000000E+00 0. -1.
         21    1    1    2  504  501  0.82225741159E+02  0.13587870107E+02 -0.34847805986E+02  0.90333118541E+02  0.00000000000E+00 0. -1.
         21    1    1    2  505  503  0.29506780090E+02 -0.32724672754E+02 -0.38436980896E+02  0.58471837482E+02  0.00000000000E+00 0. -1.
         21    1    1    2  506  504 -0.15174278163E+03  0.54506452965E+02 -0.26767235232E+03  0.31248250093E+03  0.00000000000E+00 0. -1.
<scales pt_clust_3="43.26823" pt_clust_4="83.34088" pt_clust_5="43.26823" pt_clust_6="119.87422"></scales>
<clustering>
<clus scale="   43.268">  3  5 -1 -1</clus>
<clus scale="   83.341">  1  4  2 -1</clus>
<clus scale="  119.874">  1  6  2 -1</clus>
<clus scale="   83.341">  1  3  2 -1</clus>
</clustering>
</event>
<event>
 6    0  0.6549018E+002  0.1101424E+03  0.7546771E-02  0.1260306E+00
         21   -1    0    0  503  501  0.00000000000E+00  0.00000000000E+00  0.57233322143E+03  0.57233322143E+03  0.00000000000E+00 0. -1.
         21   -1    0    0  505  502 -0.00000000000E+00 -0.00000000000E+00 -0.34355537544E+02  0.34355537544E+02  0.00000000000E+00 0.  1.
         21    1    1    2  503  502  0.86595315203E+02 -0.93611155743E+02  0.30621718983E+03  0.33170885493E+03  0.00000000000E+00 0. -1.
         21    1    1    2  504  506 -0.38675104677E+02  0.12425727354E+02  0.56203148013E+02  0.69346638481E+02  0.00000000000E+00 0.  1.
         21    1    1    2  505  504 -0.26818095991E+02  0.52699674616E+02  0.57925918774E+02  0.82776071681E+02  0.00000000000E+00 0.  1.
         21    1    1    2  506  501 -0.21102114535E+02  0.28485753772E+02  0.11763142727E+03  0.12285719388E+03  0.00000000000E+00 0.  1.
<scales pt_clust_3="102.69446" pt_clust_4="33.00016" pt_clust_5="33.00016" pt_clust_6="35.45049"></scales>
<clustering>
<clus scale="   33.000">  4  5 -1 -1</clus>
<clus scale="   35.450">  1  6  2 -1</clus>
<clus scale="  102.694">  1  3  2 -1</clus>
<clus scale="   35.450">  1  3  2 -1</clus>
</clustering>
</event>
<event>
 6    0  0.6549018E+002  0.1573805E+03  0.7546771E-02  0.1191686E+00
         21   -1    0    0  503  501  0.00000000000E+00  0.00000000000E+00  0.68527182383E+03  0.68527182383E+03  0.00000000000E+00 0. -1.
         21   -1    0    0  504  502 -0.00000000000E+00 -0.00000000000E+00 -0.25167994416E+03  0.25167994416E+03  0.00000000000E+00 0. -1.
         21    1    1    2  503  505  0.53739495307E+02  0.13563573829E+03  0.33298706338E+03  0.36354555592E+03  0.00000000000E+00 0. -1.
         21    1    1    2  504  506 -0.20009415483E+02  0.48558269663E+02 -0.35740521899E+01  0.52640821704E+02  0.00000000000E+00 0.  1.
         21    1    1    2  505  502  0.38796074143E+02 -0.20387158466E+03 -0.14977106626E+03  0.25592993316E+03  0.00000000000E+00 0. -1.
         21    1    1    2  506  501 -0.72526153967E+02  0.19677576706E+02  0.25394993475E+03  0.26483545720E+03  0.00000000000E+00 0. -1.
<scales pt_clust_3="157.38049" pt_clust_4="52.51935" pt_clust_5="14000.00000" pt_clust_6="75.93461"></scales>
<clustering>
<clus scale="   52.519">  2  4  1 -1</clus>
<clus scale="   75.935">  1  6  2 -1</clus>
<clus scale="  157.380">  1  3  2 -1</clus>
<clus scale="   75.935">  1  3  2 -1</clus>
</clustering>
</event>
<event>
 6    0  0.6549018E+002  0.1338302E+03  0.7546771E-02  0.1221881E+00
         21   -1    0    0  506  501  0.00000000000E+00  0.00000000000E+00  0.10083819857E+04  0.10083819857E+04  0.00000000000E+00 0. -1.
         21   -1    0    0  503  502 -0.00000000000E+00 -0.00000000000E+00 -0.26426954965E+03  0.26426954965E+03  0.00000000000E+00 0.  1.
         21    1    1    2  503  501  0.23669836449E+02 -0.13702718680E+03 -0.20579798346E+03  0.24837375279E+03  0.00000000000E+00 0.  1.
         21    1    1    2  504  505  0.49006852068E+01  0.54210678953E+02  0.26547889068E+03  0.27100157901E+03  0.00000000000E+00 0.  1.
         21    1    1    2  505  502 -0.55889931842E+02  0.15674748275E+02 -0.66296593257E+01  0.58423750287E+02  0.00000000000E+00 0. -1.
         21    1    1    2  506  504  0.27319410186E+02  0.67141759574E+02  0.69106118819E+03  0.69485245332E+03  0.00000000000E+00 0. -1.
<scales pt_clust_3="125.57860" pt_clust_4="40.09200" pt_clust_5="58.04638" pt_clust_6="40.09200"></scales>
<clustering>
<clus scale="   40.092">  4  6 -1 -1</clus>
<clus scale="   58.046">  2  5  1 -1</clus>
<clus scale="  125.579">  2  3  1 -1</clus>
<clus scale="  133.830">  1  3  2 -1</clus>
</clustering>
</event>
<event>
 6    0  0.6549018E+002  0.1890158E+03  0.7546771E-02  0.1159352E+00
         21   -1    0    0  505  501  0.00000000000E+00  0.00000000000E+00  0.18490320466E+03  0.18490320466E+03  0.00000000000E+00 0. -1.
         21   -1    0    0  504  502 -0.00000000000E+00 -0.00000000000E+00 -0.86921019971E+03  0.86921019971E+03  0.00000000000E+00 0.  1.
         21    1    1    2  503  502  0.19040189832E+02  0.20926435321E+03 -0.62318656758E+03  0.65765917949E+03  0.00000000000E+00 0.  1.
         21    1    1    2  504  501 -0.19127879778E+02 -0.73564284822E+02  0.13252287456E+03  0.15277399015E+03  0.00000000000E+00 0. -1.
         21    1    1    2  505  506 -0.27503591451E+02 -0.41648052022E+02 -0.64880081176E+02  0.81856170893E+02  0.00000000000E+00 0. -1.
         21    1    1    2  506  503  0.27591281398E+02 -0.94052016366E+02 -0.12876322085E+03  0.16182406384E+03  0.00000000000E+00 0. -1.
<scales pt_clust_3="179.60837" pt_clust_4="76.01039" pt_clust_5="42.02173" pt_clust_6="42.02173"></scales>
<clustering>
<clus scale="   42.022">  5  6 -1 -1</clus>
<clus scale="   76.010">  1  4  2 -1</clus>
<clus scale="  179.608">  2  3  1 -1</clus>
<clus scale="   76.010">  1  3  2 -1</clus>
</clustering>
</event>
<event>
 6    0  0.6549018E+002  0.9632486E+02  0.7546771E-02  0.1288220E+00
         21   -1    0    0  504  501  0.00000000000E+00  0.00000000000E+00  0.22811743894E+04  0.22811743894E+04  0.00000000000E+00 0.  1.
         21   -1    0    0  505  502 -0.00000000000E+00 -0.00000000000E+00 -0.91812441779E+02  0.91812441779E+02  0.00000000000E+00 0. -1.
         21    1    1    2  503  506 -0.96580368313E+02  0.76018134096E+02  0.18664976948E+04  0.18705400742E+04  0.00000000000E+00 0.  1.
         21    1    1    2  504  502  0.42964512466E+02  0.18471233054E+02  0.13852921156E+02  0.48775395504E+02  0.00000000000E+00 0. -1.
         21    1    1    2  505  503  0.56273237452E+02 -0.22376534014E+02 -0.55464863121E+02  0.82120262839E+02  0.00000000000E+00 0. -1.
         21    1    1    2  506  501 -0.26573816052E+01 -0.72112833136E+02  0.36447619479E+03  0.37155109871E+03  0.00000000000E+00 0.  1.
<scales pt_clust_3="96.32486" pt_clust_4="46.76682" pt_clust_5="14000.00000" pt_clust_6="71.23666"></scales>
<clustering>
<clus scale="   46.767">  2  4  1 -1</clus>
<clus scale="   71.237">  1  6  2 -1</clus>
<clus scale="   96.325">  1  3  2 -1</clus>
<clus scale="   71.237">  1  3  2 -1</clus>
</clustering>
</event>
<event>
 6    0  0.6549018E+002  0.3650509E+03  0.7546771E-02  0.1056602E+00
         21   -1    0    0  506  501  0.00000000000E+00  0.00000000000E+00  0.28753150784E+03  0.28753150784E+03  0.00000000000E+00 0.  1.
         21   -1    0    0  503  502 -0.00000000000E+00 -0.00000000000E+00 -0.89933117366E+03  0.89933117366E+03  0.00000000000E+00 0.  1.
         21    1    1    2  503  504  0.10314114613E+02  0.85536531494E+02 -0.18869728685E+03  0.20743564121E+03  0.00000000000E+00 0.  1.
         21    1    1    2  504  505  0.13979335891E+03  0.24750424634E+03 -0.50372963023E+03  0.57839785228E+03  0.00000000000E+00 0.  1.
         21    1    1    2  505  501 -0.17773731761E+03 -0.28187451449E+03  0.56114700581E+02  0.33792403823E+03  0.00000000000E+00 0.  1.
         21    1    1    2  506  502  0.27629844092E+02 -0.51166263344E+02  0.24512550670E+02  0.63105149786E+02  0.00000000000E+00 0.  1.
<scales pt_clust_3="37.46442" pt_clust_4="37.46442" pt_clust_5="358.65212" pt_clust_6="58.14976"></scales>
<clustering>
<clus scale="   37.464">  3  4 -1 -1</clus>
<clus scale="   58.150">  1  6  2 -1</clus>
<clus scale="  358.652">  1  5  2 -1</clus>
<clus scale="   58.150">  1  3  2 -1</clus>
</clustering>
</event>
<event>
 6    0  0.6549018E+002  0.9710818E+02  0.7546771E-02  0.1286497E+00
         21   -1    0    0  505  501  0.00000000000E+00  0.00000000000E+00  0.12236993035E+04  0.12236993035E+04  0.00000000000E+00 0.  1.
         21   -1    0    0  503  502 -0.00000000000E+00 -0.00000000000E+00 -0.47439320554E+02  0.47439320554E+02  0.00000000000E+00 0.  1.
         21    1    1    2  503  501  0.17240191234E+02  0.13868229572E+03  0.91863515270E+02  0.16723907671E+03  0.00000000000E+00 0.  1.
         21    1    1    2  504  502 -0.14806080261E+02 -0.29281129419E+02  0.47194002049E+02  0.57479373536E+02  0.00000000000E+00 0.  1.
         21    1    1    2  505  506 -0.10044405705E+02 -0.48579819385E+02  0.79623810977E+03  0.79778193536E+03  0.00000000000E+00 0.  1.
         21    1    1    2  506  504  0.76102947317E+01 -0.60821346915E+02  0.24096435584E+03  0.24863823843E+03  0.00000000000E+00 0.  1.
<scales pt_clust_3="97.10818" pt_clust_4="32.81165" pt_clust_5="50.18561" pt_clust_6="14000.00000"></scales>
<clustering>
<clus scale="   32.812">  2  4  1 -1</clus>
<clus scale="   50.186">  1  5  2 -1</clus>
<clus scale="   97.108">  2  3  1 -1</clus>
<clus scale="   50.186">  1  3  2 -1</clus>
</clustering>
</event>
<event>
 6    0  0.6549018E+002  0.9132739E+02  0.7546771E-02  0.1299669E+00
         21   -1    0    0  505  501  0.00000000000E+00  0.00000000000E+00  0.30228096106E+03  0.30228096106E+03  0.00000000000E+00 0. -1.
         21   -1    0    0  506  502 -0.00000000000E+00 -0.00000000000E+00 -0.35970404682E+03  0.35970404682E+03  0.00000000000E+00 0.  1.
         21    1    1    2  503  502 -0.12820190042E+02 -0.28925129779E+02 -0.11713295319E+03  0.12133074272E+03  0.00000000000E+00 0.  1.
         21    1    1    2  504  503  0.30362813729E+02 -0.19696437429E+02 -0.16412311869E+03  0.16806620182E+03  0.00000000000E+00 0. -1.
         21    1    1    2  505  504  0.20132775801E+01 -0.85955182288E+02  0.22037561189E+03  0.23655391978E+03  0.00000000000E+00 0. -1.
         21    1    1    2  506  501 -0.19555901268E+02  0.13457674950E+03  0.34573742288E+01  0.13603414357E+03  0.00000000000E+00 0. -1.
<scales pt_clust_3="31.63891" pt_clust_4="45.12983" pt_clust_5="14000.00000" pt_clust_6="91.32739"></scales>
<clustering>
<clus scale="   31.639">  2  3  1 -1</clus>
<clus scale="   45.130">  2  4  1 -1</clus>
<clus scale="   91.327">  2  6  1 -1</clus>
<clus scale="   91.327">  1  3  2 -1</clus>
</clustering>
</event>
<event>
 6    0  0.6549018E+002  0.3174027E+03  0.7546771E-02  0.1076851E+00
         21   -1    0    0  506  501  0.00000000000E+00  0.00000000000E+00  0.10098710561E+04  0.10098710561E+04  0.00000000000E+00 0.  1.
         21   -1    0    0  505  502 -0.00000000000E+00 -0.00000000000E+00 -0.40610036136E+03  0.40610036136E+03  0.00000000000E+00 0.  1.
         21    1    1    2  503  502  0.30116223647E+03  0.16377906324E+03  0.84070319520E+03  0.90791196525E+03  0.00000000000E+00 0.  1.
         21    1    1    2  504  501 -0.62021260416E+02 -0.47419847310E+02 -0.27550878508E+02  0.82790878538E+02  0.00000000000E+00 0.  1.
         21    1    1    2  505  504 -0.19858506604E+03 -0.10118258360E+03 -0.27042030754E+03  0.35042985946E+03  0.00000000000E+00 0.  1.
         21    1    1    2  506  503 -0.40555910015E+02 -0.15176632335E+02  0.61038685570E+02  0.74838714194E+02  0.00000000000E+00 0.  1.
<scales pt_clust_3="303.06671" pt_clust_4="56.02382" pt_clust_5="56.02382" pt_clust_6="43.30256"></scales>
<clustering>
<clus scale="   43.303">  1  6  2 -1</clus>
<clus scale="   56.024">  4  5 -1 -1</clus>
<clus scale="  303.067">  1  3  2 -1</clus>
<clus scale="   43.303">  1  3  2 -1</clus>
</clustering>
</event>
<event>
 6    0  0.6549018E+002  0.6995087E+02  0.7546771E-02  0.1360260E+00
         21   -1    0    0  504  501  0.00000000000E+00  0.00000000000E+00  0.23672078673E+03  0.23672078673E+03  0.00000000000E+00 0.  1.
         21   -1    0    0  506  502 -0.00000000000E+00 -0.00000000000E+00 -0.32607926125E+03  0.32607926125E+03  0.00000000000E+00 0.  1.
         21    1    1    2  503  501 -0.24939614193E+02 -0.64292281502E+02  0.13533800042E+03  0.15189422693E+03  0.00000000000E+00 0.  1.
         21    1    1    2  504  505 -0.33873223895E+02  0.84541970037E+02  0.50571369564E+02  0.10417390947E+03  0.00000000000E+00 0.  1.
         21    1    1    2  505  502  0.42152022012E+02 -0.56421159521E+02 -0.24961597315E+03  0.25936128133E+03  0.00000000000E+00 0.  1.
         21    1    1    2  506  503  0.16660816075E+02  0.36171470986E+02 -0.25651871350E+02  0.47370630240E+02  0.00000000000E+00 0.  1.
<scales pt_clust_3="69.95087" pt_clust_4="14000.00000" pt_clust_5="61.90582" pt_clust_6="39.82409"></scales>
<clustering>
<clus scale="   39.824">  2  6  1 -1</clus>
<clus scale="   61.906">  2  5  1 -1</clus>
<clus scale="   69.951">  1  3  2 -1</clus>
<clus scale="   69.951">  1  3  2 -1</clus>
</clustering>
</event>
<event>
 6    0  0.6549018E+002  0.1239506E+03  0.7546771E-02  0.1236719E+00
         21   -1    0    0  505  501  0.00000000000E+00  0.00000000000E+00  0.19222506739E+03  0.19222506739E+03  0.00000000000E+00 0.  1.
         21   -1    0    0  506  502 -0.00000000000E+00 -0.00000000000E+00 -0.46862445553E+03  0.46862445553E+03  0.00000000000E+00 0.  1.
         21    1    1    2  503  501  0.96642661988E+02  0.60876725726E+02  0.13867028084E+03  0.17965307300E+03  0.00000000000E+00 0.  1.
         21    1    1    2  504  502 -0.35607055677E+02 -0.10081463509E+03 -0.19444150253E+03  0.22189851502E+03  0.00000000000E+00 0.  1.
         21    1    1    2  505  504 -0.13667206515E+02  0.43289255402E+02 -0.14328006219E+02  0.47602982359E+02  0.00000000000E+00 0.  1.
         21    1    1    2  506  503 -0.47368399795E+02 -0.33513460353E+01 -0.20630016023E+03  0.21169495254E+03  0.00000000000E+00 0.  1.
<scales pt_clust_3="123.95058" pt_clust_4="14000.00000" pt_clust_5="45.39551" pt_clust_6="47.65413"></scales>
<clustering>
<clus scale="   45.396">  1  5  2 -1</clus>
<clus scale="   47.654">  2  6  1 -1</clus>
<clus scale="  123.951">  1  3  2 -1</clus>
<clus scale="   45.396">  1  3  2 -1</clus>
</clustering>
</event>
<event>
 6    0  0.6549018E+002  0.2624503E+03  0.7546771E-02  0.1105680E+00
         21   -1    0    0  504  501  0.00000000000E+00  0.00000000000E+00  0.14200983096E+03  0.14200983096E+03  0.00000000000E+00 0. -1.
         21   -1    0    0  506  502 -0.00000000000E+00 -0.00000000000E+00 -0.53999350845E+03  0.53999350845E+03  0.00000000000E+00 0. -1.
         21    1    1    2  503  502  0.38083683593E+02  0.33937642743E+02 -0.45215548324E+02  0.68165800525E+02  0.00000000000E+00 0.  1.
         21    1    1    2  504  503  0.15829770704E+03  0.12790102101E+03 -0.36889058173E+02  0.20682755581E+03  0.00000000000E+00 0. -1.
         21    1    1    2  505  501 -0.87202918261E+02 -0.90832704637E+02 -0.16813704657E+03  0.21005950493E+03  0.00000000000E+00 0. -1.
         21    1    1    2  506  505 -0.10917847237E+03 -0.71005959114E+02 -0.14774202443E+03  0.19695047814E+03  0.00000000000E+00 0. -1.
<scales pt_clust_3="32.14644" pt_clust_4="32.14644" pt_clust_5="32.90852" pt_clust_6="256.66620"></scales>
<clustering>
<clus scale="   32.146">  3  4 -1 -1</clus>
<clus scale="   32.909">  5  6 -1 -1</clus>
<clus scale="  256.666">  2  5  1 -1</clus>
<clus scale="  262.450">  1  3  2 -1</clus>
</clustering>
</event>
<event>
 6    0  0.6549018E+002  0.8264378E+02  0.7546771E-02  0.1321712E+00
         21   -1    0    0  503  501  0.00000000000E+00  0.00000000000E+00  0.13634331379E+03  0.13634331379E+03  0.00000000000E+00 0. -1.
         21   -1    0    0  505  502 -0.00000000000E+00 -0.00000000000E+00 -0.18098278301E+04  0.18098278301E+04  0.00000000000E+00 0.  1.
         21    1    1    2  503  506  0.78125906451E+02 -0.11042410347E+03  0.20737599504E+01  0.13528281623E+03  0.00000000000E+00 0. -1.
         21    1    1    2  504  501 -0.17172086497E+02  0.55560940615E+02  0.51769206690E+02  0.77858521936E+02  0.00000000000E+00 0. -1.
         21    1    1    2  505  504 -0.26693118561E+01  0.77571321909E+02 -0.89965449650E+03  0.90299648298E+03  0.00000000000E+00 0.  1.
         21    1    1    2  506  502 -0.58284508097E+02 -0.22708159051E+02 -0.82767298648E+03  0.83003332277E+03  0.00000000000E+00 0. -1.
<scales pt_clust_3="82.64378" pt_clust_4="58.15409" pt_clust_5="14000.00000" pt_clust_6="62.49047"></scales>
<clustering>
<clus scale="   58.154">  1  4  2 -1</clus>
<clus scale="   62.490">  2  6  1 -1</clus>
<clus scale="   82.644">  1  3  2 -1</clus>
<clus scale="   58.154">  1  3  2 -1</clus>
</clustering>
</event>
<event>
 6    0  0.6549018E+002  0.8474645E+02  0.7546771E-02  0.1316097E+00
         21   -1    0    0  506  501  0.00000000000E+00  0.00000000000E+00  0.18579081559E+03  0.18579081559E+03  0.00000000000E+00 0. -1.
         21   -1    0    0  503  502 -0.00000000000E+00 -0.00000000000E+00 -0.18762142664E+03  0.18762142664E+03  0.00000000000E+00 0. -1.
         21    1    1    2  503  504  0.24176491218E+02 -0.28061998596E+02 -0.71175203608E+02  0.80236451201E+02  0.00000000000E+00 0. -1.
         21    1    1    2  504  501 -0.10917124196E+03 -0.55533804273E+02  0.48188943408E+02  0.13162270987E+03  0.00000000000E+00 0. -1.
         21    1    1    2  505  502  0.60129239759E+02  0.11455766880E+02 -0.31502801670E+02  0.68841750282E+02  0.00000000000E+00 0. -1.
         21    1    1    2  506  505  0.24865510981E+02  0.72140035989E+02  0.52658450824E+02  0.92711330872E+02  0.00000000000E+00 0. -1.
<scales pt_clust_3="37.04023" pt_clust_4="14000.00000" pt_clust_5="70.97658" pt_clust_6="84.74645"></scales>
<clustering>
<clus scale="   37.040">  2  3  1 -1</clus>
<clus scale="   70.977">  2  5  1 -1</clus>
<clus scale="   84.746">  1  6  2 -1</clus>
<clus scale="   84.746">  1  3  2 -1</clus>
</clustering>
</event>
<event>
 6    0  0.6549018E+002  0.9529032E+02  0.7546771E-02  0.1290524E+00
         21   -1    0    0  506  501  0.00000000000E+00  0.00000000000E+00  0.71742181041E+02  0.71742181041E+02  0.00000000000E+00 0.  1.
         21   -1    0    0  503  502 -0.00000000000E+00 -0.00000000000E+00 -0.10244500114E+04  0.10244500114E+04  0.00000000000E+00 0.  1.
         21    1    1    2  503  504 -0.82783679016E+02  0.16318545949E+02 -0.11236183921E+03  0.14051553425E+03  0.00000000000E+00 0.  1.
         21    1    1    2  504  501 -0.30812226333E+02  0.45631722528E+02  0.30745983845E+02  0.63063166073E+02  0.00000000000E+00 0.  1.
         21    1    1    2  505  502  0.60600989355E+02 -0.82673459657E+02 -0.76842644082E+03  0.77523323960E+03  0.00000000000E+00 0.  1.
         21    1    1    2  506  505  0.52994915994E+02  0.20723191180E+02 -0.10266553420E+03  0.11738025254E+03  0.00000000000E+00 0.  1.
<scales pt_clust_3="95.29032" pt_clust_4="55.06040" pt_clust_5="14000.00000" pt_clust_6="55.64862"></scales>
<clustering>
<clus scale="   55.060">  1  4  2 -1</clus>
<clus scale="   55.649">  1  6  2 -1</clus>
<clus scale="   95.290">  1  3  2 -1</clus>
<clus scale="   55.060">  1  3  2 -1</clus>
</clustering>
</event>
<event>
 6    0  0.6549018E+002  0.1997415E+03  0.7546771E-02  0.1149957E+00
         21   -1    0    0  503  501  0.00000000000E+00  0.00000000000E+00  0.46414885166E+02  0.46414885166E+02  0.00000000000E+00 0. -1.
         21   -1    0    0  506  502 -0.00000000000E+00 -0.00000000000E+00 -0.14631153836E+04  0.14631153836E+04  0.00000000000E+00 0. -1.
         21    1    1    2  503  504  0.51934910740E+02  0.35965196533E+00 -0.15054551007E+02  0.54074058560E+02  0.00000000000E+00 0. -1.
         21    1    1    2  504  505 -0.17563502261E+03  0.47046317665E+02 -0.68338970601E+03  0.70716512036E+03  0.00000000000E+00 0. -1.
         21    1    1    2  505  502 -0.21841667638E+02  0.34132656664E+02 -0.19182669368E+03  0.19606013645E+03  0.00000000000E+00 0. -1.
         21    1    1    2  506  501  0.14554177951E+03 -0.81538626294E+02 -0.52642954778E+03  0.55223095344E+03  0.00000000000E+00 0. -1.
<scales pt_clust_3="51.93616" pt_clust_4="30.68573" pt_clust_5="30.68573" pt_clust_6="188.86928"></scales>
<clustering>
<clus scale="   30.686">  4  5 -1 -1</clus>
<clus scale="   51.936">  1  3  2 -1</clus>
<clus scale="  188.869">  2  6  1 -1</clus>
<clus scale="   51.936">  1  3  2 -1</clus>
</clustering>
</event>
<event>
 6    0  0.6549018E+002  0.1799214E+03  0.7546771E-02  0.1167879E+00
         21   -1    0    0  505  501  0.00000000000E+00  0.00000000000E+00  0.10596801503E+03  0.10596801503E+03  0.00000000000E+00 0.  1.
         21   -1    0    0  506  502 -0.00000000000E+00 -0.00000000000E+00 -0.11367227017E+04  0.11367227017E+04  0.00000000000E+00 0.  1.
         21    1    1    2  503  501 -0.20518212892E+03 -0.21584033721E+02 -0.95840764029E+02  0.22748852408E+03  0.00000000000E+00 0.  1.
         21    1    1    2  504  502  0.41747242446E+01  0.31227003038E+02 -0.50774014051E+02  0.59754117382E+02  0.00000000000E+00 0.  1.
         21    1    1    2  505  504  0.29400048198E+02  0.13473348683E+02  0.17883061494E+02  0.36955349372E+02  0.00000000000E+00 0.  1.
         21    1    1    2  506  503  0.17160735647E+03 -0.23116318000E+02 -0.90202297011E+03  0.91849272592E+03  0.00000000000E+00 0.  1.
<scales pt_clust_3="14000.00000" pt_clust_4="31.50483" pt_clust_5="32.48932" pt_clust_6="179.92144"></scales>
<clustering>
<clus scale="   31.505">  2  4  1 -1</clus>
<clus scale="   32.489">  1  5  2 -1</clus>
<clus scale="  179.921">  2  6  1 -1</clus>
<clus scale="   32.489">  1  3  2 -1</clus>
</clustering>
</event>
<event>
 6    0  0.6549018E+002  0.1353167E+03  0.7546771E-02  0.1219773E+00
         21   -1    0    0  504  501  0.00000000000E+00  0.00000000000E+00  0.22847962953E+02  0.22847962953E+02  0.00000000000E+00 0.  1.
         21   -1    0    0  503  502 -0.00000000000E+00 -0.00000000000E+00 -0.13670450040E+04  0.13670450040E+04  0.00000000000E+00 0.  1.
         21    1    1    2  503  505 -0.37372248396E+02 -0.34395322950E+01 -0.68461564817E+02  0.78073690765E+02  0.00000000000E+00 0. -1.
         21    1    1    2  504  506  0.34729982455E+02 -0.29178201927E+02 -0.60119903469E+02  0.75312296089E+02  0.00000000000E+00 0. -1.
         21    1    1    2  505  501 -0.10872479381E+03  0.69096831233E+01 -0.49173969195E+03  0.50366332917E+03  0.00000000000E+00 0.  1.
         21    1    1    2  506  502  0.11136705975E+03  0.25708051098E+02 -0.72387588081E+03  0.73284365093E+03  0.00000000000E+00 0.  1.
<scales pt_clust_3="33.38882" pt_clust_4="45.36011" pt_clust_5="33.38882" pt_clust_6="122.77822"></scales>
<clustering>
<clus scale="   33.389">  3  5 -1 -1</clus>
<clus scale="   45.360">  1  4  2 -1</clus>
<clus scale="  122.778">  2  6  1 -1</clus>
<clus scale="   45.360">  1  3  2 -1</clus>
</clustering>
</event>
<event>
 6    0  0.6549018E+002  0.1253037E+03  0.7546771E-02  0.1234595E+00
         21   -1    0    0  503  501  0.00000000000E+00  0.00000000000E+00  0.42937369741E+03  0.42937369741E+03  0.00000000000E+00 0.  1.
         21   -1    0    0  505  502 -0.00000000000E+00 -0.00000000000E+00 -0.12210638685E+04  0.12210638685E+04  0.00000000000E+00 0. -1.
         21    1    1    2  503  506  0.45303532474E+02  0.19798139648E+00  0.24541719055E+03  0.24956371264E+03  0.00000000000E+00 0.  1.
         21    1    1    2  504  502  0.36232229383E+02 -0.71852902373E+01 -0.78781992053E+03  0.78868538089E+03  0.00000000000E+00 0. -1.
         21    1    1    2  505  501 -0.16724181934E+03  0.32921222320E+02  0.13510658454E+03  0.21750269470E+03  0.00000000000E+00 0. -1.
         21    1    1    2  506  504  0.85706057479E+02 -0.25933913479E+02 -0.38439402560E+03  0.39468577764E+03  0.00000000000E+00 0. -1.
<scales pt_clust_3="45.47739" pt_clust_4="36.93782" pt_clust_5="125.30368" pt_clust_6="14000.00000"></scales>
<clustering>
<clus scale="   36.938">  2  4  1 -1</clus>
<clus scale="   45.477">  1  3  2 -1</clus>
<clus scale="  125.304">  1  5  2 -1</clus>
<clus scale="   45.477">  1  3  2 -1</clus>
</clustering>
</event>
<event>
 6    0  0.6549018E+002  0.1084884E+03  0.7546771E-02  0.1263395E+00
         21   -1    0    0  505  501  0.00000000000E+00  0.00000000000E+00  0.69617188410E+03  0.69617188410E+03  0.00000000000E+00 0.  1.
         21   -1    0    0  506  502 -0.00000000000E+00 -0.00000000000E+00 -0.10976961648E+04  0.10976961648E+04  0.00000000000E+00 0.  1.
         21    1    1    2  503  502  0.62047330789E+02  0.34437352938E+01 -0.43816196892E+03  0.44254676767E+03  0.00000000000E+00 0. -1.
         21    1    1    2  504  503  0.90260133014E+02  0.53870036065E+02  0.79324045712E+02  0.13168590139E+03  0.00000000000E+00 0. -1.
         21    1    1    2  505  504 -0.65958424952E+02 -0.88669560752E+02  0.57988563715E+03  0.59032207904E+03  0.00000000000E+00 0.  1.
         21    1    1    2  506  501 -0.86349038852E+02  0.31355789393E+02 -0.62257199461E+03  0.62931330076E+03  0.00000000000E+00 0.  1.
<scales pt_clust_3="62.14282" pt_clust_4="108.48836" pt_clust_5="14000.00000" pt_clust_6="44.07940"></scales>
<clustering>
<clus scale="   62.143">  2  3  1 -1</clus>
<clus scale="   44.079">  2  6  1 -1</clus>
<clus scale="  108.488">  2  4  1 -1</clus>
<clus scale="  108.488">  1  3  2 -1</clus>
</clustering>
</event>
<event>
 6    0  0.6549018E+002  0.1496950E+03  0.7546771E-02  0.1200848E+00
         21   -1    0    0  503  501  0.00000000000E+00  0.00000000000E+00  0.93162003506E+03  0.93162003506E+03  0.00000000000E+00 0. -1.
         21   -1    0    0  506  502 -0.00000000000E+00 -0.00000000000E+00 -0.11172849262E+03  0.11172849262E+03  0.00000000000E+00 0. -1.
         21    1    1    2  503  502  0.79515372018E+02 -0.16703358262E+03  0.15891302454E+03  0.24387755427E+03  0.00000000000E+00 0. -1.
         21    1    1    2  504  501 -0.86022317532E+02  0.11342647933E+02  0.56390106151E+03  0.57053737998E+03  0.00000000000E+00 0. -1.
         21    1    1    2  505  504  0.29845099150E+02  0.13230609988E+03  0.12592397187E+03  0.18507425726E+03  0.00000000000E+00 0. -1.
         21    1    1    2  506  505 -0.23338153636E+02  0.23384834806E+02 -0.28846515480E+02  0.43859336171E+02  0.00000000000E+00 0. -1.
<scales pt_clust_3="149.69505" pt_clust_4="87.92451" pt_clust_5="14000.00000" pt_clust_6="33.03816"></scales>
<clustering>
<clus scale="   33.038">  2  6  1 -1</clus>
<clus scale="   87.925">  1  4  2 -1</clus>
<clus scale="  149.695">  2  3  1 -1</clus>
<clus scale="   87.925">  1  3  2 -1</clus>
</clustering>
</event>
<event>
 6    0  0.6549018E+002  0.8389109E+02  0.7546771E-02  0.1318358E+00
         21   -1    0    0  504  501  0.00000000000E+00  0.00000000000E+00  0.45623082293E+03  0.45623082293E+03  0.00000000000E+00 0.  1.
         21   -1    0    0  505  502 -0.00000000000E+00 -0.00000000000E+00 -0.22494624645E+03  0.22494624645E+03  0.00000000000E+00 0.  1.
         21    1    1    2  503  501  0.20779331340E+02  0.70294799913E+02  0.81507564775E+02  0.10962035678E+03  0.00000000000E+00 0.  1.
         21    1    1    2  504  506 -0.45753602577E+02 -0.76555407511E+02  0.32244138379E+03  0.33454830525E+03  0.00000000000E+00 0.  1.
         21    1    1    2  505  503 -0.43353921233E+02 -0.19792224883E+02  0.19521045645E+01  0.47698064576E+02  0.00000000000E+00 0.  1.
         21    1    1    2  506  502  0.68328192470E+02  0.26052832481E+02 -0.17461647665E+03  0.18931034278E+03  0.00000000000E+00 0.  1.
<scales pt_clust_3="83.89109" pt_clust_4="14000.00000" pt_clust_5="47.65810" pt_clust_6="30.42316"></scales>
<clustering>
<clus scale="   47.658">  2  5  1 -1</clus>
<clus scale="   30.423">  2  6  1 -1</clus>
<clus scale="   83.891">  2  3  1 -1</clus>
<clus scale="   83.891">  1  3  2 -1</clus>
</clustering>
</event>
<event>
 6    0  0.6549018E+002  0.8754645E+02  0.7546771E-02  0.1308904E+00
         21   -1    0    0  505  501  0.00000000000E+00  0.00000000000E+00  0.50422800756E+03  0.50422800756E+03  0.00000000000E+00 0. -1.
         21   -1    0    0  506  502 -0.00000000000E+00 -0.00000000000E+00 -0.49950419756E+02  0.49950419756E+02  0.00000000000E+00 0. -1.
         21    1    1    2  503  501  0.29242542309E+02  0.38129440980E+02  0.18271960128E+03  0.18893235097E+03  0.00000000000E+00 0. -1.
         21    1    1    2  504  503  0.64631338337E+02  0.50066580394E+01  0.61314139848E+02  0.89228360208E+02  0.00000000000E+00 0. -1.
         21    1    1    2  505  502 -0.10510444253E+03 -0.79561625344E+02  0.19407994368E+03  0.23461462147E+03  0.00000000000E+00 0. -1.
         21    1    1    2  506  504  0.11230561888E+02  0.36425526324E+02  0.16163902991E+02  0.41403094670E+02  0.00000000000E+00 0.  1.
<scales pt_clust_3="51.03764" pt_clust_4="87.54645" pt_clust_5="14000.00000" pt_clust_6="38.11751"></scales>
<clustering>
<clus scale="   38.118">  2  6  1 -1</clus>
<clus scale="   51.038">  1  3  2 -1</clus>
<clus scale="   87.546">  2  4  1 -1</clus>
<clus scale="   51.038">  1  3  2 -1</clus>
</clustering>
</event>
<event>
 6    0  0.6549018E+002  0.9838035E+02  0.7546771E-02  0.1283739E+00
         21   -1    0    0  506  501  0.00000000000E+00  0.00000000000E+00  0.46236274067E+03  0.46236274067E+03  0.00000000000E+00 0.  1.
         21   -1    0    0  504  502 -0.00000000000E+00 -0.00000000000E+00 -0.12127266145E+03  0.12127266145E+03  0.00000000000E+00 0.  1.
         21    1    1    2  503  505 -0.10802501548E+03 -0.59044000166E+01  0.14410477205E+03  0.18019559161E+03  0.00000000000E+00 0.  1.
         21    1    1    2  504  501  0.47140696610E+02 -0.11523108096E+02  0.21772567401E+02  0.53189021313E+02  0.00000000000E+00 0.  1.
         21    1    1    2  505  502  0.51312552784E+02 -0.44101755166E+02 -0.69941055512E+02  0.97312353420E+02  0.00000000000E+00 0.  1.
         21    1    1    2  506  503  0.95717660900E+01  0.61529263278E+02  0.24515379529E+03  0.25293843577E+03  0.00000000000E+00 0.  1.
<scales pt_clust_3="98.38035" pt_clust_4="48.52862" pt_clust_5="14000.00000" pt_clust_6="62.14226"></scales>
<clustering>
<clus scale="   48.529">  2  4  1 -1</clus>
<clus scale="   62.142">  1  6  2 -1</clus>
<clus scale="   98.380">  1  3  2 -1</clus>
<clus scale="   62.142">  1  3  2 -1</clus>
</clustering>
</event>
<event>
 6    0  0.6549018E+002  0.2040314E+03  0.7546771E-02  0.1146382E+00
         21   -1    0    0  504  501  0.00000000000E+00  0.00000000000E+00  0.70988148942E+03  0.70988148942E+03  0.00000000000E+00 0. -1.
         21   -1    0    0  506  502 -0.00000000000E+00 -0.00000000000E+00 -0.81320303640E+02  0.81320303640E+02  0.00000000000E+00 0.  1.
         21    1    1    2  503  505  0.95759700574E+02  0.10287561970E+03  0.11352961726E+03  0.18067176696E+03  0.00000000000E+00 0.  1.
         21    1    1    2  504  502 -0.73066186734E+01 -0.35176536311E+02  0.18322447315E+03  0.18671363888E+03  0.00000000000E+00 0. -1.
         21    1    1    2  505  501 -0.15576629024E+03 -0.65081832310E+02  0.31004384902E+03  0.35302403656E+03  0.00000000000E+00 0. -1.
         21    1    1    2  506  503  0.67313208341E+02 -0.26172510828E+01  0.21763246361E+02  0.70792350664E+02  0.00000000000E+00 0.  1.
<scales pt_clust_3="64.79883" pt_clust_4="35.92736" pt_clust_5="182.60141" pt_clust_6="64.79883"></scales>
<clustering>
<clus scale="   35.927">  1  4  2 -1</clus>
<clus scale="   64.799">  3  6 -1 -1</clus>
<clus scale="  182.601">  1  5  2 -1</clus>
<clus scale="   35.927">  1  3  2 -1</clus>
</clustering>
</event>
<event>
 6    0  0.6549018E+002  0.1947721E+03  0.7546771E-02  0.1154226E+00
         21   -1    0    0  506  501  0.00000000000E+00  0.00000000000E+00  0.28992263602E+03  0.28992263602E+03  0.00000000000E+00 0.  1.
         21   -1    0    0  505  502 -0.00000000000E+00 -0.00000000000E+00 -0.57173297133E+03  0.57173297133E+03  0.00000000000E+00 0.  1.
         21    1    1    2  503  501  0.33117156319E+02  0.10359225134E+02  0.22580041733E+03  0.22845106271E+03  0.00000000000E+00 0.  1.
         21    1    1    2  504  502 -0.79640793694E+02  0.33291239114E+02 -0.20072616068E+03  0.21849932311E+03  0.00000000000E+00 0.  1.
         21    1    1    2  505  503  0.15060302707E+03  0.12286308238E+02 -0.11719545678E+03  0.19122499895E+03  0.00000000000E+00 0.  1.
         21    1    1    2  506  504 -0.10407938970E+03 -0.55936772485E+02 -0.18968913518E+03  0.22348022257E+03  0.00000000000E+00 0.  1.
<scales pt_clust_3="34.69956" pt_clust_4="80.99866" pt_clust_5="171.11481" pt_clust_6="80.99866"></scales>
<clustering>
<clus scale="   34.700">  1  3  2 -1</clus>
<clus scale="   80.999">  4  6 -1 -1</clus>
<clus scale="  171.115">  1  5  2 -1</clus>
<clus scale="   34.700">  1  3  2 -1</clus>
</clustering>
</event>
<event>
 6    0  0.6549018E+002  0.8563113E+02  0.7546771E-02  0.1313790E+00
         21   -1    0    0  504  501  0.00000000000E+00  0.00000000000E+00  0.20301567961E+04  0.20301567961E+04  0.00000000000E+00 0.  1.
         21   -1    0    0  505  502 -0.00000000000E+00 -0.00000000000E+00 -0.81469549109E+02  0.81469549109E+02  0.00000000000E+00 0. -1.
         21    1    1    2  503  501  0.22016440022E+02 -0.12148673474E+03  0.80020051081E+03  0.80966944357E+03  0.00000000000E+00 0. -1.
         21    1    1    2  504  502  0.88307062039E+01  0.54085904891E+02  0.12011465278E+04  0.12023960444E+04  0.00000000000E+00 0.  1.
         21    1    1    2  505  506 -0.32030008825E+02  0.22079656520E+02 -0.28184229076E+02  0.48039394937E+02  0.00000000000E+00 0. -1.
         21    1    1    2  506  503  0.11828625989E+01  0.45321173326E+02 -0.24475562508E+02  0.51521462282E+02  0.00000000000E+00 0. -1.
<scales pt_clust_3="75.41749" pt_clust_4="54.80207" pt_clust_5="37.56947" pt_clust_6="37.56947"></scales>
<clustering>
<clus scale="   37.569">  5  6 -1 -1</clus>
<clus scale="   54.802">  1  4  2 -1</clus>
<clus scale="   75.417">  1  3  2 -1</clus>
<clus scale="   54.802">  1  3  2 -1</clus>
</clustering>
</event>
<event>
 6    0  0.6549018E+002  0.6221579E+02  0.7546771E-02  0.1388761E+00
         21   -1    0    0  504  501  0.00000000000E+00  0.00000000000E+00  0.91339006698E+02  0.91339006698E+02  0.00000000000E+00 0.  1.
         21   -1    0    0  506  502 -0.00000000000E+00 -0.00000000000E+00 -0.40152511104E+03  0.40152511104E+03  0.00000000000E+00 0.  1.
         21    1    1    2  503  505  0.11013861998E+01 -0.49608382095E+02 -0.17279165145E+02  0.52543069702E+02  0.00000000000E+00 0. -1.
         21    1    1    2  504  503  0.28438025833E+02 -0.19729651128E+02  0.87051692951E+01  0.35689780321E+02  0.00000000000E+00 0.  1.
         21    1    1    2  505  502 -0.39461334260E+02 -0.45270937571E+02 -0.28151723440E+03  0.28785171175E+03  0.00000000000E+00 0.  1.
         21    1    1    2  506  501  0.99219222271E+01  0.11460897079E+03 -0.20094874089E+02  0.11677955597E+03  0.00000000000E+00 0.  1.
<scales pt_clust_3="55.27455" pt_clust_4="34.61185" pt_clust_5="62.21579" pt_clust_6="14000.00000"></scales>
<clustering>
<clus scale="   34.612">  1  4  2 -1</clus>
<clus scale="   55.275">  1  3  2 -1</clus>
<clus scale="   62.216">  2  5  1 -1</clus>
<clus scale="   34.612">  1  3  2 -1</clus>
</clustering>
</event>
<event>
 6    0  0.6549018E+002  0.1337662E+03  0.7546771E-02  0.1221972E+00
         21   -1    0    0  503  501  0.00000000000E+00  0.00000000000E+00  0.20149394036E+03  0.20149394036E+03  0.00000000000E+00 0. -1.
         21   -1    0    0  506  502 -0.00000000000E+00 -0.00000000000E+00 -0.33840884370E+03  0.33840884370E+03  0.00000000000E+00 0. -1.
         21    1    1    2  503  502 -0.13711000298E+03  0.11341553319E+03 -0.99908711183E+02  0.20406858321E+03  0.00000000000E+00 0. -1.
         21    1    1    2  504  505  0.91122029839E+02  0.28051324943E+02 -0.23344973116E+02  0.98158488797E+02  0.00000000000E+00 0. -1.
         21    1    1    2  505  501  0.49702325574E+02 -0.12523364310E+02  0.67887372354E+02  0.85063806324E+02  0.00000000000E+00 0. -1.
         21    1    1    2  506  504 -0.37143524380E+01 -0.12894349382E+03 -0.81548591397E+02  0.15261190573E+03  0.00000000000E+00 0. -1.
<scales pt_clust_3="133.76625" pt_clust_4="108.74424" pt_clust_5="51.25579" pt_clust_6="14000.00000"></scales>
<clustering>
<clus scale="   51.256">  1  5  2 -1</clus>
<clus scale="  108.744">  1  4  2 -1</clus>
<clus scale="  133.766">  1  3  2 -1</clus>
<clus scale="   51.256">  1  3  2 -1</clus>
</clustering>
</event>
<event>
 6    0  0.6549018E+002  0.2843055E+03  0.7546771E-02  0.1093360E+00
         21   -1    0    0  502  501  0.00000000000E+00  0.00000000000E+00  0.35722635152E+03  0.35722635152E+03  0.00000000000E+00 0. -1.
         21   -1    0    0  506  502 -0.00000000000E+00 -0.00000000000E+00 -0.54939730276E+03  0.54939730276E+03  0.00000000000E+00 0. -1.
         21    1    1    2  503  501  0.14346083419E+03 -0.32773044751E+02  0.15396187397E+03  0.21297732754E+03  0.00000000000E+00 0. -1.
         21    1    1    2  504  503 -0.10822638547E+03  0.29808157921E+03 -0.12245163236E+03  0.33994114291E+03  0.00000000000E+00 0. -1.
         21    1    1    2  505  504 -0.23215399910E+02 -0.10415507417E+03 -0.12501104223E+03  0.16436238910E+03  0.00000000000E+00 0. -1.
         21    1    1    2  506  505 -0.12019048818E+02 -0.16115346029E+03 -0.98670150618E+02  0.18934279474E+03  0.00000000000E+00 0.  1.
<scales pt_clust_3="147.15666" pt_clust_4="278.18273" pt_clust_5="47.68852" pt_clust_6="47.68852"></scales>
<clustering>
<clus scale="   47.689">  5  6 -1 -1</clus>
<clus scale="  147.157">  1  3  2 -1</clus>
<clus scale="  278.183">  1  4  2 -1</clus>
<clus scale="  147.157">  1  3  2 -1</clus>
</clustering>
</event>
<event>
 6    0  0.6549018E+002  0.1394192E+03  0.7546771E-02  0.1214113E+00
         21   -1    0    0  503  501  0.00000000000E+00  0.00000000000E+00  0.48899656077E+03  0.48899656077E+03  0.00000000000E+00 0.  1.
         21   -1    0    0  504  502 -0.00000000000E+00 -0.00000000000E+00 -0.11977458063E+03  0.11977458063E+03  0.00000000000E+00 0.  1.
         21    1    1    2  503  505  0.52166560480E+02 -0.14367404671E+02  0.15234479592E+03  0.16166851639E+03  0.00000000000E+00 0.  1.
         21    1    1    2  504  501 -0.36381897273E+02  0.16939053700E+03  0.16176931336E+03  0.23703608844E+03  0.00000000000E+00 0.  1.
         21    1    1    2  505  506  0.24593424375E+02 -0.10911442491E+03  0.86445982490E+02  0.14136372284E+03  0.00000000000E+00 0.  1.
         21    1    1    2  506  502 -0.40378087581E+02 -0.45908707427E+02 -0.31338111633E+02  0.68702813734E+02  0.00000000000E+00 0.  1.
<scales pt_clust_3="54.10889" pt_clust_4="139.41918" pt_clust_5="14000.00000" pt_clust_6="59.87017"></scales>
<clustering>
<clus scale="   54.109">  1  3  2 -1</clus>
<clus scale="   59.870">  2  6  1 -1</clus>
<clus scale="  139.419">  1  4  2 -1</clus>
<clus scale="   54.109">  1  3  2 -1</clus>
</clustering>
</event>
<event>
 6    0  0.6549018E+002  0.8291671E+02  0.7546771E-02  0.1320972E+00
         21   -1    0    0  506  501  0.00000000000E+00  0.00000000000E+00  0.25145747015E+04  0.25145747015E+04  0.00000000000E+00 0. -1.
         21   -1    0    0  505  502 -0.00000000000E+00 -0.00000000000E+00 -0.34409675359E+03  0.34409675359E+03  0.00000000000E+00 0. -1.
         21    1    1    2  503  502 -0.24404056539E+02  0.31628164244E+02 -0.30038882424E+03  0.30303356988E+03  0.00000000000E+00 0. -1.
         21    1    1    2  504  501  0.98253323119E+02  0.21888445119E+02  0.40686147385E+03  0.41912895204E+03  0.00000000000E+00 0. -1.
         21    1    1    2  505  504 -0.29937426550E+02  0.18301692182E+02 -0.26711089744E+02  0.44098568690E+02  0.00000000000E+00 0. -1.
         21    1    1    2  506  503 -0.43911840030E+02 -0.71818301546E+02  0.20907163880E+04  0.20924103645E+04  0.00000000000E+00 0. -1.
<scales pt_clust_3="73.01855" pt_clust_4="82.91671" pt_clust_5="35.08848" pt_clust_6="14000.00000"></scales>
<clustering>
<clus scale="   35.088">  2  5  1 -1</clus>
<clus scale="   73.019">  2  3  1 -1</clus>
<clus scale="   82.917">  2  4  1 -1</clus>
<clus scale="   82.917">  1  3  2 -1</clus>
</clustering>
</event>
<event>
 6    0  0.6549018E+002  0.1117073E+03  0.7546771E-02  0.1257441E+00
         21   -1    0    0  506  501  0.00000000000E+00  0.00000000000E+00  0.66342970459E+02  0.66342970459E+02  0.00000000000E+00 0. -1.
         21   -1    0    0  501  502 -0.00000000000E+00 -0.00000000000E+00 -0.77055651001E+03  0.77055651001E+03  0.00000000000E+00 0. -1.
         21    1    1    2  503  502 -0.39116780933E+02 -0.11009076500E+02 -0.30492310555E+03  0.30761895686E+03  0.00000000000E+00 0. -1.
         21    1    1    2  504  503 -0.14760424685E+02  0.39092522269E+02 -0.21113142644E+03  0.21522679820E+03  0.00000000000E+00 0. -1.
         21    1    1    2  505  504  0.19217379011E+02  0.90469956468E+02 -0.16387495427E+03  0.18817311528E+03  0.00000000000E+00 0. -1.
         21    1    1    2  506  505  0.34659826607E+02 -0.11855340224E+03 -0.24284053291E+02  0.12588061013E+03  0.00000000000E+00 0. -1.
<scales pt_clust_3="40.63647" pt_clust_4="47.21474" pt_clust_5="111.70728" pt_clust_6="14000.00000"></scales>
<clustering>
<clus scale="   40.636">  2  3  1 -1</clus>
<clus scale="   47.215">  2  4  1 -1</clus>
<clus scale="  111.707">  2  5  1 -1</clus>
<clus scale="  111.707">  1  3  2 -1</clus>
</clustering>
</event>
<event>
 6    0  0.6549018E+002  0.1552607E+03  0.7546771E-02  0.1194154E+00
         21   -1    0    0  505  501  0.00000000000E+00  0.00000000000E+00  0.22776200914E+03  0.22776200914E+03  0.00000000000E+00 0.  1.
         21   -1    0    0  503  502 -0.00000000000E+00 -0.00000000000E+00 -0.69082915259E+03  0.69082915259E+03  0.00000000000E+00 0. -1.
         21    1    1    2  503  501  0.91700308823E+02  0.67138447881E+02  0.12050421461E+03  0.16564354368E+03  0.00000000000E+00 0.  1.
         21    1    1    2  504  502 -0.41586026087E+02 -0.58057885583E+02 -0.44007084174E+03  0.44582783829E+03  0.00000000000E+00 0. -1.
         21    1    1    2  505  506 -0.55816041537E+01  0.51426278891E+02  0.66404722149E+02  0.84174839407E+02  0.00000000000E+00 0.  1.
         21    1    1    2  506  504 -0.44532678582E+02 -0.60506841189E+02 -0.20990523847E+03  0.22294494035E+03  0.00000000000E+00 0. -1.
<scales pt_clust_3="144.19353" pt_clust_4="56.45181" pt_clust_5="51.72829" pt_clust_6="56.45181"></scales>
<clustering>
<clus scale="   51.728">  1  5  2 -1</clus>
<clus scale="   56.452">  4  6 -1 -1</clus>
<clus scale="  144.194">  1  3  2 -1</clus>
<clus scale="   51.728">  1  3  2 -1</clus>
</clustering>
</event>
<event>
 6    0  0.6549018E+002  0.2326455E+03  0.7546771E-02  0.1124791E+00
         21   -1    0    0  505  501  0.00000000000E+00  0.00000000000E+00  0.44637762508E+02  0.44637762508E+02  0.00000000000E+00 0.  1.
         21   -1    0    0  504  502 -0.00000000000E+00 -0.00000000000E+00 -0.16179879765E+04  0.16179879765E+04  0.00000000000E+00 0.  1.
         21    1    1    2  503  501  0.34497651404E+02  0.49432020958E+02 -0.30845793857E+03  0.31429271788E+03  0.00000000000E+00 0. -1.
         21    1    1    2  504  503  0.13431968953E+02  0.18493142254E+03 -0.73125493694E+03  0.75439633591E+03  0.00000000000E+00 0.  1.
         21    1    1    2  505  506 -0.12946858163E+02 -0.21820847534E+03 -0.41279872489E+03  0.46710314398E+03  0.00000000000E+00 0.  1.
         21    1    1    2  506  502 -0.34982762194E+02 -0.16154968162E+02 -0.12083861359E+03  0.12683354123E+03  0.00000000000E+00 0. -1.
<scales pt_clust_3="35.47000" pt_clust_4="35.47000" pt_clust_5="224.17396" pt_clust_6="38.53280"></scales>
<clustering>
<clus scale="   35.470">  3  4 -1 -1</clus>
<clus scale="   38.533">  2  6  1 -1</clus>
<clus scale="  224.174">  1  5  2 -1</clus>
<clus scale="  224.174">  1  3  2 -1</clus>
</clustering>
</event>
<event>
 6    0  0.6549018E+002  0.7860776E+02  0.7546771E-02  0.1333049E+00
         21   -1    0    0  506  501  0.00000000000E+00  0.00000000000E+00  0.22497680742E+03  0.22497680742E+03  0.00000000000E+00 0. -1.
         21   -1    0    0  503  502 -0.00000000000E+00 -0.00000000000E+00 -0.26562150010E+03  0.26562150010E+03  0.00000000000E+00 0.  1.
         21    1    1    2  503  505 -0.64813957851E+02  0.28640019658E+02 -0.82253988802E+02  0.10856711533E+03  0.00000000000E+00 0.  1.
         21    1    1    2  504  502 -0.18606117992E+01 -0.74254550143E+02 -0.12482923568E+03  0.14525680078E+03  0.00000000000E+00 0.  1.
         21    1    1    2  505  501 -0.34301780276E+02 -0.67469378550E+01 -0.26804123472E+00  0.34960050724E+02  0.00000000000E+00 0.  1.
         21    1    1    2  506  504  0.10097634993E+03  0.52361468340E+02  0.16670657303E+03  0.20181434068E+03  0.00000000000E+00 0. -1.
<scales pt_clust_3="72.68610" pt_clust_4="14000.00000" pt_clust_5="34.95902" pt_clust_6="78.60776"></scales>
<clustering>
<clus scale="   34.959">  1  5  2 -1</clus>
<clus scale="   72.686">  2  3  1 -1</clus>
<clus scale="   78.608">  1  6  2 -1</clus>
<clus scale="   34.959">  1  3  2 -1</clus>
</clustering>
</event>
<event>
 6    0  0.6549018E+002  0.8660130E+02  0.7546771E-02  0.1311297E+00
         21   -1    0    0  506  501  0.00000000000E+00  0.00000000000E+00  0.53329999601E+02  0.53329999601E+02  0.00000000000E+00 0. -1.
         21   -1    0    0  505  502 -0.00000000000E+00 -0.00000000000E+00 -0.89689009920E+03  0.89689009920E+03  0.00000000000E+00 0.  1.
         21    1    1    2  503  502 -0.64213655029E+02 -0.67993495721E+02 -0.25042671479E+03  0.26732012351E+03  0.00000000000E+00 0. -1.
         21    1    1    2  504  501  0.82094418687E+02 -0.20615299284E+02 -0.25294343938E+02  0.88341881230E+02  0.00000000000E+00 0. -1.
         21    1    1    2  505  504  0.60266466402E+02  0.30355583086E+01 -0.19621146272E+03  0.20528078256E+03  0.00000000000E+00 0.  1.
         21    1    1    2  506  503 -0.78147230060E+02  0.85573236696E+02 -0.37162757816E+03  0.38927731150E+03  0.00000000000E+00 0.  1.
<scales pt_clust_3="78.85641" pt_clust_4="86.60130" pt_clust_5="60.34287" pt_clust_6="14000.00000"></scales>
<clustering>
<clus scale="   60.343">  2  5  1 -1</clus>
<clus scale="   78.856">  2  3  1 -1</clus>
<clus scale="   86.601">  1  4  2 -1</clus>
<clus scale="   86.601">  1  3  2 -1</clus>
</clustering>
</event>
<event>
 6    0  0.6549018E+002  0.1212159E+03  0.7546771E-02  0.1241105E+00
         21   -1    0    0  503  501  0.00000000000E+00  0.00000000000E+00  0.11029458436E+03  0.11029458436E+03  0.00000000000E+00 0.  1.
         21   -1    0    0  504  502 -0.00000000000E+00 -0.00000000000E+00 -0.27886740053E+03  0.27886740053E+03  0.00000000000E+00 0.  1.
         21    1    1    2  503  505 -0.23697363526E+02 -0.11604982386E+03  0.49381756308E+02  0.12832647627E+03  0.00000000000E+00 0.  1.
         21    1    1    2  504  506 -0.17011798156E+02  0.46121360219E+02 -0.56295738809E+02  0.74738151924E+02  0.00000000000E+00 0.  1.
         21    1    1    2  505  502  0.29785194761E+02  0.10606052711E+02 -0.49209912768E+02  0.58491552344E+02  0.00000000000E+00 0.  1.
         21    1    1    2  506  501  0.10923966922E+02  0.59322410933E+02 -0.11244892090E+03  0.12760580435E+03  0.00000000000E+00 0.  1.
<scales pt_clust_3="115.67381" pt_clust_4="30.53159" pt_clust_5="31.61718" pt_clust_6="30.53159"></scales>
<clustering>
<clus scale="   31.617">  2  5  1 -1</clus>
<clus scale="   30.532">  4  6 -1 -1</clus>
<clus scale="  115.674">  1  3  2 -1</clus>
<clus scale="  115.674">  1  3  2 -1</clus>
</clustering>
</event>
<event>
 6    0  0.6549018E+002  0.1245611E+03  0.7546771E-02  0.1235757E+00
         21   -1    0    0  503  501  0.00000000000E+00  0.00000000000E+00  0.66498125790E+02  0.66498125790E+02  0.00000000000E+00 0.  1.
         21   -1    0    0  506  502 -0.00000000000E+00 -0.00000000000E+00 -0.60744300803E+03  0.60744300803E+03  0.00000000000E+00 0.  1.
         21    1    1    2  503  505 -0.97643902191E+02 -0.97150378164E+02 -0.14210888400E+03  0.19790771214E+03  0.00000000000E+00 0.  1.
         21    1    1    2  504  501  0.10594766706E+03  0.49131787948E+02 -0.12299530600E+03  0.16960744689E+03  0.00000000000E+00 0.  1.
         21    1    1    2  505  502 -0.45000314844E+02  0.60637581460E+02 -0.94418246217E+02  0.12089975120E+03  0.00000000000E+00 0.  1.
         21    1    1    2  506  504  0.36696549978E+02 -0.12618991244E+02 -0.18142244603E+03  0.18552622360E+03  0.00000000000E+00 0.  1.
<scales pt_clust_3="124.56106" pt_clust_4="14000.00000" pt_clust_5="67.61489" pt_clust_6="38.80561"></scales>
<clustering>
<clus scale="   38.806">  2  6  1 -1</clus>
<clus scale="   67.615">  2  5  1 -1</clus>
<clus scale="  124.561">  2  3  1 -1</clus>
<clus scale="  124.561">  1  3  2 -1</clus>
</clustering>
</event>
<event>
 6    0  0.6549018E+002  0.8824329E+02  0.7546771E-02  0.1307162E+00
         21   -1    0    0  503  501  0.00000000000E+00  0.00000000000E+00  0.21937238693E+03  0.21937238693E+03  0.00000000000E+00 0.  1.
         21   -1    0    0  504  502 -0.00000000000E+00 -0.00000000000E+00 -0.13909198706E+04  0.13909198706E+04  0.00000000000E+00 0. -1.
         21    1    1    2  503  505  0.90479365273E+02  0.46043243754E+02 -0.20341210090E+03  0.22733890698E+03  0.00000000000E+00 0. -1.
         21    1    1    2  504  506 -0.50813075021E+02  0.53324562992E+01 -0.52930415143E+02  0.73566517727E+02  0.00000000000E+00 0. -1.
         21    1    1    2  505  502 -0.31191538442E+02 -0.84179523066E+02 -0.11090125434E+04  0.11126400701E+04  0.00000000000E+00 0. -1.
         21    1    1    2  506  501 -0.84747518100E+01  0.32803823014E+02  0.19380757576E+03  0.19674676273E+03  0.00000000000E+00 0.  1.
<scales pt_clust_3="88.24329" pt_clust_4="57.78857" pt_clust_5="14000.00000" pt_clust_6="33.88085"></scales>
<clustering>
<clus scale="   33.881">  1  6  2 -1</clus>
<clus scale="   57.789">  1  4  2 -1</clus>
<clus scale="   88.243">  1  3  2 -1</clus>
<clus scale="   33.881">  1  3  2 -1</clus>
</clustering>
</event>
<event>
 6    0  0.6549018E+002  0.1807065E+03  0.7546771E-02  0.1167121E+00
         21   -1    0    0  506  501  0.00000000000E+00  0.00000000000E+00  0.14961982132E+03  0.14961982132E+03  0.00000000000E+00 0. -1.
         21   -1    0    0  505  502 -0.00000000000E+00 -0.00000000000E+00 -0.78810992685E+03  0.78810992685E+03  0.00000000000E+00 0. -1.
         21    1    1    2  503  501  0.18086225685E+01  0.19717959565E+03  0.65532114504E+01  0.19729675272E+03  0.00000000000E+00 0. -1.
         21    1    1    2  504  502 -0.32214652622E+02 -0.48639134031E+01 -0.31735570334E+02  0.45481731734E+02  0.00000000000E+00 0.  1.
         21    1    1    2  505  503 -0.96115576581E+02 -0.65726054772E+02 -0.39948873318E+03  0.41611220395E+03  0.00000000000E+00 0. -1.
         21    1    1    2  506  504  0.12652160663E+03 -0.12658962747E+03 -0.21381901346E+03  0.27883905976E+03  0.00000000000E+00 0. -1.
<scales pt_clust_3="180.70650" pt_clust_4="32.57977" pt_clust_5="132.62589" pt_clust_6="14000.00000"></scales>
<clustering>
<clus scale="   32.580">  2  4  1 -1</clus>
<clus scale="  132.626">  2  5  1 -1</clus>
<clus scale="  180.706">  1  3  2 -1</clus>
<clus scale="  180.706">  1  3  2 -1</clus>
</clustering>
</event>
<event>
 6    0  0.6549018E+002  0.1523539E+03  0.7546771E-02  0.1197610E+00
         21   -1    0    0  504  501  0.00000000000E+00  0.00000000000E+00  0.24018064052E+03  0.24018064052E+03  0.00000000000E+00 0. -1.
         21   -1    0    0  503  502 -0.00000000000E+00 -0.00000000000E+00 -0.20332982726E+03  0.20332982726E+03  0.00000000000E+00 0. -1.
         21    1    1    2  503  505  0.12090627100E+03  0.36012890272E+02  0.10394081113E+03  0.16345931252E+03  0.00000000000E+00 0. -1.
         21    1    1    2  504  506 -0.84971318600E+02 -0.23166918551E+02 -0.65486605857E+02  0.10975120339E+03  0.00000000000E+00 0. -1.
         21    1    1    2  505  501  0.30994383608E+02 -0.34428787787E+02  0.60693059709E+02  0.76352084062E+02  0.00000000000E+00 0. -1.
         21    1    1    2  506  502 -0.66929336005E+02  0.21582816065E+02 -0.62296451719E+02  0.93947867800E+02  0.00000000000E+00 0. -1.
<scales pt_clust_3="145.33830" pt_clust_4="40.83606" pt_clust_5="46.32487" pt_clust_6="40.83606"></scales>
<clustering>
<clus scale="   40.836">  4  6 -1 -1</clus>
<clus scale="   46.325">  1  5  2 -1</clus>
<clus scale="  145.338">  1  3  2 -1</clus>
<clus scale="   46.325">  1  3  2 -1</clus>
</clustering>
</event>
<event>
 6    0  0.6549018E+002  0.2717327E+03  0.7546771E-02  0.1100292E+00
         21   -1    0    0  504  501  0.00000000000E+00  0.00000000000E+00  0.22205290479E+03  0.22205290479E+03  0.00000000000E+00 0. -1.
         21   -1    0    0  503  502 -0.00000000000E+00 -0.00000000000E+00 -0.18908246385E+04  0.18908246385E+04  0.00000000000E+00 0. -1.
         21    1    1    2  503  506  0.19408700761E+01  0.47214321676E+02 -0.77176906949E+02  0.90494387197E+02  0.00000000000E+00 0.  1.
         21    1    1    2  504  505 -0.26622422166E+03  0.34450892978E+02  0.88295220085E+02  0.28259201354E+03  0.00000000000E+00 0. -1.
         21    1    1    2  505  502  0.31021680745E+03 -0.13605164665E+03 -0.15870601055E+04  0.16228075353E+04  0.00000000000E+00 0. -1.
         21    1    1    2  506  501 -0.45933455863E+02  0.54386431995E+02 -0.92829941347E+02  0.11698360724E+03  0.00000000000E+00 0.  1.
<scales pt_clust_3="35.38920" pt_clust_4="14000.00000" pt_clust_5="271.73265" pt_clust_6="118.93187"></scales>
<clustering>
<clus scale="   35.389">  3  6 -1 -1</clus>
<clus scale="  118.932">  2  3  1 -1</clus>
<clus scale="  271.733">  2  5  1 -1</clus>
<clus scale="  271.733">  1  3  2 -1</clus>
</clustering>
</event>
<event>
 6    0  0.6549018E+002  0.1338516E+03  0.7546771E-02  0.1221850E+00
         21   -1    0    0  503  501  0.00000000000E+00  0.00000000000E+00  0.10136286155E+04  0.10136286155E+04  0.00000000000E+00 0. -1.
         21   -1    0    0  506  502 -0.00000000000E+00 -0.00000000000E+00 -0.52855656946E+02  0.52855656946E+02  0.00000000000E+00 0.  1.
         21    1    1    2  503  504  0.35993371376E+02 -0.34638095230E+02  0.39508941555E+03  0.39823481353E+03  0.00000000000E+00 0. -1.
         21    1    1    2  504  502 -0.47635638284E+01 -0.11029562556E+03  0.14280010888E+03  0.18049844225E+03  0.00000000000E+00 0. -1.
         21    1    1    2  505  501 -0.53213946386E+02 -0.29117015344E+02  0.16549423027E+03  0.17626078669E+03  0.00000000000E+00 0. -1.
         21    1    1    2  506  505  0.21984138839E+02  0.17405073613E+03  0.25738920380E+03  0.31149022993E+03  0.00000000000E+00 0.  1.
<scales pt_clust_3="49.95318" pt_clust_4="133.85164" pt_clust_5="58.04000" pt_clust_6="14000.00000"></scales>
<clustering>
<clus scale="   49.953">  1  3  2 -1</clus>
<clus scale="   58.040">  1  5  2 -1</clus>
<clus scale="  133.852">  2  4  1 -1</clus>
<clus scale="   49.953">  1  3  2 -1</clus>
</clustering>
</event>
<event>
 6    0  0.6549018E+002  0.1203877E+03  0.7546771E-02  0.1242459E+00
         21   -1    0    0  505  501  0.00000000000E+00  0.00000000000E+00  0.20276602774E+02  0.20276602774E+02  0.00000000000E+00 0.  1.
         21   -1    0    0  503  502 -0.00000000000E+00 -0.00000000000E+00 -0.21635169852E+04  0.21635169852E+04  0.00000000000E+00 0. -1.
         21    1    1    2  503  506  0.71130529802E+00  0.35169699112E+02 -0.44443713295E+03  0.44582707279E+03  0.00000000000E+00 0. -1.
         21    1    1    2  504  501  0.26205454777E+02 -0.21077439278E+02 -0.25295829557E+02  0.42081626627E+02  0.00000000000E+00 0.  1.
         21    1    1    2  505  502 -0.12776369507E+03 -0.47501938074E+02 -0.52257798425E+03  0.54006272370E+03  0.00000000000E+00 0. -1.
         21    1    1    2  506  504  0.10084693499E+03  0.33409678240E+02 -0.11509294356E+04  0.11558221648E+04  0.00000000000E+00 0. -1.
<scales pt_clust_3="34.01117" pt_clust_4="33.63011" pt_clust_5="120.38768" pt_clust_6="14000.00000"></scales>
<clustering>
<clus scale="   33.630">  1  4  2 -1</clus>
<clus scale="   34.011">  2  3  1 -1</clus>
<clus scale="  120.388">  1  5  2 -1</clus>
<clus scale="   33.630">  1  3  2 -1</clus>
</clustering>
</event>
<event>
 6    0  0.7509893E+002  0.9337995E+02  0.7546771E-02  0.1294867E+00
         21   -1    0    0  504  501  0.00000000000E+00  0.00000000000E+00  0.78569535940E+03  0.78569535940E+03  0.00000000000E+00 0.  1.
         21   -1    0    0  505  502 -0.00000000000E+00 -0.00000000000E+00 -0.14630861247E+04  0.14630861247E+04  0.00000000000E+00 0. -1.
         21    1    1    2  503  502 -0.86825061973E+02 -0.10971849192E+03 -0.10869693654E+04  0.10959375622E+04  0.00000000000E+00 0. -1.
         21    1    1    2  504  503 -0.54341466534E+01  0.86372711536E+02 -0.30176566546E+03  0.31393039372E+03  0.00000000000E+00 0.  1.
         21    1    1    2  505  506  0.15088137354E+02  0.76590568220E+02 -0.35820861198E+02  0.85888888257E+02  0.00000000000E+00 0.  1.
         21    1    1    2  506  501  0.77171071272E+02 -0.53244787840E+02  0.74716512678E+03  0.75302463993E+03  0.00000000000E+00 0.  1.
<scales pt_clust_3="90.26312" pt_clust_4="93.37995" pt_clust_5="78.06258" pt_clust_6="14000.00000"></scales>
<clustering>
<clus scale="   78.063">  2  5  1 -1</clus>
<clus scale="   90.263">  2  3  1 -1</clus>
<clus scale="   93.380">  2  4  1 -1</clus>
<clus scale="   93.380">  1  3  2 -1</clus>
</clustering>
</event>
<event>
 6    0  0.6549018E+002  0.7423524E+02  0.7546771E-02  0.1346256E+00
         21   -1    0    0  505  501  0.00000000000E+00  0.00000000000E+00  0.33159177482E+03  0.33159177482E+03  0.00000000000E+00 0.  1.
         21   -1    0    0  503  502 -0.00000000000E+00 -0.00000000000E+00 -0.10325981261E+03  0.10325981261E+03  0.00000000000E+00 0.  1.
         21    1    1    2  503  501 -0.17978538778E+02  0.54117177680E+02  0.45027966763E+01  0.57202901627E+02  0.00000000000E+00 0. -1.
         21    1    1    2  504  502  0.62149381331E+02  0.19613270691E+02 -0.35035218389E+02  0.73991165112E+02  0.00000000000E+00 0.  1.
         21    1    1    2  505  506  0.40058862314E+02 -0.57011188936E+02  0.14659677747E+03  0.16231328743E+03  0.00000000000E+00 0.  1.
         21    1    1    2  506  504 -0.84229704867E+02 -0.16719259435E+02  0.11226760645E+03  0.14134423326E+03  0.00000000000E+00 0.  1.
<scales pt_clust_3="57.02540" pt_clust_4="74.23524" pt_clust_5="64.11931" pt_clust_6="14000.00000"></scales>
<clustering>
<clus scale="   57.025">  2  3  1 -1</clus>
<clus scale="   64.119">  1  5  2 -1</clus>
<clus scale="   74.235">  2  4  1 -1</clus>
<clus scale="   64.119">  1  3  2 -1</clus>
</clustering>
</event>
<event>
 6    0  0.6549018E+002  0.1564616E+03  0.7546771E-02  0.1192751E+00
         21   -1    0    0  506  501  0.00000000000E+00  0.00000000000E+00  0.13468857552E+04  0.13468857552E+04  0.00000000000E+00 0. -1.
         21   -1    0    0  504  502 -0.00000000000E+00 -0.00000000000E+00 -0.12035595147E+03  0.12035595147E+03  0.00000000000E+00 0. -1.
         21    1    1    2  503  502  0.12978333396E+03 -0.87357500936E+02 -0.52307706059E+02  0.16495800331E+03  0.00000000000E+00 0. -1.
         21    1    1    2  504  505 -0.47413063151E+02  0.60665076963E+02  0.16214973050E+03  0.17950149086E+03  0.00000000000E+00 0. -1.
         21    1    1    2  505  501 -0.25685720163E+02  0.31536977459E+02  0.18780850681E+03  0.19216235947E+03  0.00000000000E+00 0. -1.
         21    1    1    2  506  503 -0.56684550649E+02 -0.48445534852E+01  0.92887927247E+03  0.93061985301E+03  0.00000000000E+00 0. -1.
<scales pt_clust_3="150.53778" pt_clust_4="30.99508" pt_clust_5="30.99508" pt_clust_6="56.89119"></scales>
<clustering>
<clus scale="   30.995">  4  5 -1 -1</clus>
<clus scale="   56.891">  1  6  2 -1</clus>
<clus scale="  150.538">  2  3  1 -1</clus>
<clus scale="   56.891">  1  3  2 -1</clus>
</clustering>
</event>
<event>
 6    0  0.6549018E+002  0.9887171E+02  0.7546771E-02  0.1282687E+00
         21   -1    0    0  505  501  0.00000000000E+00  0.00000000000E+00  0.55932673154E+03  0.55932673154E+03  0.00000000000E+00 0.  1.
         21   -1    0    0  503  502 -0.00000000000E+00 -0.00000000000E+00 -0.25148125941E+03  0.25148125941E+03  0.00000000000E+00 0.  1.
         21    1    1    2  503  506  0.37741282287E+02 -0.11179942478E+03 -0.14092486387E+03  0.18380242933E+03  0.00000000000E+00 0.  1.
         21    1    1    2  504  502  0.38040722414E+02  0.41416901702E+02 -0.60937431364E+02  0.82920605700E+02  0.00000000000E+00 0.  1.
         21    1    1    2  505  504 -0.27461244083E+02  0.80838403631E+02  0.10035578493E+03  0.13175830523E+03  0.00000000000E+00 0.  1.
         21    1    1    2  506  501 -0.48320760618E+02 -0.10455880557E+02  0.40935198244E+03  0.41232665069E+03  0.00000000000E+00 0.  1.
<scales pt_clust_3="14000.00000" pt_clust_4="53.28793" pt_clust_5="98.87171" pt_clust_6="49.43907"></scales>
<clustering>
<clus scale="   49.439">  1  6  2 -1</clus>
<clus scale="   53.288">  2  4  1 -1</clus>
<clus scale="   98.872">  1  5  2 -1</clus>
<clus scale="   49.439">  1  3  2 -1</clus>
</clustering>
</event>
<event>
 6    0  0.6549018E+002  0.9712355E+02  0.7546771E-02  0.1286464E+00
         21   -1    0    0  506  501  0.00000000000E+00  0.00000000000E+00  0.11012546027E+03  0.11012546027E+03  0.00000000000E+00 0.  1.
         21   -1    0    0  505  502 -0.00000000000E+00 -0.00000000000E+00 -0.38650094617E+03  0.38650094617E+03  0.00000000000E+00 0.  1.
         21    1    1    2  503  501 -0.13275346005E+03  0.40909509178E+02 -0.88467102814E+02  0.16469212906E+03  0.00000000000E+00 0.  1.
         21    1    1    2  504  502  0.44391197161E+02  0.35298406640E+02 -0.14114519402E+03  0.15211351581E+03  0.00000000000E+00 0.  1.
         21    1    1    2  505  503  0.53624125984E+02 -0.49169109351E+02 -0.91605929751E+02  0.11698202669E+03  0.00000000000E+00 0. -1.
         21    1    1    2  506  504  0.34738136901E+02 -0.27038806467E+02  0.44842740678E+02  0.62838734886E+02  0.00000000000E+00 0.  1.
<scales pt_clust_3="14000.00000" pt_clust_4="57.87459" pt_clust_5="97.12355" pt_clust_6="44.02085"></scales>
<clustering>
<clus scale="   44.021">  1  6  2 -1</clus>
<clus scale="   57.875">  2  4  1 -1</clus>
<clus scale="   97.124">  2  5  1 -1</clus>
<clus scale="   44.021">  1  3  2 -1</clus>
</clustering>
</event>
<event>
 6    0  0.6549018E+002  0.3666866E+03  0.7546771E-02  0.1055967E+00
         21   -1    0    0  503  501  0.00000000000E+00  0.00000000000E+00  0.87000770965E+03  0.87000770965E+03  0.00000000000E+00 0.  1.
         21   -1    0    0  505  502 -0.00000000000E+00 -0.00000000000E+00 -0.16113915268E+03  0.16113915268E+03  0.00000000000E+00 0.  1.
         21    1    1    2  503  502  0.17754330561E+03  0.30661391139E+03  0.48807552520E+03  0.60311809318E+03  0.00000000000E+00 0.  1.
         21    1    1    2  504  506 -0.11758377424E+03 -0.14372951143E+03  0.95836409292E+02  0.20897065288E+03  0.00000000000E+00 0.  1.
         21    1    1    2  505  504 -0.35417459494E+02 -0.96102200181E+02  0.44544157767E+02  0.11168800879E+03  0.00000000000E+00 0. -1.
         21    1    1    2  506  501 -0.24542071884E+02 -0.66782199773E+02  0.80412464708E+02  0.10737010748E+03  0.00000000000E+00 0.  1.
<scales pt_clust_3="354.30738" pt_clust_4="39.46566" pt_clust_5="34.72791" pt_clust_6="39.46566"></scales>
<clustering>
<clus scale="   34.728">  4  5 -1 -1</clus>
<clus scale="   39.466">  4  6 -1 -1</clus>
<clus scale="  354.307">  1  3  2 -1</clus>
<clus scale="  354.307">  1  3  2 -1</clus>
</clustering>
</event>
<event>
 6    0  0.6549018E+002  0.1331594E+03  0.7546771E-02  0.1222842E+00
         21   -1    0    0  504  501  0.00000000000E+00  0.00000000000E+00  0.12995146135E+03  0.12995146135E+03  0.00000000000E+00 0. -1.
         21   -1    0    0  505  502 -0.00000000000E+00 -0.00000000000E+00 -0.52235926472E+03  0.52235926472E+03  0.00000000000E+00 0. -1.
         21    1    1    2  503  502 -0.24265674943E+02  0.12995257058E+03 -0.31156813441E+03  0.33845412682E+03  0.00000000000E+00 0. -1.
         21    1    1    2  504  506 -0.12560873758E+02 -0.34226105376E+02  0.57456345314E+02  0.68047288378E+02  0.00000000000E+00 0. -1.
         21    1    1    2  505  501  0.84609839161E+02 -0.11790360009E+03 -0.12486435130E+03  0.19144500522E+03  0.00000000000E+00 0. -1.
         21    1    1    2  506  503 -0.47783290461E+02  0.22177134884E+02 -0.13431662983E+02  0.54364305655E+02  0.00000000000E+00 0. -1.
<scales pt_clust_3="133.15937" pt_clust_4="36.45822" pt_clust_5="14000.00000" pt_clust_6="52.93024"></scales>
<clustering>
<clus scale="   36.458">  1  4  2 -1</clus>
<clus scale="   52.930">  1  6  2 -1</clus>
<clus scale="  133.159">  2  3  1 -1</clus>
<clus scale="   36.458">  1  3  2 -1</clus>
</clustering>
</event>
<event>
 6    0  0.6549018E+002  0.1237613E+03  0.7546771E-02  0.1237018E+00
         21   -1    0    0  504  501  0.00000000000E+00  0.00000000000E+00  0.16634161331E+04  0.16634161331E+04  0.00000000000E+00 0.  1.
         21   -1    0    0  503  502 -0.00000000000E+00 -0.00000000000E+00 -0.51682558170E+02  0.51682558170E+02  0.00000000000E+00 0. -1.
         21    1    1    2  503  505  0.18236920862E+02 -0.87472073337E+02  0.11001180163E+03  0.14172701011E+03  0.00000000000E+00 0.  1.
         21    1    1    2  504  506 -0.16806194576E+03  0.22620009262E+02  0.92410967557E+03  0.93953987404E+03  0.00000000000E+00 0.  1.
         21    1    1    2  505  501  0.96402346667E+02  0.32972171966E+02  0.55997488257E+03  0.56916820508E+03  0.00000000000E+00 0.  1.
         21    1    1    2  506  502  0.53422678228E+02  0.31879892108E+02  0.17637215158E+02  0.64663602037E+02  0.00000000000E+00 0. -1.
<scales pt_clust_3="84.66245" pt_clust_4="123.76127" pt_clust_5="14000.00000" pt_clust_6="62.21182"></scales>
<clustering>
<clus scale="   62.212">  2  6  1 -1</clus>
<clus scale="   84.662">  2  3  1 -1</clus>
<clus scale="  123.761">  2  4  1 -1</clus>
<clus scale="  123.761">  1  3  2 -1</clus>
</clustering>
</event>
<event>
 6    0  0.6549018E+002  0.1218700E+03  0.7546771E-02  0.1240044E+00
         21   -1    0    0  504  501  0.00000000000E+00  0.00000000000E+00  0.50968690350E+03  0.50968690350E+03  0.00000000000E+00 0.  1.
         21   -1    0    0  505  502 -0.00000000000E+00 -0.00000000000E+00 -0.87468306789E+02  0.87468306789E+02  0.00000000000E+00 0.  1.
         21    1    1    2  503  502  0.29391216639E+02 -0.63255157714E+02 -0.11666352756E+02  0.70718896906E+02  0.00000000000E+00 0.  1.
         21    1    1    2  504  503 -0.87613403788E+01 -0.58950134288E+02 -0.78552390088E+01  0.60113095060E+02  0.00000000000E+00 0.  1.
         21    1    1    2  505  506 -0.31688718980E+02  0.85015515055E+02  0.17845861714E+03  0.20019812872E+03  0.00000000000E+00 0.  1.
         21    1    1    2  506  501  0.11058842720E+02  0.37189776947E+02  0.26328157134E+03  0.26612508961E+03  0.00000000000E+00 0.  1.
<scales pt_clust_3="34.29115" pt_clust_4="34.29115" pt_clust_5="116.08666" pt_clust_6="38.79919"></scales>
<clustering>
<clus scale="   34.291">  3  4 -1 -1</clus>
<clus scale="   38.799">  1  6  2 -1</clus>
<clus scale="  116.087">  1  5  2 -1</clus>
<clus scale="   38.799">  1  3  2 -1</clus>
</clustering>
</event>
<event>
 6    0  0.6549018E+002  0.1105486E+03  0.7546771E-02  0.1259557E+00
         21   -1    0    0  504  501  0.00000000000E+00  0.00000000000E+00  0.27358387029E+04  0.27358387029E+04  0.00000000000E+00 0.  1.
         21   -1    0    0  505  502 -0.00000000000E+00 -0.00000000000E+00 -0.15076391381E+03  0.15076391381E+03  0.00000000000E+00 0.  1.
         21    1    1    2  503  501 -0.53594519296E+02 -0.15065900155E+01  0.53127913296E+03  0.53397767691E+03  0.00000000000E+00 0.  1.
         21    1    1    2  504  506  0.47510207929E+01  0.10171894158E+03  0.21338464205E+04  0.21362747627E+04  0.00000000000E+00 0.  1.
         21    1    1    2  505  503 -0.21276271955E+01 -0.11067145324E+03 -0.11021566634E+03  0.15620560319E+03  0.00000000000E+00 0.  1.
         21    1    1    2  506  502  0.50971125698E+02  0.10459101673E+02  0.30164901926E+02  0.60144573912E+02  0.00000000000E+00 0. -1.
<scales pt_clust_3="53.10651" pt_clust_4="110.54864" pt_clust_5="14000.00000" pt_clust_6="52.03315"></scales>
<clustering>
<clus scale="   52.033">  2  6  1 -1</clus>
<clus scale="   53.107">  1  3  2 -1</clus>
<clus scale="  110.549">  1  4  2 -1</clus>
<clus scale="   53.107">  1  3  2 -1</clus>
</clustering>
</event>
<event>
 6    0  0.6549018E+002  0.1021384E+03  0.7546771E-02  0.1275862E+00
         21   -1    0    0  505  501  0.00000000000E+00  0.00000000000E+00  0.57638241727E+02  0.57638241727E+02  0.00000000000E+00 0. -1.
         21   -1    0    0  504  502 -0.00000000000E+00 -0.00000000000E+00 -0.10782800727E+04  0.10782800727E+04  0.00000000000E+00 0. -1.
         21    1    1    2  503  501  0.30764927516E+02  0.21260261541E+02  0.27530467877E+02  0.46437120361E+02  0.00000000000E+00 0. -1.
         21    1    1    2  504  506 -0.12157389823E+03 -0.86285773325E+00 -0.84430129348E+03  0.85300974873E+03  0.00000000000E+00 0. -1.
         21    1    1    2  505  502  0.50986416730E+02  0.18368511901E+02 -0.53474062378E+02  0.76134698185E+02  0.00000000000E+00 0. -1.
         21    1    1    2  506  503  0.39822553978E+02 -0.38765915708E+02 -0.15039694298E+03  0.16033674714E+03  0.00000000000E+00 0. -1.
<scales pt_clust_3="37.39625" pt_clust_4="14000.00000" pt_clust_5="102.13836" pt_clust_6="57.98761"></scales>
<clustering>
<clus scale="   37.396">  1  3  2 -1</clus>
<clus scale="   57.988">  1  6  2 -1</clus>
<clus scale="  102.138">  1  5  2 -1</clus>
<clus scale="   37.396">  1  3  2 -1</clus>
</clustering>
</event>
<event>
 6    0  0.6549018E+002  0.1916970E+03  0.7546771E-02  0.1156940E+00
         21   -1    0    0  504  501  0.00000000000E+00  0.00000000000E+00  0.14182158214E+03  0.14182158214E+03  0.00000000000E+00 0.  1.
         21   -1    0    0  503  502 -0.00000000000E+00 -0.00000000000E+00 -0.14735872645E+04  0.14735872645E+04  0.00000000000E+00 0.  1.
         21    1    1    2  503  506  0.47015760390E+02 -0.40063854298E+02 -0.10013921279E+04  0.10032954640E+04  0.00000000000E+00 0.  1.
         21    1    1    2  504  505 -0.13777179908E+03  0.20963405416E+03 -0.11749101752E+03  0.27700477339E+03  0.00000000000E+00 0.  1.
         21    1    1    2  505  502 -0.28221336764E+00 -0.38766503293E+02 -0.16384438824E+03  0.16836836098E+03  0.00000000000E+00 0. -1.
         21    1    1    2  506  501  0.91038252054E+02 -0.13080369657E+03 -0.49038148663E+02  0.16674024828E+03  0.00000000000E+00 0.  1.
<scales pt_clust_3="84.02302" pt_clust_4="191.69704" pt_clust_5="38.76753" pt_clust_6="14000.00000"></scales>
<clustering>
<clus scale="   38.768">  2  5  1 -1</clus>
<clus scale="   84.023">  2  3  1 -1</clus>
<clus scale="  191.697">  2  4  1 -1</clus>
<clus scale="  191.697">  1  3  2 -1</clus>
</clustering>
</event>
<event>
 6    0  0.6549018E+002  0.1504887E+03  0.7546771E-02  0.1199874E+00
         21   -1    0    0  506  501  0.00000000000E+00  0.00000000000E+00  0.15139089230E+04  0.15139089230E+04  0.00000000000E+00 0. -1.
         21   -1    0    0  504  502 -0.00000000000E+00 -0.00000000000E+00 -0.21047936083E+03  0.21047936083E+03  0.00000000000E+00 0. -1.
         21    1    1    2  503  505 -0.47459475207E+01 -0.59170274293E+02 -0.68313307605E+02  0.90500571124E+02  0.00000000000E+00 0. -1.
         21    1    1    2  504  503  0.39810321171E+02 -0.83555754180E+02 -0.10651428520E+03  0.14110888944E+03  0.00000000000E+00 0. -1.
         21    1    1    2  505  501 -0.31363079724E+01  0.69484711873E+02  0.19494568424E+03  0.20698256307E+03  0.00000000000E+00 0.  1.
         21    1    1    2  506  502 -0.31928065677E+02  0.73241316600E+02  0.12833114708E+04  0.12857962602E+04  0.00000000000E+00 0. -1.
<scales pt_clust_3="30.78854" pt_clust_4="30.78854" pt_clust_5="69.55546" pt_clust_6="145.49514"></scales>
<clustering>
<clus scale="   30.789">  3  4 -1 -1</clus>
<clus scale="   69.555">  1  5  2 -1</clus>
<clus scale="  145.495">  1  6  2 -1</clus>
<clus scale="   69.555">  1  3  2 -1</clus>
</clustering>
</event>
<event>
 6    0  0.6549018E+002  0.1216403E+03  0.7546771E-02  0.1240415E+00
         21   -1    0    0  505  501  0.00000000000E+00  0.00000000000E+00  0.16550320708E+04  0.16550320708E+04  0.00000000000E+00 0. -1.
         21   -1    0    0  503  502 -0.00000000000E+00 -0.00000000000E+00 -0.54219075329E+03  0.54219075329E+03  0.00000000000E+00 0.  1.
         21    1    1    2  503  501  0.15093624885E+02  0.20904301089E+03  0.15144302491E+04  0.15288642115E+04  0.00000000000E+00 0. -1.
         21    1    1    2  504  506  0.66377425506E+02 -0.11707380551E+03 -0.29428772820E+03  0.32360084290E+03  0.00000000000E+00 0.  1.
         21    1    1    2  505  504 -0.37218713319E+01 -0.88595660503E+02  0.93826775465E+02  0.12909882718E+03  0.00000000000E+00 0. -1.
         21    1    1    2  506  502 -0.77749179059E+02 -0.33735448715E+01 -0.20112797879E+03  0.21565894255E+03  0.00000000000E+00 0.  1.
<scales pt_clust_3="14000.00000" pt_clust_4="121.64034" pt_clust_5="89.11852" pt_clust_6="77.82233"></scales>
<clustering>
<clus scale="   77.822">  2  6  1 -1</clus>
<clus scale="   89.119">  1  5  2 -1</clus>
<clus scale="  121.640">  2  4  1 -1</clus>
<clus scale="   89.119">  1  3  2 -1</clus>
</clustering>
</event>
<event>
 6    0  0.6549018E+002  0.1288308E+03  0.7546771E-02  0.1229201E+00
         21   -1    0    0  503  501  0.00000000000E+00  0.00000000000E+00  0.32494377128E+03  0.32494377128E+03  0.00000000000E+00 0.  1.
         21   -1    0    0  506  502 -0.00000000000E+00 -0.00000000000E+00 -0.59661411114E+03  0.59661411114E+03  0.00000000000E+00 0. -1.
         21    1    1    2  503  504 -0.31536959188E+02  0.28128692348E+02  0.15501105396E+03  0.16066807392E+03  0.00000000000E+00 0.  1.
         21    1    1    2  504  505 -0.10220541288E+03 -0.20050248277E+01  0.13377820993E+03  0.16836441429E+03  0.00000000000E+00 0.  1.
         21    1    1    2  505  502  0.69731275256E+02 -0.18414255944E+02 -0.49649215484E+03  0.50170309485E+03  0.00000000000E+00 0. -1.
         21    1    1    2  506  501  0.64011096809E+02 -0.77094115761E+01 -0.63967448910E+02  0.90822299364E+02  0.00000000000E+00 0.  1.
<scales pt_clust_3="42.25876" pt_clust_4="14000.00000" pt_clust_5="128.83078" pt_clust_6="61.71802"></scales>
<clustering>
<clus scale="   42.259">  1  3  2 -1</clus>
<clus scale="   61.718">  2  6  1 -1</clus>
<clus scale="  128.831">  2  5  1 -1</clus>
<clus scale="   42.259">  1  3  2 -1</clus>
</clustering>
</event>
<event>
 6    0  0.6549018E+002  0.1242230E+03  0.7546771E-02  0.1236289E+00
         21   -1    0    0  505  501  0.00000000000E+00  0.00000000000E+00  0.66881279904E+02  0.66881279904E+02  0.00000000000E+00 0.  1.
         21   -1    0    0  504  502 -0.00000000000E+00 -0.00000000000E+00 -0.20767067990E+04  0.20767067990E+04  0.00000000000E+00 0.  1.
         21    1    1    2  503  502  0.10993546074E+03 -0.23546312775E+02 -0.17401466619E+04  0.17437748247E+04  0.00000000000E+00 0.  1.
         21    1    1    2  504  506  0.16655456072E+02  0.25752116178E+02 -0.24314467982E+03  0.24507123664E+03  0.00000000000E+00 0.  1.
         21    1    1    2  505  503 -0.29450086958E+02  0.15078501224E+02 -0.43473825056E+02  0.54631879759E+02  0.00000000000E+00 0.  1.
         21    1    1    2  506  501 -0.97140829851E+02 -0.17284304627E+02  0.16939647742E+02  0.10011013773E+03  0.00000000000E+00 0.  1.
<scales pt_clust_3="14000.00000" pt_clust_4="30.66881" pt_clust_5="33.01320" pt_clust_6="124.22296"></scales>
<clustering>
<clus scale="   30.669">  2  4  1 -1</clus>
<clus scale="   33.013">  1  5  2 -1</clus>
<clus scale="  124.223">  1  6  2 -1</clus>
<clus scale="   33.013">  1  3  2 -1</clus>
</clustering>
</event>
<event>
 6    0  0.6549018E+002  0.1057347E+03  0.7546771E-02  0.1268679E+00
         21   -1    0    0  506  501  0.00000000000E+00  0.00000000000E+00  0.10990707766E+04  0.10990707766E+04  0.00000000000E+00 0. -1.
         21   -1    0    0  504  502 -0.00000000000E+00 -0.00000000000E+00 -0.49698998513E+02  0.49698998513E+02  0.00000000000E+00 0. -1.
         21    1    1    2  503  501 -0.84333118715E+02  0.11186130428E+03  0.50751012313E+03  0.52648983978E+03  0.00000000000E+00 0. -1.
         21    1    1    2  504  505  0.33962850976E+02 -0.17019493710E+02 -0.14235283517E+02  0.40568235226E+02  0.00000000000E+00 0. -1.
         21    1    1    2  505  503  0.50073495884E+02 -0.58803767678E+02  0.11139056040E+03  0.13554739034E+03  0.00000000000E+00 0. -1.
         21    1    1    2  506  502  0.29677185400E+00 -0.36038042892E+02  0.44470637807E+03  0.44616430976E+03  0.00000000000E+00 0. -1.
<scales pt_clust_3="105.73469" pt_clust_4="38.32468" pt_clust_5="14000.00000" pt_clust_6="36.03926"></scales>
<clustering>
<clus scale="   36.039">  1  6  2 -1</clus>
<clus scale="   38.325">  2  4  1 -1</clus>
<clus scale="  105.735">  1  3  2 -1</clus>
<clus scale="   36.039">  1  3  2 -1</clus>
</clustering>
</event>
<event>
 6    0  0.6549018E+002  0.2908359E+03  0.7546771E-02  0.1089914E+00
         21   -1    0    0  502  501  0.00000000000E+00  0.00000000000E+00  0.15459181036E+04  0.15459181036E+04  0.00000000000E+00 0. -1.
         21   -1    0    0  506  502 -0.00000000000E+00 -0.00000000000E+00 -0.44333423563E+03  0.44333423563E+03  0.00000000000E+00 0. -1.
         21    1    1    2  503  501  0.23088648517E+02 -0.20623852322E+02  0.12573957008E+04  0.12577767597E+04  0.00000000000E+00 0. -1.
         21    1    1    2  504  503  0.17681176110E+03 -0.14035300414E+03  0.13679678922E+03  0.26395970559E+03  0.00000000000E+00 0. -1.
         21    1    1    2  505  504  0.39486365092E+02  0.13278877700E+02  0.21278929383E+02  0.46779209665E+02  0.00000000000E+00 0.  1.
         21    1    1    2  506  505 -0.23938677471E+03  0.14769797876E+03 -0.31288755140E+03  0.42073666426E+03  0.00000000000E+00 0. -1.
<scales pt_clust_3="30.95850" pt_clust_4="39.02230" pt_clust_5="39.02230" pt_clust_6="275.58569"></scales>
<clustering>
<clus scale="   30.959">  1  3  2 -1</clus>
<clus scale="   39.022">  4  5 -1 -1</clus>
<clus scale="  275.586">  2  6  1 -1</clus>
<clus scale="   30.959">  1  3  2 -1</clus>
</clustering>
</event>
<event>
 6    0  0.6549018E+002  0.1470545E+03  0.7546771E-02  0.1204140E+00
         21   -1    0    0  505  501  0.00000000000E+00  0.00000000000E+00  0.10455034869E+04  0.10455034869E+04  0.00000000000E+00 0.  1.
         21   -1    0    0  506  502 -0.00000000000E+00 -0.00000000000E+00 -0.31483893530E+03  0.31483893530E+03  0.00000000000E+00 0. -1.
         21    1    1    2  503  504 -0.73171651216E+02 -0.48573690455E+02 -0.75597414003E+02  0.11588124503E+03  0.00000000000E+00 0. -1.
         21    1    1    2  504  501  0.85918870044E+02 -0.11898816927E+03  0.93882175755E+03  0.95022446249E+03  0.00000000000E+00 0.  1.
         21    1    1    2  505  502  0.92559883599E+01  0.19889830340E+03 -0.15274448335E+03  0.25095235725E+03  0.00000000000E+00 0. -1.
         21    1    1    2  506  503 -0.22003207188E+02 -0.31336443673E+02  0.20184691365E+02  0.43284357384E+02  0.00000000000E+00 0. -1.
<scales pt_clust_3="99.18182" pt_clust_4="147.05447" pt_clust_5="14000.00000" pt_clust_6="38.28987"></scales>
<clustering>
<clus scale="   38.290">  2  6  1 -1</clus>
<clus scale="   99.182">  2  3  1 -1</clus>
<clus scale="  147.054">  1  4  2 -1</clus>
<clus scale="  147.054">  1  3  2 -1</clus>
</clustering>
</event>
<event>
 6    0  0.6549018E+002  0.1777874E+03  0.7546771E-02  0.1169962E+00
         21   -1    0    0  504  501  0.00000000000E+00  0.00000000000E+00  0.28891261639E+03  0.28891261639E+03  0.00000000000E+00 0.  1.
         21   -1    0    0  506  502 -0.00000000000E+00 -0.00000000000E+00 -0.68266209264E+03  0.68266209264E+03  0.00000000000E+00 0. -1.
         21    1    1    2  503  501  0.34684688081E+02  0.61094880249E+02  0.58852174635E+02  0.91647097276E+02  0.00000000000E+00 0.  1.
         21    1    1    2  504  502  0.12667279319E+03 -0.20845698910E+02  0.18057370338E+03  0.22155676936E+03  0.00000000000E+00 0.  1.
         21    1    1    2  505  503 -0.52447851868E+02  0.12448016740E+02 -0.12757596876E+03  0.13849678008E+03  0.00000000000E+00 0. -1.
         21    1    1    2  506  505 -0.10890962941E+03 -0.52697198079E+02 -0.50559938549E+03  0.51987406232E+03  0.00000000000E+00 0. -1.
<scales pt_clust_3="70.25391" pt_clust_4="163.47310" pt_clust_5="46.65188" pt_clust_6="46.65188"></scales>
<clustering>
<clus scale="   46.652">  5  6 -1 -1</clus>
<clus scale="   70.254">  1  3  2 -1</clus>
<clus scale="  163.473">  1  4  2 -1</clus>
<clus scale="   70.254">  1  3  2 -1</clus>
</clustering>
</event>
<event>
 6    0  0.6549018E+002  0.1035848E+03  0.7546771E-02  0.1272933E+00
         21   -1    0    0  504  501  0.00000000000E+00  0.00000000000E+00  0.13896830019E+03  0.13896830019E+03  0.00000000000E+00 0.  1.
         21   -1    0    0  505  502 -0.00000000000E+00 -0.00000000000E+00 -0.48391411537E+03  0.48391411537E+03  0.00000000000E+00 0.  1.
         21    1    1    2  503  502 -0.12419169804E+02 -0.91222215506E+02 -0.31901685583E+03  0.33203536361E+03  0.00000000000E+00 0.  1.
         21    1    1    2  504  503 -0.84086636735E+02 -0.41850150587E+02  0.13431922197E+02  0.94881052458E+02  0.00000000000E+00 0.  1.
         21    1    1    2  505  506  0.20123380846E+02  0.38734026495E+02 -0.58596894251E+02  0.73067580232E+02  0.00000000000E+00 0.  1.
         21    1    1    2  506  501  0.76382425694E+02  0.94338339598E+02  0.19236012712E+02  0.12289841927E+03  0.00000000000E+00 0.  1.
<scales pt_clust_3="61.14959" pt_clust_4="14000.00000" pt_clust_5="43.64946" pt_clust_6="103.58484"></scales>
<clustering>
<clus scale="   43.649">  2  5  1 -1</clus>
<clus scale="   61.150">  2  3  1 -1</clus>
<clus scale="  103.585">  2  6  1 -1</clus>
<clus scale="  103.585">  1  3  2 -1</clus>
</clustering>
</event>
<event>
 6    0  0.6549018E+002  0.1290891E+03  0.7546771E-02  0.1228814E+00
         21   -1    0    0  503  501  0.00000000000E+00  0.00000000000E+00  0.86102841886E+03  0.86102841886E+03  0.00000000000E+00 0. -1.
         21   -1    0    0  505  502 -0.00000000000E+00 -0.00000000000E+00 -0.98560957955E+02  0.98560957955E+02  0.00000000000E+00 0.  1.
         21    1    1    2  503  506  0.82377859185E+02  0.36334955560E+02  0.25023351268E+03  0.26593824762E+03  0.00000000000E+00 0. -1.
         21    1    1    2  504  501 -0.41960648418E+02  0.55390311962E+02 -0.14796974360E+02  0.71047400551E+02  0.00000000000E+00 0.  1.
         21    1    1    2  505  504 -0.62128545690E+02  0.11824128390E+02 -0.19299592405E+02  0.66122919390E+02  0.00000000000E+00 0.  1.
         21    1    1    2  506  502  0.21711334922E+02 -0.10354939591E+03  0.54633051499E+03  0.55648080926E+03  0.00000000000E+00 0. -1.
<scales pt_clust_3="90.03522" pt_clust_4="45.76008" pt_clust_5="45.76008" pt_clust_6="119.84667"></scales>
<clustering>
<clus scale="   45.760">  4  5 -1 -1</clus>
<clus scale="   90.035">  1  3  2 -1</clus>
<clus scale="  119.847">  1  6  2 -1</clus>
<clus scale="   90.035">  1  3  2 -1</clus>
</clustering>
</event>
<event>
 6    0  0.2505275E+003  0.1043887E+03  0.7546771E-02  0.1271329E+00
         21   -1    0    0  505  501  0.00000000000E+00  0.00000000000E+00  0.17281545245E+04  0.17281545245E+04  0.00000000000E+00 0. -1.
         21   -1    0    0  503  502 -0.00000000000E+00 -0.00000000000E+00 -0.69071769506E+03  0.69071769506E+03  0.00000000000E+00 0.  1.
         21    1    1    2  503  504  0.82553216897E+02 -0.46915237350E+02 -0.33602211705E+03  0.34918037783E+03  0.00000000000E+00 0.  1.
         21    1    1    2  504  501 -0.39258932126E+02  0.12325771619E+03 -0.31718529792E+03  0.34254961913E+03  0.00000000000E+00 0.  1.
         21    1    1    2  505  506 -0.30108098725E+02 -0.44744313190E+02  0.16920163149E+04  0.16928755894E+04  0.00000000000E+00 0. -1.
         21    1    1    2  506  502 -0.13186186046E+02 -0.31598165652E+02 -0.13720705068E+01  0.34266633223E+02  0.00000000000E+00 0.  1.
<scales pt_clust_3="14000.00000" pt_clust_4="104.38868" pt_clust_5="53.95242" pt_clust_6="34.23915"></scales>
<clustering>
<clus scale="   34.239">  2  6  1 -1</clus>
<clus scale="   53.952">  1  5  2 -1</clus>
<clus scale="  104.389">  1  4  2 -1</clus>
<clus scale="   53.952">  1  3  2 -1</clus>
</clustering>
</event>
<event>
 6    0  0.6549018E+002  0.7535779E+02  0.7546771E-02  0.1342767E+00
         21   -1    0    0  504  501  0.00000000000E+00  0.00000000000E+00  0.13237713242E+04  0.13237713242E+04  0.00000000000E+00 0. -1.
         21   -1    0    0  506  502 -0.00000000000E+00 -0.00000000000E+00 -0.77855901095E+02  0.77855901095E+02  0.00000000000E+00 0.  1.
         21    1    1    2  503  501  0.17037716035E+01 -0.54305310751E+02  0.11183484600E+04  0.11196674718E+04  0.00000000000E+00 0. -1.
         21    1    1    2  504  502 -0.49191899730E+02  0.81710312567E+02  0.54622213557E+00  0.95376708569E+02  0.00000000000E+00 0.  1.
         21    1    1    2  505  503  0.69906389975E+02  0.89850393999E+01  0.12535341853E+03  0.14380929674E+03  0.00000000000E+00 0.  1.
         21    1    1    2  506  505 -0.22418261848E+02 -0.36390041216E+02  0.16673224592E+01  0.42773748119E+02  0.00000000000E+00 0.  1.
<scales pt_clust_3="54.74322" pt_clust_4="75.35779" pt_clust_5="14000.00000" pt_clust_6="42.74124"></scales>
<clustering>
<clus scale="   42.741">  2  6  1 -1</clus>
<clus scale="   54.743">  1  3  2 -1</clus>
<clus scale="   75.358">  2  4  1 -1</clus>
<clus scale="   54.743">  1  3  2 -1</clus>
</clustering>
</event>
<event>
 6    0  0.6549018E+002  0.1784455E+03  0.7546771E-02  0.1169316E+00
         21   -1    0    0  505  501  0.00000000000E+00  0.00000000000E+00  0.73690401892E+03  0.73690401892E+03  0.00000000000E+00 0. -1.
         21   -1    0    0  504  502 -0.00000000000E+00 -0.00000000000E+00 -0.59046817542E+03  0.59046817542E+03  0.00000000000E+00 0. -1.
         21    1    1    2  503  501 -0.15234469418E+03  0.72923134704E+02  0.45377816043E+03  0.48419139635E+03  0.00000000000E+00 0. -1.
         21    1    1    2  504  503  0.10369954633E+02 -0.28801506340E+02 -0.47546555875E+02  0.56548542882E+02  0.00000000000E+00 0.  1.
         21    1    1    2  505  506  0.18991257271E+03 -0.73763117399E+02  0.22213540691E+03  0.30141652537E+03  0.00000000000E+00 0. -1.
         21    1    1    2  506  502 -0.47937833162E+02  0.29641489035E+02 -0.48193116797E+03  0.48521572974E+03  0.00000000000E+00 0. -1.
<scales pt_clust_3="178.44551" pt_clust_4="30.61148" pt_clust_5="14000.00000" pt_clust_6="38.80816"></scales>
<clustering>
<clus scale="   30.611">  2  4  1 -1</clus>
<clus scale="   38.808">  2  6  1 -1</clus>
<clus scale="  178.446">  1  3  2 -1</clus>
<clus scale="  178.446">  1  3  2 -1</clus>
</clustering>
</event>
<event>
 6    0  0.6549018E+002  0.1567068E+03  0.7546771E-02  0.1192466E+00
         21   -1    0    0  504  501  0.00000000000E+00  0.00000000000E+00  0.40870146638E+02  0.40870146638E+02  0.00000000000E+00 0. -1.
         21   -1    0    0  505  502 -0.00000000000E+00 -0.00000000000E+00 -0.25273476002E+04  0.25273476002E+04  0.00000000000E+00 0. -1.
         21    1    1    2  503  502 -0.13181187668E+03  0.16491783049E+02 -0.10719471002E+04  0.10801467194E+04  0.00000000000E+00 0. -1.
         21    1    1    2  504  506 -0.28829569172E+02 -0.17311068829E+02  0.12630168806E+02  0.35921279580E+02  0.00000000000E+00 0. -1.
         21    1    1    2  505  501  0.20662006764E+03  0.16797387491E+02 -0.12912720004E+04  0.13078063250E+04  0.00000000000E+00 0. -1.
         21    1    1    2  506  503 -0.45978621783E+02 -0.15978101711E+02 -0.13588852178E+03  0.14434342295E+03  0.00000000000E+00 0. -1.
<scales pt_clust_3="14000.00000" pt_clust_4="33.62762" pt_clust_5="156.70676" pt_clust_6="57.08780"></scales>
<clustering>
<clus scale="   33.628">  1  4  2 -1</clus>
<clus scale="   57.088">  1  6  2 -1</clus>
<clus scale="  156.707">  1  5  2 -1</clus>
<clus scale="   33.628">  1  3  2 -1</clus>
</clustering>
</event>
<event>
 6    0  0.6549018E+002  0.1148486E+03  0.7546771E-02  0.1251846E+00
         21   -1    0    0  506  501  0.00000000000E+00  0.00000000000E+00  0.66367071170E+03  0.66367071170E+03  0.00000000000E+00 0. -1.
         21   -1    0    0  503  502 -0.00000000000E+00 -0.00000000000E+00 -0.26081415376E+03  0.26081415376E+03  0.00000000000E+00 0. -1.
         21    1    1    2  503  505  0.10821543879E+03  0.23133868115E+02 -0.20436300559E+03  0.23240050581E+03  0.00000000000E+00 0. -1.
         21    1    1    2  504  502  0.60836156356E+01 -0.33371639544E+02 -0.10009598801E+02  0.35367623234E+02  0.00000000000E+00 0. -1.
         21    1    1    2  505  501  0.12714192559E+02 -0.53668944713E+02  0.59424247365E+02  0.81075566565E+02  0.00000000000E+00 0. -1.
         21    1    1    2  506  504 -0.12701324698E+03  0.63906716141E+02  0.55780491497E+03  0.57564116986E+03  0.00000000000E+00 0. -1.
<scales pt_clust_3="114.84859" pt_clust_4="33.92163" pt_clust_5="56.69448" pt_clust_6="14000.00000"></scales>
<clustering>
<clus scale="   33.922">  2  4  1 -1</clus>
<clus scale="   56.694">  1  5  2 -1</clus>
<clus scale="  114.849">  2  3  1 -1</clus>
<clus scale="   56.694">  1  3  2 -1</clus>
</clustering>
</event>
<event>
 6    0  0.6549018E+002  0.1468031E+03  0.7546771E-02  0.1204457E+00
         21   -1    0    0  503  501  0.00000000000E+00  0.00000000000E+00  0.91794636828E+03  0.91794636828E+03  0.00000000000E+00 0. -1.
         21   -1    0    0  504  502 -0.00000000000E+00 -0.00000000000E+00 -0.82523771239E+02  0.82523771239E+02  0.00000000000E+00 0. -1.
         21    1    1    2  503  506  0.33058995346E+01  0.13853161675E+03  0.47378000145E+03  0.49362883585E+03  0.00000000000E+00 0. -1.
         21    1    1    2  504  505  0.46633132791E+02  0.32236044062E+02 -0.26037896035E+02  0.62384161777E+02  0.00000000000E+00 0. -1.
         21    1    1    2  505  501 -0.19069062219E+02 -0.15972896323E+03  0.37714979720E+03  0.41002309735E+03  0.00000000000E+00 0. -1.
         21    1    1    2  506  502 -0.30869970107E+02 -0.11038697583E+02  0.10530694423E+02  0.34434044546E+02  0.00000000000E+00 0. -1.
<scales pt_clust_3="146.80310" pt_clust_4="37.23045" pt_clust_5="14000.00000" pt_clust_6="32.78426"></scales>
<clustering>
<clus scale="   32.784">  2  6  1 -1</clus>
<clus scale="   37.230">  2  4  1 -1</clus>
<clus scale="  146.803">  1  3  2 -1</clus>
<clus scale="  146.803">  1  3  2 -1</clus>
</clustering>
</event>
<event>
 6    0  0.6549018E+002  0.9494835E+02  0.7546771E-02  0.1291292E+00
         21   -1    0    0  503  501  0.00000000000E+00  0.00000000000E+00  0.13818895409E+03  0.13818895409E+03  0.00000000000E+00 0. -1.
         21   -1    0    0  506  502 -0.00000000000E+00 -0.00000000000E+00 -0.57855105610E+03  0.57855105610E+03  0.00000000000E+00 0. -1.
         21    1    1    2  503  504  0.80316608182E+01 -0.32359288714E+02  0.80154106237E+02  0.86811934019E+02  0.00000000000E+00 0. -1.
         21    1    1    2  504  502  0.74993193982E+01 -0.83107977129E+02 -0.46469631650E+01  0.83574935959E+02  0.00000000000E+00 0.  1.
         21    1    1    2  505  501 -0.48767084275E+02  0.23921246317E+02 -0.63243394217E+02  0.83367748237E+02  0.00000000000E+00 0.  1.
         21    1    1    2  506  505  0.33236104059E+02  0.91546019525E+02 -0.45262585087E+03  0.46298539198E+03  0.00000000000E+00 0. -1.
<scales pt_clust_3="33.34113" pt_clust_4="94.94835" pt_clust_5="50.58876" pt_clust_6="14000.00000"></scales>
<clustering>
<clus scale="   33.341">  1  3  2 -1</clus>
<clus scale="   50.589">  1  5  2 -1</clus>
<clus scale="   94.948">  1  4  2 -1</clus>
<clus scale="   33.341">  1  3  2 -1</clus>
</clustering>
</event>
<event>
 6    0  0.6549018E+002  0.9627073E+02  0.7546771E-02  0.1288339E+00
         21   -1    0    0  505  501  0.00000000000E+00  0.00000000000E+00  0.31242097327E+03  0.31242097327E+03  0.00000000000E+00 0.  1.
         21   -1    0    0  503  502 -0.00000000000E+00 -0.00000000000E+00 -0.11474420425E+03  0.11474420425E+03  0.00000000000E+00 0.  1.
         21    1    1    2  503  504 -0.50147990535E+02 -0.30596235296E+02  0.36808611560E+02  0.69324053935E+02  0.00000000000E+00 0.  1.
         21    1    1    2  504  501 -0.15097181393E+02  0.55057162634E+02  0.60826445724E+02  0.83421055752E+02  0.00000000000E+00 0.  1.
         21    1    1    2  505  506  0.72204254331E+02  0.74481463433E+02  0.13410800105E+03  0.16954615503E+03  0.00000000000E+00 0.  1.
         21    1    1    2  506  502 -0.69590824037E+01 -0.98942390771E+02 -0.34066289318E+02  0.10487391281E+03  0.00000000000E+00 0.  1.
<scales pt_clust_3="56.57093" pt_clust_4="57.08954" pt_clust_5="96.27073" pt_clust_6="14000.00000"></scales>
<clustering>
<clus scale="   57.090">  1  4  2 -1</clus>
<clus scale="   56.571">  1  3  2 -1</clus>
<clus scale="   96.271">  1  5  2 -1</clus>
<clus scale="   57.090">  1  3  2 -1</clus>
</clustering>
</event>
<event>
 6    0  0.6549018E+002  0.1642699E+03  0.7546771E-02  0.1183959E+00
         21   -1    0    0  505  501  0.00000000000E+00  0.00000000000E+00  0.17174476771E+04  0.17174476771E+04  0.00000000000E+00 0.  1.
         21   -1    0    0  504  502 -0.00000000000E+00 -0.00000000000E+00 -0.68968988222E+02  0.68968988222E+02  0.00000000000E+00 0. -1.
         21    1    1    2  503  506  0.39030903601E+02 -0.15073911580E+03  0.72180470333E+02  0.17162666683E+03  0.00000000000E+00 0. -1.
         21    1    1    2  504  503 -0.29420673159E+02 -0.15198304952E+02  0.22589510458E+02  0.40085539354E+02  0.00000000000E+00 0.  1.
         21    1    1    2  505  502  0.61953853882E+02  0.17184515900E+03  0.10263566038E+04  0.10424859313E+04  0.00000000000E+00 0.  1.
         21    1    1    2  506  501 -0.71564084323E+02 -0.59077382485E+01  0.52735210426E+03  0.53221852787E+03  0.00000000000E+00 0. -1.
<scales pt_clust_3="14000.00000" pt_clust_4="33.11442" pt_clust_5="164.26993" pt_clust_6="73.04455"></scales>
<clustering>
<clus scale="   33.114">  2  4  1 -1</clus>
<clus scale="   73.045">  1  6  2 -1</clus>
<clus scale="  164.270">  1  5  2 -1</clus>
<clus scale="   73.045">  1  3  2 -1</clus>
</clustering>
</event>
<event>
 6    0  0.6549018E+002  0.6887103E+02  0.7546771E-02  0.1363975E+00
         21   -1    0    0  504  501  0.00000000000E+00  0.00000000000E+00  0.18295890207E+03  0.18295890207E+03  0.00000000000E+00 0. -1.
         21   -1    0    0  505  502 -0.00000000000E+00 -0.00000000000E+00 -0.83083824601E+03  0.83083824601E+03  0.00000000000E+00 0. -1.
         21    1    1    2  503  506  0.75891018469E+02  0.65762469710E+02 -0.38431701355E+03  0.39721998441E+03  0.00000000000E+00 0. -1.
         21    1    1    2  504  502 -0.54304299106E+02 -0.14543842032E+01 -0.22813653179E+03  0.23451513655E+03  0.00000000000E+00 0. -1.
         21    1    1    2  505  503  0.20422152382E+02 -0.49408800740E+02 -0.20234775715E+03  0.20929144446E+03  0.00000000000E+00 0.  1.
         21    1    1    2  506  501 -0.42008871746E+02 -0.14899284767E+02  0.16692195855E+03  0.17277058267E+03  0.00000000000E+00 0. -1.
<scales pt_clust_3="68.87103" pt_clust_4="14000.00000" pt_clust_5="54.15807" pt_clust_6="44.57279"></scales>
<clustering>
<clus scale="   44.573">  1  6  2 -1</clus>
<clus scale="   54.158">  2  5  1 -1</clus>
<clus scale="   68.871">  1  3  2 -1</clus>
<clus scale="   44.573">  1  3  2 -1</clus>
</clustering>
</event>
<event>
 6    0  0.6549018E+002  0.7566427E+02  0.7546771E-02  0.1341826E+00
         21   -1    0    0  504  501  0.00000000000E+00  0.00000000000E+00  0.10506273583E+04  0.10506273583E+04  0.00000000000E+00 0.  1.
         21   -1    0    0  505  502 -0.00000000000E+00 -0.00000000000E+00 -0.58405427298E+03  0.58405427298E+03  0.00000000000E+00 0.  1.
         21    1    1    2  503  502  0.50435364169E+02  0.43441833760E+02 -0.50074683674E+03  0.50515177262E+03  0.00000000000E+00 0.  1.
         21    1    1    2  504  503  0.51147233815E+02 -0.90601427130E+01  0.18268020749E+03  0.18992152043E+03  0.00000000000E+00 0. -1.
         21    1    1    2  505  506 -0.25131553162E+02  0.28015504185E+02 -0.69900784629E+02  0.79388809859E+02  0.00000000000E+00 0.  1.
         21    1    1    2  506  501 -0.76451044822E+02 -0.62397195232E+02  0.85454049922E+03  0.86021952840E+03  0.00000000000E+00 0.  1.
<scales pt_clust_3="75.66427" pt_clust_4="51.73313" pt_clust_5="37.63593" pt_clust_6="14000.00000"></scales>
<clustering>
<clus scale="   37.636">  2  5  1 -1</clus>
<clus scale="   51.733">  1  4  2 -1</clus>
<clus scale="   75.664">  2  3  1 -1</clus>
<clus scale="   51.733">  1  3  2 -1</clus>
</clustering>
</event>
<event>
 6    0  0.6549018E+002  0.1201384E+03  0.7546771E-02  0.1242869E+00
         21   -1    0    0  504  501  0.00000000000E+00  0.00000000000E+00  0.57198912862E+02  0.57198912862E+02  0.00000000000E+00 0. -1.
         21   -1    0    0  505  502 -0.00000000000E+00 -0.00000000000E+00 -0.12441398819E+04  0.12441398819E+04  0.00000000000E+00 0. -1.
         21    1    1    2  503  501  0.30066392159E+02  0.17495393159E+02 -0.14220772358E+01  0.34815212521E+02  0.00000000000E+00 0. -1.
         21    1    1    2  504  502  0.34702111964E+02 -0.31118379987E+02 -0.18410889417E+03  0.18991754806E+03  0.00000000000E+00 0. -1.
         21    1    1    2  505  506  0.41293433468E+02 -0.68632801745E+02 -0.91159509842E+03  0.91510722463E+03  0.00000000000E+00 0. -1.
         21    1    1    2  506  503 -0.10606193759E+03  0.82255788573E+02 -0.89814899180E+02  0.16149880951E+03  0.00000000000E+00 0. -1.
<scales pt_clust_3="34.78616" pt_clust_4="47.43804" pt_clust_5="120.13844" pt_clust_6="14000.00000"></scales>
<clustering>
<clus scale="   34.786">  1  3  2 -1</clus>
<clus scale="   47.438">  2  4  1 -1</clus>
<clus scale="  120.138">  2  5  1 -1</clus>
<clus scale="   34.786">  1  3  2 -1</clus>
</clustering>
</event>
<event>
 6    0  0.6549018E+002  0.1096498E+03  0.7546771E-02  0.1261220E+00
         21   -1    0    0  503  501  0.00000000000E+00  0.00000000000E+00  0.14275861951E+04  0.14275861951E+04  0.00000000000E+00 0. -1.
         21   -1    0    0  504  502 -0.00000000000E+00 -0.00000000000E+00 -0.37319606049E+02  0.37319606049E+02  0.00000000000E+00 0. -1.
         21    1    1    2  503  506  0.46998654024E+02  0.10999586377E+03  0.93571759225E+03  0.94333206029E+03  0.00000000000E+00 0. -1.
         21    1    1    2  504  505 -0.80275382360E+01  0.38393541271E+02  0.30033443289E+02  0.49401549543E+02  0.00000000000E+00 0. -1.
         21    1    1    2  505  501 -0.30133601641E+02 -0.90186871140E+02  0.39506435843E+03  0.40634659218E+03  0.00000000000E+00 0. -1.
         21    1    1    2  506  502 -0.88375141462E+01 -0.58202533903E+02  0.29451195072E+02  0.65825599124E+02  0.00000000000E+00 0. -1.
<scales pt_clust_3="14000.00000" pt_clust_4="39.22379" pt_clust_5="109.64981" pt_clust_6="35.83475"></scales>
<clustering>
<clus scale="   39.224">  2  4  1 -1</clus>
<clus scale="   35.835">  2  6  1 -1</clus>
<clus scale="  109.650">  2  5  1 -1</clus>
<clus scale="  109.650">  1  3  2 -1</clus>
</clustering>
</event>
<event>
 6    0  0.6549018E+002  0.9956022E+02  0.7546771E-02  0.1281223E+00
         21   -1    0    0  502  501  0.00000000000E+00  0.00000000000E+00  0.15964380930E+03  0.15964380930E+03  0.00000000000E+00 0.  1.
         21   -1    0    0  505  502 -0.00000000000E+00 -0.00000000000E+00 -0.30983492682E+03  0.30983492682E+03  0.00000000000E+00 0.  1.
         21    1    1    2  503  506  0.26751067344E+02 -0.72669330160E+02  0.97991802694E+01  0.78054308554E+02  0.00000000000E+00 0.  1.
         21    1    1    2  504  503 -0.72959617129E+02  0.10772836863E+03 -0.17282322764E+03  0.21632469843E+03  0.00000000000E+00 0.  1.
         21    1    1    2  505  504 -0.65211476786E+01 -0.38413690340E+02 -0.68093022728E+02  0.78452512496E+02  0.00000000000E+00 0.  1.
         21    1    1    2  506  501  0.52729697463E+02  0.33546518749E+01  0.80925952582E+02  0.96647216644E+02  0.00000000000E+00 0.  1.
<scales pt_clust_3="99.56022" pt_clust_4="14000.00000" pt_clust_5="38.96328" pt_clust_6="52.55412"></scales>
<clustering>
<clus scale="   38.963">  2  5  1 -1</clus>
<clus scale="   52.554">  1  6  2 -1</clus>
<clus scale="   99.560">  1  3  2 -1</clus>
<clus scale="   52.554">  1  3  2 -1</clus>
</clustering>
</event>
<event>
 6    0  0.6549018E+002  0.1517502E+03  0.7546771E-02  0.1198339E+00
         21   -1    0    0  502  501  0.00000000000E+00  0.00000000000E+00  0.53503580540E+03  0.53503580540E+03  0.00000000000E+00 0.  1.
         21   -1    0    0  506  502 -0.00000000000E+00 -0.00000000000E+00 -0.17035127397E+03  0.17035127397E+03  0.00000000000E+00 0. -1.
         21    1    1    2  503  501 -0.39097489767E+02  0.46187021932E+02  0.90574776475E+02  0.10892954069E+03  0.00000000000E+00 0.  1.
         21    1    1    2  504  505  0.28481664099E+02 -0.80693249389E+02 -0.44476485534E+02  0.96440465844E+02  0.00000000000E+00 0. -1.
         21    1    1    2  505  503  0.12393860420E+02  0.10197048208E+03  0.38908890051E+03  0.40241987959E+03  0.00000000000E+00 0.  1.
         21    1    1    2  506  504 -0.17780347523E+01 -0.67464254624E+02 -0.70502660019E+02  0.97597193245E+02  0.00000000000E+00 0. -1.
<scales pt_clust_3="60.51326" pt_clust_4="37.32714" pt_clust_5="145.81307" pt_clust_6="37.32714"></scales>
<clustering>
<clus scale="   37.327">  4  6 -1 -1</clus>
<clus scale="   60.513">  1  3  2 -1</clus>
<clus scale="  145.813">  1  5  2 -1</clus>
<clus scale="   60.513">  1  3  2 -1</clus>
</clustering>
</event>
<event>
 6    0  0.6549018E+002  0.7028025E+02  0.7546771E-02  0.1359143E+00
         21   -1    0    0  504  501  0.00000000000E+00  0.00000000000E+00  0.56938670372E+03  0.56938670372E+03  0.00000000000E+00 0.  1.
         21   -1    0    0  506  502 -0.00000000000E+00 -0.00000000000E+00 -0.59380890049E+03  0.59380890049E+03  0.00000000000E+00 0.  1.
         21    1    1    2  503  502  0.26987626071E+02 -0.69899848764E+02 -0.46100794189E+03  0.46705743041E+03  0.00000000000E+00 0.  1.
         21    1    1    2  504  503  0.69684306662E+02  0.67987508514E+01  0.45488992249E+03  0.46024663735E+03  0.00000000000E+00 0.  1.
         21    1    1    2  505  501 -0.24555294544E+02  0.40491537553E+02  0.91244772982E+02  0.10280143822E+03  0.00000000000E+00 0.  1.
         21    1    1    2  506  505 -0.72116638189E+02  0.22609560359E+02 -0.10954895035E+03  0.13309009823E+03  0.00000000000E+00 0.  1.
<scales pt_clust_3="70.28025" pt_clust_4="64.99742" pt_clust_5="47.35533" pt_clust_6="14000.00000"></scales>
<clustering>
<clus scale="   47.355">  1  5  2 -1</clus>
<clus scale="   64.997">  1  4  2 -1</clus>
<clus scale="   70.280">  2  3  1 -1</clus>
<clus scale="   47.355">  1  3  2 -1</clus>
</clustering>
</event>
<event>
 6    0  0.6549018E+002  0.8336488E+02  0.7546771E-02  0.1319765E+00
         21   -1    0    0  506  501  0.00000000000E+00  0.00000000000E+00  0.13779702174E+02  0.13779702174E+02  0.00000000000E+00 0. -1.
         21   -1    0    0  505  502 -0.00000000000E+00 -0.00000000000E+00 -0.16515993819E+04  0.16515993819E+04  0.00000000000E+00 0.  1.
         21    1    1    2  503  501 -0.74006109484E+02 -0.30088173584E+02 -0.23318746300E+03  0.24649258677E+03  0.00000000000E+00 0. -1.
         21    1    1    2  504  503  0.13564191433E+02  0.54944978806E+02 -0.40630599946E+03  0.41022859869E+03  0.00000000000E+00 0. -1.
         21    1    1    2  505  504 -0.36181467010E+02 -0.24244642501E+02 -0.42733660226E+03  0.42955031472E+03  0.00000000000E+00 0.  1.
         21    1    1    2  506  502  0.96623385061E+02 -0.61216272165E+00 -0.57098961504E+03  0.57910758393E+03  0.00000000000E+00 0.  1.
<scales pt_clust_3="83.36488" pt_clust_4="46.87616" pt_clust_5="43.55343" pt_clust_6="14000.00000"></scales>
<clustering>
<clus scale="   43.553">  2  5  1 -1</clus>
<clus scale="   46.876">  2  4  1 -1</clus>
<clus scale="   83.365">  1  3  2 -1</clus>
<clus scale="   83.365">  1  3  2 -1</clus>
</clustering>
</event>
<event>
 6    0  0.6549018E+002  0.1295663E+03  0.7546771E-02  0.1228101E+00
         21   -1    0    0  505  501  0.00000000000E+00  0.00000000000E+00  0.29171197501E+03  0.29171197501E+03  0.00000000000E+00 0.  1.
         21   -1    0    0  504  502 -0.00000000000E+00 -0.00000000000E+00 -0.30512371986E+03  0.30512371986E+03  0.00000000000E+00 0. -1.
         21    1    1    2  503  502  0.40145147431E+02  0.13530824820E+02 -0.22199456628E+02  0.47828150259E+02  0.00000000000E+00 0. -1.
         21    1    1    2  504  506  0.93498803402E+02 -0.17844895703E+00 -0.18819453002E+03  0.21014099841E+03  0.00000000000E+00 0. -1.
         21    1    1    2  505  503  0.31940078914E+02 -0.79883986496E+02  0.11195892323E+03  0.14119638958E+03  0.00000000000E+00 0.  1.
         21    1    1    2  506  501 -0.16558402975E+03  0.66531610632E+02  0.85023318565E+02  0.19767015663E+03  0.00000000000E+00 0. -1.
<scales pt_clust_3="42.36409" pt_clust_4="129.56628" pt_clust_5="86.18974" pt_clust_6="14000.00000"></scales>
<clustering>
<clus scale="   42.364">  2  3  1 -1</clus>
<clus scale="   86.190">  1  5  2 -1</clus>
<clus scale="  129.566">  2  4  1 -1</clus>
<clus scale="   86.190">  1  3  2 -1</clus>
</clustering>
</event>
<event>
 6    0  0.6549018E+002  0.2993397E+03  0.7546771E-02  0.1085571E+00
         21   -1    0    0  506  501  0.00000000000E+00  0.00000000000E+00  0.46318487900E+03  0.46318487900E+03  0.00000000000E+00 0. -1.
         21   -1    0    0  504  502 -0.00000000000E+00 -0.00000000000E+00 -0.47933413148E+03  0.47933413148E+03  0.00000000000E+00 0.  1.
         21    1    1    2  503  501  0.14157917011E+03  0.13342382771E+03  0.20208588408E+03  0.28050897268E+03  0.00000000000E+00 0. -1.
         21    1    1    2  504  503 -0.13264523250E+03  0.21657450270E+03 -0.12118615147E+03  0.28139892721E+03  0.00000000000E+00 0. -1.
         21    1    1    2  505  502 -0.16312102055E+02 -0.12863405443E+03 -0.92142971706E+02  0.15906958184E+03  0.00000000000E+00 0.  1.
         21    1    1    2  506  505  0.73781644427E+01 -0.22136427599E+03 -0.49060133869E+01  0.22154152875E+03  0.00000000000E+00 0.  1.
<scales pt_clust_3="194.54197" pt_clust_4="277.01370" pt_clust_5="86.79318" pt_clust_6="86.79318"></scales>
<clustering>
<clus scale="   86.793">  5  6 -1 -1</clus>
<clus scale="  194.542">  1  3  2 -1</clus>
<clus scale="  277.014">  2  4  1 -1</clus>
<clus scale="  194.542">  1  3  2 -1</clus>
</clustering>
</event>
<event>
 6    0  0.6549018E+002  0.1321527E+03  0.7546771E-02  0.1224296E+00
         21   -1    0    0  503  501  0.00000000000E+00  0.00000000000E+00  0.21595339776E+03  0.21595339776E+03  0.00000000000E+00 0.  1.
         21   -1    0    0  504  502 -0.00000000000E+00 -0.00000000000E+00 -0.66679600083E+03  0.66679600083E+03  0.00000000000E+00 0.  1.
         21    1    1    2  503  502 -0.31968376032E+02  0.57980210451E+02  0.11279361526E+03  0.13079021949E+03  0.00000000000E+00 0.  1.
         21    1    1    2  504  506  0.40263703080E+02  0.33868126179E+01 -0.26485534101E+02  0.48312729193E+02  0.00000000000E+00 0.  1.
         21    1    1    2  505  501 -0.10969503735E+03 -0.54932564109E+02  0.30955545068E+02  0.12652601942E+03  0.00000000000E+00 0.  1.
         21    1    1    2  506  505  0.10139971031E+03 -0.64344589608E+01 -0.56810622930E+03  0.57712043048E+03  0.00000000000E+00 0.  1.
<scales pt_clust_3="65.97595" pt_clust_4="40.40589" pt_clust_5="132.15272" pt_clust_6="14000.00000"></scales>
<clustering>
<clus scale="   40.406">  2  4  1 -1</clus>
<clus scale="   65.976">  1  3  2 -1</clus>
<clus scale="  132.153">  1  5  2 -1</clus>
<clus scale="   65.976">  1  3  2 -1</clus>
</clustering>
</event>
<event>
 6    0  0.6549018E+002  0.7922490E+02  0.7546771E-02  0.1331266E+00
         21   -1    0    0  505  501  0.00000000000E+00  0.00000000000E+00  0.71581280009E+02  0.71581280009E+02  0.00000000000E+00 0. -1.
         21   -1    0    0  504  502 -0.00000000000E+00 -0.00000000000E+00 -0.10594130461E+04  0.10594130461E+04  0.00000000000E+00 0. -1.
         21    1    1    2  503  501  0.51692396743E+02 -0.57008593809E+02  0.34637158108E+02  0.84390854783E+02  0.00000000000E+00 0. -1.
         21    1    1    2  504  506  0.13222672475E+02 -0.32028775187E+02 -0.12832173166E+03  0.13291782545E+03  0.00000000000E+00 0. -1.
         21    1    1    2  505  502 -0.10958528126E+03  0.92125521227E+02 -0.67988741928E+03  0.69479705557E+03  0.00000000000E+00 0. -1.
         21    1    1    2  506  503  0.44670212044E+02 -0.30881522311E+01 -0.21425977325E+03  0.21888859029E+03  0.00000000000E+00 0. -1.
<scales pt_clust_3="14000.00000" pt_clust_4="34.65085" pt_clust_5="79.22490" pt_clust_6="48.90637"></scales>
<clustering>
<clus scale="   34.651">  2  4  1 -1</clus>
<clus scale="   48.906">  2  6  1 -1</clus>
<clus scale="   79.225">  2  5  1 -1</clus>
<clus scale="   79.225">  1  3  2 -1</clus>
</clustering>
</event>
<event>
 6    0  0.6549018E+002  0.9206873E+02  0.7546771E-02  0.1297918E+00
         21   -1    0    0  505  501  0.00000000000E+00  0.00000000000E+00  0.24099248618E+03  0.24099248618E+03  0.00000000000E+00 0. -1.
         21   -1    0    0  506  502 -0.00000000000E+00 -0.00000000000E+00 -0.14536345224E+04  0.14536345224E+04  0.00000000000E+00 0. -1.
         21    1    1    2  503  502 -0.17466809045E+02 -0.33205161054E+02 -0.23182100084E+03  0.23483749396E+03  0.00000000000E+00 0.  1.
         21    1    1    2  504  501  0.66569243974E+02  0.76852330576E+02  0.19917440523E+03  0.22362510740E+03  0.00000000000E+00 0. -1.
         21    1    1    2  505  503 -0.78280431147E+02  0.16696701721E+02 -0.31979440058E+02  0.86193331153E+02  0.00000000000E+00 0.  1.
         21    1    1    2  506  504  0.29177996218E+02 -0.60343871243E+02 -0.11480160006E+04  0.11499710761E+04  0.00000000000E+00 0. -1.
<scales pt_clust_3="37.51896" pt_clust_4="92.06873" pt_clust_5="80.55200" pt_clust_6="14000.00000"></scales>
<clustering>
<clus scale="   37.519">  2  3  1 -1</clus>
<clus scale="   80.552">  1  5  2 -1</clus>
<clus scale="   92.069">  1  4  2 -1</clus>
<clus scale="   80.552">  1  3  2 -1</clus>
</clustering>
</event>
<event>
 6    0  0.6549018E+002  0.1077067E+03  0.7546771E-02  0.1264877E+00
         21   -1    0    0  503  501  0.00000000000E+00  0.00000000000E+00  0.24943658927E+03  0.24943658927E+03  0.00000000000E+00 0. -1.
         21   -1    0    0  505  502 -0.00000000000E+00 -0.00000000000E+00 -0.94387389062E+03  0.94387389062E+03  0.00000000000E+00 0. -1.
         21    1    1    2  503  504  0.36268142217E+02  0.16109102732E+02  0.17079454511E+03  0.17534439817E+03  0.00000000000E+00 0. -1.
         21    1    1    2  504  506 -0.16236845508E+02  0.66672454776E+02 -0.67615240983E+01  0.68953387053E+02  0.00000000000E+00 0.  1.
         21    1    1    2  505  501 -0.18226836376E+02  0.29571433721E+02  0.34524571967E+02  0.48975844312E+02  0.00000000000E+00 0.  1.
         21    1    1    2  506  502 -0.18044603329E+01 -0.11235299123E+03 -0.89299489433E+03  0.90003685036E+03  0.00000000000E+00 0. -1.
<scales pt_clust_3="45.88062" pt_clust_4="107.70671" pt_clust_5="34.73740" pt_clust_6="14000.00000"></scales>
<clustering>
<clus scale="   34.737">  1  5  2 -1</clus>
<clus scale="   45.881">  1  3  2 -1</clus>
<clus scale="  107.707">  1  4  2 -1</clus>
<clus scale="   34.737">  1  3  2 -1</clus>
</clustering>
</event>
<event>
 6    0  0.6549018E+002  0.9751343E+02  0.7546771E-02  0.1285613E+00
         21   -1    0    0  503  501  0.00000000000E+00  0.00000000000E+00  0.24056545485E+03  0.24056545485E+03  0.00000000000E+00 0.  1.
         21   -1    0    0  504  502 -0.00000000000E+00 -0.00000000000E+00 -0.10804678642E+04  0.10804678642E+04  0.00000000000E+00 0.  1.
         21    1    1    2  503  502  0.15362623636E+02 -0.42226366103E+02 -0.13532047315E+03  0.14258578700E+03  0.00000000000E+00 0. -1.
         21    1    1    2  504  506 -0.52483275990E+02  0.80509674308E+02 -0.86342758983E+03  0.86875975091E+03  0.00000000000E+00 0.  1.
         21    1    1    2  505  501 -0.40525039313E+02 -0.92012818867E+02  0.18600261127E+03  0.21143700964E+03  0.00000000000E+00 0.  1.
         21    1    1    2  506  505  0.77645691667E+02  0.53729510662E+02 -0.27156957606E+02  0.98250771482E+02  0.00000000000E+00 0.  1.
<scales pt_clust_3="44.93413" pt_clust_4="56.62922" pt_clust_5="14000.00000" pt_clust_6="97.51343"></scales>
<clustering>
<clus scale="   44.934">  2  3  1 -1</clus>
<clus scale="   56.629">  2  4  1 -1</clus>
<clus scale="   97.513">  2  6  1 -1</clus>
<clus scale="   97.513">  1  3  2 -1</clus>
</clustering>
</event>
<event>
 6    0  0.6549018E+002  0.1311214E+03  0.7546771E-02  0.1225801E+00
         21   -1    0    0  506  501  0.00000000000E+00  0.00000000000E+00  0.24724642942E+03  0.24724642942E+03  0.00000000000E+00 0.  1.
         21   -1    0    0  505  502 -0.00000000000E+00 -0.00000000000E+00 -0.91123130406E+03  0.91123130406E+03  0.00000000000E+00 0. -1.
         21    1    1    2  503  504 -0.50320714054E+02 -0.86785125928E+02 -0.52263857763E+03  0.53217940131E+03  0.00000000000E+00 0. -1.
         21    1    1    2  504  502 -0.53203240579E+02  0.38982608765E+00 -0.34812903215E+03  0.35217120808E+03  0.00000000000E+00 0. -1.
         21    1    1    2  505  501  0.95370091702E+01  0.32225334133E+02 -0.70618546227E+01  0.34340886631E+02  0.00000000000E+00 0.  1.
         21    1    1    2  506  503  0.93986945463E+02  0.54169965708E+02  0.21384458977E+03  0.23978623746E+03  0.00000000000E+00 0.  1.
<scales pt_clust_3="131.12142" pt_clust_4="53.12494" pt_clust_5="33.60694" pt_clust_6="14000.00000"></scales>
<clustering>
<clus scale="   33.607">  1  5  2 -1</clus>
<clus scale="   53.125">  2  4  1 -1</clus>
<clus scale="  131.121">  2  3  1 -1</clus>
<clus scale="   33.607">  1  3  2 -1</clus>
</clustering>
</event>
<event>
 6    0  0.6549018E+002  0.1483434E+03  0.7546771E-02  0.1202523E+00
         21   -1    0    0  502  501  0.00000000000E+00  0.00000000000E+00  0.37410338586E+03  0.37410338586E+03  0.00000000000E+00 0. -1.
         21   -1    0    0  503  502 -0.00000000000E+00 -0.00000000000E+00 -0.11509588268E+03  0.11509588268E+03  0.00000000000E+00 0.  1.
         21    1    1    2  503  505 -0.13370836943E+02 -0.66641928788E+02 -0.26513987758E+02  0.72958327146E+02  0.00000000000E+00 0.  1.
         21    1    1    2  504  501 -0.46916282257E+02  0.15757482256E+02  0.11980498060E+03  0.12962511008E+03  0.00000000000E+00 0.  1.
         21    1    1    2  505  506  0.10666034457E+01 -0.77418705951E+02  0.12928174477E+02  0.78497970479E+02  0.00000000000E+00 0. -1.
         21    1    1    2  506  504  0.59220515754E+02  0.12830315248E+03  0.15278833586E+03  0.20811786083E+03  0.00000000000E+00 0. -1.
<scales pt_clust_3="40.29500" pt_clust_4="49.49177" pt_clust_5="40.29500" pt_clust_6="141.97252"></scales>
<clustering>
<clus scale="   40.295">  3  5 -1 -1</clus>
<clus scale="   49.492">  1  4  2 -1</clus>
<clus scale="  141.973">  1  6  2 -1</clus>
<clus scale="   49.492">  1  3  2 -1</clus>
</clustering>
</event>
<event>
 6    0  0.6549018E+002  0.2633444E+03  0.7546771E-02  0.1105150E+00
         21   -1    0    0  505  501  0.00000000000E+00  0.00000000000E+00  0.19204334512E+04  0.19204334512E+04  0.00000000000E+00 0.  1.
         21   -1    0    0  504  502 -0.00000000000E+00 -0.00000000000E+00 -0.46437540666E+02  0.46437540666E+02  0.00000000000E+00 0. -1.
         21    1    1    2  503  502 -0.16685664373E+03  0.11888633979E+03  0.39373800450E+03  0.44385213476E+03  0.00000000000E+00 0. -1.
         21    1    1    2  504  501 -0.21856789145E+02  0.23149802221E+02  0.18075991017E+03  0.18354230493E+03  0.00000000000E+00 0. -1.
         21    1    1    2  505  506  0.23614412594E+03 -0.13427701846E+03  0.11757358137E+04  0.12067100188E+04  0.00000000000E+00 0.  1.
         21    1    1    2  506  503 -0.47430693071E+02 -0.77591235508E+01  0.12376218213E+03  0.13276653331E+03  0.00000000000E+00 0. -1.
<scales pt_clust_3="38.62962" pt_clust_4="31.83760" pt_clust_5="250.87039" pt_clust_6="38.62962"></scales>
<clustering>
<clus scale="   31.838">  1  4  2 -1</clus>
<clus scale="   38.630">  3  6 -1 -1</clus>
<clus scale="  250.870">  1  5  2 -1</clus>
<clus scale="   31.838">  1  3  2 -1</clus>
</clustering>
</event>
<event>
 6    0  0.6549018E+002  0.9019219E+02  0.7546771E-02  0.1302387E+00
         21   -1    0    0  505  501  0.00000000000E+00  0.00000000000E+00  0.29629007096E+03  0.29629007096E+03  0.00000000000E+00 0. -1.
         21   -1    0    0  504  502 -0.00000000000E+00 -0.00000000000E+00 -0.67412197380E+03  0.67412197380E+03  0.00000000000E+00 0. -1.
         21    1    1    2  503  501 -0.29500733684E+02 -0.12014072807E+02  0.24291653693E+03  0.24499607169E+03  0.00000000000E+00 0. -1.
         21    1    1    2  504  503 -0.19728888932E+02  0.12077762340E+03 -0.49105403294E+02  0.13186282268E+03  0.00000000000E+00 0. -1.
         21    1    1    2  505  506  0.16424208043E+02 -0.27439363738E+02 -0.26875285903E+02  0.41772649958E+02  0.00000000000E+00 0. -1.
         21    1    1    2  506  502  0.32805414572E+02 -0.81324186855E+02 -0.54476775057E+03  0.55178050042E+03  0.00000000000E+00 0. -1.
<scales pt_clust_3="31.85328" pt_clust_4="14000.00000" pt_clust_5="31.60922" pt_clust_6="90.19219"></scales>
<clustering>
<clus scale="   31.853">  1  3  2 -1</clus>
<clus scale="   31.609">  1  5  2 -1</clus>
<clus scale="   90.192">  2  6  1 -1</clus>
<clus scale="   31.853">  1  3  2 -1</clus>
</clustering>
</event>
<event>
 6    0  0.6549018E+002  0.1529547E+03  0.7546771E-02  0.1196889E+00
         21   -1    0    0  503  501  0.00000000000E+00  0.00000000000E+00  0.18755979049E+03  0.18755979049E+03  0.00000000000E+00 0. -1.
         21   -1    0    0  506  502 -0.00000000000E+00 -0.00000000000E+00 -0.35059796378E+03  0.35059796378E+03  0.00000000000E+00 0. -1.
         21    1    1    2  503  504 -0.42667743089E+01  0.52189942309E+02  0.37949705443E+02  0.64669742418E+02  0.00000000000E+00 0. -1.
         21    1    1    2  504  505  0.68726388273E+02  0.57970445735E+02 -0.14162654416E+03  0.16775567661E+03  0.00000000000E+00 0. -1.
         21    1    1    2  505  502  0.66208250493E+01  0.56533144316E+02 -0.10448504304E+03  0.11898300698E+03  0.00000000000E+00 0. -1.
         21    1    1    2  506  501 -0.71080439013E+02 -0.16669353236E+03  0.45123708476E+02  0.18674932827E+03  0.00000000000E+00 0. -1.
<scales pt_clust_3="52.36407" pt_clust_4="42.55002" pt_clust_5="42.55002" pt_clust_6="143.30132"></scales>
<clustering>
<clus scale="   42.550">  4  5 -1 -1</clus>
<clus scale="   52.364">  1  3  2 -1</clus>
<clus scale="  143.301">  1  6  2 -1</clus>
<clus scale="   52.364">  1  3  2 -1</clus>
</clustering>
</event>
<event>
 6    0  0.6549018E+002  0.2162982E+03  0.7546771E-02  0.1136673E+00
         21   -1    0    0  506  501  0.00000000000E+00  0.00000000000E+00  0.44506056776E+03  0.44506056776E+03  0.00000000000E+00 0.  1.
         21   -1    0    0  503  502 -0.00000000000E+00 -0.00000000000E+00 -0.14333650581E+03  0.14333650581E+03  0.00000000000E+00 0.  1.
         21    1    1    2  503  505  0.61301022729E+02  0.58686918027E+00 -0.98220246987E+01  0.62085682506E+02  0.00000000000E+00 0. -1.
         21    1    1    2  504  502 -0.20515433018E+03 -0.71381155498E+01  0.17758275575E+03  0.27143118285E+03  0.00000000000E+00 0.  1.
         21    1    1    2  505  501  0.12962720945E+03 -0.64186883888E+02  0.87280701846E+02  0.16894108561E+03  0.00000000000E+00 0.  1.
         21    1    1    2  506  504  0.14226098003E+02  0.70738130258E+02  0.46682629061E+02  0.85939122597E+02  0.00000000000E+00 0.  1.
<scales pt_clust_3="53.97869" pt_clust_4="199.77473" pt_clust_5="53.97869" pt_clust_6="72.15445"></scales>
<clustering>
<clus scale="   53.979">  3  5 -1 -1</clus>
<clus scale="   72.154">  1  6  2 -1</clus>
<clus scale="  199.775">  1  4  2 -1</clus>
<clus scale="   72.154">  1  3  2 -1</clus>
</clustering>
</event>
<event>
 6    0  0.6549018E+002  0.1573017E+03  0.7546771E-02  0.1191777E+00
         21   -1    0    0  506  501  0.00000000000E+00  0.00000000000E+00  0.36515477810E+03  0.36515477810E+03  0.00000000000E+00 0. -1.
         21   -1    0    0  501  502 -0.00000000000E+00 -0.00000000000E+00 -0.27310191927E+03  0.27310191927E+03  0.00000000000E+00 0. -1.
         21    1    1    2  503  505 -0.39781656507E+02 -0.13010795527E+03  0.26303171299E+02  0.13857314689E+03  0.00000000000E+00 0. -1.
         21    1    1    2  504  502 -0.13269180067E+02  0.38510644498E+02 -0.71889731747E+02  0.82627322418E+02  0.00000000000E+00 0.  1.
         21    1    1    2  505  504 -0.11595055222E+03  0.41324547522E+01 -0.69922647467E+02  0.13546506697E+03  0.00000000000E+00 0. -1.
         21    1    1    2  506  503  0.16900138879E+03  0.87464856023E+02  0.20756206674E+03  0.28159116109E+03  0.00000000000E+00 0. -1.
<scales pt_clust_3="157.30166" pt_clust_4="40.73255" pt_clust_5="125.29268" pt_clust_6="14000.00000"></scales>
<clustering>
<clus scale="   40.733">  2  4  1 -1</clus>
<clus scale="  125.293">  2  5  1 -1</clus>
<clus scale="  157.302">  2  3  1 -1</clus>
<clus scale="  157.302">  1  3  2 -1</clus>
</clustering>
</event>
<event>
 6    0  0.6549018E+002  0.1130895E+03  0.7546771E-02  0.1254953E+00
         21   -1    0    0  505  501  0.00000000000E+00  0.00000000000E+00  0.53813951020E+03  0.53813951020E+03  0.00000000000E+00 0. -1.
         21   -1    0    0  504  502 -0.00000000000E+00 -0.00000000000E+00 -0.45557899193E+03  0.45557899193E+03  0.00000000000E+00 0. -1.
         21    1    1    2  503  501 -0.42802871332E+01  0.77765700959E+02 -0.10200048489E+03  0.12833520180E+03  0.00000000000E+00 0. -1.
         21    1    1    2  504  503 -0.73308833572E+01  0.56119158642E+02 -0.20469131293E+03  0.21237145619E+03  0.00000000000E+00 0. -1.
         21    1    1    2  505  506 -0.47295745027E+02 -0.80935732493E+02  0.50451941094E+03  0.51315428119E+03  0.00000000000E+00 0. -1.
         21    1    1    2  506  502  0.58906915517E+02 -0.52949127108E+02 -0.11526709485E+03  0.13985756294E+03  0.00000000000E+00 0.  1.
<scales pt_clust_3="53.65167" pt_clust_4="53.65167" pt_clust_5="93.95764" pt_clust_6="79.20628"></scales>
<clustering>
<clus scale="   53.652">  3  4 -1 -1</clus>
<clus scale="   79.206">  2  6  1 -1</clus>
<clus scale="   93.958">  1  5  2 -1</clus>
<clus scale="   93.958">  1  3  2 -1</clus>
</clustering>
</event>
<event>
 6    0  0.6549018E+002  0.6725032E+02  0.7546771E-02  0.1369701E+00
         21   -1    0    0  503  501  0.00000000000E+00  0.00000000000E+00  0.60832997549E+02  0.60832997549E+02  0.00000000000E+00 0. -1.
         21   -1    0    0  504  502 -0.00000000000E+00 -0.00000000000E+00 -0.19316326093E+04  0.19316326093E+04  0.00000000000E+00 0.  1.
         21    1    1    2  503  505  0.28146751474E+02 -0.77086730002E+02 -0.16040120235E+03  0.18017532927E+03  0.00000000000E+00 0.  1.
         21    1    1    2  504  506 -0.38927419015E+02  0.17886505958E+02 -0.96368553311E+03  0.96463727783E+03  0.00000000000E+00 0.  1.
         21    1    1    2  505  502  0.61653066024E+02  0.16315969554E+02 -0.77335565036E+03  0.77598084599E+03  0.00000000000E+00 0.  1.
         21    1    1    2  506  501 -0.50872398484E+02  0.42884254489E+02  0.26642774088E+02  0.71672153740E+02  0.00000000000E+00 0. -1.
<scales pt_clust_3="67.25032" pt_clust_4="42.84006" pt_clust_5="43.21940" pt_clust_6="14000.00000"></scales>
<clustering>
<clus scale="   42.840">  2  4  1 -1</clus>
<clus scale="   43.219">  2  5  1 -1</clus>
<clus scale="   67.250">  2  3  1 -1</clus>
<clus scale="   67.250">  1  3  2 -1</clus>
</clustering>
</event>
<event>
 6    0  0.1187270E+003  0.6921351E+02  0.7546771E-02  0.1362788E+00
         21   -1    0    0  505  501  0.00000000000E+00  0.00000000000E+00  0.10792245683E+04  0.10792245683E+04  0.00000000000E+00 0.  1.
         21   -1    0    0  506  502 -0.00000000000E+00 -0.00000000000E+00 -0.20679167708E+03  0.20679167708E+03  0.00000000000E+00 0. -1.
         21    1    1    2  503  504 -0.22768504231E+02  0.69064885380E+02  0.60605169317E+01  0.72973235114E+02  0.00000000000E+00 0.  1.
         21    1    1    2  504  501  0.21380015228E+02  0.21218417701E+02  0.30009720674E+02  0.42519520645E+02  0.00000000000E+00 0.  1.
         21    1    1    2  505  502 -0.64611966556E+02 -0.60235603383E+02  0.99352121950E+03  0.99744044821E+03  0.00000000000E+00 0.  1.
         21    1    1    2  506  503  0.66000455558E+02 -0.30047699699E+02 -0.15715856589E+03  0.17308304141E+03  0.00000000000E+00 0. -1.
<scales pt_clust_3="69.21351" pt_clust_4="30.12186" pt_clust_5="59.60498" pt_clust_6="14000.00000"></scales>
<clustering>
<clus scale="   30.122">  1  4  2 -1</clus>
<clus scale="   59.605">  1  5  2 -1</clus>
<clus scale="   69.214">  1  3  2 -1</clus>
<clus scale="   30.122">  1  3  2 -1</clus>
</clustering>
</event>
<event>
 6    0  0.6549018E+002  0.1564621E+03  0.7546771E-02  0.1192750E+00
         21   -1    0    0  505  501  0.00000000000E+00  0.00000000000E+00  0.55704882325E+03  0.55704882325E+03  0.00000000000E+00 0.  1.
         21   -1    0    0  504  502 -0.00000000000E+00 -0.00000000000E+00 -0.44011115689E+03  0.44011115689E+03  0.00000000000E+00 0.  1.
         21    1    1    2  503  502  0.15872672319E+02 -0.37051552535E+02 -0.54101495332E+01  0.40669755222E+02  0.00000000000E+00 0.  1.
         21    1    1    2  504  501  0.11274515708E+03  0.12965783750E+03 -0.38399937640E+03  0.42068770643E+03  0.00000000000E+00 0.  1.
         21    1    1    2  505  506 -0.15693063060E+02 -0.36598366705E+02  0.60108378690E+02  0.72102218152E+02  0.00000000000E+00 0.  1.
         21    1    1    2  506  503 -0.11292476634E+03 -0.56007918256E+02  0.44623881361E+03  0.46370030033E+03  0.00000000000E+00 0.  1.
<scales pt_clust_3="41.30744" pt_clust_4="156.46213" pt_clust_5="39.82101" pt_clust_6="14000.00000"></scales>
<clustering>
<clus scale="   39.821">  1  5  2 -1</clus>
<clus scale="   41.307">  2  3  1 -1</clus>
<clus scale="  156.462">  2  4  1 -1</clus>
<clus scale="   39.821">  1  3  2 -1</clus>
</clustering>
</event>
<event>
 6    0  0.6549018E+002  0.2625745E+03  0.7546771E-02  0.1105606E+00
         21   -1    0    0  505  501  0.00000000000E+00  0.00000000000E+00  0.28379732507E+03  0.28379732507E+03  0.00000000000E+00 0. -1.
         21   -1    0    0  506  502 -0.00000000000E+00 -0.00000000000E+00 -0.49980342800E+03  0.49980342800E+03  0.00000000000E+00 0. -1.
         21    1    1    2  503  504 -0.91233488238E+02 -0.30876914274E+02 -0.52691613253E+02  0.10978770113E+03  0.00000000000E+00 0. -1.
         21    1    1    2  504  501 -0.97635720285E+02 -0.60400108662E+02 -0.44390827278E+01  0.11489391828E+03  0.00000000000E+00 0.  1.
         21    1    1    2  505  502  0.34326636825E+03 -0.12775563585E+02 -0.62059494028E+02  0.34906503032E+03  0.00000000000E+00 0. -1.
         21    1    1    2  506  503 -0.15439715972E+03  0.10405258652E+03 -0.96815912924E+02  0.20985410334E+03  0.00000000000E+00 0. -1.
<scales pt_clust_3="51.93313" pt_clust_4="51.93313" pt_clust_5="256.37960" pt_clust_6="186.18653"></scales>
<clustering>
<clus scale="   51.933">  3  4 -1 -1</clus>
<clus scale="  186.187">  2  6  1 -1</clus>
<clus scale="  256.380">  2  5  1 -1</clus>
<clus scale="  262.574">  1  3  2 -1</clus>
</clustering>
</event>
<event>
 6    0  0.6549018E+002  0.2310536E+03  0.7546771E-02  0.1125900E+00
         21   -1    0    0  504  501  0.00000000000E+00  0.00000000000E+00  0.13314137159E+03  0.13314137159E+03  0.00000000000E+00 0. -1.
         21   -1    0    0  503  502 -0.00000000000E+00 -0.00000000000E+00 -0.10236570658E+04  0.10236570658E+04  0.00000000000E+00 0. -1.
         21    1    1    2  503  501  0.44599526540E+02  0.19260630789E+03 -0.17541038657E+03  0.26430117540E+03  0.00000000000E+00 0. -1.
         21    1    1    2  504  506 -0.82656116350E+02  0.49705280340E+02  0.34668349675E+02  0.10249167251E+03  0.00000000000E+00 0. -1.
         21    1    1    2  505  502  0.36715414039E+02 -0.10497286620E+03 -0.35611059781E+03  0.37307114890E+03  0.00000000000E+00 0. -1.
         21    1    1    2  506  505  0.13411757714E+01 -0.13733872202E+03 -0.39366305951E+03  0.41693444058E+03  0.00000000000E+00 0. -1.
<scales pt_clust_3="227.15786" pt_clust_4="96.45024" pt_clust_5="38.01819" pt_clust_6="38.01819"></scales>
<clustering>
<clus scale="   38.018">  5  6 -1 -1</clus>
<clus scale="   96.450">  1  4  2 -1</clus>
<clus scale="  227.158">  1  3  2 -1</clus>
<clus scale="   96.450">  1  3  2 -1</clus>
</clustering>
</event>
<event>
 6    0  0.6549018E+002  0.2856735E+03  0.7546771E-02  0.1092630E+00
         21   -1    0    0  502  501  0.00000000000E+00  0.00000000000E+00  0.62236471772E+03  0.62236471772E+03  0.00000000000E+00 0.  1.
         21   -1    0    0  504  502 -0.00000000000E+00 -0.00000000000E+00 -0.32566773076E+03  0.32566773076E+03  0.00000000000E+00 0.  1.
         21    1    1    2  503  506  0.28236927794E+03  0.11627495594E+02  0.42897524678E+03  0.51369968866E+03  0.00000000000E+00 0.  1.
         21    1    1    2  504  505 -0.10591825714E+03  0.51304137290E+02 -0.77886613046E+02  0.14112801348E+03  0.00000000000E+00 0.  1.
         21    1    1    2  505  503 -0.16528454850E+03 -0.22628743353E+02 -0.12682804135E+03  0.20956238706E+03  0.00000000000E+00 0.  1.
         21    1    1    2  506  501 -0.11166472296E+02 -0.40302889531E+02  0.72436394564E+02  0.83642359277E+02  0.00000000000E+00 0.  1.
<scales pt_clust_3="273.69124" pt_clust_4="68.37985" pt_clust_5="68.37985" pt_clust_6="41.82120"></scales>
<clustering>
<clus scale="   41.821">  1  6  2 -1</clus>
<clus scale="   68.380">  4  5 -1 -1</clus>
<clus scale="  273.691">  1  3  2 -1</clus>
<clus scale="   41.821">  1  3  2 -1</clus>
</clustering>
</event>
<event>
 6    0  0.6549018E+002  0.1255261E+03  0.7546771E-02  0.1234249E+00
         21   -1    0    0  505  501  0.00000000000E+00  0.00000000000E+00  0.29883511809E+03  0.29883511809E+03  0.00000000000E+00 0.  1.
         21   -1    0    0  506  502 -0.00000000000E+00 -0.00000000000E+00 -0.77919558610E+03  0.77919558610E+03  0.00000000000E+00 0. -1.
         21    1    1    2  503  504  0.68240419900E+02 -0.62606031388E+02  0.30590662906E+02  0.97529783817E+02  0.00000000000E+00 0.  1.
         21    1    1    2  504  502 -0.16534645701E+03  0.27064894665E+02 -0.68740399477E+03  0.70752824070E+03  0.00000000000E+00 0. -1.
         21    1    1    2  505  503  0.65141399441E+02  0.51906879879E+02  0.20870054309E+03  0.22470790548E+03  0.00000000000E+00 0.  1.
         21    1    1    2  506  501  0.31964637671E+02 -0.16365743156E+02 -0.32247679242E+02  0.48264774184E+02  0.00000000000E+00 0.  1.
<scales pt_clust_3="14000.00000" pt_clust_4="125.52609" pt_clust_5="83.45407" pt_clust_6="35.91066"></scales>
<clustering>
<clus scale="   35.911">  2  6  1 -1</clus>
<clus scale="   83.454">  1  5  2 -1</clus>
<clus scale="  125.526">  2  4  1 -1</clus>
<clus scale="   83.454">  1  3  2 -1</clus>
</clustering>
</event>
<event>
 6    0  0.6549018E+002  0.1154311E+03  0.7546771E-02  0.1250830E+00
         21   -1    0    0  506  501  0.00000000000E+00  0.00000000000E+00  0.20416810221E+03  0.20416810221E+03  0.00000000000E+00 0. -1.
         21   -1    0    0  504  502 -0.00000000000E+00 -0.00000000000E+00 -0.14980649965E+03  0.14980649965E+03  0.00000000000E+00 0.  1.
         21    1    1    2  503  501 -0.26108456454E+02 -0.24554244333E+02  0.94435540231E+02  0.10100808716E+03  0.00000000000E+00 0. -1.
         21    1    1    2  504  505 -0.31504949018E+02 -0.11505371064E+02 -0.46311874589E+02  0.57181510157E+02  0.00000000000E+00 0. -1.
         21    1    1    2  505  503 -0.61752180782E+02 -0.14705777720E+02 -0.12583767860E+02  0.64714317915E+02  0.00000000000E+00 0. -1.
         21    1    1    2  506  502  0.11936558625E+03  0.50765393117E+02  0.18821704778E+02  0.13107068662E+03  0.00000000000E+00 0.  1.
<scales pt_clust_3="35.84079" pt_clust_4="32.55591" pt_clust_5="32.55591" pt_clust_6="106.38775"></scales>
<clustering>
<clus scale="   32.556">  4  5 -1 -1</clus>
<clus scale="   35.841">  1  3  2 -1</clus>
<clus scale="  106.388">  1  6  2 -1</clus>
<clus scale="   35.841">  1  3  2 -1</clus>
</clustering>
</event>
<event>
 6    0  0.6549018E+002  0.8710372E+02  0.7546771E-02  0.1310021E+00
         21   -1    0    0  504  501  0.00000000000E+00  0.00000000000E+00  0.21363529338E+04  0.21363529338E+04  0.00000000000E+00 0.  1.
         21   -1    0    0  503  502 -0.00000000000E+00 -0.00000000000E+00 -0.39478023017E+03  0.39478023017E+03  0.00000000000E+00 0.  1.
         21    1    1    2  503  505 -0.24503660416E+02  0.19539795888E+02 -0.52844219387E+02  0.61438949533E+02  0.00000000000E+00 0. -1.
         21    1    1    2  504  506  0.23272467785E+02  0.52623756026E+02  0.20762793632E+04  0.20770765180E+04  0.00000000000E+00 0.  1.
         21    1    1    2  505  501 -0.63646978535E+02  0.79388902537E+01 -0.28234236068E+03  0.28953613331E+03  0.00000000000E+00 0.  1.
         21    1    1    2  506  502  0.64878171166E+02 -0.80102442168E+02  0.47992048023E+00  0.10308156314E+03  0.00000000000E+00 0.  1.
<scales pt_clust_3="31.34060" pt_clust_4="57.54955" pt_clust_5="14000.00000" pt_clust_6="87.10372"></scales>
<clustering>
<clus scale="   31.341">  2  3  1 -1</clus>
<clus scale="   57.550">  1  4  2 -1</clus>
<clus scale="   87.104">  1  6  2 -1</clus>
<clus scale="   57.550">  1  3  2 -1</clus>
</clustering>
</event>
<event>
 6    0  0.6549018E+002  0.1357952E+03  0.7546771E-02  0.1219101E+00
         21   -1    0    0  503  501  0.00000000000E+00  0.00000000000E+00  0.12114664890E+03  0.12114664890E+03  0.00000000000E+00 0. -1.
         21   -1    0    0  505  502 -0.00000000000E+00 -0.00000000000E+00 -0.72714978640E+03  0.72714978640E+03  0.00000000000E+00 0.  1.
         21    1    1    2  503  506  0.12488805091E+02 -0.34832914507E+02  0.88430999119E+01  0.38046058951E+02  0.00000000000E+00 0.  1.
         21    1    1    2  504  502 -0.12985825220E+03  0.64471452390E+02 -0.63632867005E+03  0.65263612386E+03  0.00000000000E+00 0.  1.
         21    1    1    2  505  501  0.54688733144E+02 -0.14552980009E+02  0.60028884951E+02  0.82499174472E+02  0.00000000000E+00 0. -1.
         21    1    1    2  506  504  0.62680713962E+02 -0.15085557874E+02 -0.38546452315E+02  0.75115078015E+02  0.00000000000E+00 0.  1.
<scales pt_clust_3="37.00408" pt_clust_4="14000.00000" pt_clust_5="135.79522" pt_clust_6="68.51332"></scales>
<clustering>
<clus scale="   37.004">  1  3  2 -1</clus>
<clus scale="   68.513">  1  6  2 -1</clus>
<clus scale="  135.795">  1  5  2 -1</clus>
<clus scale="   37.004">  1  3  2 -1</clus>
</clustering>
</event>
<event>
 6    0  0.6549018E+002  0.8245676E+02  0.7546771E-02  0.1322221E+00
         21   -1    0    0  504  501  0.00000000000E+00  0.00000000000E+00  0.64593246673E+03  0.64593246673E+03  0.00000000000E+00 0. -1.
         21   -1    0    0  506  502 -0.00000000000E+00 -0.00000000000E+00 -0.18275452897E+03  0.18275452897E+03  0.00000000000E+00 0.  1.
         21    1    1    2  503  505  0.12502465308E+03  0.67316994211E+02  0.94938040987E+02  0.17080975737E+03  0.00000000000E+00 0.  1.
         21    1    1    2  504  502 -0.19216351119E+02 -0.30978310659E+02  0.10309901479E+02  0.37884270485E+02  0.00000000000E+00 0. -1.
         21    1    1    2  505  501 -0.76878418210E+02 -0.13524094390E+02  0.48317576093E+03  0.48944050534E+03  0.00000000000E+00 0. -1.
         21    1    1    2  506  503 -0.28929883750E+02 -0.22814589162E+02 -0.12524576564E+03  0.13055246249E+03  0.00000000000E+00 0.  1.
<scales pt_clust_3="14000.00000" pt_clust_4="36.45441" pt_clust_5="82.45676" pt_clust_6="63.48575"></scales>
<clustering>
<clus scale="   36.454">  2  4  1 -1</clus>
<clus scale="   63.486">  2  6  1 -1</clus>
<clus scale="   82.457">  1  5  2 -1</clus>
<clus scale="   82.457">  1  3  2 -1</clus>
</clustering>
</event>
<event>
 6    0  0.6549018E+002  0.2146427E+03  0.7546771E-02  0.1137941E+00
         21   -1    0    0  504  501  0.00000000000E+00  0.00000000000E+00  0.11297757127E+04  0.11297757127E+04  0.00000000000E+00 0. -1.
         21   -1    0    0  505  502 -0.00000000000E+00 -0.00000000000E+00 -0.12974786155E+04  0.12974786155E+04  0.00000000000E+00 0.  1.
         21    1    1    2  503  501  0.16075737813E+02  0.28850912553E+02  0.57584839584E+02  0.66383870415E+02  0.00000000000E+00 0. -1.
         21    1    1    2  504  506  0.19764822766E+03 -0.85977466822E+01  0.10449707906E+04  0.10635331195E+04  0.00000000000E+00 0. -1.
         21    1    1    2  505  503 -0.23125995845E+03  0.52445818997E+01 -0.11588081182E+04  0.11816703977E+04  0.00000000000E+00 0.  1.
         21    1    1    2  506  502  0.17535992974E+02 -0.25497747770E+02 -0.11145041473E+03  0.11566694054E+03  0.00000000000E+00 0. -1.
<scales pt_clust_3="32.97644" pt_clust_4="14000.00000" pt_clust_5="214.64275" pt_clust_6="30.94586"></scales>
<clustering>
<clus scale="   30.946">  2  6  1 -1</clus>
<clus scale="   32.976">  1  3  2 -1</clus>
<clus scale="  214.643">  2  5  1 -1</clus>
<clus scale="   32.976">  1  3  2 -1</clus>
</clustering>
</event>
<event>
 6    0  0.6549018E+002  0.7727631E+02  0.7546771E-02  0.1336964E+00
         21   -1    0    0  503  501  0.00000000000E+00  0.00000000000E+00  0.27180906650E+03  0.27180906650E+03  0.00000000000E+00 0.  1.
         21   -1    0    0  505  502 -0.00000000000E+00 -0.00000000000E+00 -0.16066707880E+03  0.16066707880E+03  0.00000000000E+00 0.  1.
         21    1    1    2  503  506 -0.75180906417E+01 -0.61175769080E+02  0.70312976961E+02  0.93503535434E+02  0.00000000000E+00 0. -1.
         21    1    1    2  504  502 -0.95693024077E+02 -0.26460327915E+02 -0.88391197736E+02  0.13292970942E+03  0.00000000000E+00 0.  1.
         21    1    1    2  505  501  0.24111561879E+02  0.42970147587E+02  0.14776632554E+01  0.49294872843E+02  0.00000000000E+00 0. -1.
         21    1    1    2  506  504  0.79099552840E+02  0.44665949408E+02  0.12774254522E+03  0.15674802760E+03  0.00000000000E+00 0.  1.
<scales pt_clust_3="57.79228" pt_clust_4="77.27631" pt_clust_5="49.27272" pt_clust_6="14000.00000"></scales>
<clustering>
<clus scale="   49.273">  2  5  1 -1</clus>
<clus scale="   57.792">  1  3  2 -1</clus>
<clus scale="   77.276">  2  4  1 -1</clus>
<clus scale="   57.792">  1  3  2 -1</clus>
</clustering>
</event>
<event>
 6    0  0.6549018E+002  0.1757048E+03  0.7546771E-02  0.1172026E+00
         21   -1    0    0  506  501  0.00000000000E+00  0.00000000000E+00  0.30526440627E+04  0.30526440627E+04  0.00000000000E+00 0. -1.
         21   -1    0    0  505  502 -0.00000000000E+00 -0.00000000000E+00 -0.15558453196E+03  0.15558453196E+03  0.00000000000E+00 0. -1.
         21    1    1    2  503  504 -0.11083550206E+03  0.34721842779E+02  0.24850805309E+04  0.24877932712E+04  0.00000000000E+00 0. -1.
         21    1    1    2  504  502  0.25459808725E+02 -0.57872833657E+02  0.91269787303E+01  0.63880892891E+02  0.00000000000E+00 0. -1.
         21    1    1    2  505  501  0.15071133222E+03  0.24480722643E+02 -0.77879633854E+02  0.17140142593E+03  0.00000000000E+00 0. -1.
         21    1    1    2  506  503 -0.65335638882E+02 -0.13297317653E+01  0.48073165497E+03  0.48515300471E+03  0.00000000000E+00 0. -1.
<scales pt_clust_3="14000.00000" pt_clust_4="63.22552" pt_clust_5="175.70483" pt_clust_6="64.93837"></scales>
<clustering>
<clus scale="   63.226">  2  4  1 -1</clus>
<clus scale="   64.938">  1  6  2 -1</clus>
<clus scale="  175.705">  2  5  1 -1</clus>
<clus scale="   64.938">  1  3  2 -1</clus>
</clustering>
</event>
<event>
 6    0  0.6549018E+002  0.3731945E+03  0.7546771E-02  0.1053478E+00
         21   -1    0    0  503  501  0.00000000000E+00  0.00000000000E+00  0.38745895509E+03  0.38745895509E+03  0.00000000000E+00 0. -1.
         21   -1    0    0  506  502 -0.00000000000E+00 -0.00000000000E+00 -0.34137260959E+03  0.34137260959E+03  0.00000000000E+00 0.  1.
         21    1    1    2  503  502  0.31990535202E+03 -0.13760089103E+03  0.68689815640E+02  0.35495313808E+03  0.00000000000E+00 0. -1.
         21    1    1    2  504  505 -0.21976391766E+03  0.79823585198E+02 -0.61394289635E+02  0.24173796363E+03  0.00000000000E+00 0.  1.
         21    1    1    2  505  501 -0.53195110039E+02  0.90263316097E+01  0.35083560164E+02  0.64358764657E+02  0.00000000000E+00 0. -1.
         21    1    1    2  506  504 -0.46946324315E+02  0.48750974220E+02  0.37072593350E+01  0.67781698310E+02  0.00000000000E+00 0.  1.
<scales pt_clust_3="348.24336" pt_clust_4="47.20060" pt_clust_5="47.20060" pt_clust_6="37.30943"></scales>
<clustering>
<clus scale="   37.309">  4  6 -1 -1</clus>
<clus scale="   47.201">  4  5 -1 -1</clus>
<clus scale="  348.243">  1  3  2 -1</clus>
<clus scale="  348.243">  1  3  2 -1</clus>
</clustering>
</event>
<event>
 6    0  0.6549018E+002  0.8773069E+02  0.7546771E-02  0.1308442E+00
         21   -1    0    0  505  501  0.00000000000E+00  0.00000000000E+00  0.16795168975E+04  0.16795168975E+04  0.00000000000E+00 0.  1.
         21   -1    0    0  503  502 -0.00000000000E+00 -0.00000000000E+00 -0.17619132617E+03  0.17619132617E+03  0.00000000000E+00 0.  1.
         21    1    1    2  503  506 -0.53499570511E+02 -0.75374460559E+02 -0.10630689039E+03  0.14087110525E+03  0.00000000000E+00 0.  1.
         21    1    1    2  504  502  0.33251988699E+02 -0.29129029723E+01  0.45456212055E+02  0.56395451683E+02  0.00000000000E+00 0.  1.
         21    1    1    2  505  504 -0.45880778265E+02  0.12075366875E+02  0.15641435256E+04  0.15648628787E+04  0.00000000000E+00 0.  1.
         21    1    1    2  506  501  0.66128360077E+02  0.66211996656E+02  0.32724064698E-01  0.93578788080E+02  0.00000000000E+00 0.  1.
<scales pt_clust_3="87.73069" pt_clust_4="33.37933" pt_clust_5="47.37392" pt_clust_6="14000.00000"></scales>
<clustering>
<clus scale="   33.379">  2  4  1 -1</clus>
<clus scale="   47.374">  1  5  2 -1</clus>
<clus scale="   87.731">  2  3  1 -1</clus>
<clus scale="   47.374">  1  3  2 -1</clus>
</clustering>
</event>
<event>
 6    0  0.6549018E+002  0.1059976E+03  0.7546771E-02  0.1268166E+00
         21   -1    0    0  503  501  0.00000000000E+00  0.00000000000E+00  0.24538804243E+04  0.24538804243E+04  0.00000000000E+00 0. -1.
         21   -1    0    0  505  502 -0.00000000000E+00 -0.00000000000E+00 -0.16000036104E+02  0.16000036104E+02  0.00000000000E+00 0. -1.
         21    1    1    2  503  502  0.42575355457E+02  0.95752912875E+02  0.13691406632E+04  0.13731450895E+04  0.00000000000E+00 0. -1.
         21    1    1    2  504  501  0.37360585687E+02 -0.36364819173E+02  0.86607982988E+03  0.86764767340E+03  0.00000000000E+00 0. -1.
         21    1    1    2  505  506 -0.33701588063E+02 -0.32519917845E+02  0.13471601969E+03  0.14262450019E+03  0.00000000000E+00 0. -1.
         21    1    1    2  506  504 -0.46234353081E+02 -0.26868175857E+02  0.67943875426E+02  0.86463197296E+02  0.00000000000E+00 0. -1.
<scales pt_clust_3="98.70187" pt_clust_4="52.13649" pt_clust_5="36.16574" pt_clust_6="36.16574"></scales>
<clustering>
<clus scale="   36.166">  5  6 -1 -1</clus>
<clus scale="   52.136">  1  4  2 -1</clus>
<clus scale="   98.702">  1  3  2 -1</clus>
<clus scale="   52.136">  1  3  2 -1</clus>
</clustering>
</event>
<event>
 6    0  0.6549018E+002  0.1278819E+03  0.7546771E-02  0.1230633E+00
         21   -1    0    0  505  501  0.00000000000E+00  0.00000000000E+00  0.52627303082E+03  0.52627303082E+03  0.00000000000E+00 0.  1.
         21   -1    0    0  506  502 -0.00000000000E+00 -0.00000000000E+00 -0.25949136466E+03  0.25949136466E+03  0.00000000000E+00 0.  1.
         21    1    1    2  503  502 -0.41887514551E+02  0.20635642262E+02 -0.29364198733E+02  0.55160219126E+02  0.00000000000E+00 0. -1.
         21    1    1    2  504  501  0.87632789505E+02 -0.29383849414E+02  0.22460565750E+03  0.24287984227E+03  0.00000000000E+00 0.  1.
         21    1    1    2  505  503 -0.19046867232E+03  0.59440960260E+02  0.20380705169E+03  0.28521721058E+03  0.00000000000E+00 0.  1.
         21    1    1    2  506  504  0.14472339737E+03 -0.50692753109E+02 -0.13226684430E+03  0.20250712349E+03  0.00000000000E+00 0.  1.
<scales pt_clust_3="46.69468" pt_clust_4="90.48187" pt_clust_5="127.88190" pt_clust_6="14000.00000"></scales>
<clustering>
<clus scale="   46.695">  2  3  1 -1</clus>
<clus scale="   90.482">  1  4  2 -1</clus>
<clus scale="  127.882">  1  5  2 -1</clus>
<clus scale="   90.482">  1  3  2 -1</clus>
</clustering>
</event>
<event>
 6    0  0.6549018E+002  0.8471938E+02  0.7546771E-02  0.1316168E+00
         21   -1    0    0  504  501  0.00000000000E+00  0.00000000000E+00  0.95238660382E+02  0.95238660382E+02  0.00000000000E+00 0. -1.
         21   -1    0    0  506  502 -0.00000000000E+00 -0.00000000000E+00 -0.21173692535E+04  0.21173692535E+04  0.00000000000E+00 0. -1.
         21    1    1    2  503  501  0.65436981688E+02 -0.23938672268E+02 -0.98660290516E+02  0.12078456659E+03  0.00000000000E+00 0.  1.
         21    1    1    2  504  505 -0.12940722736E+03 -0.34623635428E+02  0.28092499844E+02  0.13687298919E+03  0.00000000000E+00 0. -1.
         21    1    1    2  505  502  0.33348549701E+02  0.41618113085E+02 -0.17134164310E+04  0.17142462073E+04  0.00000000000E+00 0. -1.
         21    1    1    2  506  503  0.30621695967E+02  0.16944194611E+02 -0.23814637137E+03  0.24070415076E+03  0.00000000000E+00 0. -1.
<scales pt_clust_3="71.03515" pt_clust_4="84.71938" pt_clust_5="14000.00000" pt_clust_6="34.99706"></scales>
<clustering>
<clus scale="   34.997">  2  6  1 -1</clus>
<clus scale="   71.035">  1  3  2 -1</clus>
<clus scale="   84.719">  1  4  2 -1</clus>
<clus scale="   71.035">  1  3  2 -1</clus>
</clustering>
</event>
<event>
 6    0  0.6549018E+002  0.1318432E+03  0.7546771E-02  0.1224746E+00
         21   -1    0    0  504  501  0.00000000000E+00  0.00000000000E+00  0.16309038938E+03  0.16309038938E+03  0.00000000000E+00 0.  1.
         21   -1    0    0  505  502 -0.00000000000E+00 -0.00000000000E+00 -0.74039711488E+03  0.74039711488E+03  0.00000000000E+00 0. -1.
         21    1    1    2  503  506  0.76639593493E+02  0.19163866097E+02 -0.32461304678E+03  0.33408758013E+03  0.00000000000E+00 0. -1.
         21    1    1    2  504  502 -0.33102994536E+02 -0.25392796773E+02  0.56371351878E+01  0.42099639765E+02  0.00000000000E+00 0. -1.
         21    1    1    2  505  503  0.46980586420E+02 -0.11524095027E+02 -0.37526144266E+03  0.37836639731E+03  0.00000000000E+00 0. -1.
         21    1    1    2  506  501 -0.90517185376E+02  0.17753025703E+02  0.11693062876E+03  0.14893388705E+03  0.00000000000E+00 0.  1.
<scales pt_clust_3="38.54267" pt_clust_4="41.72053" pt_clust_5="38.54267" pt_clust_6="122.29712"></scales>
<clustering>
<clus scale="   38.543">  3  5 -1 -1</clus>
<clus scale="   41.721">  1  4  2 -1</clus>
<clus scale="  122.297">  1  6  2 -1</clus>
<clus scale="   41.721">  1  3  2 -1</clus>
</clustering>
</event>
<event>
 6    0  0.6549018E+002  0.1129075E+03  0.7546771E-02  0.1255279E+00
         21   -1    0    0  505  501  0.00000000000E+00  0.00000000000E+00  0.35033084603E+03  0.35033084603E+03  0.00000000000E+00 0.  1.
         21   -1    0    0  503  502 -0.00000000000E+00 -0.00000000000E+00 -0.77560336951E+03  0.77560336951E+03  0.00000000000E+00 0.  1.
         21    1    1    2  503  504 -0.22932075257E+02 -0.28553211309E+02 -0.38780555778E+03  0.38953089299E+03  0.00000000000E+00 0.  1.
         21    1    1    2  504  501 -0.37374418913E+02  0.80044116240E+02 -0.34168828081E+03  0.35292320549E+03  0.00000000000E+00 0.  1.
         21    1    1    2  505  506  0.91151762607E+02 -0.68266727760E+02  0.32382502854E+03  0.34326613444E+03  0.00000000000E+00 0.  1.
         21    1    1    2  506  502 -0.30845268436E+02  0.16775822829E+02 -0.19603713441E+02  0.40213982608E+02  0.00000000000E+00 0. -1.
<scales pt_clust_3="43.75070" pt_clust_4="112.90746" pt_clust_5="14000.00000" pt_clust_6="35.11209"></scales>
<clustering>
<clus scale="   35.112">  2  6  1 -1</clus>
<clus scale="   43.751">  2  3  1 -1</clus>
<clus scale="  112.907">  2  4  1 -1</clus>
<clus scale="  112.907">  1  3  2 -1</clus>
</clustering>
</event>
<event>
 6    0  0.6549018E+002  0.1631201E+03  0.7546771E-02  0.1185219E+00
         21   -1    0    0  504  501  0.00000000000E+00  0.00000000000E+00  0.16314939479E+03  0.16314939479E+03  0.00000000000E+00 0. -1.
         21   -1    0    0  501  502 -0.00000000000E+00 -0.00000000000E+00 -0.23839816388E+03  0.23839816388E+03  0.00000000000E+00 0. -1.
         21    1    1    2  503  506 -0.55301146067E+02 -0.16208867458E+03  0.12402211821E+01  0.17126731542E+03  0.00000000000E+00 0. -1.
         21    1    1    2  504  503 -0.21028731050E+02  0.29997475551E+02  0.23500269697E+02  0.43523772181E+02  0.00000000000E+00 0. -1.
         21    1    1    2  505  502  0.26765248600E+02  0.56797271686E+02 -0.19066607478E+02  0.65618931142E+02  0.00000000000E+00 0.  1.
         21    1    1    2  506  505  0.49564628517E+02  0.75293927340E+02 -0.80922652490E+02  0.12113753993E+03  0.00000000000E+00 0. -1.
<scales pt_clust_3="158.12141" pt_clust_4="36.63408" pt_clust_5="33.44379" pt_clust_6="33.44379"></scales>
<clustering>
<clus scale="   33.444">  5  6 -1 -1</clus>
<clus scale="   36.634">  1  4  2 -1</clus>
<clus scale="  158.121">  1  3  2 -1</clus>
<clus scale="   36.634">  1  3  2 -1</clus>
</clustering>
</event>
<event>
 6    0  0.6549018E+002  0.1091673E+03  0.7546771E-02  0.1262120E+00
         21   -1    0    0  506  501  0.00000000000E+00  0.00000000000E+00  0.43787173568E+03  0.43787173568E+03  0.00000000000E+00 0.  1.
         21   -1    0    0  503  502 -0.00000000000E+00 -0.00000000000E+00 -0.47706408042E+03  0.47706408042E+03  0.00000000000E+00 0.  1.
         21    1    1    2  503  505  0.15682736860E+03 -0.67727415241E+02 -0.23140310695E+03  0.28762688370E+03  0.00000000000E+00 0.  1.
         21    1    1    2  504  501 -0.17052037211E+02  0.30391936015E+02  0.26893947866E+03  0.27118791442E+03  0.00000000000E+00 0.  1.
         21    1    1    2  505  504 -0.57488085376E+02  0.43312312599E+01  0.12396576390E+03  0.13671558121E+03  0.00000000000E+00 0.  1.
         21    1    1    2  506  502 -0.82287246017E+02  0.33004247966E+02 -0.20069448035E+03  0.21940543677E+03  0.00000000000E+00 0.  1.
<scales pt_clust_3="14000.00000" pt_clust_4="34.84884" pt_clust_5="76.05019" pt_clust_6="109.16734"></scales>
<clustering>
<clus scale="   34.849">  1  4  2 -1</clus>
<clus scale="   76.050">  1  5  2 -1</clus>
<clus scale="  109.167">  2  6  1 -1</clus>
<clus scale="   34.849">  1  3  2 -1</clus>
</clustering>
</event>
<event>
 6    0  0.6549018E+002  0.1203846E+03  0.7546771E-02  0.1242464E+00
         21   -1    0    0  506  501  0.00000000000E+00  0.00000000000E+00  0.13318064216E+04  0.13318064216E+04  0.00000000000E+00 0.  1.
         21   -1    0    0  501  502 -0.00000000000E+00 -0.00000000000E+00 -0.51422135077E+02  0.51422135077E+02  0.00000000000E+00 0. -1.
         21    1    1    2  503  504  0.42196621346E+02 -0.21793003845E+02  0.16958502228E+03  0.17610953879E+03  0.00000000000E+00 0. -1.
         21    1    1    2  504  505  0.45270116435E+02 -0.39414217472E+02  0.92521683072E+02  0.11028656228E+03  0.00000000000E+00 0. -1.
         21    1    1    2  505  502 -0.10942333327E+03  0.35059128265E+02  0.45702325412E+02  0.12365804012E+03  0.00000000000E+00 0. -1.
         21    1    1    2  506  503  0.21956595485E+02  0.26148093053E+02  0.97257525576E+03  0.97317441549E+03  0.00000000000E+00 0.  1.
<scales pt_clust_3="41.25325" pt_clust_4="41.25325" pt_clust_5="112.10001" pt_clust_6="34.14403"></scales>
<clustering>
<clus scale="   34.144">  1  6  2 -1</clus>
<clus scale="   41.253">  3  4 -1 -1</clus>
<clus scale="  112.100">  2  5  1 -1</clus>
<clus scale="   34.144">  1  3  2 -1</clus>
</clustering>
</event>
<event>
 6    0  0.6549018E+002  0.1376234E+03  0.7546771E-02  0.1216563E+00
         21   -1    0    0  503  501  0.00000000000E+00  0.00000000000E+00  0.91247618038E+03  0.91247618038E+03  0.00000000000E+00 0. -1.
         21   -1    0    0  506  502 -0.00000000000E+00 -0.00000000000E+00 -0.18075013566E+03  0.18075013566E+03  0.00000000000E+00 0. -1.
         21    1    1    2  503  505 -0.64723632446E+01  0.12812807169E+03  0.73242639453E+02  0.14772670197E+03  0.00000000000E+00 0. -1.
         21    1    1    2  504  501  0.12068771376E+03 -0.85111965856E+02  0.75733854219E+03  0.77160303166E+03  0.00000000000E+00 0. -1.
         21    1    1    2  505  502 -0.29187644097E+02  0.11139461236E+02  0.19911321207E+01  0.31304484849E+02  0.00000000000E+00 0. -1.
         21    1    1    2  506  504 -0.85027706419E+02 -0.54155567069E+02 -0.10084626905E+03  0.14259209755E+03  0.00000000000E+00 0. -1.
<scales pt_clust_3="137.62336" pt_clust_4="14000.00000" pt_clust_5="31.24110" pt_clust_6="115.93081"></scales>
<clustering>
<clus scale="   31.241">  2  5  1 -1</clus>
<clus scale="  115.931">  2  6  1 -1</clus>
<clus scale="  137.623">  2  3  1 -1</clus>
<clus scale="  137.623">  1  3  2 -1</clus>
</clustering>
</event>
<event>
 6    0  0.6549018E+002  0.8762820E+02  0.7546771E-02  0.1308699E+00
         21   -1    0    0  503  501  0.00000000000E+00  0.00000000000E+00  0.67996688658E+02  0.67996688658E+02  0.00000000000E+00 0.  1.
         21   -1    0    0  504  502 -0.00000000000E+00 -0.00000000000E+00 -0.11050036401E+04  0.11050036401E+04  0.00000000000E+00 0.  1.
         21    1    1    2  503  505  0.45711511557E+02  0.56504995003E+02 -0.23346370654E+02  0.76337472920E+02  0.00000000000E+00 0.  1.
         21    1    1    2  504  506 -0.38559589174E+02  0.32815117449E+02 -0.64394508288E+03  0.64593261538E+03  0.00000000000E+00 0.  1.
         21    1    1    2  505  502  0.13541484313E+02  0.37698214753E+02 -0.30325561443E+03  0.30588967762E+03  0.00000000000E+00 0. -1.
         21    1    1    2  506  501 -0.20693406696E+02 -0.12701832721E+03 -0.66459883459E+02  0.14484056281E+03  0.00000000000E+00 0.  1.
<scales pt_clust_3="87.62820" pt_clust_4="68.97415" pt_clust_5="40.05655" pt_clust_6="14000.00000"></scales>
<clustering>
<clus scale="   40.057">  2  5  1 -1</clus>
<clus scale="   68.974">  2  4  1 -1</clus>
<clus scale="   87.628">  1  3  2 -1</clus>
<clus scale="   87.628">  1  3  2 -1</clus>
</clustering>
</event>
<event>
 6    0  0.6549018E+002  0.1927631E+03  0.7546771E-02  0.1155993E+00
         21   -1    0    0  505  501  0.00000000000E+00  0.00000000000E+00  0.30323722508E+03  0.30323722508E+03  0.00000000000E+00 0. -1.
         21   -1    0    0  503  502 -0.00000000000E+00 -0.00000000000E+00 -0.25611382654E+03  0.25611382654E+03  0.00000000000E+00 0. -1.
         21    1    1    2  503  501 -0.70312786953E+02  0.17717970058E+03  0.32893303155E+02  0.19343863031E+03  0.00000000000E+00 0. -1.
         21    1    1    2  504  506  0.27081411372E+02 -0.31967733083E+02 -0.16896580307E+00  0.41897104313E+02  0.00000000000E+00 0. -1.
         21    1    1    2  505  504  0.31532955186E+02 -0.10950713372E+02  0.13749554981E+03  0.14148947524E+03  0.00000000000E+00 0. -1.
         21    1    1    2  506  502  0.11698420394E+02 -0.13426125412E+03 -0.12309648862E+03  0.18252584176E+03  0.00000000000E+00 0. -1.
<scales pt_clust_3="176.41502" pt_clust_4="44.76655" pt_clust_5="33.38031" pt_clust_6="44.76655"></scales>
<clustering>
<clus scale="   33.380">  1  5  2 -1</clus>
<clus scale="   44.767">  4  6 -1 -1</clus>
<clus scale="  176.415">  1  3  2 -1</clus>
<clus scale="   33.380">  1  3  2 -1</clus>
</clustering>
</event>
<event>
 6    0  0.6549018E+002  0.1387262E+03  0.7546771E-02  0.1215053E+00
         21   -1    0    0  506  501  0.00000000000E+00  0.00000000000E+00  0.23210849669E+04  0.23210849669E+04  0.00000000000E+00 0.  1.
         21   -1    0    0  504  502 -0.00000000000E+00 -0.00000000000E+00 -0.15817289935E+02  0.15817289935E+02  0.00000000000E+00 0.  1.
         21    1    1    2  503  505  0.15633769304E+02 -0.11222875791E+03  0.11946487263E+04  0.12000105367E+04  0.00000000000E+00 0.  1.
         21    1    1    2  504  503  0.25589163305E+01  0.78407076648E+02  0.15946575632E+03  0.17771759947E+03  0.00000000000E+00 0.  1.
         21    1    1    2  505  501 -0.22881858921E+02 -0.37982688409E+02  0.53599289668E+03  0.53782399480E+03  0.00000000000E+00 0. -1.
         21    1    1    2  506  502  0.46891732864E+01  0.71804369672E+02  0.41516029763E+03  0.42135012588E+03  0.00000000000E+00 0.  1.
<scales pt_clust_3="30.21168" pt_clust_4="130.04819" pt_clust_5="30.21168" pt_clust_6="71.95732"></scales>
<clustering>
<clus scale="   30.212">  3  5 -1 -1</clus>
<clus scale="   71.957">  2  6  1 -1</clus>
<clus scale="  130.048">  2  4  1 -1</clus>
<clus scale="  138.726">  1  3  2 -1</clus>
</clustering>
</event>
<event>
 6    0  0.6549018E+002  0.1102600E+03  0.7546771E-02  0.1260089E+00
         21   -1    0    0  503  501  0.00000000000E+00  0.00000000000E+00  0.32718681655E+03  0.32718681655E+03  0.00000000000E+00 0.  1.
         21   -1    0    0  504  502 -0.00000000000E+00 -0.00000000000E+00 -0.58085219652E+03  0.58085219652E+03  0.00000000000E+00 0.  1.
         21    1    1    2  503  505  0.38672286186E+02 -0.77779459487E+02  0.51672768734E+02  0.10107059447E+03  0.00000000000E+00 0. -1.
         21    1    1    2  504  506 -0.24841441544E+02  0.24261940318E+02 -0.46289474537E+02  0.57865831186E+02  0.00000000000E+00 0.  1.
         21    1    1    2  505  502  0.46225658073E+02 -0.56955105840E+02 -0.48500225206E+03  0.49051797118E+03  0.00000000000E+00 0.  1.
         21    1    1    2  506  501 -0.60056502716E+02  0.11047262501E+03  0.22595357789E+03  0.25858461624E+03  0.00000000000E+00 0.  1.
<scales pt_clust_3="110.25998" pt_clust_4="34.72375" pt_clust_5="41.69938" pt_clust_6="14000.00000"></scales>
<clustering>
<clus scale="   34.724">  2  4  1 -1</clus>
<clus scale="   41.699">  2  5  1 -1</clus>
<clus scale="  110.260">  2  3  1 -1</clus>
<clus scale="  110.260">  1  3  2 -1</clus>
</clustering>
</event>
<event>
 6    0  0.6549018E+002  0.9865613E+02  0.7546771E-02  0.1283148E+00
         21   -1    0    0  506  501  0.00000000000E+00  0.00000000000E+00  0.23199159851E+04  0.23199159851E+04  0.00000000000E+00 0.  1.
         21   -1    0    0  503  502 -0.00000000000E+00 -0.00000000000E+00 -0.27138616350E+02  0.27138616350E+02  0.00000000000E+00 0.  1.
         21    1    1    2  503  505 -0.24748107350E+02  0.28183515280E+02  0.67272441687E+02  0.77021820035E+02  0.00000000000E+00 0.  1.
         21    1    1    2  504  501 -0.76848588060E+02 -0.13702546646E+02  0.31621294293E+03  0.32570552735E+03  0.00000000000E+00 0.  1.
         21    1    1    2  505  504  0.11777636646E+03 -0.84155961879E+02  0.29648246557E+03  0.32993234277E+03  0.00000000000E+00 0.  1.
         21    1    1    2  506  502 -0.16179671046E+02  0.69674993246E+02  0.16128095186E+04  0.16143949113E+04  0.00000000000E+00 0.  1.
<scales pt_clust_3="37.50706" pt_clust_4="98.65613" pt_clust_5="14000.00000" pt_clust_6="72.70843"></scales>
<clustering>
<clus scale="   37.507">  2  3  1 -1</clus>
<clus scale="   72.708">  1  6  2 -1</clus>
<clus scale="   98.656">  1  4  2 -1</clus>
<clus scale="   72.708">  1  3  2 -1</clus>
</clustering>
</event>
<event>
 6    0  0.6549018E+002  0.1015170E+03  0.7546771E-02  0.1277138E+00
         21   -1    0    0  504  501  0.00000000000E+00  0.00000000000E+00  0.15306987185E+03  0.15306987185E+03  0.00000000000E+00 0.  1.
         21   -1    0    0  506  502 -0.00000000000E+00 -0.00000000000E+00 -0.13674240748E+04  0.13674240748E+04  0.00000000000E+00 0. -1.
         21    1    1    2  503  501 -0.14397484898E+02  0.45041136933E+02  0.32391703317E+02  0.57316786646E+02  0.00000000000E+00 0.  1.
         21    1    1    2  504  505  0.41462139624E+02  0.53697394052E+02  0.89985400402E+02  0.11269379502E+03  0.00000000000E+00 0.  1.
         21    1    1    2  505  502  0.29215709872E+02  0.35490709280E+02 -0.27360764190E+03  0.27744240818E+03  0.00000000000E+00 0. -1.
         21    1    1    2  506  503 -0.56280364598E+02 -0.13422924026E+03 -0.10631236648E+04  0.10730409568E+04  0.00000000000E+00 0. -1.
<scales pt_clust_3="47.57263" pt_clust_4="101.51698" pt_clust_5="45.96899" pt_clust_6="14000.00000"></scales>
<clustering>
<clus scale="   45.969">  2  5  1 -1</clus>
<clus scale="   47.573">  1  3  2 -1</clus>
<clus scale="  101.517">  1  4  2 -1</clus>
<clus scale="   47.573">  1  3  2 -1</clus>
</clustering>
</event>
<event>
 6    0  0.6549018E+002  0.1326706E+03  0.7546771E-02  0.1223546E+00
         21   -1    0    0  505  501  0.00000000000E+00  0.00000000000E+00  0.15308464221E+03  0.15308464221E+03  0.00000000000E+00 0.  1.
         21   -1    0    0  504  502 -0.00000000000E+00 -0.00000000000E+00 -0.58729223421E+03  0.58729223421E+03  0.00000000000E+00 0.  1.
         21    1    1    2  503  502 -0.59382679828E+02 -0.68316302293E+02 -0.39322177599E+03  0.40350561946E+03  0.00000000000E+00 0.  1.
         21    1    1    2  504  506  0.29056920539E+00 -0.57512311529E+02 -0.11209019040E+03  0.12598397197E+03  0.00000000000E+00 0.  1.
         21    1    1    2  505  503  0.10369671231E+03  0.10978116562E+03  0.50938027591E+02  0.15937250429E+03  0.00000000000E+00 0.  1.
         21    1    1    2  506  501 -0.44604601693E+02  0.16047448200E+02  0.20166346813E+02  0.51514780692E+02  0.00000000000E+00 0.  1.
<scales pt_clust_3="132.67062" pt_clust_4="56.61037" pt_clust_5="14000.00000" pt_clust_6="47.40349"></scales>
<clustering>
<clus scale="   47.403">  1  6  2 -1</clus>
<clus scale="   56.610">  2  4  1 -1</clus>
<clus scale="  132.671">  2  3  1 -1</clus>
<clus scale="   47.403">  1  3  2 -1</clus>
</clustering>
</event>
<event>
 6    0  0.6549018E+002  0.7268423E+02  0.7546771E-02  0.1351196E+00
         21   -1    0    0  504  501  0.00000000000E+00  0.00000000000E+00  0.38417502226E+03  0.38417502226E+03  0.00000000000E+00 0. -1.
         21   -1    0    0  506  502 -0.00000000000E+00 -0.00000000000E+00 -0.92254146026E+03  0.92254146026E+03  0.00000000000E+00 0.  1.
         21    1    1    2  503  505  0.26713894852E+02 -0.96050682999E+02  0.68622576179E+02  0.12103067315E+03  0.00000000000E+00 0. -1.
         21    1    1    2  504  503  0.26018974481E+02  0.65942287680E+02  0.27603750719E+03  0.28499487314E+03  0.00000000000E+00 0. -1.
         21    1    1    2  505  502 -0.38984215819E+02 -0.23597223618E+02 -0.79729868316E+03  0.79859989245E+03  0.00000000000E+00 0.  1.
         21    1    1    2  506  501 -0.13748653514E+02  0.53705618937E+02 -0.85727838202E+02  0.10209104379E+03  0.00000000000E+00 0.  1.
<scales pt_clust_3="72.68423" pt_clust_4="14000.00000" pt_clust_5="45.56971" pt_clust_6="56.13039"></scales>
<clustering>
<clus scale="   45.570">  2  5  1 -1</clus>
<clus scale="   56.130">  2  6  1 -1</clus>
<clus scale="   72.684">  2  3  1 -1</clus>
<clus scale="   72.684">  1  3  2 -1</clus>
</clustering>
</event>
<event>
 6    0  0.6549018E+002  0.1082255E+03  0.7546771E-02  0.1263892E+00
         21   -1    0    0  506  501  0.00000000000E+00  0.00000000000E+00  0.17936341050E+04  0.17936341050E+04  0.00000000000E+00 0.  1.
         21   -1    0    0  503  502 -0.00000000000E+00 -0.00000000000E+00 -0.83667443375E+02  0.83667443375E+02  0.00000000000E+00 0.  1.
         21    1    1    2  503  505 -0.53444049643E+02 -0.22642198233E+02 -0.23284430572E+02  0.62538790283E+02  0.00000000000E+00 0.  1.
         21    1    1    2  504  501 -0.31108205643E+02 -0.21873330575E+02  0.11172552018E+03  0.11802014619E+03  0.00000000000E+00 0. -1.
         21    1    1    2  505  504 -0.44102168041E+02  0.22544402048E+02 -0.17498274636E+02  0.52530380780E+02  0.00000000000E+00 0.  1.
         21    1    1    2  506  502  0.12865442333E+03  0.21971126760E+02  0.16390238466E+04  0.16442122311E+04  0.00000000000E+00 0.  1.
<scales pt_clust_3="41.87407" pt_clust_4="38.02845" pt_clust_5="41.87407" pt_clust_6="98.23622"></scales>
<clustering>
<clus scale="   38.028">  1  4  2 -1</clus>
<clus scale="   41.874">  3  5 -1 -1</clus>
<clus scale="   98.236">  1  6  2 -1</clus>
<clus scale="   38.028">  1  3  2 -1</clus>
</clustering>
</event>
<event>
 6    0  0.6549018E+002  0.7469821E+02  0.7546771E-02  0.1344808E+00
         21   -1    0    0  505  501  0.00000000000E+00  0.00000000000E+00  0.28113398354E+03  0.28113398354E+03  0.00000000000E+00 0.  1.
         21   -1    0    0  504  502 -0.00000000000E+00 -0.00000000000E+00 -0.70563305573E+02  0.70563305573E+02  0.00000000000E+00 0. -1.
         21    1    1    2  503  502  0.29749891395E+02  0.23504948184E+02  0.24562567477E+02  0.45175860237E+02  0.00000000000E+00 0. -1.
         21    1    1    2  504  506  0.48539145727E+02 -0.58243512831E+01 -0.71889612213E+01  0.49413084292E+02  0.00000000000E+00 0. -1.
         21    1    1    2  505  503 -0.52468510899E+02 -0.81872734993E+02  0.13682576778E+03  0.16786119296E+03  0.00000000000E+00 0.  1.
         21    1    1    2  506  501 -0.25820526223E+02  0.64192138092E+02  0.56371303934E+02  0.89247151633E+02  0.00000000000E+00 0.  1.
<scales pt_clust_3="37.91489" pt_clust_4="62.72909" pt_clust_5="14000.00000" pt_clust_6="74.69821"></scales>
<clustering>
<clus scale="   37.915">  2  3  1 -1</clus>
<clus scale="   62.729">  2  4  1 -1</clus>
<clus scale="   74.698">  2  6  1 -1</clus>
<clus scale="   74.698">  1  3  2 -1</clus>
</clustering>
</event>
<event>
 6    0  0.6549018E+002  0.1799479E+03  0.7546771E-02  0.1167854E+00
         21   -1    0    0  505  501  0.00000000000E+00  0.00000000000E+00  0.22268066119E+04  0.22268066119E+04  0.00000000000E+00 0. -1.
         21   -1    0    0  504  502 -0.00000000000E+00 -0.00000000000E+00 -0.20845089150E+02  0.20845089150E+02  0.00000000000E+00 0. -1.
         21    1    1    2  503  501  0.15993870614E+02  0.39930183097E+02  0.31114112394E+03  0.31410033815E+03  0.00000000000E+00 0. -1.
         21    1    1    2  504  506  0.83985703857E+02 -0.85896269420E+02  0.45093077156E+03  0.46665868501E+03  0.00000000000E+00 0. -1.
         21    1    1    2  505  502 -0.15516519487E+03  0.55836157064E+02  0.13275200880E+04  0.13377232517E+04  0.00000000000E+00 0. -1.
         21    1    1    2  506  503  0.55185620397E+02 -0.98700707407E+01  0.11636953930E+03  0.12916942622E+03  0.00000000000E+00 0. -1.
<scales pt_clust_3="43.01422" pt_clust_4="47.55338" pt_clust_5="166.55205" pt_clust_6="47.55338"></scales>
<clustering>
<clus scale="   43.014">  1  3  2 -1</clus>
<clus scale="   47.553">  4  6 -1 -1</clus>
<clus scale="  166.552">  1  5  2 -1</clus>
<clus scale="   43.014">  1  3  2 -1</clus>
</clustering>
</event>
<event>
 6    0  0.6549018E+002  0.1157476E+03  0.7546771E-02  0.1250282E+00
         21   -1    0    0  505  501  0.00000000000E+00  0.00000000000E+00  0.87773062815E+03  0.87773062815E+03  0.00000000000E+00 0. -1.
         21   -1    0    0  503  502 -0.00000000000E+00 -0.00000000000E+00 -0.35855956586E+02  0.35855956586E+02  0.00000000000E+00 0. -1.
         21    1    1    2  503  504  0.53374139536E+02 -0.32949825266E+02  0.83502448561E+02  0.10443729541E+03  0.00000000000E+00 0. -1.
         21    1    1    2  504  506  0.32242995527E+02 -0.23274480148E+02  0.11304176445E+02  0.41341221460E+02  0.00000000000E+00 0. -1.
         21    1    1    2  505  502 -0.92332362160E+02  0.96403947504E+02  0.50544065744E+03  0.52277073789E+03  0.00000000000E+00 0. -1.
         21    1    1    2  506  501  0.67152270976E+01 -0.40179642089E+02  0.24162738911E+03  0.24503732998E+03  0.00000000000E+00 0. -1.
<scales pt_clust_3="33.51327" pt_clust_4="33.51327" pt_clust_5="107.82340" pt_clust_6="40.73694"></scales>
<clustering>
<clus scale="   33.513">  3  4 -1 -1</clus>
<clus scale="   40.737">  1  6  2 -1</clus>
<clus scale="  107.823">  1  5  2 -1</clus>
<clus scale="   40.737">  1  3  2 -1</clus>
</clustering>
</event>
<event>
 6    0  0.6549018E+002  0.2029647E+03  0.7546771E-02  0.1147262E+00
         21   -1    0    0  503  501  0.00000000000E+00  0.00000000000E+00  0.11692360043E+03  0.11692360043E+03  0.00000000000E+00 0. -1.
         21   -1    0    0  506  502 -0.00000000000E+00 -0.00000000000E+00 -0.63407914235E+03  0.63407914235E+03  0.00000000000E+00 0.  1.
         21    1    1    2  503  505  0.14751686440E+03  0.92598195156E+02 -0.45510693696E+01  0.17423077587E+03  0.00000000000E+00 0. -1.
         21    1    1    2  504  502 -0.12219398581E+03 -0.84145391905E+02 -0.33928378276E+03  0.37030433753E+03  0.00000000000E+00 0.  1.
         21    1    1    2  505  504 -0.55813117066E+02  0.14964156090E+02 -0.15176177776E+03  0.16239047753E+03  0.00000000000E+00 0. -1.
         21    1    1    2  506  501  0.30490238476E+02 -0.23416959340E+02 -0.21558912030E+02  0.44077151848E+02  0.00000000000E+00 0. -1.
<scales pt_clust_3="187.16092" pt_clust_4="48.51049" pt_clust_5="48.51049" pt_clust_6="38.44488"></scales>
<clustering>
<clus scale="   38.445">  1  6  2 -1</clus>
<clus scale="   48.510">  4  5 -1 -1</clus>
<clus scale="  187.161">  1  3  2 -1</clus>
<clus scale="   38.445">  1  3  2 -1</clus>
</clustering>
</event>
<event>
 6    0  0.6549018E+002  0.1165181E+03  0.7546771E-02  0.1248954E+00
         21   -1    0    0  505  501  0.00000000000E+00  0.00000000000E+00  0.86186776919E+02  0.86186776919E+02  0.00000000000E+00 0.  1.
         21   -1    0    0  506  502 -0.00000000000E+00 -0.00000000000E+00 -0.40748848971E+04  0.40748848971E+04  0.00000000000E+00 0. -1.
         21    1    1    2  503  501  0.55579407765E+01 -0.57536656149E+02 -0.94932644675E+00  0.57812271424E+02  0.00000000000E+00 0.  1.
         21    1    1    2  504  502  0.12179533119E+03 -0.23092627016E+02 -0.38134200634E+04  0.38154344382E+04  0.00000000000E+00 0. -1.
         21    1    1    2  505  504 -0.68918487619E+02 -0.38366064196E+01 -0.17173039429E+03  0.18508324022E+03  0.00000000000E+00 0.  1.
         21    1    1    2  506  503 -0.58434784351E+02  0.84465889585E+02 -0.25983359646E+01  0.10274172412E+03  0.00000000000E+00 0.  1.
<scales pt_clust_3="57.80448" pt_clust_4="116.51806" pt_clust_5="14000.00000" pt_clust_6="63.80234"></scales>
<clustering>
<clus scale="   57.804">  1  3  2 -1</clus>
<clus scale="   63.802">  1  6  2 -1</clus>
<clus scale="  116.518">  2  4  1 -1</clus>
<clus scale="   57.804">  1  3  2 -1</clus>
</clustering>
</event>
<event>
 6    0  0.6549018E+002  0.8526511E+02  0.7546771E-02  0.1314741E+00
         21   -1    0    0  503  501  0.00000000000E+00  0.00000000000E+00  0.13527289293E+04  0.13527289293E+04  0.00000000000E+00 0. -1.
         21   -1    0    0  504  502 -0.00000000000E+00 -0.00000000000E+00 -0.43700140437E+02  0.43700140437E+02  0.00000000000E+00 0. -1.
         21    1    1    2  503  506  0.36055080055E+02 -0.68574371764E+02  0.73491837229E+03  0.73899081672E+03  0.00000000000E+00 0. -1.
         21    1    1    2  504  505  0.34039972485E+02 -0.40837417431E+02 -0.10816007471E+02  0.54253114259E+02  0.00000000000E+00 0. -1.
         21    1    1    2  505  501 -0.37281124385E+02  0.10078734075E+03  0.50583174399E+03  0.51712060829E+03  0.00000000000E+00 0. -1.
         21    1    1    2  506  502 -0.32813928155E+02  0.86244484434E+01  0.79094680034E+02  0.86064530450E+02  0.00000000000E+00 0. -1.
<scales pt_clust_3="14000.00000" pt_clust_4="34.67934" pt_clust_5="85.26511" pt_clust_6="33.92838"></scales>
<clustering>
<clus scale="   33.928">  2  6  1 -1</clus>
<clus scale="   34.679">  2  4  1 -1</clus>
<clus scale="   85.265">  2  5  1 -1</clus>
<clus scale="   85.265">  1  3  2 -1</clus>
</clustering>
</event>
<event>
 6    0  0.6549018E+002  0.2061671E+03  0.7546771E-02  0.1144638E+00
         21   -1    0    0  506  501  0.00000000000E+00  0.00000000000E+00  0.46021489685E+03  0.46021489685E+03  0.00000000000E+00 0.  1.
         21   -1    0    0  504  502 -0.00000000000E+00 -0.00000000000E+00 -0.64743927729E+03  0.64743927729E+03  0.00000000000E+00 0.  1.
         21    1    1    2  503  505  0.20405114935E+03  0.75043257476E+02  0.21632765352E+03  0.30670183520E+03  0.00000000000E+00 0.  1.
         21    1    1    2  504  503  0.10610057527E+03 -0.15242576198E+03 -0.13695285488E+03  0.23075317863E+03  0.00000000000E+00 0.  1.
         21    1    1    2  505  501 -0.10660934493E+03 -0.30610702959E+02  0.91896823069E+02  0.14404025011E+03  0.00000000000E+00 0. -1.
         21    1    1    2  506  502 -0.20354237968E+03  0.10799320746E+03 -0.35849600215E+03  0.42615891020E+03  0.00000000000E+00 0.  1.
<scales pt_clust_3="133.02732" pt_clust_4="14000.00000" pt_clust_5="110.91694" pt_clust_6="206.16715"></scales>
<clustering>
<clus scale="  110.917">  1  5  2 -1</clus>
<clus scale="  133.027">  1  3  2 -1</clus>
<clus scale="  206.167">  2  6  1 -1</clus>
<clus scale="  110.917">  1  3  2 -1</clus>
</clustering>
</event>
<event>
 6    0  0.6549018E+002  0.8894756E+02  0.7546771E-02  0.1305421E+00
         21   -1    0    0  505  501  0.00000000000E+00  0.00000000000E+00  0.39206863176E+02  0.39206863176E+02  0.00000000000E+00 0. -1.
         21   -1    0    0  503  502 -0.00000000000E+00 -0.00000000000E+00 -0.71290737438E+03  0.71290737438E+03  0.00000000000E+00 0.  1.
         21    1    1    2  503  506  0.16773121076E+02 -0.84513890793E+02 -0.42515311510E+03  0.43379615790E+03  0.00000000000E+00 0.  1.
         21    1    1    2  504  501  0.40372764457E+01 -0.37642238468E+02 -0.59109866653E+02  0.70194116945E+02  0.00000000000E+00 0.  1.
         21    1    1    2  505  502  0.39688141499E+02  0.31277337764E+02 -0.69650061534E+02  0.86049703689E+02  0.00000000000E+00 0. -1.
         21    1    1    2  506  504 -0.60498539020E+02  0.90878791497E+02 -0.11978746791E+03  0.16207425902E+03  0.00000000000E+00 0. -1.
<scales pt_clust_3="14000.00000" pt_clust_4="37.85813" pt_clust_5="46.29219" pt_clust_6="88.94756"></scales>
<clustering>
<clus scale="   37.858">  1  4  2 -1</clus>
<clus scale="   46.292">  1  5  2 -1</clus>
<clus scale="   88.948">  1  6  2 -1</clus>
<clus scale="   37.858">  1  3  2 -1</clus>
</clustering>
</event>
<event>
 6    0  0.6549018E+002  0.1070108E+03  0.7546771E-02  0.1266208E+00
         21   -1    0    0  505  501  0.00000000000E+00  0.00000000000E+00  0.57480279506E+03  0.57480279506E+03  0.00000000000E+00 0.  1.
         21   -1    0    0  504  502 -0.00000000000E+00 -0.00000000000E+00 -0.30082137949E+03  0.30082137949E+03  0.00000000000E+00 0. -1.
         21    1    1    2  503  501 -0.80200282210E+02 -0.17170405521E+01  0.20110561580E+03  0.21651443878E+03  0.00000000000E+00 0.  1.
         21    1    1    2  504  503  0.15806589581E+02 -0.32405438092E+02 -0.32154587184E+02  0.48310228411E+02  0.00000000000E+00 0. -1.
         21    1    1    2  505  506  0.20850478036E+02 -0.89090321687E+02  0.33446720312E+03  0.34675659737E+03  0.00000000000E+00 0.  1.
         21    1    1    2  506  502  0.43543214593E+02  0.12321280033E+03 -0.22943681617E+03  0.26404290999E+03  0.00000000000E+00 0. -1.
<scales pt_clust_3="79.77782" pt_clust_4="36.05497" pt_clust_5="107.01079" pt_clust_6="14000.00000"></scales>
<clustering>
<clus scale="   36.055">  2  4  1 -1</clus>
<clus scale="   79.778">  1  3  2 -1</clus>
<clus scale="  107.011">  1  5  2 -1</clus>
<clus scale="   79.778">  1  3  2 -1</clus>
</clustering>
</event>
<event>
 6    0  0.6549018E+002  0.1010819E+03  0.7546771E-02  0.1278037E+00
         21   -1    0    0  505  501  0.00000000000E+00  0.00000000000E+00  0.14335175919E+04  0.14335175919E+04  0.00000000000E+00 0. -1.
         21   -1    0    0  504  502 -0.00000000000E+00 -0.00000000000E+00 -0.83826926512E+02  0.83826926512E+02  0.00000000000E+00 0. -1.
         21    1    1    2  503  502  0.51871338509E+02  0.21755987794E+02  0.52228285969E+01  0.56491032051E+02  0.00000000000E+00 0. -1.
         21    1    1    2  504  501  0.27961825474E+02 -0.36030820912E+02  0.26707708770E+02  0.52852487616E+02  0.00000000000E+00 0. -1.
         21    1    1    2  505  506 -0.56439852271E+01 -0.10042282350E+03  0.12526421129E+04  0.12566737290E+04  0.00000000000E+00 0. -1.
         21    1    1    2  506  503 -0.74189178756E+02  0.11469765662E+03  0.65118015071E+02  0.15132726974E+03  0.00000000000E+00 0. -1.
<scales pt_clust_3="62.60951" pt_clust_4="45.60794" pt_clust_5="14000.00000" pt_clust_6="101.08192"></scales>
<clustering>
<clus scale="   45.608">  2  4  1 -1</clus>
<clus scale="   62.610">  2  3  1 -1</clus>
<clus scale="  101.082">  2  6  1 -1</clus>
<clus scale="  101.082">  1  3  2 -1</clus>
</clustering>
</event>
<event>
 6    0  0.6549018E+002  0.1309020E+03  0.7546771E-02  0.1226123E+00
         21   -1    0    0  503  501  0.00000000000E+00  0.00000000000E+00  0.84654600883E+02  0.84654600883E+02  0.00000000000E+00 0.  1.
         21   -1    0    0  505  502 -0.00000000000E+00 -0.00000000000E+00 -0.79517949874E+03  0.79517949874E+03  0.00000000000E+00 0.  1.
         21    1    1    2  503  506 -0.62096186099E+02  0.34450658839E+02 -0.47474948491E+02  0.85420459825E+02  0.00000000000E+00 0.  1.
         21    1    1    2  504  502  0.11510684725E+03 -0.51636462725E+02 -0.66017696014E+03  0.67212315038E+03  0.00000000000E+00 0.  1.
         21    1    1    2  505  501 -0.11392101244E+02 -0.37526236998E+02  0.26713902806E+02  0.47451354429E+02  0.00000000000E+00 0.  1.
         21    1    1    2  506  504 -0.41618559910E+02  0.54712040884E+02 -0.29586892028E+02  0.74839134993E+02  0.00000000000E+00 0.  1.
<scales pt_clust_3="31.69692" pt_clust_4="126.87577" pt_clust_5="39.21732" pt_clust_6="31.69692"></scales>
<clustering>
<clus scale="   31.697">  3  6 -1 -1</clus>
<clus scale="   39.217">  1  5  2 -1</clus>
<clus scale="  126.876">  2  4  1 -1</clus>
<clus scale="   39.217">  1  3  2 -1</clus>
</clustering>
</event>
<event>
 6    0  0.6549018E+002  0.1983411E+03  0.7546771E-02  0.1151146E+00
         21   -1    0    0  505  501  0.00000000000E+00  0.00000000000E+00  0.20097842260E+03  0.20097842260E+03  0.00000000000E+00 0.  1.
         21   -1    0    0  506  502 -0.00000000000E+00 -0.00000000000E+00 -0.47832957482E+03  0.47832957482E+03  0.00000000000E+00 0.  1.
         21    1    1    2  503  501 -0.14691456083E+03  0.12360568792E+03  0.40346872038E+02  0.19618900161E+03  0.00000000000E+00 0.  1.
         21    1    1    2  504  502 -0.61210723507E+02 -0.17809810374E+02 -0.16391225612E+03  0.17587259515E+03  0.00000000000E+00 0.  1.
         21    1    1    2  505  504  0.21301085333E+03 -0.69050712866E+02 -0.10880047409E+03  0.24895615627E+03  0.00000000000E+00 0.  1.
         21    1    1    2  506  503 -0.48855689911E+01 -0.36745164676E+02 -0.44985294055E+02  0.58290244403E+02  0.00000000000E+00 0.  1.
<scales pt_clust_3="198.34111" pt_clust_4="71.00037" pt_clust_5="14000.00000" pt_clust_6="37.06853"></scales>
<clustering>
<clus scale="   37.069">  2  6  1 -1</clus>
<clus scale="   71.000">  2  4  1 -1</clus>
<clus scale="  198.341">  1  3  2 -1</clus>
<clus scale="  198.341">  1  3  2 -1</clus>
</clustering>
</event>
<event>
 6    0  0.6549018E+002  0.1297515E+03  0.7546771E-02  0.1227825E+00
         21   -1    0    0  506  501  0.00000000000E+00  0.00000000000E+00  0.16628585249E+03  0.16628585249E+03  0.00000000000E+00 0. -1.
         21   -1    0    0  504  502 -0.00000000000E+00 -0.00000000000E+00 -0.59064480510E+03  0.59064480510E+03  0.00000000000E+00 0. -1.
         21    1    1    2  503  501 -0.13330458564E+02  0.39745369647E+02  0.59628636612E+02  0.72890121677E+02  0.00000000000E+00 0.  1.
         21    1    1    2  504  505 -0.89849848220E+02 -0.66578920635E+02 -0.40420874849E+03  0.41939296638E+03  0.00000000000E+00 0. -1.
         21    1    1    2  505  503  0.45784749016E+02  0.72819287053E+02  0.61248760346E+02  0.10559499256E+03  0.00000000000E+00 0. -1.
         21    1    1    2  506  502  0.57395557767E+02 -0.45985736065E+02 -0.14102760109E+03  0.15905257697E+03  0.00000000000E+00 0. -1.
<scales pt_clust_3="41.42763" pt_clust_4="115.38610" pt_clust_5="41.42763" pt_clust_6="73.54548"></scales>
<clustering>
<clus scale="   41.428">  3  5 -1 -1</clus>
<clus scale="   73.545">  2  6  1 -1</clus>
<clus scale="  115.386">  2  4  1 -1</clus>
<clus scale="  129.752">  1  3  2 -1</clus>
</clustering>
</event>
<event>
 6    0  0.6549018E+002  0.1799118E+03  0.7546771E-02  0.1167888E+00
         21   -1    0    0  504  501  0.00000000000E+00  0.00000000000E+00  0.80797748110E+03  0.80797748110E+03  0.00000000000E+00 0.  1.
         21   -1    0    0  505  502 -0.00000000000E+00 -0.00000000000E+00 -0.96089540697E+02  0.96089540697E+02  0.00000000000E+00 0.  1.
         21    1    1    2  503  506  0.10363537097E+03 -0.25172401811E+02  0.24244541295E+03  0.26486547187E+03  0.00000000000E+00 0.  1.
         21    1    1    2  504  503  0.71737533568E+02 -0.14874212667E+02  0.40819689269E+03  0.41471944628E+03  0.00000000000E+00 0.  1.
         21    1    1    2  505  501 -0.66436525594E+02  0.74269172610E+02  0.44279456377E+02  0.10904307493E+03  0.00000000000E+00 0.  1.
         21    1    1    2  506  502 -0.10893637894E+03 -0.34222558132E+02  0.16966178392E+02  0.11543902872E+03  0.00000000000E+00 0.  1.
<scales pt_clust_3="64.95018" pt_clust_4="64.95018" pt_clust_5="99.64799" pt_clust_6="161.94869"></scales>
<clustering>
<clus scale="   64.950">  3  4 -1 -1</clus>
<clus scale="   99.648">  2  5  1 -1</clus>
<clus scale="  161.949">  2  6  1 -1</clus>
<clus scale="  179.912">  1  3  2 -1</clus>
</clustering>
</event>
<event>
 6    0  0.6549018E+002  0.7756766E+02  0.7546771E-02  0.1336099E+00
         21   -1    0    0  504  501  0.00000000000E+00  0.00000000000E+00  0.14392745835E+04  0.14392745835E+04  0.00000000000E+00 0. -1.
         21   -1    0    0  505  502 -0.00000000000E+00 -0.00000000000E+00 -0.92684439682E+02  0.92684439682E+02  0.00000000000E+00 0.  1.
         21    1    1    2  503  501  0.51423101396E+02  0.55670207812E+02  0.10249709693E+04  0.10277689406E+04  0.00000000000E+00 0. -1.
         21    1    1    2  504  506 -0.27335807010E+02 -0.87605323454E+02  0.36171306085E+03  0.37317325391E+03  0.00000000000E+00 0.  1.
         21    1    1    2  505  503  0.35488478996E+02 -0.30751229621E+01 -0.49809127038E+02  0.61235918046E+02  0.00000000000E+00 0.  1.
         21    1    1    2  506  502 -0.59575773382E+02  0.35010238604E+02  0.97152406879E+01  0.69780910591E+02  0.00000000000E+00 0. -1.
<scales pt_clust_3="14000.00000" pt_clust_4="77.56766" pt_clust_5="35.62146" pt_clust_6="44.85979"></scales>
<clustering>
<clus scale="   35.621">  2  5  1 -1</clus>
<clus scale="   44.860">  2  6  1 -1</clus>
<clus scale="   77.568">  2  4  1 -1</clus>
<clus scale="   77.568">  1  3  2 -1</clus>
</clustering>
</event>
<event>
 6    0  0.7610752E+002  0.1002185E+03  0.7546771E-02  0.1279837E+00
         21   -1    0    0  503  501  0.00000000000E+00  0.00000000000E+00  0.27198085572E+03  0.27198085572E+03  0.00000000000E+00 0.  1.
         21   -1    0    0  504  502 -0.00000000000E+00 -0.00000000000E+00 -0.14100696994E+04  0.14100696994E+04  0.00000000000E+00 0. -1.
         21    1    1    2  503  502  0.31010024099E+02 -0.57799386031E+02 -0.13315047511E+04  0.13331193843E+04  0.00000000000E+00 0. -1.
         21    1    1    2  504  505  0.14935537519E+02 -0.30853053386E+02 -0.42940792680E+02  0.54944452497E+02  0.00000000000E+00 0. -1.
         21    1    1    2  505  506 -0.43333254268E+02  0.12590122145E+03  0.20854767774E+03  0.24742882285E+03  0.00000000000E+00 0.  1.
         21    1    1    2  506  501 -0.26123073494E+01 -0.37248782033E+02  0.27809022314E+02  0.46557895514E+02  0.00000000000E+00 0.  1.
<scales pt_clust_3="100.21849" pt_clust_4="34.27800" pt_clust_5="14000.00000" pt_clust_6="37.54523"></scales>
<clustering>
<clus scale="   34.278">  2  4  1 -1</clus>
<clus scale="   37.545">  1  6  2 -1</clus>
<clus scale="  100.218">  2  3  1 -1</clus>
<clus scale="   37.545">  1  3  2 -1</clus>
</clustering>
</event>
<event>
 6    0  0.6549018E+002  0.1702576E+03  0.7546771E-02  0.1177579E+00
         21   -1    0    0  506  501  0.00000000000E+00  0.00000000000E+00  0.22405622370E+03  0.22405622370E+03  0.00000000000E+00 0. -1.
         21   -1    0    0  505  502 -0.00000000000E+00 -0.00000000000E+00 -0.34140945433E+03  0.34140945433E+03  0.00000000000E+00 0. -1.
         21    1    1    2  503  504  0.11973174311E+03  0.10030120434E+03 -0.11056985839E+03  0.19136801061E+03  0.00000000000E+00 0. -1.
         21    1    1    2  504  501  0.57585289498E+02  0.44877215565E+01  0.51584849942E+02  0.77441603515E+02  0.00000000000E+00 0. -1.
         21    1    1    2  505  503 -0.21612441749E+02  0.27432416015E+02 -0.83821712312E+02  0.90805916887E+02  0.00000000000E+00 0.  1.
         21    1    1    2  506  502 -0.15570459086E+03 -0.13222134191E+03  0.25453490129E+02  0.20585014703E+03  0.00000000000E+00 0. -1.
<scales pt_clust_3="170.25763" pt_clust_4="56.79123" pt_clust_5="34.92327" pt_clust_6="14000.00000"></scales>
<clustering>
<clus scale="   34.923">  2  5  1 -1</clus>
<clus scale="   56.791">  1  4  2 -1</clus>
<clus scale="  170.258">  2  3  1 -1</clus>
<clus scale="   56.791">  1  3  2 -1</clus>
</clustering>
</event>
<event>
 6    0  0.6549018E+002  0.1389847E+03  0.7546771E-02  0.1214702E+00
         21   -1    0    0  503  501  0.00000000000E+00  0.00000000000E+00  0.46125001400E+03  0.46125001400E+03  0.00000000000E+00 0.  1.
         21   -1    0    0  506  502 -0.00000000000E+00 -0.00000000000E+00 -0.20077488441E+03  0.20077488441E+03  0.00000000000E+00 0. -1.
         21    1    1    2  503  502  0.21927212725E+03  0.78323585435E+02  0.99300265492E+02  0.25313117656E+03  0.00000000000E+00 0.  1.
         21    1    1    2  504  505 -0.57240924344E+02 -0.87982047147E+01 -0.31103308307E+02  0.65736957745E+02  0.00000000000E+00 0. -1.
         21    1    1    2  505  501 -0.11624309872E+03 -0.34846040671E+02  0.23970200155E+03  0.26867034465E+03  0.00000000000E+00 0. -1.
         21    1    1    2  506  504 -0.45788104186E+02 -0.34679340049E+02 -0.47423829149E+02  0.74486419449E+02  0.00000000000E+00 0. -1.
<scales pt_clust_3="138.98470" pt_clust_4="116.17265" pt_clust_5="14000.00000" pt_clust_6="31.34789"></scales>
<clustering>
<clus scale="   31.348">  4  6 -1 -1</clus>
<clus scale="  116.173">  2  4  1 -1</clus>
<clus scale="  138.985">  2  3  1 -1</clus>
<clus scale="  138.985">  1  3  2 -1</clus>
</clustering>
</event>
<event>
 6    0  0.6549018E+002  0.1361633E+03  0.7546771E-02  0.1218587E+00
         21   -1    0    0  504  501  0.00000000000E+00  0.00000000000E+00  0.87948347261E+02  0.87948347261E+02  0.00000000000E+00 0.  1.
         21   -1    0    0  505  502 -0.00000000000E+00 -0.00000000000E+00 -0.59315697845E+03  0.59315697845E+03  0.00000000000E+00 0.  1.
         21    1    1    2  503  502  0.86383965802E+02 -0.28318924818E+02 -0.34203744994E+03  0.35391209108E+03  0.00000000000E+00 0.  1.
         21    1    1    2  504  503  0.20622562912E+02 -0.40179499203E+02 -0.18427159827E+03  0.18972533881E+03  0.00000000000E+00 0.  1.
         21    1    1    2  505  506 -0.45396198537E+02  0.24393948150E+02 -0.14807460851E+02  0.53620336113E+02  0.00000000000E+00 0.  1.
         21    1    1    2  506  501 -0.61610330178E+02  0.44104475871E+02  0.35907877870E+02  0.83847559712E+02  0.00000000000E+00 0.  1.
<scales pt_clust_3="34.51569" pt_clust_4="34.51569" pt_clust_5="39.63586" pt_clust_6="135.83886"></scales>
<clustering>
<clus scale="   34.516">  3  4 -1 -1</clus>
<clus scale="   39.636">  5  6 -1 -1</clus>
<clus scale="  135.839">  1  5  2 -1</clus>
<clus scale="  135.839">  1  3  2 -1</clus>
</clustering>
</event>
<event>
 6    0  0.6549018E+002  0.1842249E+03  0.7546771E-02  0.1163776E+00
         21   -1    0    0  504  501  0.00000000000E+00  0.00000000000E+00  0.65062681369E+03  0.65062681369E+03  0.00000000000E+00 0.  1.
         21   -1    0    0  506  502 -0.00000000000E+00 -0.00000000000E+00 -0.34077967327E+03  0.34077967327E+03  0.00000000000E+00 0.  1.
         21    1    1    2  503  505 -0.61988255297E+02 -0.10471561090E+02 -0.73977048393E+02  0.97081414675E+02  0.00000000000E+00 0.  1.
         21    1    1    2  504  502 -0.13536455629E+03 -0.30834313446E+02  0.56171450840E+02  0.14976498214E+03  0.00000000000E+00 0.  1.
         21    1    1    2  505  501  0.29019603122E+03 -0.26612906215E+02  0.47521903757E+03  0.55745413891E+03  0.00000000000E+00 0.  1.
         21    1    1    2  506  503 -0.92843219639E+02  0.67918780751E+02 -0.14756629960E+03  0.18710595124E+03  0.00000000000E+00 0.  1.
<scales pt_clust_3="49.08164" pt_clust_4="138.83198" pt_clust_5="171.84517" pt_clust_6="49.08164"></scales>
<clustering>
<clus scale="   49.082">  3  6 -1 -1</clus>
<clus scale="  138.832">  1  4  2 -1</clus>
<clus scale="  171.845">  1  5  2 -1</clus>
<clus scale="  138.832">  1  3  2 -1</clus>
</clustering>
</event>
<event>
 6    0  0.6549018E+002  0.1101390E+03  0.7546771E-02  0.1260313E+00
         21   -1    0    0  504  501  0.00000000000E+00  0.00000000000E+00  0.70897393581E+03  0.70897393581E+03  0.00000000000E+00 0.  1.
         21   -1    0    0  501  502 -0.00000000000E+00 -0.00000000000E+00 -0.19108650410E+03  0.19108650410E+03  0.00000000000E+00 0.  1.
         21    1    1    2  503  502  0.30383145583E+02  0.11369622203E+02  0.65259213378E+01  0.33090655688E+02  0.00000000000E+00 0. -1.
         21    1    1    2  504  506  0.73254252937E+02  0.82152251525E+02  0.64598401664E+03  0.65529422991E+03  0.00000000000E+00 0.  1.
         21    1    1    2  505  503  0.15759717497E+01 -0.37062744667E+02 -0.86216796747E+01  0.38084958837E+02  0.00000000000E+00 0. -1.
         21    1    1    2  506  505 -0.10521337027E+03 -0.56459129062E+02 -0.12600082659E+03  0.17359059548E+03  0.00000000000E+00 0.  1.
<scales pt_clust_3="32.44077" pt_clust_4="110.13897" pt_clust_5="36.00237" pt_clust_6="14000.00000"></scales>
<clustering>
<clus scale="   32.441">  2  3  1 -1</clus>
<clus scale="   36.002">  2  5  1 -1</clus>
<clus scale="  110.139">  1  4  2 -1</clus>
<clus scale="  110.139">  1  3  2 -1</clus>
</clustering>
</event>
<event>
 6    0  0.6549018E+002  0.8309043E+02  0.7546771E-02  0.1320503E+00
         21   -1    0    0  506  501  0.00000000000E+00  0.00000000000E+00  0.32598625911E+03  0.32598625911E+03  0.00000000000E+00 0.  1.
         21   -1    0    0  503  502 -0.00000000000E+00 -0.00000000000E+00 -0.21434282049E+04  0.21434282049E+04  0.00000000000E+00 0.  1.
         21    1    1    2  503  505  0.10259508142E+03  0.15794193015E+02  0.13864709185E+03  0.17319995191E+03  0.00000000000E+00 0.  1.
         21    1    1    2  504  502  0.13563364376E+01 -0.83206056286E+02 -0.20825754806E+04  0.20842374432E+04  0.00000000000E+00 0.  1.
         21    1    1    2  505  501 -0.52254838343E+02  0.77367191202E+01 -0.10508110327E+02  0.53859496243E+02  0.00000000000E+00 0.  1.
         21    1    1    2  506  504 -0.51696579513E+02  0.59675144151E+02  0.13699455324E+03  0.15811757265E+03  0.00000000000E+00 0.  1.
<scales pt_clust_3="78.35276" pt_clust_4="14000.00000" pt_clust_5="52.82447" pt_clust_6="83.09043"></scales>
<clustering>
<clus scale="   52.824">  1  5  2 -1</clus>
<clus scale="   78.353">  1  3  2 -1</clus>
<clus scale="   83.090">  1  6  2 -1</clus>
<clus scale="   52.824">  1  3  2 -1</clus>
</clustering>
</event>
<event>
 6    0  0.6549018E+002  0.1325512E+03  0.7546771E-02  0.1223719E+00
         21   -1    0    0  504  501  0.00000000000E+00  0.00000000000E+00  0.36326885501E+03  0.36326885501E+03  0.00000000000E+00 0. -1.
         21   -1    0    0  506  502 -0.00000000000E+00 -0.00000000000E+00 -0.62333455912E+03  0.62333455912E+03  0.00000000000E+00 0.  1.
         21    1    1    2  503  502  0.41773510358E+02 -0.81733655096E+02 -0.46358520404E+02  0.10283252869E+03  0.00000000000E+00 0. -1.
         21    1    1    2  504  503 -0.71388484969E+02 -0.66765646884E+02  0.12791860669E+03  0.16098800368E+03  0.00000000000E+00 0. -1.
         21    1    1    2  505  501  0.30233639602E+02 -0.26689978084E+01  0.17853720523E+03  0.18109867521E+03  0.00000000000E+00 0. -1.
         21    1    1    2  506  505 -0.61866499065E+00  0.15116829979E+03 -0.52016299562E+03  0.54168420655E+03  0.00000000000E+00 0.  1.
<scales pt_clust_3="14000.00000" pt_clust_4="83.70624" pt_clust_5="30.35122" pt_clust_6="132.55120"></scales>
<clustering>
<clus scale="   30.351">  1  5  2 -1</clus>
<clus scale="   83.706">  1  4  2 -1</clus>
<clus scale="  132.551">  2  6  1 -1</clus>
<clus scale="   30.351">  1  3  2 -1</clus>
</clustering>
</event>
<event>
 6    0  0.6780866E+002  0.1293925E+03  0.7546771E-02  0.1228360E+00
         21   -1    0    0  506  501  0.00000000000E+00  0.00000000000E+00  0.59804046866E+03  0.59804046866E+03  0.00000000000E+00 0.  1.
         21   -1    0    0  505  502 -0.00000000000E+00 -0.00000000000E+00 -0.62556148264E+03  0.62556148264E+03  0.00000000000E+00 0. -1.
         21    1    1    2  503  504 -0.63989764945E+02  0.16922466794E+02  0.20970928743E+03  0.21990690106E+03  0.00000000000E+00 0.  1.
         21    1    1    2  504  501 -0.55211512227E+02 -0.22741255104E+00  0.36907331592E+03  0.37318021829E+03  0.00000000000E+00 0.  1.
         21    1    1    2  505  503  0.11136112867E+02  0.28421422534E+02 -0.31348867053E+02  0.43755476619E+02  0.00000000000E+00 0. -1.
         21    1    1    2  506  502  0.10806516430E+03 -0.45116476777E+02 -0.57495475027E+03  0.58675935533E+03  0.00000000000E+00 0. -1.
<scales pt_clust_3="43.56027" pt_clust_4="43.56027" pt_clust_5="30.52524" pt_clust_6="120.27908"></scales>
<clustering>
<clus scale="   30.525">  2  5  1 -1</clus>
<clus scale="   43.560">  3  4 -1 -1</clus>
<clus scale="  120.279">  2  6  1 -1</clus>
<clus scale="  129.392">  1  3  2 -1</clus>
</clustering>
</event>
<event>
 6    0  0.6549018E+002  0.1296639E+03  0.7546771E-02  0.1227955E+00
         21   -1    0    0  505  501  0.00000000000E+00  0.00000000000E+00  0.15391977201E+03  0.15391977201E+03  0.00000000000E+00 0.  1.
         21   -1    0    0  504  502 -0.00000000000E+00 -0.00000000000E+00 -0.12522844041E+04  0.12522844041E+04  0.00000000000E+00 0. -1.
         21    1    1    2  503  506  0.75652409870E+02  0.16483569901E+01 -0.68321950826E+03  0.68739719280E+03  0.00000000000E+00 0. -1.
         21    1    1    2  504  501 -0.55948030345E+02 -0.69189275542E+02  0.87254970891E+02  0.12462250156E+03  0.00000000000E+00 0.  1.
         21    1    1    2  505  503 -0.62514426932E+02  0.10398088040E+03 -0.39078432989E+02  0.12746450874E+03  0.00000000000E+00 0. -1.
         21    1    1    2  506  502  0.42810047407E+02 -0.36439961852E+02 -0.46332166178E+03  0.46671997306E+03  0.00000000000E+00 0. -1.
<scales pt_clust_3="40.29957" pt_clust_4="88.97942" pt_clust_5="120.94111" pt_clust_6="40.29957"></scales>
<clustering>
<clus scale="   40.300">  3  6 -1 -1</clus>
<clus scale="   88.979">  1  4  2 -1</clus>
<clus scale="  120.941">  1  5  2 -1</clus>
<clus scale="   88.979">  1  3  2 -1</clus>
</clustering>
</event>
<event>
 6    0  0.6549018E+002  0.8009567E+02  0.7546771E-02  0.1328780E+00
         21   -1    0    0  506  501  0.00000000000E+00  0.00000000000E+00  0.67840525154E+03  0.67840525154E+03  0.00000000000E+00 0. -1.
         21   -1    0    0  505  502 -0.00000000000E+00 -0.00000000000E+00 -0.49012762668E+02  0.49012762668E+02  0.00000000000E+00 0.  1.
         21    1    1    2  503  504  0.34520398296E+02  0.80092010051E+02  0.30049063715E+03  0.31289137250E+03  0.00000000000E+00 0. -1.
         21    1    1    2  504  502 -0.42586192840E+02  0.23915232159E+02 -0.41246464715E+01  0.49015659318E+02  0.00000000000E+00 0.  1.
         21    1    1    2  505  501 -0.22247187398E+02 -0.23912832082E+02  0.14611575980E+02  0.35780707622E+02  0.00000000000E+00 0. -1.
         21    1    1    2  506  503  0.30312981942E+02 -0.80094410128E+02  0.31841492222E+03  0.32973027477E+03  0.00000000000E+00 0. -1.
<scales pt_clust_3="80.09567" pt_clust_4="58.43648" pt_clust_5="32.66131" pt_clust_6="14000.00000"></scales>
<clustering>
<clus scale="   32.661">  2  5  1 -1</clus>
<clus scale="   58.436">  2  4  1 -1</clus>
<clus scale="   80.096">  2  3  1 -1</clus>
<clus scale="   80.096">  1  3  2 -1</clus>
</clustering>
</event>
<event>
 6    0  0.6549018E+002  0.2129066E+03  0.7546771E-02  0.1139285E+00
         21   -1    0    0  506  501  0.00000000000E+00  0.00000000000E+00  0.15968497137E+04  0.15968497137E+04  0.00000000000E+00 0.  1.
         21   -1    0    0  503  502 -0.00000000000E+00 -0.00000000000E+00 -0.16859024594E+03  0.16859024594E+03  0.00000000000E+00 0. -1.
         21    1    1    2  503  504  0.46274733183E+02  0.37716014312E+02 -0.71800677459E+02  0.93376581381E+02  0.00000000000E+00 0. -1.
         21    1    1    2  504  505  0.10316197575E+03  0.12762586611E+03  0.19701179344E+02  0.16528427453E+03  0.00000000000E+00 0. -1.
         21    1    1    2  505  501 -0.99134880572E+02 -0.19756603849E+03  0.11450314918E+04  0.11661720205E+04  0.00000000000E+00 0.  1.
         21    1    1    2  506  502 -0.50301828365E+02  0.32224158074E+02  0.33532747400E+03  0.34060708319E+03  0.00000000000E+00 0.  1.
<scales pt_clust_3="59.69798" pt_clust_4="14000.00000" pt_clust_5="212.90656" pt_clust_6="59.19242"></scales>
<clustering>
<clus scale="   59.698">  2  3  1 -1</clus>
<clus scale="   59.192">  1  6  2 -1</clus>
<clus scale="  212.907">  1  5  2 -1</clus>
<clus scale="   59.192">  1  3  2 -1</clus>
</clustering>
</event>
<event>
 6    0  0.6549018E+002  0.8293913E+02  0.7546771E-02  0.1320912E+00
         21   -1    0    0  506  501  0.00000000000E+00  0.00000000000E+00  0.20490172590E+02  0.20490172590E+02  0.00000000000E+00 0. -1.
         21   -1    0    0  505  502 -0.00000000000E+00 -0.00000000000E+00 -0.13593761188E+04  0.13593761188E+04  0.00000000000E+00 0. -1.
         21    1    1    2  503  501 -0.55403886466E+02  0.20460018982E+02 -0.27595170743E+03  0.28220125416E+03  0.00000000000E+00 0. -1.
         21    1    1    2  504  502  0.44591581343E+02 -0.13548239060E+03 -0.58814477132E+03  0.60519266297E+03  0.00000000000E+00 0. -1.
         21    1    1    2  505  503 -0.21860876563E+01  0.46996802970E+02 -0.31252154131E+03  0.31604302278E+03  0.00000000000E+00 0. -1.
         21    1    1    2  506  504  0.12998392780E+02  0.68025568648E+02 -0.16226792614E+03  0.17642935146E+03  0.00000000000E+00 0. -1.
<scales pt_clust_3="64.99434" pt_clust_4="14000.00000" pt_clust_5="47.04762" pt_clust_6="82.93913"></scales>
<clustering>
<clus scale="   47.048">  2  5  1 -1</clus>
<clus scale="   64.994">  2  3  1 -1</clus>
<clus scale="   82.939">  1  6  2 -1</clus>
<clus scale="   82.939">  1  3  2 -1</clus>
</clustering>
</event>
<event>
 6    0  0.6549018E+002  0.1447067E+03  0.7546771E-02  0.1207132E+00
         21   -1    0    0  503  501  0.00000000000E+00  0.00000000000E+00  0.29285475539E+03  0.29285475539E+03  0.00000000000E+00 0.  1.
         21   -1    0    0  504  502 -0.00000000000E+00 -0.00000000000E+00 -0.93663028242E+03  0.93663028242E+03  0.00000000000E+00 0.  1.
         21    1    1    2  503  506 -0.10424297937E+03  0.32730313056E+02 -0.86532535458E+01  0.10960269585E+03  0.00000000000E+00 0.  1.
         21    1    1    2  504  501 -0.35337369661E+02  0.50543067059E+01  0.20416454701E+03  0.20726176195E+03  0.00000000000E+00 0.  1.
         21    1    1    2  505  502 -0.62630596971E+02  0.85553429821E+02 -0.39687632155E+03  0.41079532086E+03  0.00000000000E+00 0.  1.
         21    1    1    2  506  505  0.20221094600E+03 -0.12333804958E+03 -0.44241049894E+03  0.50182525916E+03  0.00000000000E+00 0.  1.
<scales pt_clust_3="144.70673" pt_clust_4="35.69700" pt_clust_5="108.04022" pt_clust_6="14000.00000"></scales>
<clustering>
<clus scale="   35.697">  1  4  2 -1</clus>
<clus scale="  108.040">  2  5  1 -1</clus>
<clus scale="  144.707">  1  3  2 -1</clus>
<clus scale="   35.697">  1  3  2 -1</clus>
</clustering>
</event>
<event>
 6    0  0.6549018E+002  0.9399458E+02  0.7546771E-02  0.1293457E+00
         21   -1    0    0  504  501  0.00000000000E+00  0.00000000000E+00  0.56690374456E+02  0.56690374456E+02  0.00000000000E+00 0.  1.
         21   -1    0    0  503  502 -0.00000000000E+00 -0.00000000000E+00 -0.61017682450E+03  0.61017682450E+03  0.00000000000E+00 0. -1.
         21    1    1    2  503  506  0.20679479263E+02 -0.28086327335E+02 -0.74855110236E+02  0.82581899798E+02  0.00000000000E+00 0.  1.
         21    1    1    2  504  502  0.70975008373E+02  0.76470900942E+02 -0.39965698623E+03  0.41305079245E+03  0.00000000000E+00 0. -1.
         21    1    1    2  505  501 -0.65015163103E+02  0.26029340758E+02 -0.53708584751E+02  0.88255935152E+02  0.00000000000E+00 0.  1.
         21    1    1    2  506  505 -0.26639324533E+02 -0.74413914365E+02 -0.25265768828E+02  0.82978571554E+02  0.00000000000E+00 0.  1.
<scales pt_clust_3="34.87811" pt_clust_4="14000.00000" pt_clust_5="66.11938" pt_clust_6="93.99458"></scales>
<clustering>
<clus scale="   34.878">  2  3  1 -1</clus>
<clus scale="   66.119">  1  5  2 -1</clus>
<clus scale="   93.995">  1  6  2 -1</clus>
<clus scale="   66.119">  1  3  2 -1</clus>
</clustering>
</event>
<event>
 6    0  0.6549018E+002  0.1308275E+03  0.7546771E-02  0.1226233E+00
         21   -1    0    0  504  501  0.00000000000E+00  0.00000000000E+00  0.30891106262E+03  0.30891106262E+03  0.00000000000E+00 0. -1.
         21   -1    0    0  503  502 -0.00000000000E+00 -0.00000000000E+00 -0.22987772452E+03  0.22987772452E+03  0.00000000000E+00 0. -1.
         21    1    1    2  503  505  0.80263447691E+02 -0.45706947871E+02 -0.57478269235E+02  0.10878923455E+03  0.00000000000E+00 0. -1.
         21    1    1    2  504  502 -0.10952954204E+03  0.48233865733E+02 -0.67272011670E+02  0.13729074964E+03  0.00000000000E+00 0. -1.
         21    1    1    2  505  506  0.17148041561E+02 -0.42360683443E+02 -0.30377322312E+02  0.54874990132E+02  0.00000000000E+00 0. -1.
         21    1    1    2  506  501  0.12118052784E+02  0.39833765580E+02  0.23416094132E+03  0.23783381283E+03  0.00000000000E+00 0. -1.
<scales pt_clust_3="30.02847" pt_clust_4="123.66630" pt_clust_5="30.02847" pt_clust_6="41.63624"></scales>
<clustering>
<clus scale="   30.028">  3  5 -1 -1</clus>
<clus scale="   41.636">  1  6  2 -1</clus>
<clus scale="  123.666">  2  4  1 -1</clus>
<clus scale="   41.636">  1  3  2 -1</clus>
</clustering>
</event>
<event>
 6    0  0.6549018E+002  0.1496228E+03  0.7546771E-02  0.1200937E+00
         21   -1    0    0  506  501  0.00000000000E+00  0.00000000000E+00  0.50739182737E+02  0.50739182737E+02  0.00000000000E+00 0.  1.
         21   -1    0    0  503  502 -0.00000000000E+00 -0.00000000000E+00 -0.12667908809E+04  0.12667908809E+04  0.00000000000E+00 0. -1.
         21    1    1    2  503  505  0.34072219434E+02  0.57078192604E+02 -0.85751990264E+02  0.10849995411E+03  0.00000000000E+00 0.  1.
         21    1    1    2  504  501 -0.28411791542E+02  0.24940214348E+02  0.14385349499E+02  0.40449752416E+02  0.00000000000E+00 0.  1.
         21    1    1    2  505  504 -0.16029133021E+02  0.61139180022E+02 -0.13888953955E+03  0.15259500856E+03  0.00000000000E+00 0.  1.
         21    1    1    2  506  502  0.10368705129E+02 -0.14315758697E+03 -0.10057955179E+04  0.10159853486E+04  0.00000000000E+00 0. -1.
<scales pt_clust_3="58.14034" pt_clust_4="37.80535" pt_clust_5="58.14034" pt_clust_6="137.77194"></scales>
<clustering>
<clus scale="   37.805">  1  4  2 -1</clus>
<clus scale="   58.140">  3  5 -1 -1</clus>
<clus scale="  137.772">  2  6  1 -1</clus>
<clus scale="   37.805">  1  3  2 -1</clus>
</clustering>
</event>
<event>
 6    0  0.6549018E+002  0.7791359E+02  0.7546771E-02  0.1335079E+00
         21   -1    0    0  504  501  0.00000000000E+00  0.00000000000E+00  0.54264083472E+03  0.54264083472E+03  0.00000000000E+00 0.  1.
         21   -1    0    0  503  502 -0.00000000000E+00 -0.00000000000E+00 -0.26356253232E+03  0.26356253232E+03  0.00000000000E+00 0.  1.
         21    1    1    2  503  505  0.57662603495E+02  0.88093409519E+01  0.61152204767E+02  0.84511374842E+02  0.00000000000E+00 0.  1.
         21    1    1    2  504  506 -0.41166376758E+02  0.55578045166E+02 -0.77033824679E+02  0.10352680727E+03  0.00000000000E+00 0.  1.
         21    1    1    2  505  501 -0.59134490641E+02 -0.67232574658E+02  0.44924010622E+03  0.45807617283E+03  0.00000000000E+00 0.  1.
         21    1    1    2  506  502  0.42638263905E+02  0.28451885403E+01 -0.15428018391E+03  0.16008901210E+03  0.00000000000E+00 0. -1.
<scales pt_clust_3="77.91359" pt_clust_4="58.20615" pt_clust_5="14000.00000" pt_clust_6="42.73309"></scales>
<clustering>
<clus scale="   42.733">  2  6  1 -1</clus>
<clus scale="   58.206">  2  4  1 -1</clus>
<clus scale="   77.914">  2  3  1 -1</clus>
<clus scale="   77.914">  1  3  2 -1</clus>
</clustering>
</event>
<event>
 6    0  0.6549018E+002  0.1172767E+03  0.7546771E-02  0.1247658E+00
         21   -1    0    0  506  501  0.00000000000E+00  0.00000000000E+00  0.83741607993E+02  0.83741607993E+02  0.00000000000E+00 0.  1.
         21   -1    0    0  504  502 -0.00000000000E+00 -0.00000000000E+00 -0.92146777926E+03  0.92146777926E+03  0.00000000000E+00 0. -1.
         21    1    1    2  503  501 -0.84351446763E+02  0.23648797466E+00  0.45740090350E+01  0.84475700980E+02  0.00000000000E+00 0. -1.
         21    1    1    2  504  503 -0.55819006369E+01  0.53058468114E+02 -0.15690457669E+03  0.16572689836E+03  0.00000000000E+00 0.  1.
         21    1    1    2  505  502  0.12174338891E+03 -0.18539849137E+00 -0.68224208651E+03  0.69301930111E+03  0.00000000000E+00 0. -1.
         21    1    1    2  506  505 -0.31810041511E+02 -0.53109557597E+02 -0.31535171018E+01  0.61987486796E+02  0.00000000000E+00 0.  1.
<scales pt_clust_3="117.27675" pt_clust_4="53.35128" pt_clust_5="14000.00000" pt_clust_6="60.09547"></scales>
<clustering>
<clus scale="   53.351">  2  4  1 -1</clus>
<clus scale="   60.095">  1  6  2 -1</clus>
<clus scale="  117.277">  1  3  2 -1</clus>
<clus scale="   60.095">  1  3  2 -1</clus>
</clustering>
</event>
<event>
 6    0  0.6549018E+002  0.1097572E+03  0.7546771E-02  0.1261020E+00
         21   -1    0    0  505  501  0.00000000000E+00  0.00000000000E+00  0.18512418282E+04  0.18512418282E+04  0.00000000000E+00 0. -1.
         21   -1    0    0  503  502 -0.00000000000E+00 -0.00000000000E+00 -0.41929117845E+03  0.41929117845E+03  0.00000000000E+00 0. -1.
         21    1    1    2  503  506  0.44082275926E+02 -0.10621637332E+02 -0.37611273999E+03  0.37883619074E+03  0.00000000000E+00 0. -1.
         21    1    1    2  504  502 -0.44831670202E+01 -0.48579447016E+02 -0.12944210872E+02  0.50473894778E+02  0.00000000000E+00 0.  1.
         21    1    1    2  505  504  0.15745668067E-01  0.15122833932E+03  0.72259631424E+03  0.73825161308E+03  0.00000000000E+00 0. -1.
         21    1    1    2  506  501 -0.39614854574E+02 -0.92027254971E+02  0.10984112864E+04  0.11029713081E+04  0.00000000000E+00 0. -1.
<scales pt_clust_3="45.34387" pt_clust_4="63.60126" pt_clust_5="14000.00000" pt_clust_6="109.75722"></scales>
<clustering>
<clus scale="   45.344">  2  3  1 -1</clus>
<clus scale="   63.601">  2  4  1 -1</clus>
<clus scale="  109.757">  1  6  2 -1</clus>
<clus scale="  109.757">  1  3  2 -1</clus>
</clustering>
</event>
<event>
 6    0  0.6549018E+002  0.9296547E+02  0.7546771E-02  0.1295825E+00
         21   -1    0    0  503  501  0.00000000000E+00  0.00000000000E+00  0.19525535526E+03  0.19525535526E+03  0.00000000000E+00 0. -1.
         21   -1    0    0  506  502 -0.00000000000E+00 -0.00000000000E+00 -0.57630890502E+03  0.57630890502E+03  0.00000000000E+00 0. -1.
         21    1    1    2  503  504  0.15895930587E+02  0.76542228819E+02 -0.21512274994E+03  0.22888685184E+03  0.00000000000E+00 0. -1.
         21    1    1    2  504  502 -0.24485508985E+02  0.34011226295E+02 -0.25815102166E+03  0.26153059792E+03  0.00000000000E+00 0. -1.
         21    1    1    2  505  501  0.39464282232E+02 -0.85969914644E+02  0.16964913775E+03  0.19423976353E+03  0.00000000000E+00 0. -1.
         21    1    1    2  506  505 -0.30874703834E+02 -0.24583540470E+02 -0.77428915911E+02  0.86907046999E+02  0.00000000000E+00 0.  1.
<scales pt_clust_3="14000.00000" pt_clust_4="45.85545" pt_clust_5="92.96547" pt_clust_6="39.46641"></scales>
<clustering>
<clus scale="   39.466">  2  6  1 -1</clus>
<clus scale="   45.855">  2  4  1 -1</clus>
<clus scale="   92.965">  1  5  2 -1</clus>
<clus scale="   92.965">  1  3  2 -1</clus>
</clustering>
</event>
<event>
 6    0  0.6549018E+002  0.5744288E+02  0.7546771E-02  0.1408887E+00
         21   -1    0    0  503  501  0.00000000000E+00  0.00000000000E+00  0.20239551857E+03  0.20239551857E+03  0.00000000000E+00 0.  1.
         21   -1    0    0  504  502 -0.00000000000E+00 -0.00000000000E+00 -0.12813360746E+03  0.12813360746E+03  0.00000000000E+00 0.  1.
         21    1    1    2  503  506 -0.27636654881E+02  0.48131270412E+02  0.94365766013E+02  0.10947740260E+03  0.00000000000E+00 0.  1.
         21    1    1    2  504  505  0.15451721753E+01  0.53073953707E+02 -0.39006582244E+02  0.65884334842E+02  0.00000000000E+00 0.  1.
         21    1    1    2  505  501  0.55016535614E+02 -0.10554977776E+02  0.21434519729E+02  0.59980541702E+02  0.00000000000E+00 0. -1.
         21    1    1    2  506  502 -0.28925052909E+02 -0.90650246343E+02 -0.25317923830E+01  0.95186846888E+02  0.00000000000E+00 0.  1.
<scales pt_clust_3="57.44288" pt_clust_4="53.09644" pt_clust_5="55.48898" pt_clust_6="14000.00000"></scales>
<clustering>
<clus scale="   53.096">  2  4  1 -1</clus>
<clus scale="   55.489">  2  5  1 -1</clus>
<clus scale="   57.443">  1  3  2 -1</clus>
<clus scale="   57.443">  1  3  2 -1</clus>
</clustering>
</event>
<event>
 6    0  0.6549018E+002  0.1946161E+03  0.7546771E-02  0.1154363E+00
         21   -1    0    0  506  501  0.00000000000E+00  0.00000000000E+00  0.71751334200E+03  0.71751334200E+03  0.00000000000E+00 0.  1.
         21   -1    0    0  503  502 -0.00000000000E+00 -0.00000000000E+00 -0.83726349876E+03  0.83726349876E+03  0.00000000000E+00 0.  1.
         21    1    1    2  503  504  0.62232207691E+02 -0.51543989441E+01 -0.16542929350E+03  0.17682269834E+03  0.00000000000E+00 0.  1.
         21    1    1    2  504  505  0.11811201025E+03  0.39533271893E+02 -0.64184264202E+03  0.65381595550E+03  0.00000000000E+00 0.  1.
         21    1    1    2  505  501 -0.14800213969E+03 -0.35290041016E+02  0.31095030666E+03  0.34617930839E+03  0.00000000000E+00 0.  1.
         21    1    1    2  506  502 -0.32342078249E+02  0.91116806754E+00  0.37657147210E+03  0.37795887853E+03  0.00000000000E+00 0.  1.
<scales pt_clust_3="47.74382" pt_clust_4="47.74382" pt_clust_5="182.50689" pt_clust_6="32.35491"></scales>
<clustering>
<clus scale="   32.355">  1  6  2 -1</clus>
<clus scale="   47.744">  3  4 -1 -1</clus>
<clus scale="  182.507">  1  5  2 -1</clus>
<clus scale="   32.355">  1  3  2 -1</clus>
</clustering>
</event>
<event>
 6    0  0.6549018E+002  0.9763295E+02  0.7546771E-02  0.1285354E+00
         21   -1    0    0  504  501  0.00000000000E+00  0.00000000000E+00  0.83094515165E+02  0.83094515165E+02  0.00000000000E+00 0. -1.
         21   -1    0    0  506  502 -0.00000000000E+00 -0.00000000000E+00 -0.13387670243E+04  0.13387670243E+04  0.00000000000E+00 0. -1.
         21    1    1    2  503  505 -0.63771769590E+02 -0.28829013325E+02 -0.64295545538E+03  0.64675317410E+03  0.00000000000E+00 0. -1.
         21    1    1    2  504  502  0.28893228044E+02  0.99444504981E+02  0.22857660277E+01  0.10358210716E+03  0.00000000000E+00 0. -1.
         21    1    1    2  505  501  0.32819076327E+02 -0.18641719635E+02  0.14088989034E+02  0.40287778469E+02  0.00000000000E+00 0. -1.
         21    1    1    2  506  503  0.20594652190E+01 -0.51973772022E+02 -0.62909180884E+03  0.63123847975E+03  0.00000000000E+00 0. -1.
<scales pt_clust_3="14000.00000" pt_clust_4="97.63295" pt_clust_5="37.74395" pt_clust_6="52.40074"></scales>
<clustering>
<clus scale="   37.744">  1  5  2 -1</clus>
<clus scale="   52.401">  2  6  1 -1</clus>
<clus scale="   97.633">  1  4  2 -1</clus>
<clus scale="   37.744">  1  3  2 -1</clus>
</clustering>
</event>
<event>
 6    0  0.6549018E+002  0.1050563E+03  0.7546771E-02  0.1270009E+00
         21   -1    0    0  505  501  0.00000000000E+00  0.00000000000E+00  0.10224404195E+03  0.10224404195E+03  0.00000000000E+00 0.  1.
         21   -1    0    0  504  502 -0.00000000000E+00 -0.00000000000E+00 -0.55056906710E+03  0.55056906710E+03  0.00000000000E+00 0.  1.
         21    1    1    2  503  506  0.33135680153E+02  0.62006051242E+02 -0.66915324622E+02  0.97058664524E+02  0.00000000000E+00 0.  1.
         21    1    1    2  504  501 -0.55621324411E+02 -0.17793962638E+03 -0.22014899900E+03  0.28848193033E+03  0.00000000000E+00 0.  1.
         21    1    1    2  505  503 -0.26163291468E+02  0.90824049513E+02  0.25539133757E+01  0.94551828454E+02  0.00000000000E+00 0.  1.
         21    1    1    2  506  502  0.48648935727E+02  0.25109525625E+02 -0.16381461491E+03  0.17272068574E+03  0.00000000000E+00 0.  1.
<scales pt_clust_3="80.24822" pt_clust_4="105.05625" pt_clust_5="14000.00000" pt_clust_6="54.74676"></scales>
<clustering>
<clus scale="   54.747">  2  6  1 -1</clus>
<clus scale="   80.248">  2  3  1 -1</clus>
<clus scale="  105.056">  2  4  1 -1</clus>
<clus scale="  105.056">  1  3  2 -1</clus>
</clustering>
</event>
<event>
 6    0  0.7027687E+002  0.1509324E+03  0.7546771E-02  0.1199332E+00
         21   -1    0    0  505  501  0.00000000000E+00  0.00000000000E+00  0.20306085010E+03  0.20306085010E+03  0.00000000000E+00 0.  1.
         21   -1    0    0  504  502 -0.00000000000E+00 -0.00000000000E+00 -0.24347418531E+04  0.24347418531E+04  0.00000000000E+00 0.  1.
         21    1    1    2  503  506 -0.11858017523E+03 -0.84422023846E+02 -0.21120134308E+04  0.21170236343E+04  0.00000000000E+00 0.  1.
         21    1    1    2  504  503  0.28017245404E+02 -0.37865419792E+02 -0.26972472208E+03  0.27380683292E+03  0.00000000000E+00 0. -1.
         21    1    1    2  505  502  0.65024760536E+02  0.96003227297E+02  0.16959309857E+03  0.20544259105E+03  0.00000000000E+00 0.  1.
         21    1    1    2  506  501  0.25538169293E+02  0.26284216341E+02 -0.19535948649E+02  0.41529644944E+02  0.00000000000E+00 0. -1.
<scales pt_clust_3="14000.00000" pt_clust_4="47.04213" pt_clust_5="150.93243" pt_clust_6="36.64776"></scales>
<clustering>
<clus scale="   36.648">  1  6  2 -1</clus>
<clus scale="   47.042">  2  4  1 -1</clus>
<clus scale="  150.932">  1  5  2 -1</clus>
<clus scale="   36.648">  1  3  2 -1</clus>
</clustering>
</event>
<event>
 6    0  0.6549018E+002  0.2760960E+03  0.7546771E-02  0.1097841E+00
         21   -1    0    0  505  501  0.00000000000E+00  0.00000000000E+00  0.32775649002E+03  0.32775649002E+03  0.00000000000E+00 0. -1.
         21   -1    0    0  506  502 -0.00000000000E+00 -0.00000000000E+00 -0.11989918403E+04  0.11989918403E+04  0.00000000000E+00 0. -1.
         21    1    1    2  503  504  0.99440692503E+01  0.21424940960E+03  0.17761435645E+03  0.27847540941E+03  0.00000000000E+00 0. -1.
         21    1    1    2  504  501  0.57916407297E+02  0.52268330494E+02  0.49496247608E+02  0.92391380194E+02  0.00000000000E+00 0.  1.
         21    1    1    2  505  502 -0.41599554229E+02 -0.89796008151E+02 -0.81448623737E+03  0.82047649379E+03  0.00000000000E+00 0. -1.
         21    1    1    2  506  503 -0.26260922318E+02 -0.17672173195E+03 -0.28385971700E+03  0.33540504695E+03  0.00000000000E+00 0. -1.
<scales pt_clust_3="61.28652" pt_clust_4="61.28652" pt_clust_5="98.96386" pt_clust_6="256.71545"></scales>
<clustering>
<clus scale="   61.287">  3  4 -1 -1</clus>
<clus scale="   98.964">  2  5  1 -1</clus>
<clus scale="  256.715">  2  6  1 -1</clus>
<clus scale="  276.096">  1  3  2 -1</clus>
</clustering>
</event>
<event>
 6    0  0.6549018E+002  0.6860238E+02  0.7546771E-02  0.1364911E+00
         21   -1    0    0  505  501  0.00000000000E+00  0.00000000000E+00  0.20824426741E+04  0.20824426741E+04  0.00000000000E+00 0. -1.
         21   -1    0    0  506  502 -0.00000000000E+00 -0.00000000000E+00 -0.27091153771E+03  0.27091153771E+03  0.00000000000E+00 0. -1.
         21    1    1    2  503  501  0.30585490018E+02  0.24341838091E+02  0.16732488778E+04  0.16737054114E+04  0.00000000000E+00 0. -1.
         21    1    1    2  504  503 -0.92426822220E+02 -0.43937756651E+02  0.36453753927E+03  0.37863024372E+03  0.00000000000E+00 0.  1.
         21    1    1    2  505  502 -0.10126120838E+02 -0.48164342745E+02  0.50517693895E+01  0.49475879065E+02  0.00000000000E+00 0. -1.
         21    1    1    2  506  504  0.71967453040E+02  0.67760261305E+02 -0.23130704998E+03  0.25154267765E+03  0.00000000000E+00 0. -1.
<scales pt_clust_3="39.08961" pt_clust_4="14000.00000" pt_clust_5="47.23898" pt_clust_6="68.60238"></scales>
<clustering>
<clus scale="   39.090">  1  3  2 -1</clus>
<clus scale="   47.239">  2  5  1 -1</clus>
<clus scale="   68.602">  2  6  1 -1</clus>
<clus scale="   39.090">  1  3  2 -1</clus>
</clustering>
</event>
<event>
 6    0  0.6549018E+002  0.1602789E+03  0.7546771E-02  0.1188382E+00
         21   -1    0    0  506  501  0.00000000000E+00  0.00000000000E+00  0.21586333414E+04  0.21586333414E+04  0.00000000000E+00 0. -1.
         21   -1    0    0  503  502 -0.00000000000E+00 -0.00000000000E+00 -0.14766278524E+03  0.14766278524E+03  0.00000000000E+00 0.  1.
         21    1    1    2  503  501  0.11634178246E+03  0.19102573504E+03  0.70002917748E+03  0.73489257114E+03  0.00000000000E+00 0. -1.
         21    1    1    2  504  502 -0.76967815576E+02 -0.46612860495E+02 -0.43171605029E+02  0.99802759876E+02  0.00000000000E+00 0.  1.
         21    1    1    2  505  504 -0.79189755582E+00 -0.65404788823E+02 -0.38709702466E+02  0.76005621949E+02  0.00000000000E+00 0.  1.
         21    1    1    2  506  505 -0.38582069330E+02 -0.79008085720E+02  0.13928226862E+04  0.13955951737E+04  0.00000000000E+00 0. -1.
<scales pt_clust_3="141.70322" pt_clust_4="63.85646" pt_clust_5="63.85646" pt_clust_6="87.92527"></scales>
<clustering>
<clus scale="   63.856">  4  5 -1 -1</clus>
<clus scale="   87.925">  1  6  2 -1</clus>
<clus scale="  141.703">  1  3  2 -1</clus>
<clus scale="   87.925">  1  3  2 -1</clus>
</clustering>
</event>
<event>
 6    0  0.6549018E+002  0.1151782E+03  0.7546771E-02  0.1251270E+00
         21   -1    0    0  504  501  0.00000000000E+00  0.00000000000E+00  0.36154647703E+03  0.36154647703E+03  0.00000000000E+00 0. -1.
         21   -1    0    0  505  502 -0.00000000000E+00 -0.00000000000E+00 -0.66554746381E+02  0.66554746381E+02  0.00000000000E+00 0. -1.
         21    1    1    2  503  506  0.11094627502E+02 -0.48890329334E+02  0.76003536439E+02  0.91048847402E+02  0.00000000000E+00 0. -1.
         21    1    1    2  504  502  0.66672952726E+01  0.13420220725E+03  0.79885023749E+02  0.15632115109E+03  0.00000000000E+00 0. -1.
         21    1    1    2  505  503 -0.63121491209E+01 -0.31748902907E+02  0.12491638936E+01  0.32394389526E+02  0.00000000000E+00 0. -1.
         21    1    1    2  506  501 -0.11449773654E+02 -0.53562975012E+02  0.13785400656E+03  0.14833683539E+03  0.00000000000E+00 0. -1.
<scales pt_clust_3="31.34811" pt_clust_4="110.41904" pt_clust_5="32.37030" pt_clust_6="31.34811"></scales>
<clustering>
<clus scale="   31.348">  3  6 -1 -1</clus>
<clus scale="   32.370">  2  5  1 -1</clus>
<clus scale="  110.419">  2  4  1 -1</clus>
<clus scale="  115.178">  1  3  2 -1</clus>
</clustering>
</event>
<event>
 6    0  0.6549018E+002  0.1133277E+03  0.7546771E-02  0.1254529E+00
         21   -1    0    0  504  501  0.00000000000E+00  0.00000000000E+00  0.21332969420E+03  0.21332969420E+03  0.00000000000E+00 0. -1.
         21   -1    0    0  505  502 -0.00000000000E+00 -0.00000000000E+00 -0.12573665277E+03  0.12573665277E+03  0.00000000000E+00 0.  1.
         21    1    1    2  503  501  0.63793546297E+02 -0.40873401714E+02  0.89773091132E+02  0.11747110031E+03  0.00000000000E+00 0. -1.
         21    1    1    2  504  502 -0.20916963352E+02  0.85755507985E+02 -0.38863919234E+02  0.96446517427E+02  0.00000000000E+00 0.  1.
         21    1    1    2  505  506 -0.49261822471E+02 -0.16468086653E+01 -0.20324623110E+02  0.53315377111E+02  0.00000000000E+00 0.  1.
         21    1    1    2  506  503  0.63852395257E+01 -0.43235297606E+02  0.57008492645E+02  0.71833352118E+02  0.00000000000E+00 0. -1.
<scales pt_clust_3="36.36111" pt_clust_4="102.71888" pt_clust_5="49.28934" pt_clust_6="36.36111"></scales>
<clustering>
<clus scale="   36.361">  3  6 -1 -1</clus>
<clus scale="   49.289">  2  5  1 -1</clus>
<clus scale="  102.719">  2  4  1 -1</clus>
<clus scale="  113.328">  1  3  2 -1</clus>
</clustering>
</event>
<event>
 6    0  0.6549018E+002  0.1456061E+03  0.7546771E-02  0.1205979E+00
         21   -1    0    0  504  501  0.00000000000E+00  0.00000000000E+00  0.31840977537E+03  0.31840977537E+03  0.00000000000E+00 0. -1.
         21   -1    0    0  503  502 -0.00000000000E+00 -0.00000000000E+00 -0.50076322166E+03  0.50076322166E+03  0.00000000000E+00 0. -1.
         21    1    1    2  503  505 -0.15594485861E+03 -0.61941849525E+02 -0.38695945818E+03  0.42177388957E+03  0.00000000000E+00 0. -1.
         21    1    1    2  504  506  0.27413726413E+01  0.36506085447E+02  0.11761473678E+03  0.12318050051E+03  0.00000000000E+00 0. -1.
         21    1    1    2  505  501  0.13834193435E+03 -0.23661537075E+01  0.14981259395E+03  0.20393112266E+03  0.00000000000E+00 0. -1.
         21    1    1    2  506  502  0.14861551621E+02  0.27801917786E+02 -0.62821318828E+02  0.70287484295E+02  0.00000000000E+00 0. -1.
<scales pt_clust_3="145.60607" pt_clust_4="36.79378" pt_clust_5="14000.00000" pt_clust_6="31.52479"></scales>
<clustering>
<clus scale="   31.525">  2  6  1 -1</clus>
<clus scale="   36.794">  1  4  2 -1</clus>
<clus scale="  145.606">  2  3  1 -1</clus>
<clus scale="   36.794">  1  3  2 -1</clus>
</clustering>
</event>
<event>
 6    0  0.6549018E+002  0.1013537E+03  0.7546771E-02  0.1277475E+00
         21   -1    0    0  503  501  0.00000000000E+00  0.00000000000E+00  0.20794977246E+03  0.20794977246E+03  0.00000000000E+00 0.  1.
         21   -1    0    0  504  502 -0.00000000000E+00 -0.00000000000E+00 -0.59536352587E+03  0.59536352587E+03  0.00000000000E+00 0.  1.
         21    1    1    2  503  506  0.28784448937E+02 -0.13818880416E+02  0.48923772749E+02  0.58421241826E+02  0.00000000000E+00 0.  1.
         21    1    1    2  504  501  0.54085447277E+02 -0.78137684876E+01 -0.33784425603E+03  0.34223534581E+03  0.00000000000E+00 0.  1.
         21    1    1    2  505  502  0.26167314955E+02  0.74253590830E+02 -0.21846143592E+03  0.23221482103E+03  0.00000000000E+00 0.  1.
         21    1    1    2  506  505 -0.10903721117E+03 -0.52620941926E+02  0.11996816579E+03  0.17044188966E+03  0.00000000000E+00 0.  1.
<scales pt_clust_3="31.92970" pt_clust_4="55.08068" pt_clust_5="101.35371" pt_clust_6="14000.00000"></scales>
<clustering>
<clus scale="   31.930">  1  3  2 -1</clus>
<clus scale="   55.081">  2  4  1 -1</clus>
<clus scale="  101.354">  2  5  1 -1</clus>
<clus scale="   31.930">  1  3  2 -1</clus>
</clustering>
</event>
<event>
 6    0  0.6549018E+002  0.1535976E+03  0.7546771E-02  0.1196121E+00
         21   -1    0    0  506  501  0.00000000000E+00  0.00000000000E+00  0.45547924839E+03  0.45547924839E+03  0.00000000000E+00 0. -1.
         21   -1    0    0  503  502 -0.00000000000E+00 -0.00000000000E+00 -0.17476173547E+03  0.17476173547E+03  0.00000000000E+00 0. -1.
         21    1    1    2  503  505 -0.88082935498E+01 -0.37508758464E+02 -0.11113686377E+01  0.38545144143E+02  0.00000000000E+00 0. -1.
         21    1    1    2  504  501  0.71078483697E+01 -0.52913336135E+02  0.26545253710E+03  0.27076815194E+03  0.00000000000E+00 0. -1.
         21    1    1    2  505  504  0.15146733810E+03  0.74712002661E+02  0.21485978238E+02  0.17025241588E+03  0.00000000000E+00 0. -1.
         21    1    1    2  506  502 -0.14976689292E+03  0.15710091937E+02 -0.51096337806E+01  0.15067527189E+03  0.00000000000E+00 0. -1.
<scales pt_clust_3="38.52912" pt_clust_4="54.00671" pt_clust_5="153.59760" pt_clust_6="14000.00000"></scales>
<clustering>
<clus scale="   38.529">  2  3  1 -1</clus>
<clus scale="   54.007">  1  4  2 -1</clus>
<clus scale="  153.598">  1  5  2 -1</clus>
<clus scale="   54.007">  1  3  2 -1</clus>
</clustering>
</event>
<event>
 6    0  0.6549018E+002  0.1352785E+03  0.7546771E-02  0.1219827E+00
         21   -1    0    0  503  501  0.00000000000E+00  0.00000000000E+00  0.57329170277E+03  0.57329170277E+03  0.00000000000E+00 0. -1.
         21   -1    0    0  506  502 -0.00000000000E+00 -0.00000000000E+00 -0.20214765535E+03  0.20214765535E+03  0.00000000000E+00 0. -1.
         21    1    1    2  503  504 -0.58071233552E+02  0.29351002612E+02  0.25574339877E+03  0.26389095387E+03  0.00000000000E+00 0. -1.
         21    1    1    2  504  502 -0.12353925785E+03 -0.59352102397E+02 -0.10890569108E+03  0.17505733301E+03  0.00000000000E+00 0. -1.
         21    1    1    2  505  501  0.42055946824E+02  0.27105150256E+02  0.18475669623E+03  0.19141167319E+03  0.00000000000E+00 0.  1.
         21    1    1    2  506  505  0.13955454458E+03  0.28959495282E+01  0.39549643508E+02  0.14507939805E+03  0.00000000000E+00 0. -1.
<scales pt_clust_3="56.13643" pt_clust_4="135.27852" pt_clust_5="50.03391" pt_clust_6="14000.00000"></scales>
<clustering>
<clus scale="   50.034">  1  5  2 -1</clus>
<clus scale="   56.136">  1  3  2 -1</clus>
<clus scale="  135.279">  2  4  1 -1</clus>
<clus scale="   50.034">  1  3  2 -1</clus>
</clustering>
</event>
<event>
 6    0  0.6549018E+002  0.1601967E+03  0.7546771E-02  0.1188475E+00
         21   -1    0    0  503  501  0.00000000000E+00  0.00000000000E+00  0.22070275899E+03  0.22070275899E+03  0.00000000000E+00 0.  1.
         21   -1    0    0  506  502 -0.00000000000E+00 -0.00000000000E+00 -0.18432864232E+04  0.18432864232E+04  0.00000000000E+00 0.  1.
         21    1    1    2  503  502 -0.15171723251E+03 -0.49455917993E+02 -0.16674254679E+04  0.16750437897E+04  0.00000000000E+00 0.  1.
         21    1    1    2  504  501  0.13628147525E+02  0.68520207909E+02  0.17895921209E+03  0.19211232363E+03  0.00000000000E+00 0.  1.
         21    1    1    2  505  504  0.54902317691E+02 -0.14171802327E+02 -0.77745305163E+02  0.96225968137E+02  0.00000000000E+00 0. -1.
         21    1    1    2  506  505  0.83186767294E+02 -0.48924875894E+01 -0.56372103238E+02  0.10060710070E+03  0.00000000000E+00 0. -1.
<scales pt_clust_3="156.01040" pt_clust_4="69.86233" pt_clust_5="30.01216" pt_clust_6="30.01216"></scales>
<clustering>
<clus scale="   30.012">  5  6 -1 -1</clus>
<clus scale="   69.862">  1  4  2 -1</clus>
<clus scale="  156.010">  2  3  1 -1</clus>
<clus scale="   69.862">  1  3  2 -1</clus>
</clustering>
</event>
<event>
 6    0  0.6549018E+002  0.2187278E+03  0.7546771E-02  0.1134835E+00
         21   -1    0    0  506  501  0.00000000000E+00  0.00000000000E+00  0.47448669553E+03  0.47448669553E+03  0.00000000000E+00 0.  1.
         21   -1    0    0  503  502 -0.00000000000E+00 -0.00000000000E+00 -0.23804536747E+03  0.23804536747E+03  0.00000000000E+00 0.  1.
         21    1    1    2  503  505  0.25574894074E+03  0.14963553505E+01  0.29014672081E+03  0.38677497252E+03  0.00000000000E+00 0.  1.
         21    1    1    2  504  502 -0.17554602717E+02 -0.26352131913E+02 -0.39957702828E+02  0.50982516103E+02  0.00000000000E+00 0.  1.
         21    1    1    2  505  501 -0.41858481811E+02 -0.20552232404E+02  0.45065480795E+02  0.64849242984E+02  0.00000000000E+00 0.  1.
         21    1    1    2  506  504 -0.19633585621E+03  0.45408008966E+02 -0.58813170720E+02  0.20992533140E+03  0.00000000000E+00 0.  1.
<scales pt_clust_3="14000.00000" pt_clust_4="31.66384" pt_clust_5="48.04478" pt_clust_6="218.72784"></scales>
<clustering>
<clus scale="   31.664">  2  4  1 -1</clus>
<clus scale="   48.045">  1  5  2 -1</clus>
<clus scale="  218.728">  2  6  1 -1</clus>
<clus scale="   48.045">  1  3  2 -1</clus>
</clustering>
</event>
<event>
 6    0  0.6549018E+002  0.1672256E+03  0.7546771E-02  0.1180772E+00
         21   -1    0    0  505  501  0.00000000000E+00  0.00000000000E+00  0.40734018410E+03  0.40734018410E+03  0.00000000000E+00 0.  1.
         21   -1    0    0  506  502 -0.00000000000E+00 -0.00000000000E+00 -0.12623600286E+03  0.12623600286E+03  0.00000000000E+00 0.  1.
         21    1    1    2  503  502 -0.76194654809E+02 -0.46886142995E+02  0.17901965595E+02  0.91238238687E+02  0.00000000000E+00 0.  1.
         21    1    1    2  504  503 -0.73500160222E+02 -0.21244095095E+02 -0.38683994630E+02  0.85732354275E+02  0.00000000000E+00 0. -1.
         21    1    1    2  505  504  0.26309782850E+02  0.44462828644E+02  0.37347392996E+02  0.63749318178E+02  0.00000000000E+00 0. -1.
         21    1    1    2  506  501  0.12338503218E+03  0.23667409447E+02  0.26453881728E+03  0.29285627581E+03  0.00000000000E+00 0.  1.
<scales pt_clust_3="58.66735" pt_clust_4="58.66735" pt_clust_5="51.66380" pt_clust_6="155.33181"></scales>
<clustering>
<clus scale="   51.664">  1  5  2 -1</clus>
<clus scale="   58.667">  3  4 -1 -1</clus>
<clus scale="  155.332">  1  6  2 -1</clus>
<clus scale="   51.664">  1  3  2 -1</clus>
</clustering>
</event>
<event>
 6    0  0.6549018E+002  0.1941200E+03  0.7546771E-02  0.1154797E+00
         21   -1    0    0  505  501  0.00000000000E+00  0.00000000000E+00  0.49591893345E+03  0.49591893345E+03  0.00000000000E+00 0. -1.
         21   -1    0    0  506  502 -0.00000000000E+00 -0.00000000000E+00 -0.42845485277E+03  0.42845485277E+03  0.00000000000E+00 0. -1.
         21    1    1    2  503  504 -0.19927613521E+03  0.27522788113E+02 -0.87141564694E+01  0.20135644626E+03  0.00000000000E+00 0. -1.
         21    1    1    2  504  501  0.18969350227E+03  0.45672119681E+02  0.35029065015E+03  0.40096521907E+03  0.00000000000E+00 0. -1.
         21    1    1    2  505  502  0.32598194808E+02 -0.11499022865E+03 -0.21598500849E+03  0.24684999267E+03  0.00000000000E+00 0. -1.
         21    1    1    2  506  503 -0.23015561874E+02  0.41795320857E+02 -0.58127404510E+02  0.75202128221E+02  0.00000000000E+00 0. -1.
<scales pt_clust_3="194.11995" pt_clust_4="14000.00000" pt_clust_5="90.04827" pt_clust_6="47.71336"></scales>
<clustering>
<clus scale="   47.713">  2  6  1 -1</clus>
<clus scale="   90.048">  2  5  1 -1</clus>
<clus scale="  194.120">  2  3  1 -1</clus>
<clus scale="  194.120">  1  3  2 -1</clus>
</clustering>
</event>
<event>
 6    0  0.6549018E+002  0.1715243E+03  0.7546771E-02  0.1176267E+00
         21   -1    0    0  505  501  0.00000000000E+00  0.00000000000E+00  0.10251473219E+04  0.10251473219E+04  0.00000000000E+00 0. -1.
         21   -1    0    0  506  502 -0.00000000000E+00 -0.00000000000E+00 -0.85924626850E+02  0.85924626850E+02  0.00000000000E+00 0. -1.
         21    1    1    2  503  501 -0.77605477974E+02 -0.54793241680E+02  0.55273629056E+03  0.56084072288E+03  0.00000000000E+00 0. -1.
         21    1    1    2  504  502  0.71689121966E+02 -0.69327128927E+01  0.13554305635E+03  0.15349043240E+03  0.00000000000E+00 0. -1.
         21    1    1    2  505  504  0.11131097144E+03 -0.60527950892E+02  0.18072688025E+03  0.22071694644E+03  0.00000000000E+00 0. -1.
         21    1    1    2  506  503 -0.10539461543E+03  0.12225390547E+03  0.70216467929E+02  0.17602384705E+03  0.00000000000E+00 0. -1.
<scales pt_clust_3="94.99952" pt_clust_4="33.41725" pt_clust_5="33.41725" pt_clust_6="165.69876"></scales>
<clustering>
<clus scale="   33.417">  4  5 -1 -1</clus>
<clus scale="   95.000">  1  3  2 -1</clus>
<clus scale="  165.699">  2  6  1 -1</clus>
<clus scale="   95.000">  1  3  2 -1</clus>
</clustering>
</event>
<event>
 6    0  0.6549018E+002  0.1337981E+03  0.7546771E-02  0.1221926E+00
         21   -1    0    0  505  501  0.00000000000E+00  0.00000000000E+00  0.32770950062E+04  0.32770950062E+04  0.00000000000E+00 0.  1.
         21   -1    0    0  504  502 -0.00000000000E+00 -0.00000000000E+00 -0.26465597706E+02  0.26465597706E+02  0.00000000000E+00 0. -1.
         21    1    1    2  503  506 -0.21084776726E+02  0.30515116506E+02  0.10599426059E+03  0.11229658687E+03  0.00000000000E+00 0.  1.
         21    1    1    2  504  501 -0.56000309793E+02  0.47387882783E+02  0.54283476052E+02  0.91259749637E+02  0.00000000000E+00 0. -1.
         21    1    1    2  505  503  0.68763646258E+02 -0.12688293981E+03  0.28894102356E+04  0.28930121377E+04  0.00000000000E+00 0.  1.
         21    1    1    2  506  502  0.83214402614E+01  0.48979940519E+02  0.20094143623E+03  0.20699212964E+03  0.00000000000E+00 0. -1.
<scales pt_clust_3="30.59001" pt_clust_4="73.35970" pt_clust_5="129.02918" pt_clust_6="30.59001"></scales>
<clustering>
<clus scale="   30.590">  3  6 -1 -1</clus>
<clus scale="   73.360">  2  4  1 -1</clus>
<clus scale="  129.029">  1  5  2 -1</clus>
<clus scale="  129.029">  1  3  2 -1</clus>
</clustering>
</event>
<event>
 6    0  0.6549018E+002  0.1777116E+03  0.7546771E-02  0.1170036E+00
         21   -1    0    0  504  501  0.00000000000E+00  0.00000000000E+00  0.29001313616E+03  0.29001313616E+03  0.00000000000E+00 0.  1.
         21   -1    0    0  503  502 -0.00000000000E+00 -0.00000000000E+00 -0.53154270291E+03  0.53154270291E+03  0.00000000000E+00 0. -1.
         21    1    1    2  503  501 -0.29222238778E+02  0.77121965072E+01 -0.32818742640E+03  0.32957609753E+03  0.00000000000E+00 0. -1.
         21    1    1    2  504  505  0.82295134186E+02 -0.16159825909E+03  0.14031111283E+03  0.22928954367E+03  0.00000000000E+00 0.  1.
         21    1    1    2  505  506 -0.23006698841E+02  0.17641500898E+03  0.20972364477E+02  0.17914073701E+03  0.00000000000E+00 0. -1.
         21    1    1    2  506  502 -0.30066196567E+02 -0.22528946391E+02 -0.74625617649E+02  0.83549460866E+02  0.00000000000E+00 0. -1.
<scales pt_clust_3="30.22279" pt_clust_4="177.71156" pt_clust_5="14000.00000" pt_clust_6="45.83413"></scales>
<clustering>
<clus scale="   30.223">  2  3  1 -1</clus>
<clus scale="   45.834">  2  6  1 -1</clus>
<clus scale="  177.712">  1  4  2 -1</clus>
<clus scale="  177.712">  1  3  2 -1</clus>
</clustering>
</event>
<event>
 6    0  0.6549018E+002  0.1473411E+03  0.7546771E-02  0.1203779E+00
         21   -1    0    0  503  501  0.00000000000E+00  0.00000000000E+00  0.35444181029E+03  0.35444181029E+03  0.00000000000E+00 0.  1.
         21   -1    0    0  506  502 -0.00000000000E+00 -0.00000000000E+00 -0.11384865053E+04  0.11384865053E+04  0.00000000000E+00 0.  1.
         21    1    1    2  503  502 -0.16924304975E+03 -0.27201140991E+02  0.99259705501E+02  0.19807978467E+03  0.00000000000E+00 0.  1.
         21    1    1    2  504  501  0.33493303356E+02  0.63526487018E+02  0.19437254008E+03  0.20721510625E+03  0.00000000000E+00 0.  1.
         21    1    1    2  505  504  0.54432174517E+02  0.66354088865E+01 -0.39269523467E+03  0.39650528068E+03  0.00000000000E+00 0. -1.
         21    1    1    2  506  505  0.81317571879E+02 -0.42960754914E+02 -0.68498170596E+03  0.69112814403E+03  0.00000000000E+00 0.  1.
<scales pt_clust_3="141.06039" pt_clust_4="71.81515" pt_clust_5="32.86335" pt_clust_6="32.86335"></scales>
<clustering>
<clus scale="   32.863">  5  6 -1 -1</clus>
<clus scale="   71.815">  1  4  2 -1</clus>
<clus scale="  141.060">  1  3  2 -1</clus>
<clus scale="   71.815">  1  3  2 -1</clus>
</clustering>
</event>
<event>
 6    0  0.6549018E+002  0.1046101E+03  0.7546771E-02  0.1270890E+00
         21   -1    0    0  505  501  0.00000000000E+00  0.00000000000E+00  0.38291824385E+03  0.38291824385E+03  0.00000000000E+00 0. -1.
         21   -1    0    0  506  502 -0.00000000000E+00 -0.00000000000E+00 -0.30088115600E+03  0.30088115600E+03  0.00000000000E+00 0.  1.
         21    1    1    2  503  502  0.11146474028E+02 -0.35527221623E+02 -0.15014406202E+02  0.40147973213E+02  0.00000000000E+00 0. -1.
         21    1    1    2  504  501  0.10629119523E+02 -0.77326003440E+02  0.83574940538E+02  0.11435497224E+03  0.00000000000E+00 0. -1.
         21    1    1    2  505  503 -0.79953248994E+02  0.11966476714E+03  0.24845501117E+03  0.28712727334E+03  0.00000000000E+00 0. -1.
         21    1    1    2  506  504  0.58177655443E+02 -0.68115420780E+01 -0.23497845765E+03  0.24216918106E+03  0.00000000000E+00 0.  1.
<scales pt_clust_3="37.23476" pt_clust_4="104.61007" pt_clust_5="14000.00000" pt_clust_6="77.73142"></scales>
<clustering>
<clus scale="   37.235">  2  3  1 -1</clus>
<clus scale="   77.731">  2  6  1 -1</clus>
<clus scale="  104.610">  1  4  2 -1</clus>
<clus scale="  104.610">  1  3  2 -1</clus>
</clustering>
</event>
<event>
 6    0  0.6549018E+002  0.7566822E+02  0.7546771E-02  0.1341814E+00
         21   -1    0    0  505  501  0.00000000000E+00  0.00000000000E+00  0.77393530333E+03  0.77393530333E+03  0.00000000000E+00 0. -1.
         21   -1    0    0  501  502 -0.00000000000E+00 -0.00000000000E+00 -0.63481513994E+02  0.63481513994E+02  0.00000000000E+00 0. -1.
         21    1    1    2  503  502  0.45139194286E+02  0.23392648360E+02 -0.10356733278E+02  0.51884725905E+02  0.00000000000E+00 0. -1.
         21    1    1    2  504  503 -0.10718446534E+03  0.42701589257E+02  0.92915710254E+02  0.14813934166E+03  0.00000000000E+00 0. -1.
         21    1    1    2  505  506  0.35784025401E+02 -0.26932533765E+02  0.48180388980E+03  0.48388102472E+03  0.00000000000E+00 0. -1.
         21    1    1    2  506  504  0.26261245657E+02 -0.39161703852E+02  0.14609092256E+03  0.15351172504E+03  0.00000000000E+00 0. -1.
<scales pt_clust_3="52.30225" pt_clust_4="75.66822" pt_clust_5="44.78680" pt_clust_6="14000.00000"></scales>
<clustering>
<clus scale="   44.787">  1  5  2 -1</clus>
<clus scale="   52.302">  2  3  1 -1</clus>
<clus scale="   75.668">  2  4  1 -1</clus>
<clus scale="   44.787">  1  3  2 -1</clus>
</clustering>
</event>
<event>
 6    0  0.6549018E+002  0.1003365E+03  0.7546771E-02  0.1279590E+00
         21   -1    0    0  504  501  0.00000000000E+00  0.00000000000E+00  0.12861377687E+04  0.12861377687E+04  0.00000000000E+00 0. -1.
         21   -1    0    0  506  502 -0.00000000000E+00 -0.00000000000E+00 -0.15353343638E+03  0.15353343638E+03  0.00000000000E+00 0.  1.
         21    1    1    2  503  505 -0.31963599857E+02 -0.40107872022E+02 -0.93472506731E+02  0.10661811585E+03  0.00000000000E+00 0.  1.
         21    1    1    2  504  503 -0.40607486839E+02  0.10262214152E+02  0.10026860822E+04  0.10035604917E+04  0.00000000000E+00 0. -1.
         21    1    1    2  505  502 -0.40600417520E+02 -0.88049250296E+01 -0.28686600848E+02  0.50486054271E+02  0.00000000000E+00 0.  1.
         21    1    1    2  506  501  0.11317150422E+03  0.38650582900E+02  0.25207735774E+03  0.27900654332E+03  0.00000000000E+00 0.  1.
<scales pt_clust_3="41.25280" pt_clust_4="41.88414" pt_clust_5="41.25280" pt_clust_6="89.25548"></scales>
<clustering>
<clus scale="   41.253">  3  5 -1 -1</clus>
<clus scale="   41.884">  1  4  2 -1</clus>
<clus scale="   89.255">  1  6  2 -1</clus>
<clus scale="   41.884">  1  3  2 -1</clus>
</clustering>
</event>
<event>
 6    0  0.6549018E+002  0.7910352E+02  0.7546771E-02  0.1331615E+00
         21   -1    0    0  506  501  0.00000000000E+00  0.00000000000E+00  0.76178871530E+02  0.76178871530E+02  0.00000000000E+00 0. -1.
         21   -1    0    0  505  502 -0.00000000000E+00 -0.00000000000E+00 -0.26850996951E+03  0.26850996951E+03  0.00000000000E+00 0. -1.
         21    1    1    2  503  501  0.88870367245E+02 -0.55869996513E+02 -0.48843869168E+02  0.11578049162E+03  0.00000000000E+00 0. -1.
         21    1    1    2  504  502 -0.48434935575E+02 -0.24209577706E+02 -0.97701219001E+02  0.11170306545E+03  0.00000000000E+00 0. -1.
         21    1    1    2  505  503 -0.96669085322E+01  0.72923569186E+02 -0.43663981709E+02  0.85544370721E+02  0.00000000000E+00 0. -1.
         21    1    1    2  506  504 -0.30768523138E+02  0.71560050332E+01 -0.21220280964E+01  0.31660913243E+02  0.00000000000E+00 0. -1.
<scales pt_clust_3="79.10352" pt_clust_4="56.96762" pt_clust_5="14000.00000" pt_clust_6="31.58972"></scales>
<clustering>
<clus scale="   31.590">  1  6  2 -1</clus>
<clus scale="   56.968">  2  4  1 -1</clus>
<clus scale="   79.104">  1  3  2 -1</clus>
<clus scale="   31.590">  1  3  2 -1</clus>
</clustering>
</event>
<event>
 6    0  0.6549018E+002  0.8864157E+02  0.7546771E-02  0.1306175E+00
         21   -1    0    0  504  501  0.00000000000E+00  0.00000000000E+00  0.43685475917E+03  0.43685475917E+03  0.00000000000E+00 0.  1.
         21   -1    0    0  505  502 -0.00000000000E+00 -0.00000000000E+00 -0.78734008131E+03  0.78734008131E+03  0.00000000000E+00 0. -1.
         21    1    1    2  503  501 -0.67970810710E+02  0.53299677726E+02 -0.11921547190E+03  0.14721825802E+03  0.00000000000E+00 0.  1.
         21    1    1    2  504  506  0.31889153623E+02  0.81998271344E+02  0.40057070004E+03  0.41011891002E+03  0.00000000000E+00 0.  1.
         21    1    1    2  505  503  0.29907439286E+02  0.31717109963E+02 -0.17681854941E+03  0.18211323237E+03  0.00000000000E+00 0.  1.
         21    1    1    2  506  502  0.61742178014E+01 -0.16701505903E+03 -0.45502200087E+03  0.48474444008E+03  0.00000000000E+00 0. -1.
<scales pt_clust_3="86.03557" pt_clust_4="14000.00000" pt_clust_5="43.59392" pt_clust_6="88.64157"></scales>
<clustering>
<clus scale="   43.594">  2  5  1 -1</clus>
<clus scale="   86.036">  2  3  1 -1</clus>
<clus scale="   88.642">  2  6  1 -1</clus>
<clus scale="   88.642">  1  3  2 -1</clus>
</clustering>
</event>
<event>
 6    0  0.6549018E+002  0.1060877E+03  0.7546771E-02  0.1267991E+00
         21   -1    0    0  503  501  0.00000000000E+00  0.00000000000E+00  0.25467755892E+03  0.25467755892E+03  0.00000000000E+00 0.  1.
         21   -1    0    0  504  502 -0.00000000000E+00 -0.00000000000E+00 -0.25924919848E+03  0.25924919848E+03  0.00000000000E+00 0.  1.
         21    1    1    2  503  506  0.44121106818E+02 -0.98314224920E+02  0.12519658461E+03  0.16518639075E+03  0.00000000000E+00 0.  1.
         21    1    1    2  504  505  0.12949509271E+02  0.32602877815E+02 -0.15864443055E+02  0.38500882921E+02  0.00000000000E+00 0. -1.
         21    1    1    2  505  501  0.30189627876E+02  0.19172726548E+02  0.82734428178E+02  0.90133194110E+02  0.00000000000E+00 0.  1.
         21    1    1    2  506  502 -0.87260243966E+02  0.46538620557E+02 -0.19663820929E+03  0.22010628963E+03  0.00000000000E+00 0.  1.
<scales pt_clust_3="106.08773" pt_clust_4="35.08044" pt_clust_5="36.21758" pt_clust_6="14000.00000"></scales>
<clustering>
<clus scale="   35.080">  2  4  1 -1</clus>
<clus scale="   36.218">  1  5  2 -1</clus>
<clus scale="  106.088">  1  3  2 -1</clus>
<clus scale="   36.218">  1  3  2 -1</clus>
</clustering>
</event>
<event>
 6    0  0.6549018E+002  0.1728104E+03  0.7546771E-02  0.1174948E+00
         21   -1    0    0  506  501  0.00000000000E+00  0.00000000000E+00  0.33796770994E+03  0.33796770994E+03  0.00000000000E+00 0.  1.
         21   -1    0    0  503  502 -0.00000000000E+00 -0.00000000000E+00 -0.12965100981E+04  0.12965100981E+04  0.00000000000E+00 0. -1.
         21    1    1    2  503  501 -0.44051017383E+02 -0.68381800149E+01  0.26796509694E+03  0.27164783455E+03  0.00000000000E+00 0.  1.
         21    1    1    2  504  502  0.14069327915E+03 -0.11348576739E+03 -0.11071180131E+04  0.11217771228E+04  0.00000000000E+00 0. -1.
         21    1    1    2  505  504 -0.10915146928E+03  0.89703245652E+02 -0.14252769384E+03  0.20068597120E+03  0.00000000000E+00 0.  1.
         21    1    1    2  506  505  0.12509207513E+02  0.30620701757E+02  0.23138221877E+02  0.40366879497E+02  0.00000000000E+00 0.  1.
<scales pt_clust_3="38.68610" pt_clust_4="14000.00000" pt_clust_5="172.81040" pt_clust_6="33.07730"></scales>
<clustering>
<clus scale="   33.077">  1  6  2 -1</clus>
<clus scale="   38.686">  1  3  2 -1</clus>
<clus scale="  172.810">  1  5  2 -1</clus>
<clus scale="   33.077">  1  3  2 -1</clus>
</clustering>
</event>
<event>
 6    0  0.6549018E+002  0.8217407E+02  0.7546771E-02  0.1322993E+00
         21   -1    0    0  503  501  0.00000000000E+00  0.00000000000E+00  0.30741244780E+03  0.30741244780E+03  0.00000000000E+00 0.  1.
         21   -1    0    0  504  502 -0.00000000000E+00 -0.00000000000E+00 -0.16323747954E+03  0.16323747954E+03  0.00000000000E+00 0.  1.
         21    1    1    2  503  502 -0.27575954537E+02 -0.19973448475E+02 -0.55731813310E+01  0.34502641388E+02  0.00000000000E+00 0.  1.
         21    1    1    2  504  505  0.48097844169E+02 -0.78972184535E+01 -0.75161561493E+02  0.89582526192E+02  0.00000000000E+00 0.  1.
         21    1    1    2  505  506 -0.89281808912E+02  0.66070919872E+02  0.29826844465E+01  0.11111032473E+03  0.00000000000E+00 0.  1.
         21    1    1    2  506  501  0.68759919280E+02 -0.38200252943E+02  0.22192702664E+03  0.23545443503E+03  0.00000000000E+00 0.  1.
<scales pt_clust_3="34.04955" pt_clust_4="37.61594" pt_clust_5="14000.00000" pt_clust_6="82.17407"></scales>
<clustering>
<clus scale="   34.050">  2  3  1 -1</clus>
<clus scale="   37.616">  2  4  1 -1</clus>
<clus scale="   82.174">  1  6  2 -1</clus>
<clus scale="   82.174">  1  3  2 -1</clus>
</clustering>
</event>
<event>
 6    0  0.6549018E+002  0.7366730E+02  0.7546771E-02  0.1348048E+00
         21   -1    0    0  503  501  0.00000000000E+00  0.00000000000E+00  0.39646603348E+03  0.39646603348E+03  0.00000000000E+00 0.  1.
         21   -1    0    0  504  502 -0.00000000000E+00 -0.00000000000E+00 -0.21414414039E+03  0.21414414039E+03  0.00000000000E+00 0.  1.
         21    1    1    2  503  506 -0.71017461687E+02 -0.14636169054E+02  0.31029531305E+03  0.31865479536E+03  0.00000000000E+00 0.  1.
         21    1    1    2  504  505 -0.36537823796E+02  0.10842002765E+02 -0.46148653436E+02  0.59851982470E+02  0.00000000000E+00 0.  1.
         21    1    1    2  505  501  0.69986412723E+02  0.65424569111E+02  0.28777435284E+02  0.10003305949E+03  0.00000000000E+00 0.  1.
         21    1    1    2  506  502  0.37568872760E+02 -0.61630402823E+02 -0.11060220180E+03  0.13207033655E+03  0.00000000000E+00 0.  1.
<scales pt_clust_3="14000.00000" pt_clust_4="38.11249" pt_clust_5="73.66730" pt_clust_6="54.40435"></scales>
<clustering>
<clus scale="   38.112">  2  4  1 -1</clus>
<clus scale="   54.404">  2  6  1 -1</clus>
<clus scale="   73.667">  2  5  1 -1</clus>
<clus scale="   73.667">  1  3  2 -1</clus>
</clustering>
</event>
<event>
 6    0  0.6549018E+002  0.2066973E+03  0.7546771E-02  0.1144208E+00
         21   -1    0    0  506  501  0.00000000000E+00  0.00000000000E+00  0.25303185598E+03  0.25303185598E+03  0.00000000000E+00 0. -1.
         21   -1    0    0  503  502 -0.00000000000E+00 -0.00000000000E+00 -0.53464164468E+03  0.53464164468E+03  0.00000000000E+00 0. -1.
         21    1    1    2  503  504 -0.43969112672E+02 -0.64440648431E+00 -0.21881628859E+03  0.22319109812E+03  0.00000000000E+00 0. -1.
         21    1    1    2  504  501 -0.12545141307E+03  0.12423202611E+03 -0.18128670358E+03  0.25305438595E+03  0.00000000000E+00 0. -1.
         21    1    1    2  505  502  0.19600126459E+03 -0.13788361299E+03  0.62244994124E+02  0.24759407454E+03  0.00000000000E+00 0. -1.
         21    1    1    2  506  505 -0.26580738848E+02  0.14295993364E+02  0.56248209339E+02  0.63833942051E+02  0.00000000000E+00 0. -1.
<scales pt_clust_3="44.27301" pt_clust_4="206.69730" pt_clust_5="14000.00000" pt_clust_6="30.18130"></scales>
<clustering>
<clus scale="   30.181">  1  6  2 -1</clus>
<clus scale="   44.273">  2  3  1 -1</clus>
<clus scale="  206.697">  2  4  1 -1</clus>
<clus scale="   30.181">  1  3  2 -1</clus>
</clustering>
</event>
<event>
 6    0  0.6549018E+002  0.9266470E+02  0.7546771E-02  0.1296524E+00
         21   -1    0    0  506  501  0.00000000000E+00  0.00000000000E+00  0.26632222983E+03  0.26632222983E+03  0.00000000000E+00 0. -1.
         21   -1    0    0  505  502 -0.00000000000E+00 -0.00000000000E+00 -0.19007282020E+03  0.19007282020E+03  0.00000000000E+00 0. -1.
         21    1    1    2  503  504 -0.19857397154E+02  0.43450538339E+02 -0.48257155019E+02  0.67904480811E+02  0.00000000000E+00 0. -1.
         21    1    1    2  504  501 -0.61354472325E+02  0.34091795600E+02  0.19693227827E+03  0.20906684105E+03  0.00000000000E+00 0. -1.
         21    1    1    2  505  503  0.18221613389E+02  0.29768261009E+02 -0.35134618634E+02  0.49523913260E+02  0.00000000000E+00 0.  1.
         21    1    1    2  506  502  0.62990256091E+02 -0.10731059495E+03 -0.37291094988E+02  0.12989981492E+03  0.00000000000E+00 0. -1.
<scales pt_clust_3="32.78889" pt_clust_4="70.18990" pt_clust_5="32.78889" pt_clust_6="84.35150"></scales>
<clustering>
<clus scale="   32.789">  3  5 -1 -1</clus>
<clus scale="   70.190">  1  4  2 -1</clus>
<clus scale="   84.351">  1  6  2 -1</clus>
<clus scale="   70.190">  1  3  2 -1</clus>
</clustering>
</event>
<event>
 6    0  0.6549018E+002  0.8219297E+02  0.7546771E-02  0.1322941E+00
         21   -1    0    0  505  501  0.00000000000E+00  0.00000000000E+00  0.19541558513E+03  0.19541558513E+03  0.00000000000E+00 0. -1.
         21   -1    0    0  504  502 -0.00000000000E+00 -0.00000000000E+00 -0.19805582432E+03  0.19805582432E+03  0.00000000000E+00 0. -1.
         21    1    1    2  503  506  0.71390093806E+02  0.58356507174E+02  0.69623114069E+02  0.11553962712E+03  0.00000000000E+00 0. -1.
         21    1    1    2  504  503  0.38340644575E+02 -0.94552261520E+02  0.14763097793E+02  0.10309260032E+03  0.00000000000E+00 0. -1.
         21    1    1    2  505  502 -0.76759462850E+02 -0.11726692917E+02 -0.87076569042E+02  0.11666987332E+03  0.00000000000E+00 0. -1.
         21    1    1    2  506  501 -0.32971275532E+02  0.47922447263E+02  0.50117989680E-01  0.58169308691E+02  0.00000000000E+00 0. -1.
<scales pt_clust_3="82.19297" pt_clust_4="14000.00000" pt_clust_5="80.04167" pt_clust_6="58.16929"></scales>
<clustering>
<clus scale="   58.169">  1  6  2 -1</clus>
<clus scale="   80.042">  2  5  1 -1</clus>
<clus scale="   82.193">  1  3  2 -1</clus>
<clus scale="   58.169">  1  3  2 -1</clus>
</clustering>
</event>
<event>
 6    0  0.6549018E+002  0.1616675E+03  0.7546771E-02  0.1186827E+00
         21   -1    0    0  506  501  0.00000000000E+00  0.00000000000E+00  0.62621087692E+02  0.62621087692E+02  0.00000000000E+00 0.  1.
         21   -1    0    0  504  502 -0.00000000000E+00 -0.00000000000E+00 -0.61518762840E+03  0.61518762840E+03  0.00000000000E+00 0.  1.
         21    1    1    2  503  505 -0.47794028340E+02 -0.46323463685E+02 -0.17216959422E+03  0.18458738204E+03  0.00000000000E+00 0.  1.
         21    1    1    2  504  501  0.55293455449E+02  0.12452180821E+03 -0.15803055234E+03  0.20865450488E+03  0.00000000000E+00 0.  1.
         21    1    1    2  505  502 -0.73699485259E+02 -0.81636503347E+02 -0.15499340369E+03  0.19005022493E+03  0.00000000000E+00 0.  1.
         21    1    1    2  506  503  0.66200058151E+02  0.34381588222E+01 -0.67372990452E+02  0.94516604244E+02  0.00000000000E+00 0.  1.
<scales pt_clust_3="36.34942" pt_clust_4="154.76788" pt_clust_5="36.34942" pt_clust_6="66.28928"></scales>
<clustering>
<clus scale="   36.349">  3  5 -1 -1</clus>
<clus scale="   66.289">  1  6  2 -1</clus>
<clus scale="  154.768">  1  4  2 -1</clus>
<clus scale="   66.289">  1  3  2 -1</clus>
</clustering>
</event>
<event>
 6    0  0.6549018E+002  0.1221144E+03  0.7546771E-02  0.1239649E+00
         21   -1    0    0  504  501  0.00000000000E+00  0.00000000000E+00  0.22564809719E+03  0.22564809719E+03  0.00000000000E+00 0.  1.
         21   -1    0    0  506  502 -0.00000000000E+00 -0.00000000000E+00 -0.48217266349E+03  0.48217266349E+03  0.00000000000E+00 0. -1.
         21    1    1    2  503  505  0.11350839488E+03  0.11126691209E+03 -0.24866336843E+03  0.29512362195E+03  0.00000000000E+00 0. -1.
         21    1    1    2  504  503  0.15957123396E+01 -0.11128140973E+03  0.12917334024E+03  0.17050469283E+03  0.00000000000E+00 0.  1.
         21    1    1    2  505  502 -0.84138820869E+02  0.88271117684E+01 -0.17381586867E+03  0.19331118767E+03  0.00000000000E+00 0. -1.
         21    1    1    2  506  501 -0.30965286355E+02 -0.88126141316E+01  0.36781330563E+02  0.48881258217E+02  0.00000000000E+00 0.  1.
<scales pt_clust_3="122.11444" pt_clust_4="14000.00000" pt_clust_5="86.19597" pt_clust_6="32.19489"></scales>
<clustering>
<clus scale="   32.195">  1  6  2 -1</clus>
<clus scale="   86.196">  2  5  1 -1</clus>
<clus scale="  122.114">  2  3  1 -1</clus>
<clus scale="   32.195">  1  3  2 -1</clus>
</clustering>
</event>
<event>
 6    0  0.6549018E+002  0.1266186E+03  0.7546771E-02  0.1232561E+00
         21   -1    0    0  503  501  0.00000000000E+00  0.00000000000E+00  0.26035010268E+03  0.26035010268E+03  0.00000000000E+00 0. -1.
         21   -1    0    0  504  502 -0.00000000000E+00 -0.00000000000E+00 -0.74021934178E+03  0.74021934178E+03  0.00000000000E+00 0. -1.
         21    1    1    2  503  502  0.10259038523E+03 -0.10795059506E+03 -0.28501772800E+03  0.32157926455E+03  0.00000000000E+00 0. -1.
         21    1    1    2  504  506  0.23730350000E+02  0.30921026177E+02 -0.16582923170E+03  0.17034838848E+03  0.00000000000E+00 0. -1.
         21    1    1    2  505  501 -0.11935782484E+02  0.44567929269E+02  0.22419739921E+03  0.22889569030E+03  0.00000000000E+00 0. -1.
         21    1    1    2  506  505 -0.11438495274E+03  0.32461639611E+02 -0.25321967862E+03  0.27974610113E+03  0.00000000000E+00 0. -1.
<scales pt_clust_3="14000.00000" pt_clust_4="38.97742" pt_clust_5="46.23613" pt_clust_6="126.61864"></scales>
<clustering>
<clus scale="   38.977">  2  4  1 -1</clus>
<clus scale="   46.236">  1  5  2 -1</clus>
<clus scale="  126.619">  2  6  1 -1</clus>
<clus scale="   46.236">  1  3  2 -1</clus>
</clustering>
</event>
<event>
 6    0  0.6549018E+002  0.1590674E+03  0.7546771E-02  0.1189754E+00
         21   -1    0    0  506  501  0.00000000000E+00  0.00000000000E+00  0.12093460957E+03  0.12093460957E+03  0.00000000000E+00 0. -1.
         21   -1    0    0  501  502 -0.00000000000E+00 -0.00000000000E+00 -0.14000271907E+04  0.14000271907E+04  0.00000000000E+00 0. -1.
         21    1    1    2  503  505  0.26398296789E+01  0.70737488449E+02 -0.31919276998E+03  0.32694767988E+03  0.00000000000E+00 0. -1.
         21    1    1    2  504  502 -0.23423516547E+02 -0.19304012866E+02 -0.28649760109E+03  0.28810099179E+03  0.00000000000E+00 0. -1.
         21    1    1    2  505  504  0.27455933280E+01  0.10058399447E+03 -0.73429932324E+03  0.74116136862E+03  0.00000000000E+00 0. -1.
         21    1    1    2  506  503  0.18038093540E+02 -0.15201747005E+03  0.60897113185E+02  0.16475175997E+03  0.00000000000E+00 0. -1.
<scales pt_clust_3="34.64321" pt_clust_4="30.35302" pt_clust_5="34.64321" pt_clust_6="153.85430"></scales>
<clustering>
<clus scale="   30.353">  2  4  1 -1</clus>
<clus scale="   34.643">  3  5 -1 -1</clus>
<clus scale="  153.854">  1  6  2 -1</clus>
<clus scale="  153.854">  1  3  2 -1</clus>
</clustering>
</event>
<event>
 6    0  0.6549018E+002  0.8062407E+02  0.7546771E-02  0.1327290E+00
         21   -1    0    0  504  501  0.00000000000E+00  0.00000000000E+00  0.40335099354E+02  0.40335099354E+02  0.00000000000E+00 0.  1.
         21   -1    0    0  506  502 -0.00000000000E+00 -0.00000000000E+00 -0.63397121076E+03  0.63397121076E+03  0.00000000000E+00 0.  1.
         21    1    1    2  503  505 -0.92243502886E+02 -0.62830603025E+02 -0.34994585433E+03  0.36731274068E+03  0.00000000000E+00 0.  1.
         21    1    1    2  504  502 -0.84546904975E+01  0.54623639908E+02 -0.56964893247E+02  0.79373943400E+02  0.00000000000E+00 0.  1.
         21    1    1    2  505  501  0.75803914891E+02 -0.21373113900E+02 -0.72571397097E+02  0.10709645740E+03  0.00000000000E+00 0.  1.
         21    1    1    2  506  503  0.24894278492E+02  0.29580077016E+02 -0.11415396673E+03  0.12052316863E+03  0.00000000000E+00 0.  1.
<scales pt_clust_3="14000.00000" pt_clust_4="58.75461" pt_clust_5="80.62407" pt_clust_6="38.66143"></scales>
<clustering>
<clus scale="   38.661">  2  6  1 -1</clus>
<clus scale="   58.755">  1  4  2 -1</clus>
<clus scale="   80.624">  1  5  2 -1</clus>
<clus scale="   58.755">  1  3  2 -1</clus>
</clustering>
</event>
<event>
 6    0  0.6549018E+002  0.9321361E+02  0.7546771E-02  0.1295251E+00
         21   -1    0    0  506  501  0.00000000000E+00  0.00000000000E+00  0.21639344711E+03  0.21639344711E+03  0.00000000000E+00 0.  1.
         21   -1    0    0  504  502 -0.00000000000E+00 -0.00000000000E+00 -0.40086501896E+03  0.40086501896E+03  0.00000000000E+00 0. -1.
         21    1    1    2  503  505  0.99724121770E+01  0.54286705822E+02 -0.21692754004E+03  0.22383934655E+03  0.00000000000E+00 0. -1.
         21    1    1    2  504  501 -0.17112934726E+02  0.30719275049E+02  0.99640629420E+00  0.35178391379E+02  0.00000000000E+00 0. -1.
         21    1    1    2  505  502 -0.38050907965E+02  0.39010027527E+02 -0.13512639128E+03  0.14570104826E+03  0.00000000000E+00 0.  1.
         21    1    1    2  506  503  0.45191430514E+02 -0.12401600840E+03  0.16658595317E+03  0.21253967988E+03  0.00000000000E+00 0.  1.
<scales pt_clust_3="93.21361" pt_clust_4="35.16428" pt_clust_5="55.39999" pt_clust_6="14000.00000"></scales>
<clustering>
<clus scale="   35.164">  1  4  2 -1</clus>
<clus scale="   55.400">  2  5  1 -1</clus>
<clus scale="   93.214">  2  3  1 -1</clus>
<clus scale="   35.164">  1  3  2 -1</clus>
</clustering>
</event>
<event>
 6    0  0.6549018E+002  0.9066927E+02  0.7546771E-02  0.1301239E+00
         21   -1    0    0  506  501  0.00000000000E+00  0.00000000000E+00  0.88984453979E+03  0.88984453979E+03  0.00000000000E+00 0.  1.
         21   -1    0    0  505  502 -0.00000000000E+00 -0.00000000000E+00 -0.49454093334E+03  0.49454093334E+03  0.00000000000E+00 0.  1.
         21    1    1    2  503  504 -0.78575628725E+02  0.46416650786E+01 -0.19899614351E+03  0.21399798975E+03  0.00000000000E+00 0.  1.
         21    1    1    2  504  501 -0.47277207090E+02  0.73227157024E+02  0.65116846661E+03  0.65697619648E+03  0.00000000000E+00 0.  1.
         21    1    1    2  505  503  0.43875812037E+02 -0.47215608328E+01 -0.27002462382E+03  0.27360679357E+03  0.00000000000E+00 0.  1.
         21    1    1    2  506  502  0.81977023778E+02 -0.73147261270E+02  0.21315590717E+03  0.23980449332E+03  0.00000000000E+00 0.  1.
<scales pt_clust_3="37.89761" pt_clust_4="14000.00000" pt_clust_5="44.12913" pt_clust_6="90.66927"></scales>
<clustering>
<clus scale="   44.129">  2  5  1 -1</clus>
<clus scale="   37.898">  2  3  1 -1</clus>
<clus scale="   90.669">  2  6  1 -1</clus>
<clus scale="   90.669">  1  3  2 -1</clus>
</clustering>
</event>
<event>
 6    0  0.6549018E+002  0.7571194E+02  0.7546771E-02  0.1341680E+00
         21   -1    0    0  506  501  0.00000000000E+00  0.00000000000E+00  0.16544238321E+03  0.16544238321E+03  0.00000000000E+00 0.  1.
         21   -1    0    0  501  502 -0.00000000000E+00 -0.00000000000E+00 -0.16598879600E+03  0.16598879600E+03  0.00000000000E+00 0.  1.
         21    1    1    2  503  505 -0.90821779531E+02 -0.55759562455E+02  0.34614160940E+02  0.11205295436E+03  0.00000000000E+00 0.  1.
         21    1    1    2  504  502  0.30253999767E+02  0.18274988227E+02 -0.53645228262E+02  0.64242433110E+02  0.00000000000E+00 0.  1.
         21    1    1    2  505  504 -0.81733976079E+01  0.49271951902E+02 -0.40099882805E+02  0.64050997445E+02  0.00000000000E+00 0.  1.
         21    1    1    2  506  503  0.68741177372E+02 -0.11787377674E+02  0.58584537335E+02  0.91084794305E+02  0.00000000000E+00 0.  1.
<scales pt_clust_3="75.71194" pt_clust_4="35.34515" pt_clust_5="58.52946" pt_clust_6="14000.00000"></scales>
<clustering>
<clus scale="   35.345">  2  4  1 -1</clus>
<clus scale="   58.529">  2  5  1 -1</clus>
<clus scale="   75.712">  2  3  1 -1</clus>
<clus scale="   75.712">  1  3  2 -1</clus>
</clustering>
</event>
<event>
 6    0  0.6549018E+002  0.1340418E+03  0.7546771E-02  0.1221579E+00
         21   -1    0    0  506  501  0.00000000000E+00  0.00000000000E+00  0.22845726953E+03  0.22845726953E+03  0.00000000000E+00 0. -1.
         21   -1    0    0  504  502 -0.00000000000E+00 -0.00000000000E+00 -0.58743628783E+03  0.58743628783E+03  0.00000000000E+00 0. -1.
         21    1    1    2  503  502  0.38804308052E+02  0.12600082237E+02 -0.33155621578E+03  0.33405697211E+03  0.00000000000E+00 0. -1.
         21    1    1    2  504  505 -0.28017647491E+02  0.36469731531E+02 -0.16460923554E+03  0.17091293197E+03  0.00000000000E+00 0.  1.
         21    1    1    2  505  501 -0.92195732406E+02  0.81869725089E+02  0.77249809885E+02  0.14549995906E+03  0.00000000000E+00 0. -1.
         21    1    1    2  506  503  0.81409071844E+02 -0.13093953886E+03  0.59936623140E+02  0.16542369422E+03  0.00000000000E+00 0.  1.
<scales pt_clust_3="40.79873" pt_clust_4="44.83829" pt_clust_5="134.04179" pt_clust_6="14000.00000"></scales>
<clustering>
<clus scale="   40.799">  2  3  1 -1</clus>
<clus scale="   44.838">  2  4  1 -1</clus>
<clus scale="  134.042">  1  5  2 -1</clus>
<clus scale="  134.042">  1  3  2 -1</clus>
</clustering>
</event>
<event>
 6    0  0.6549018E+002  0.1036101E+03  0.7546771E-02  0.1272882E+00
         21   -1    0    0  505  501  0.00000000000E+00  0.00000000000E+00  0.31103550959E+03  0.31103550959E+03  0.00000000000E+00 0. -1.
         21   -1    0    0  503  502 -0.00000000000E+00 -0.00000000000E+00 -0.23742003207E+03  0.23742003207E+03  0.00000000000E+00 0. -1.
         21    1    1    2  503  506  0.16689135547E+02 -0.36479389240E+02 -0.21519763772E+02  0.45523327179E+02  0.00000000000E+00 0. -1.
         21    1    1    2  504  502  0.39034962038E+02 -0.63119594986E+02 -0.17109371728E+03  0.18649630458E+03  0.00000000000E+00 0. -1.
         21    1    1    2  505  504 -0.65344141566E+02  0.22310315919E+01  0.15542079719E+03  0.16861334033E+03  0.00000000000E+00 0. -1.
         21    1    1    2  506  501  0.96200439802E+01  0.97367952634E+02  0.11080816138E+03  0.14782256957E+03  0.00000000000E+00 0. -1.
<scales pt_clust_3="40.11575" pt_clust_4="103.61014" pt_clust_5="64.81276" pt_clust_6="14000.00000"></scales>
<clustering>
<clus scale="   40.116">  2  3  1 -1</clus>
<clus scale="   64.813">  1  5  2 -1</clus>
<clus scale="  103.610">  2  4  1 -1</clus>
<clus scale="   64.813">  1  3  2 -1</clus>
</clustering>
</event>
<event>
 6    0  0.6549018E+002  0.7361111E+02  0.7546771E-02  0.1348227E+00
         21   -1    0    0  505  501  0.00000000000E+00  0.00000000000E+00  0.32536672559E+03  0.32536672559E+03  0.00000000000E+00 0. -1.
         21   -1    0    0  506  502 -0.00000000000E+00 -0.00000000000E+00 -0.75094811785E+02  0.75094811785E+02  0.00000000000E+00 0. -1.
         21    1    1    2  503  501  0.28962973226E+02 -0.40335104191E+02  0.70770948470E+02  0.86454043257E+02  0.00000000000E+00 0. -1.
         21    1    1    2  504  502 -0.11044602025E+03  0.18527947219E+02  0.16273906058E+02  0.11316557884E+03  0.00000000000E+00 0. -1.
         21    1    1    2  505  504  0.45436566466E+02  0.31635310496E+02  0.15209196275E+03  0.16185561336E+03  0.00000000000E+00 0. -1.
         21    1    1    2  506  503  0.36046480556E+02 -0.98281535240E+01  0.11135096521E+02  0.38986301911E+02  0.00000000000E+00 0.  1.
<scales pt_clust_3="53.46051" pt_clust_4="73.61111" pt_clust_5="14000.00000" pt_clust_6="37.36230"></scales>
<clustering>
<clus scale="   37.362">  2  6  1 -1</clus>
<clus scale="   53.461">  1  3  2 -1</clus>
<clus scale="   73.611">  2  4  1 -1</clus>
<clus scale="   53.461">  1  3  2 -1</clus>
</clustering>
</event>
<event>
 6    0  0.6549018E+002  0.1559258E+03  0.7546771E-02  0.1193375E+00
         21   -1    0    0  505  501  0.00000000000E+00  0.00000000000E+00  0.13640673156E+03  0.13640673156E+03  0.00000000000E+00 0. -1.
         21   -1    0    0  506  502 -0.00000000000E+00 -0.00000000000E+00 -0.10585429914E+04  0.10585429914E+04  0.00000000000E+00 0. -1.
         21    1    1    2  503  501 -0.22849016972E+02 -0.32388551875E+02 -0.31101502689E+02  0.50382530094E+02  0.00000000000E+00 0. -1.
         21    1    1    2  504  502  0.10943682055E+03  0.52142872612E+02 -0.81039514810E+03  0.81941173590E+03  0.00000000000E+00 0. -1.
         21    1    1    2  505  504  0.95927338158E+01  0.33953259537E+02 -0.17597108331E+03  0.17947330313E+03  0.00000000000E+00 0.  1.
         21    1    1    2  506  503 -0.96180537390E+02 -0.53707580274E+02  0.95331474289E+02  0.14568215382E+03  0.00000000000E+00 0. -1.
<scales pt_clust_3="39.63705" pt_clust_4="30.86152" pt_clust_5="30.86152" pt_clust_6="145.05324"></scales>
<clustering>
<clus scale="   30.862">  4  5 -1 -1</clus>
<clus scale="   39.637">  1  3  2 -1</clus>
<clus scale="  145.053">  1  6  2 -1</clus>
<clus scale="   39.637">  1  3  2 -1</clus>
</clustering>
</event>
<event>
 6    0  0.6549018E+002  0.8876244E+02  0.7546771E-02  0.1305877E+00
         21   -1    0    0  505  501  0.00000000000E+00  0.00000000000E+00  0.13577897251E+04  0.13577897251E+04  0.00000000000E+00 0. -1.
         21   -1    0    0  506  502 -0.00000000000E+00 -0.00000000000E+00 -0.18389821548E+03  0.18389821548E+03  0.00000000000E+00 0.  1.
         21    1    1    2  503  502 -0.99984022158E+02 -0.65328956453E+02  0.85753901201E+02  0.14703199927E+03  0.00000000000E+00 0.  1.
         21    1    1    2  504  501  0.45284991242E+02 -0.66219563172E+02  0.73198513133E+01  0.80556447301E+02  0.00000000000E+00 0.  1.
         21    1    1    2  505  503 -0.12667853838E+02  0.88623917284E+02  0.11818881169E+04  0.11852738899E+04  0.00000000000E+00 0. -1.
         21    1    1    2  506  504  0.67366884754E+02  0.42924602340E+02 -0.10107035978E+03  0.12882560411E+03  0.00000000000E+00 0.  1.
<scales pt_clust_3="83.94227" pt_clust_4="14000.00000" pt_clust_5="88.76244" pt_clust_6="79.88003"></scales>
<clustering>
<clus scale="   79.880">  2  6  1 -1</clus>
<clus scale="   83.942">  2  3  1 -1</clus>
<clus scale="   88.762">  1  5  2 -1</clus>
<clus scale="   88.762">  1  3  2 -1</clus>
</clustering>
</event>
<event>
 6    0  0.6549018E+002  0.9559382E+02  0.7546771E-02  0.1289844E+00
         21   -1    0    0  503  501  0.00000000000E+00  0.00000000000E+00  0.11635630725E+03  0.11635630725E+03  0.00000000000E+00 0.  1.
         21   -1    0    0  505  502 -0.00000000000E+00 -0.00000000000E+00 -0.11757343931E+04  0.11757343931E+04  0.00000000000E+00 0. -1.
         21    1    1    2  503  504 -0.46532565922E+02  0.78436943674E+01  0.70638754693E+02  0.84950791034E+02  0.00000000000E+00 0.  1.
         21    1    1    2  504  506  0.72475447009E+02  0.90000896282E+02 -0.62462613938E+02  0.13135611859E+03  0.00000000000E+00 0.  1.
         21    1    1    2  505  501 -0.55082831843E+02 -0.42856416923E+02 -0.50557370804E+03  0.51036806826E+03  0.00000000000E+00 0. -1.
         21    1    1    2  506  502  0.29139950756E+02 -0.54988173727E+02 -0.56198051858E+03  0.56541572250E+03  0.00000000000E+00 0. -1.
<scales pt_clust_3="47.18902" pt_clust_4="14000.00000" pt_clust_5="95.59382" pt_clust_6="60.97571"></scales>
<clustering>
<clus scale="   47.189">  1  3  2 -1</clus>
<clus scale="   60.976">  2  6  1 -1</clus>
<clus scale="   95.594">  2  5  1 -1</clus>
<clus scale="   47.189">  1  3  2 -1</clus>
</clustering>
</event>
<event>
 6    0  0.6549018E+002  0.8574615E+02  0.7546771E-02  0.1313493E+00
         21   -1    0    0  506  501  0.00000000000E+00  0.00000000000E+00  0.24069358590E+03  0.24069358590E+03  0.00000000000E+00 0.  1.
         21   -1    0    0  505  502 -0.00000000000E+00 -0.00000000000E+00 -0.43317976936E+03  0.43317976936E+03  0.00000000000E+00 0.  1.
         21    1    1    2  503  504  0.24651398274E+02  0.74105019142E+02  0.95964279550E+02  0.12372707161E+03  0.00000000000E+00 0.  1.
         21    1    1    2  504  501 -0.74498615418E+02  0.17144569460E+02  0.10740943286E+03  0.13183613400E+03  0.00000000000E+00 0.  1.
         21    1    1    2  505  503  0.45016631649E+02 -0.32244482229E+02 -0.30416277400E+03  0.30916208831E+03  0.00000000000E+00 0.  1.
         21    1    1    2  506  502  0.48305854956E+01 -0.59005106373E+02 -0.91697121878E+02  0.10914806134E+03  0.00000000000E+00 0.  1.
<scales pt_clust_3="14000.00000" pt_clust_4="71.54248" pt_clust_5="55.37331" pt_clust_6="85.74615"></scales>
<clustering>
<clus scale="   55.373">  2  5  1 -1</clus>
<clus scale="   71.542">  1  4  2 -1</clus>
<clus scale="   85.746">  2  6  1 -1</clus>
<clus scale="   71.542">  1  3  2 -1</clus>
</clustering>
</event>
<event>
 6    0  0.6549018E+002  0.7724781E+02  0.7546771E-02  0.1337048E+00
         21   -1    0    0  505  501  0.00000000000E+00  0.00000000000E+00  0.37117629517E+03  0.37117629517E+03  0.00000000000E+00 0.  1.
         21   -1    0    0  503  502 -0.00000000000E+00 -0.00000000000E+00 -0.10369601593E+03  0.10369601593E+03  0.00000000000E+00 0.  1.
         21    1    1    2  503  506 -0.15275406047E+02  0.43836486770E+02 -0.18773500823E+02  0.50074144380E+02  0.00000000000E+00 0.  1.
         21    1    1    2  504  501 -0.22702899518E+02  0.22203556316E+02  0.23298372760E+03  0.23513791036E+03  0.00000000000E+00 0.  1.
         21    1    1    2  505  502 -0.56065457241E+02 -0.57736130554E+02 -0.15409045766E+01  0.80493295708E+02  0.00000000000E+00 0.  1.
         21    1    1    2  506  504  0.94043762806E+02 -0.83039125322E+01  0.54810957039E+02  0.10916696065E+03  0.00000000000E+00 0.  1.
<scales pt_clust_3="49.69376" pt_clust_4="31.75562" pt_clust_5="14000.00000" pt_clust_6="77.24781"></scales>
<clustering>
<clus scale="   31.756">  1  4  2 -1</clus>
<clus scale="   49.694">  2  3  1 -1</clus>
<clus scale="   77.248">  1  6  2 -1</clus>
<clus scale="   31.756">  1  3  2 -1</clus>
</clustering>
</event>
<event>
 6    0  0.6549018E+002  0.7606444E+02  0.7546771E-02  0.1340606E+00
         21   -1    0    0  506  501  0.00000000000E+00  0.00000000000E+00  0.88802462263E+03  0.88802462263E+03  0.00000000000E+00 0. -1.
         21   -1    0    0  505  502 -0.00000000000E+00 -0.00000000000E+00 -0.67456798216E+03  0.67456798216E+03  0.00000000000E+00 0. -1.
         21    1    1    2  503  501 -0.17483355907E+02  0.37608787926E+02  0.23488551881E+03  0.23851896279E+03  0.00000000000E+00 0.  1.
         21    1    1    2  504  502  0.10558391009E+03 -0.41125888935E+02 -0.26554640700E+03  0.28871126594E+03  0.00000000000E+00 0. -1.
         21    1    1    2  505  503 -0.56858239672E+02  0.35863825770E+02 -0.39196713957E+03  0.39768996960E+03  0.00000000000E+00 0. -1.
         21    1    1    2  506  504 -0.31242314514E+02 -0.32346724761E+02  0.63608466822E+03  0.63767240647E+03  0.00000000000E+00 0. -1.
<scales pt_clust_3="41.47395" pt_clust_4="76.06444" pt_clust_5="14000.00000" pt_clust_6="48.54035"></scales>
<clustering>
<clus scale="   41.474">  1  3  2 -1</clus>
<clus scale="   48.540">  1  6  2 -1</clus>
<clus scale="   76.064">  1  4  2 -1</clus>
<clus scale="   41.474">  1  3  2 -1</clus>
</clustering>
</event>
<event>
 6    0  0.6549018E+002  0.1786224E+03  0.7546771E-02  0.1169143E+00
         21   -1    0    0  506  501  0.00000000000E+00  0.00000000000E+00  0.26998466959E+03  0.26998466959E+03  0.00000000000E+00 0.  1.
         21   -1    0    0  504  502 -0.00000000000E+00 -0.00000000000E+00 -0.25953037992E+03  0.25953037992E+03  0.00000000000E+00 0.  1.
         21    1    1    2  503  502 -0.20170987630E+03 -0.41460376097E+02 -0.26709376312E+02  0.20765169820E+03  0.00000000000E+00 0.  1.
         21    1    1    2  504  505  0.33347141248E+02 -0.26268803849E+02 -0.71218291464E+02  0.82910354746E+02  0.00000000000E+00 0.  1.
         21    1    1    2  505  501  0.40699392564E+02 -0.27039068156E+02  0.45847066199E+01  0.49077197318E+02  0.00000000000E+00 0.  1.
         21    1    1    2  506  503  0.12766334249E+03  0.94768248102E+02  0.10379725083E+03  0.18987579925E+03  0.00000000000E+00 0.  1.
<scales pt_clust_3="178.62238" pt_clust_4="42.45094" pt_clust_5="54.02292" pt_clust_6="14000.00000"></scales>
<clustering>
<clus scale="   42.451">  2  4  1 -1</clus>
<clus scale="   54.023">  1  5  2 -1</clus>
<clus scale="  178.622">  2  3  1 -1</clus>
<clus scale="   54.023">  1  3  2 -1</clus>
</clustering>
</event>
<event>
 6    0  0.6549018E+002  0.1346329E+03  0.7546771E-02  0.1220739E+00
         21   -1    0    0  502  501  0.00000000000E+00  0.00000000000E+00  0.22616943357E+03  0.22616943357E+03  0.00000000000E+00 0. -1.
         21   -1    0    0  505  502 -0.00000000000E+00 -0.00000000000E+00 -0.23809343758E+03  0.23809343758E+03  0.00000000000E+00 0. -1.
         21    1    1    2  503  504 -0.33132718890E+02 -0.38760525930E+02  0.44732410995E+02  0.67831733169E+02  0.00000000000E+00 0. -1.
         21    1    1    2  504  501 -0.62592858911E+02 -0.40034650153E+02  0.13977120710E+03  0.15829286002E+03  0.00000000000E+00 0. -1.
         21    1    1    2  505  506  0.20457089072E+02  0.48809664461E+02 -0.89580016176E+02  0.10404544746E+03  0.00000000000E+00 0. -1.
         21    1    1    2  506  503  0.75268488729E+02  0.29985511621E+02 -0.10684760593E+03  0.13409283051E+03  0.00000000000E+00 0. -1.
<scales pt_clust_3="34.34394" pt_clust_4="130.73158" pt_clust_5="42.41334" pt_clust_6="42.41334"></scales>
<clustering>
<clus scale="   34.344">  3  4 -1 -1</clus>
<clus scale="   42.413">  5  6 -1 -1</clus>
<clus scale="  130.732">  1  3  2 -1</clus>
<clus scale="  130.732">  1  3  2 -1</clus>
</clustering>
</event>
<event>
 6    0  0.6549018E+002  0.1014199E+03  0.7546771E-02  0.1277338E+00
         21   -1    0    0  503  501  0.00000000000E+00  0.00000000000E+00  0.73864982295E+02  0.73864982295E+02  0.00000000000E+00 0. -1.
         21   -1    0    0  504  502 -0.00000000000E+00 -0.00000000000E+00 -0.54284257949E+03  0.54284257949E+03  0.00000000000E+00 0. -1.
         21    1    1    2  503  502  0.11976043191E+03  0.77044359073E+02 -0.70313994931E+02  0.15881578070E+03  0.00000000000E+00 0. -1.
         21    1    1    2  504  505 -0.32619241098E+02  0.69506596539E+01 -0.58955244703E+02  0.67735127057E+02  0.00000000000E+00 0. -1.
         21    1    1    2  505  506 -0.22940391554E+02 -0.39384158341E+02 -0.29815972813E+03  0.30162326994E+03  0.00000000000E+00 0. -1.
         21    1    1    2  506  501 -0.64200799262E+02 -0.44610860386E+02 -0.41548629438E+02  0.88533384090E+02  0.00000000000E+00 0. -1.
<scales pt_clust_3="101.41986" pt_clust_4="33.35156" pt_clust_5="55.73213" pt_clust_6="14000.00000"></scales>
<clustering>
<clus scale="   33.352">  2  4  1 -1</clus>
<clus scale="   55.732">  2  5  1 -1</clus>
<clus scale="  101.420">  2  3  1 -1</clus>
<clus scale="  101.420">  1  3  2 -1</clus>
</clustering>
</event>
<event>
 6    0  0.6549018E+002  0.1687782E+03  0.7546771E-02  0.1179128E+00
         21   -1    0    0  505  501  0.00000000000E+00  0.00000000000E+00  0.36116030775E+04  0.36116030775E+04  0.00000000000E+00 0. -1.
         21   -1    0    0  506  502 -0.00000000000E+00 -0.00000000000E+00 -0.14950238333E+03  0.14950238333E+03  0.00000000000E+00 0.  1.
         21    1    1    2  503  504 -0.97112294683E+02  0.56493469925E+02  0.15484739393E+04  0.15525443152E+04  0.00000000000E+00 0. -1.
         21    1    1    2  504  501 -0.92988956324E+01  0.90981333323E+02  0.19246999907E+04  0.19268715906E+04  0.00000000000E+00 0. -1.
         21    1    1    2  505  502  0.46854636920E+02 -0.13669201951E+03  0.85365593302E+02  0.16783131328E+03  0.00000000000E+00 0.  1.
         21    1    1    2  506  503  0.59556553395E+02 -0.10782783737E+02 -0.96438829068E+02  0.11385824182E+03  0.00000000000E+00 0.  1.
<scales pt_clust_3="14000.00000" pt_clust_4="91.05559" pt_clust_5="168.77820" pt_clust_6="60.52480"></scales>
<clustering>
<clus scale="   60.525">  2  6  1 -1</clus>
<clus scale="   91.056">  1  4  2 -1</clus>
<clus scale="  168.778">  2  5  1 -1</clus>
<clus scale="   91.056">  1  3  2 -1</clus>
</clustering>
</event>
<event>
 6    0  0.6549018E+002  0.1422480E+03  0.7546771E-02  0.1210336E+00
         21   -1    0    0  505  501  0.00000000000E+00  0.00000000000E+00  0.99972381797E+03  0.99972381797E+03  0.00000000000E+00 0. -1.
         21   -1    0    0  504  502 -0.00000000000E+00 -0.00000000000E+00 -0.52667608164E+02  0.52667608164E+02  0.00000000000E+00 0. -1.
         21    1    1    2  503  506 -0.55607917572E+02  0.33070268817E+02  0.35471338632E+03  0.36056548589E+03  0.00000000000E+00 0. -1.
         21    1    1    2  504  503 -0.43196787091E+02  0.32946806930E+02  0.10638054800E+03  0.11944988696E+03  0.00000000000E+00 0.  1.
         21    1    1    2  505  502  0.13016670089E+03 -0.25189052070E+02  0.63884901702E+02  0.14717044210E+03  0.00000000000E+00 0. -1.
         21    1    1    2  506  501 -0.31361996223E+02 -0.40828023676E+02  0.42207737378E+03  0.42520561118E+03  0.00000000000E+00 0. -1.
<scales pt_clust_3="51.96781" pt_clust_4="51.96781" pt_clust_5="128.63892" pt_clust_6="51.48303"></scales>
<clustering>
<clus scale="   51.483">  1  6  2 -1</clus>
<clus scale="   51.968">  3  4 -1 -1</clus>
<clus scale="  128.639">  2  5  1 -1</clus>
<clus scale="   51.483">  1  3  2 -1</clus>
</clustering>
</event>
<event>
 6    0  0.6549018E+002  0.9320208E+02  0.7546771E-02  0.1295278E+00
         21   -1    0    0  503  501  0.00000000000E+00  0.00000000000E+00  0.70569270714E+03  0.70569270714E+03  0.00000000000E+00 0.  1.
         21   -1    0    0  505  502 -0.00000000000E+00 -0.00000000000E+00 -0.26063752215E+03  0.26063752215E+03  0.00000000000E+00 0. -1.
         21    1    1    2  503  506  0.22131474007E+02  0.38056737252E+02  0.24511595230E+03  0.24903804421E+03  0.00000000000E+00 0.  1.
         21    1    1    2  504  501  0.13611618503E+02 -0.92670308367E+02  0.11317573885E+03  0.14690748815E+03  0.00000000000E+00 0.  1.
         21    1    1    2  505  504  0.77503231643E+02 -0.48650539193E+02 -0.21404463438E+03  0.23278473186E+03  0.00000000000E+00 0. -1.
         21    1    1    2  506  502 -0.11324632415E+03  0.10326411031E+03  0.30080812822E+03  0.33759996507E+03  0.00000000000E+00 0.  1.
<scales pt_clust_3="44.02405" pt_clust_4="84.25973" pt_clust_5="14000.00000" pt_clust_6="93.20208"></scales>
<clustering>
<clus scale="   44.024">  1  3  2 -1</clus>
<clus scale="   84.260">  1  4  2 -1</clus>
<clus scale="   93.202">  1  6  2 -1</clus>
<clus scale="   44.024">  1  3  2 -1</clus>
</clustering>
</event>
<event>
 6    0  0.6549018E+002  0.1242891E+03  0.7546771E-02  0.1236184E+00
         21   -1    0    0  504  501  0.00000000000E+00  0.00000000000E+00  0.21002738471E+04  0.21002738471E+04  0.00000000000E+00 0. -1.
         21   -1    0    0  503  502 -0.00000000000E+00 -0.00000000000E+00 -0.24285679680E+02  0.24285679680E+02  0.00000000000E+00 0.  1.
         21    1    1    2  503  505  0.12198847246E+01 -0.33202838888E+02  0.27702505079E+02  0.43259050113E+02  0.00000000000E+00 0.  1.
         21    1    1    2  504  506 -0.84375071945E+02  0.11278410211E+03  0.13618113786E+04  0.13690761985E+04  0.00000000000E+00 0. -1.
         21    1    1    2  505  501  0.54809986104E+02 -0.90348650507E+02  0.66886323164E+03  0.67715953502E+03  0.00000000000E+00 0.  1.
         21    1    1    2  506  502  0.28345201116E+02  0.10767387286E+02  0.17611052108E+02  0.35064743142E+02  0.00000000000E+00 0.  1.
<scales pt_clust_3="31.79329" pt_clust_4="14000.00000" pt_clust_5="124.28914" pt_clust_6="30.32140"></scales>
<clustering>
<clus scale="   30.321">  2  6  1 -1</clus>
<clus scale="   31.793">  2  3  1 -1</clus>
<clus scale="  124.289">  2  5  1 -1</clus>
<clus scale="  124.289">  1  3  2 -1</clus>
</clustering>
</event>
<event>
 6    0  0.6549018E+002  0.1226529E+03  0.7546771E-02  0.1238784E+00
         21   -1    0    0  503  501  0.00000000000E+00  0.00000000000E+00  0.60731694426E+03  0.60731694426E+03  0.00000000000E+00 0. -1.
         21   -1    0    0  504  502 -0.00000000000E+00 -0.00000000000E+00 -0.32775566768E+03  0.32775566768E+03  0.00000000000E+00 0.  1.
         21    1    1    2  503  502  0.42700247916E+02 -0.10863496566E+03 -0.27337937806E+03  0.29725603659E+03  0.00000000000E+00 0.  1.
         21    1    1    2  504  505 -0.36763440493E+02 -0.18144877077E+02 -0.18968979479E+02  0.45173103762E+02  0.00000000000E+00 0. -1.
         21    1    1    2  505  506  0.39018827842E+02  0.83150943654E+02  0.30824579458E+03  0.32163957815E+03  0.00000000000E+00 0. -1.
         21    1    1    2  506  501 -0.44955635265E+02  0.43628899088E+02  0.26366383954E+03  0.27100389344E+03  0.00000000000E+00 0. -1.
<scales pt_clust_3="14000.00000" pt_clust_4="40.99740" pt_clust_5="122.65291" pt_clust_6="62.81819"></scales>
<clustering>
<clus scale="   40.997">  2  4  1 -1</clus>
<clus scale="   62.818">  1  6  2 -1</clus>
<clus scale="  122.653">  1  5  2 -1</clus>
<clus scale="   62.818">  1  3  2 -1</clus>
</clustering>
</event>
<event>
 6    0  0.6549018E+002  0.1408979E+03  0.7546771E-02  0.1212126E+00
         21   -1    0    0  503  501  0.00000000000E+00  0.00000000000E+00  0.55248063316E+03  0.55248063316E+03  0.00000000000E+00 0. -1.
         21   -1    0    0  506  502 -0.00000000000E+00 -0.00000000000E+00 -0.20137728127E+03  0.20137728127E+03  0.00000000000E+00 0. -1.
         21    1    1    2  503  505  0.91130553862E+02  0.96042725410E+02  0.34676963553E+03  0.37118480987E+03  0.00000000000E+00 0. -1.
         21    1    1    2  504  501  0.47703092474E+02 -0.40601237484E+02  0.13939125494E+03  0.15282004931E+03  0.00000000000E+00 0. -1.
         21    1    1    2  505  502 -0.35196711101E+02  0.13117397515E+02 -0.90258973701E+02  0.97762758366E+02  0.00000000000E+00 0. -1.
         21    1    1    2  506  504 -0.10363693524E+03 -0.68558885441E+02 -0.44798564868E+02  0.13209029689E+03  0.00000000000E+00 0. -1.
<scales pt_clust_3="14000.00000" pt_clust_4="60.43965" pt_clust_5="37.56161" pt_clust_6="140.89790"></scales>
<clustering>
<clus scale="   37.562">  2  5  1 -1</clus>
<clus scale="   60.440">  1  4  2 -1</clus>
<clus scale="  140.898">  2  6  1 -1</clus>
<clus scale="   60.440">  1  3  2 -1</clus>
</clustering>
</event>
<event>
 6    0  0.6549018E+002  0.1134641E+03  0.7546771E-02  0.1254286E+00
         21   -1    0    0  503  501  0.00000000000E+00  0.00000000000E+00  0.68649642158E+02  0.68649642158E+02  0.00000000000E+00 0. -1.
         21   -1    0    0  506  502 -0.00000000000E+00 -0.00000000000E+00 -0.67434093651E+03  0.67434093651E+03  0.00000000000E+00 0.  1.
         21    1    1    2  503  504 -0.59863100269E+00  0.11209286255E+03 -0.21468955325E-02  0.11209446105E+03  0.00000000000E+00 0. -1.
         21    1    1    2  504  502 -0.61154582717E+02 -0.33072130704E+02 -0.20402030613E+03  0.21554102655E+03  0.00000000000E+00 0.  1.
         21    1    1    2  505  501  0.33884583051E+02 -0.33475841889E+02 -0.12912537563E+03  0.13763051839E+03  0.00000000000E+00 0.  1.
         21    1    1    2  506  505  0.27868630669E+02 -0.45544889952E+02 -0.27254346569E+03  0.27772457268E+03  0.00000000000E+00 0.  1.
<scales pt_clust_3="108.39668" pt_clust_4="69.52445" pt_clust_5="31.66888" pt_clust_6="31.66888"></scales>
<clustering>
<clus scale="   31.669">  5  6 -1 -1</clus>
<clus scale="   69.524">  2  4  1 -1</clus>
<clus scale="  108.397">  1  3  2 -1</clus>
<clus scale="  108.397">  1  3  2 -1</clus>
</clustering>
</event>
<event>
 6    0  0.6549018E+002  0.7945564E+02  0.7546771E-02  0.1330603E+00
         21   -1    0    0  504  501  0.00000000000E+00  0.00000000000E+00  0.15212277407E+03  0.15212277407E+03  0.00000000000E+00 0. -1.
         21   -1    0    0  506  502 -0.00000000000E+00 -0.00000000000E+00 -0.19759828804E+03  0.19759828804E+03  0.00000000000E+00 0. -1.
         21    1    1    2  503  501 -0.48427978222E+02  0.35550494207E+02  0.20742650592E+02  0.63555993160E+02  0.00000000000E+00 0. -1.
         21    1    1    2  504  505 -0.33792553200E+00  0.33873653743E+02  0.68173648378E+02  0.76126112108E+02  0.00000000000E+00 0. -1.
         21    1    1    2  505  502  0.14558599667E+02  0.41911783623E+02 -0.45213567433E+02  0.63346800320E+02  0.00000000000E+00 0. -1.
         21    1    1    2  506  503  0.34207304087E+02 -0.11133593157E+03 -0.89178245510E+02  0.14669215652E+03  0.00000000000E+00 0. -1.
<scales pt_clust_3="14000.00000" pt_clust_4="33.87534" pt_clust_5="48.00095" pt_clust_6="79.45564"></scales>
<clustering>
<clus scale="   33.875">  1  4  2 -1</clus>
<clus scale="   48.001">  2  5  1 -1</clus>
<clus scale="   79.456">  2  6  1 -1</clus>
<clus scale="   33.875">  1  3  2 -1</clus>
</clustering>
</event>
