<event>
 4    0  0.2182372E-002  0.2496167E+03  0.7546771E-02  0.1113547E+00
         21   -1    0    0  502  501  0.00000000000E+00  0.00000000000E+00  0.26224531990E+03  0.26224531990E+03  0.00000000000E+00 0.  1.
         21   -1    0    0  501  502 -0.00000000000E+00 -0.00000000000E+00 -0.23759619432E+03  0.23759619432E+03  0.00000000000E+00 0.  1.
         25    1    1    2    0    0 -0.12313301494E+03 -0.17641651853E+03 -0.76738170526E+01  0.24893455936E+03  0.12500000000E+03 0.  0.
         25    1    1    2    0    0  0.12313301494E+03  0.17641651853E+03  0.32322942629E+02  0.25090695486E+03  0.12500000000E+03 0.  0.
</event>
<event>
 4    0  0.2182372E-002  0.2645880E+03  0.7546771E-02  0.1104418E+00
         21   -1    0    0  502  501  0.00000000000E+00  0.00000000000E+00  0.61706227280E+03  0.61706227280E+03  0.00000000000E+00 0.  1.
         21   -1    0    0  501  502 -0.00000000000E+00 -0.00000000000E+00 -0.11345174870E+03  0.11345174870E+03  0.00000000000E+00 0.  1.
         25    1    1    2    0    0  0.10393685462E+03  0.17549723975E+03  0.40786390536E+03  0.47284259136E+03  0.12500000000E+03 0.  0.
         25    1    1    2    0    0 -0.10393685462E+03 -0.17549723975E+03  0.95746618748E+02  0.25767143014E+03  0.12500000000E+03 0.  0.
</event>
<event>
 4    0  0.2182372E-002  0.1901193E+03  0.7546771E-02  0.1158354E+00
         21   -1    0    0  502  501  0.00000000000E+00  0.00000000000E+00  0.53301901563E+02  0.53301901563E+02  0.00000000000E+00 0.  1.
         21   -1    0    0  501  502 -0.00000000000E+00 -0.00000000000E+00 -0.67812478153E+03  0.67812478153E+03  0.00000000000E+00 0.  1.
         25    1    1    2    0    0  0.13836698012E+03  0.35918673665E+02 -0.29470094363E+03  0.35058411042E+03  0.12500000000E+03 0.  0.
         25    1    1    2    0    0 -0.13836698012E+03 -0.35918673665E+02 -0.33012193634E+03  0.38084257267E+03  0.12500000000E+03 0.  0.
</event>
<event>
 4    0  0.2182372E-002  0.1979993E+03  0.7546771E-02  0.1151438E+00
         21   -1    0    0  502  501  0.00000000000E+00  0.00000000000E+00  0.13552277050E+03  0.13552277050E+03  0.00000000000E+00 0. -1.
         21   -1    0    0  501  502 -0.00000000000E+00 -0.00000000000E+00 -0.28927771010E+03  0.28927771010E+03  0.00000000000E+00 0. -1.
         25    1    1    2    0    0 -0.59752601435E+02 -0.44983661517E+02 -0.22073889297E+03  0.26447034248E+03  0.12500000000E+03 0.  0.
         25    1    1    2    0    0  0.59752601435E+02  0.44983661517E+02  0.66983953372E+02  0.16033013812E+03  0.12500000000E+03 0.  0.
</event>
<event>
 4    0  0.2182372E-002  0.2236343E+03  0.7546771E-02  0.1131202E+00
         21   -1    0    0  502  501  0.00000000000E+00  0.00000000000E+00  0.90329403657E+03  0.90329403657E+03  0.00000000000E+00 0.  1.
         21   -1    0    0  501  502 -0.00000000000E+00 -0.00000000000E+00 -0.55366576106E+02  0.55366576106E+02  0.00000000000E+00 0.  1.
         25    1    1    2    0    0  0.15607556075E+03  0.42616848565E+02  0.22973731137E+03  0.30753862957E+03  0.12500000000E+03 0.  0.
         25    1    1    2    0    0 -0.15607556075E+03 -0.42616848565E+02  0.61819014910E+03  0.65112198311E+03  0.12500000000E+03 0.  0.
</event>
<event>
 4    0  0.2182372E-002  0.1846493E+03  0.7546771E-02  0.1163378E+00
         21   -1    0    0  502  501  0.00000000000E+00  0.00000000000E+00  0.10068566469E+03  0.10068566469E+03  0.00000000000E+00 0. -1.
         21   -1    0    0  501  502 -0.00000000000E+00 -0.00000000000E+00 -0.33863164804E+03  0.33863164804E+03  0.00000000000E+00 0. -1.
         25    1    1    2    0    0 -0.12788844357E+03  0.31759409104E+02 -0.15853926210E+03  0.24108880458E+03  0.12500000000E+03 0.  0.
         25    1    1    2    0    0  0.12788844357E+03 -0.31759409104E+02 -0.79406721245E+02  0.19822850815E+03  0.12500000000E+03 0.  0.
</event>
<event>
 4    0  0.2182372E-002  0.1792236E+03  0.7546771E-02  0.1168557E+00
         21   -1    0    0  502  501  0.00000000000E+00  0.00000000000E+00  0.18885459493E+03  0.18885459493E+03  0.00000000000E+00 0. -1.
         21   -1    0    0  501  502 -0.00000000000E+00 -0.00000000000E+00 -0.17008373605E+03  0.17008373605E+03  0.00000000000E+00 0. -1.
         25    1    1    2    0    0  0.32271978693E+02  0.12387810191E+03 -0.10610427357E+01  0.17892286202E+03  0.12500000000E+03 0.  0.
         25    1    1    2    0    0 -0.32271978693E+02 -0.12387810191E+03  0.19831901611E+02  0.18001546896E+03  0.12500000000E+03 0.  0.
</event>
<event>
 4    0  0.2182372E-002  0.1844344E+03  0.7546771E-02  0.1163579E+00
         21   -1    0    0  502  501  0.00000000000E+00  0.00000000000E+00  0.92325850476E+02  0.92325850476E+02  0.00000000000E+00 0.  1.
         21   -1    0    0  501  502 -0.00000000000E+00 -0.00000000000E+00 -0.36843487347E+03  0.36843487347E+03  0.00000000000E+00 0.  1.
         25    1    1    2    0    0  0.11938147896E+03 -0.64166310105E+02 -0.14388806159E+03  0.23387609356E+03  0.12500000000E+03 0.  0.
         25    1    1    2    0    0 -0.11938147896E+03  0.64166310105E+02 -0.13222096140E+03  0.22688463038E+03  0.12500000000E+03 0.  0.
</event>
<event>
 4    0  0.2182372E-002  0.2774615E+03  0.7546771E-02  0.1097084E+00
         21   -1    0    0  502  501  0.00000000000E+00  0.00000000000E+00  0.44059683245E+03  0.44059683245E+03  0.00000000000E+00 0. -1.
         21   -1    0    0  501  502 -0.00000000000E+00 -0.00000000000E+00 -0.17472867101E+03  0.17472867101E+03  0.00000000000E+00 0. -1.
         25    1    1    2    0    0  0.51344637641E+02 -0.21721727709E+03  0.25205289260E+03  0.35913128233E+03  0.12500000000E+03 0.  0.
         25    1    1    2    0    0 -0.51344637641E+02  0.21721727709E+03  0.13815268842E+02  0.25619422112E+03  0.12500000000E+03 0.  0.
</event>
<event>
 4    0  0.2182372E-002  0.1949796E+03  0.7546771E-02  0.1154045E+00
         21   -1    0    0  502  501  0.00000000000E+00  0.00000000000E+00  0.13108301007E+03  0.13108301007E+03  0.00000000000E+00 0. -1.
         21   -1    0    0  501  502 -0.00000000000E+00 -0.00000000000E+00 -0.29002273750E+03  0.29002273750E+03  0.00000000000E+00 0. -1.
         25    1    1    2    0    0  0.13695322756E+03 -0.56867403689E+02 -0.10112027836E+03  0.21872448156E+03  0.12500000000E+03 0.  0.
         25    1    1    2    0    0 -0.13695322756E+03  0.56867403689E+02 -0.57819449067E+02  0.20238126601E+03  0.12500000000E+03 0.  0.
</event>
<event>
 4    0  0.2182372E-002  0.2628235E+03  0.7546771E-02  0.1105459E+00
         21   -1    0    0  502  501  0.00000000000E+00  0.00000000000E+00  0.75573038178E+02  0.75573038178E+02  0.00000000000E+00 0.  1.
         21   -1    0    0  501  502 -0.00000000000E+00 -0.00000000000E+00 -0.91403239398E+03  0.91403239398E+03  0.00000000000E+00 0.  1.
         25    1    1    2    0    0  0.90610201601E+02  0.20235126395E+03 -0.29584889534E+03  0.39026633410E+03  0.12500000000E+03 0.  0.
         25    1    1    2    0    0 -0.90610201601E+02 -0.20235126395E+03 -0.54261046047E+03  0.59933909807E+03  0.12500000000E+03 0.  0.
</event>
<event>
 4    0  0.2182372E-002  0.2025893E+03  0.7546771E-02  0.1147573E+00
         21   -1    0    0  502  501  0.00000000000E+00  0.00000000000E+00  0.34048400557E+03  0.34048400557E+03  0.00000000000E+00 0. -1.
         21   -1    0    0  501  502 -0.00000000000E+00 -0.00000000000E+00 -0.12054140526E+03  0.12054140526E+03  0.00000000000E+00 0. -1.
         25    1    1    2    0    0 -0.23901602632E+02 -0.10587543032E+03 -0.22899721922E+02  0.16712357888E+03  0.12500000000E+03 0.  0.
         25    1    1    2    0    0  0.23901602632E+02  0.10587543032E+03  0.24284232224E+03  0.29390183195E+03  0.12500000000E+03 0.  0.
</event>
<event>
 4    0  0.2182372E-002  0.2795808E+03  0.7546771E-02  0.1095918E+00
         21   -1    0    0  502  501  0.00000000000E+00  0.00000000000E+00  0.16896659133E+04  0.16896659133E+04  0.00000000000E+00 0.  1.
         21   -1    0    0  501  502 -0.00000000000E+00 -0.00000000000E+00 -0.46260879182E+02  0.46260879182E+02  0.00000000000E+00 0.  1.
         25    1    1    2    0    0 -0.13617658863E+03 -0.66553657771E+01  0.14725567476E+04  0.14841282734E+04  0.12500000000E+03 0.  0.
         25    1    1    2    0    0  0.13617658863E+03  0.66553657771E+01  0.17084828659E+03  0.25179851909E+03  0.12500000000E+03 0.  0.
</event>
<event>
 4    0  0.2182372E-002  0.1833307E+03  0.7546771E-02  0.1164618E+00
         21   -1    0    0  502  501  0.00000000000E+00  0.00000000000E+00  0.53631563579E+02  0.53631563579E+02  0.00000000000E+00 0.  1.
         21   -1    0    0  501  502 -0.00000000000E+00 -0.00000000000E+00 -0.62668584948E+03  0.62668584948E+03  0.00000000000E+00 0.  1.
         25    1    1    2    0    0 -0.85858413714E+02  0.58364630596E+02 -0.44404326994E+03  0.47283984909E+03  0.12500000000E+03 0.  0.
         25    1    1    2    0    0  0.85858413714E+02 -0.58364630596E+02 -0.12901101596E+03  0.20747756396E+03  0.12500000000E+03 0.  0.
</event>
<event>
 4    0  0.2182372E-002  0.2296742E+03  0.7546771E-02  0.1126869E+00
         21   -1    0    0  502  501  0.00000000000E+00  0.00000000000E+00  0.31679691865E+03  0.31679691865E+03  0.00000000000E+00 0. -1.
         21   -1    0    0  501  502 -0.00000000000E+00 -0.00000000000E+00 -0.16651121097E+03  0.16651121097E+03  0.00000000000E+00 0. -1.
         25    1    1    2    0    0  0.62385845787E+02 -0.73048821454E+02 -0.10059346828E+03  0.18700847556E+03  0.12500000000E+03 0.  0.
         25    1    1    2    0    0 -0.62385845787E+02  0.73048821454E+02  0.25087917596E+03  0.29629965407E+03  0.12500000000E+03 0.  0.
</event>
<event>
 4    0  0.2182372E-002  0.1787347E+03  0.7546771E-02  0.1169033E+00
         21   -1    0    0  502  501  0.00000000000E+00  0.00000000000E+00  0.27129737060E+03  0.27129737060E+03  0.00000000000E+00 0.  1.
         21   -1    0    0  501  502 -0.00000000000E+00 -0.00000000000E+00 -0.11775303059E+03  0.11775303059E+03  0.00000000000E+00 0.  1.
         25    1    1    2    0    0 -0.95349755758E+02  0.44218422650E+02 -0.22678588865E+01  0.16333091565E+03  0.12500000000E+03 0.  0.
         25    1    1    2    0    0  0.95349755758E+02 -0.44218422650E+02  0.15581219890E+03  0.22571948553E+03  0.12500000000E+03 0.  0.
</event>
<event>
 4    0  0.2182372E-002  0.2728091E+03  0.7546771E-02  0.1099683E+00
         21   -1    0    0  502  501  0.00000000000E+00  0.00000000000E+00  0.83559881850E+02  0.83559881850E+02  0.00000000000E+00 0. -1.
         21   -1    0    0  501  502 -0.00000000000E+00 -0.00000000000E+00 -0.89067657898E+03  0.89067657898E+03  0.00000000000E+00 0. -1.
         25    1    1    2    0    0 -0.20326268270E+03 -0.11339470168E+03 -0.52499972630E+03  0.58772764880E+03  0.12500000000E+03 0.  0.
         25    1    1    2    0    0  0.20326268270E+03  0.11339470168E+03 -0.28211697083E+03  0.38650881203E+03  0.12500000000E+03 0.  0.
</event>
<event>
 4    0  0.2182372E-002  0.1808092E+03  0.7546771E-02  0.1167022E+00
         21   -1    0    0  502  501  0.00000000000E+00  0.00000000000E+00  0.33354182729E+03  0.33354182729E+03  0.00000000000E+00 0.  1.
         21   -1    0    0  501  502 -0.00000000000E+00 -0.00000000000E+00 -0.98014624242E+02  0.98014624242E+02  0.00000000000E+00 0.  1.
         25    1    1    2    0    0 -0.17884352793E+02  0.53205182179E+02 -0.23019156700E+02  0.13894431640E+03  0.12500000000E+03 0.  0.
         25    1    1    2    0    0  0.17884352793E+02 -0.53205182179E+02  0.25854635974E+03  0.29261213513E+03  0.12500000000E+03 0.  0.
</event>
<event>
 4    0  0.2182372E-002  0.1796686E+03  0.7546771E-02  0.1168124E+00
         21   -1    0    0  502  501  0.00000000000E+00  0.00000000000E+00  0.41787773036E+03  0.41787773036E+03  0.00000000000E+00 0. -1.
         21   -1    0    0  501  502 -0.00000000000E+00 -0.00000000000E+00 -0.77249373377E+02  0.77249373377E+02  0.00000000000E+00 0. -1.
         25    1    1    2    0    0  0.12037140718E+03  0.36062179385E+02  0.21086341434E+03  0.27545986270E+03  0.12500000000E+03 0.  0.
         25    1    1    2    0    0 -0.12037140718E+03 -0.36062179385E+02  0.12976494265E+03  0.21966724104E+03  0.12500000000E+03 0.  0.
</event>
<event>
 4    0  0.2182372E-002  0.1630061E+03  0.7546771E-02  0.1185344E+00
         21   -1    0    0  502  501  0.00000000000E+00  0.00000000000E+00  0.20247511054E+04  0.20247511054E+04  0.00000000000E+00 0. -1.
         21   -1    0    0  501  502 -0.00000000000E+00 -0.00000000000E+00 -0.13123087178E+02  0.13123087178E+02  0.00000000000E+00 0. -1.
         25    1    1    2    0    0 -0.97432148740E+02 -0.12128231778E+02  0.12317019919E+04  0.12419158243E+04  0.12500000000E+03 0.  0.
         25    1    1    2    0    0  0.97432148740E+02  0.12128231778E+02  0.77992602629E+03  0.79595836832E+03  0.12500000000E+03 0.  0.
</event>
<event>
 4    0  0.2182372E-002  0.2416394E+03  0.7546771E-02  0.1118705E+00
         21   -1    0    0  502  501  0.00000000000E+00  0.00000000000E+00  0.21511821907E+03  0.21511821907E+03  0.00000000000E+00 0.  1.
         21   -1    0    0  501  502 -0.00000000000E+00 -0.00000000000E+00 -0.27143038203E+03  0.27143038203E+03  0.00000000000E+00 0.  1.
         25    1    1    2    0    0 -0.69949548477E+02 -0.18978850206E+03 -0.71482176445E+02  0.24828877622E+03  0.12500000000E+03 0.  0.
         25    1    1    2    0    0  0.69949548477E+02  0.18978850206E+03  0.15170013490E+02  0.23825982489E+03  0.12500000000E+03 0.  0.
</event>
<event>
 4    0  0.2182372E-002  0.1698428E+03  0.7546771E-02  0.1178012E+00
         21   -1    0    0  502  501  0.00000000000E+00  0.00000000000E+00  0.12491325130E+03  0.12491325130E+03  0.00000000000E+00 0.  1.
         21   -1    0    0  501  502 -0.00000000000E+00 -0.00000000000E+00 -0.23093300220E+03  0.23093300220E+03  0.00000000000E+00 0.  1.
         25    1    1    2    0    0 -0.30671984150E+02 -0.10897385043E+03 -0.74105484036E+02  0.18420828823E+03  0.12500000000E+03 0.  0.
         25    1    1    2    0    0  0.30671984150E+02  0.10897385043E+03 -0.31914266862E+02  0.17163796526E+03  0.12500000000E+03 0.  0.
</event>
<event>
 4    0  0.2182372E-002  0.2887460E+03  0.7546771E-02  0.1091006E+00
         21   -1    0    0  502  501  0.00000000000E+00  0.00000000000E+00  0.31699674766E+03  0.31699674766E+03  0.00000000000E+00 0.  1.
         21   -1    0    0  501  502 -0.00000000000E+00 -0.00000000000E+00 -0.26301289568E+03  0.26301289568E+03  0.00000000000E+00 0.  1.
         25    1    1    2    0    0 -0.90138176104E+02  0.34417233656E+02  0.26978910627E+03  0.31260294084E+03  0.12500000000E+03 0.  0.
         25    1    1    2    0    0  0.90138176104E+02 -0.34417233656E+02 -0.21580525429E+03  0.26740670250E+03  0.12500000000E+03 0.  0.
</event>
<event>
 4    0  0.2182372E-002  0.3991123E+03  0.7546771E-02  0.1044087E+00
         21   -1    0    0  502  501  0.00000000000E+00  0.00000000000E+00  0.74961768400E+02  0.74961768400E+02  0.00000000000E+00 0. -1.
         21   -1    0    0  501  502 -0.00000000000E+00 -0.00000000000E+00 -0.21249580197E+04  0.21249580197E+04  0.00000000000E+00 0. -1.
         25    1    1    2    0    0 -0.83223521287E+01  0.19192970751E+03 -0.12449609793E+03  0.26082667151E+03  0.12500000000E+03 0.  0.
         25    1    1    2    0    0  0.83223521287E+01 -0.19192970751E+03 -0.19255001533E+04  0.19390931165E+04  0.12500000000E+03 0.  0.
</event>
<event>
 4    0  0.2182372E-002  0.1754156E+03  0.7546771E-02  0.1172315E+00
         21   -1    0    0  502  501  0.00000000000E+00  0.00000000000E+00  0.83938842873E+02  0.83938842873E+02  0.00000000000E+00 0. -1.
         21   -1    0    0  501  502 -0.00000000000E+00 -0.00000000000E+00 -0.36658391266E+03  0.36658391266E+03  0.00000000000E+00 0. -1.
         25    1    1    2    0    0  0.11641802281E+03 -0.19817254949E+02 -0.96842625708E+02  0.19735595705E+03  0.12500000000E+03 0.  0.
         25    1    1    2    0    0 -0.11641802281E+03  0.19817254949E+02 -0.18580244408E+03  0.25316679849E+03  0.12500000000E+03 0.  0.
</event>
<event>
 4    0  0.2182372E-002  0.2276870E+03  0.7546771E-02  0.1128278E+00
         21   -1    0    0  502  501  0.00000000000E+00  0.00000000000E+00  0.31972404395E+03  0.31972404395E+03  0.00000000000E+00 0. -1.
         21   -1    0    0  501  502 -0.00000000000E+00 -0.00000000000E+00 -0.16214410034E+03  0.16214410034E+03  0.00000000000E+00 0. -1.
         25    1    1    2    0    0  0.50574938881E+02  0.17109934794E+03  0.87294635200E+01  0.21802296861E+03  0.12500000000E+03 0.  0.
         25    1    1    2    0    0 -0.50574938881E+02 -0.17109934794E+03  0.14885048009E+03  0.26384517568E+03  0.12500000000E+03 0.  0.
</event>
<event>
 4    0  0.2182372E-002  0.3167846E+03  0.7546771E-02  0.1077139E+00
         21   -1    0    0  502  501  0.00000000000E+00  0.00000000000E+00  0.71473006635E+03  0.71473006635E+03  0.00000000000E+00 0.  1.
         21   -1    0    0  501  502 -0.00000000000E+00 -0.00000000000E+00 -0.14040617274E+03  0.14040617274E+03  0.00000000000E+00 0.  1.
         25    1    1    2    0    0  0.19846348460E+03 -0.16328715378E+03  0.10270479818E+03  0.30368359336E+03  0.12500000000E+03 0.  0.
         25    1    1    2    0    0 -0.19846348460E+03  0.16328715378E+03  0.47161909543E+03  0.55145264573E+03  0.12500000000E+03 0.  0.
</event>
<event>
 4    0  0.2182372E-002  0.4338193E+03  0.7546771E-02  0.1032660E+00
         21   -1    0    0  502  501  0.00000000000E+00  0.00000000000E+00  0.16737207174E+03  0.16737207174E+03  0.00000000000E+00 0.  1.
         21   -1    0    0  501  502 -0.00000000000E+00 -0.00000000000E+00 -0.11244359680E+04  0.11244359680E+04  0.00000000000E+00 0.  1.
         25    1    1    2    0    0 -0.40442174780E+03  0.58897034629E+02 -0.36762935368E+03  0.56373943668E+03  0.12500000000E+03 0.  0.
         25    1    1    2    0    0  0.40442174780E+03 -0.58897034629E+02 -0.58943454261E+03  0.72806860309E+03  0.12500000000E+03 0.  0.
</event>
<event>
 4    0  0.2182372E-002  0.2392204E+03  0.7546771E-02  0.1120313E+00
         21   -1    0    0  502  501  0.00000000000E+00  0.00000000000E+00  0.26335287683E+02  0.26335287683E+02  0.00000000000E+00 0.  1.
         21   -1    0    0  501  502 -0.00000000000E+00 -0.00000000000E+00 -0.21729922712E+04  0.21729922712E+04  0.00000000000E+00 0.  1.
         25    1    1    2    0    0 -0.11430968509E+03  0.72333981610E+02 -0.37161027246E+03  0.41475065232E+03  0.12500000000E+03 0.  0.
         25    1    1    2    0    0  0.11430968509E+03 -0.72333981610E+02 -0.17750467110E+04  0.17845769066E+04  0.12500000000E+03 0.  0.
</event>
<event>
 4    0  0.2182372E-002  0.2738509E+03  0.7546771E-02  0.1099096E+00
         21   -1    0    0  502  501  0.00000000000E+00  0.00000000000E+00  0.58324466114E+02  0.58324466114E+02  0.00000000000E+00 0. -1.
         21   -1    0    0  501  502 -0.00000000000E+00 -0.00000000000E+00 -0.12858124658E+04  0.12858124658E+04  0.00000000000E+00 0. -1.
         25    1    1    2    0    0  0.22787729316E+03 -0.76414497627E+02 -0.51551432846E+03  0.58236351108E+03  0.12500000000E+03 0.  0.
         25    1    1    2    0    0 -0.22787729316E+03  0.76414497627E+02 -0.71197367127E+03  0.76177342089E+03  0.12500000000E+03 0.  0.
</event>
<event>
 4    0  0.2182372E-002  0.3496212E+03  0.7546771E-02  0.1062771E+00
         21   -1    0    0  502  501  0.00000000000E+00  0.00000000000E+00  0.10229127292E+04  0.10229127292E+04  0.00000000000E+00 0. -1.
         21   -1    0    0  501  502 -0.00000000000E+00 -0.00000000000E+00 -0.11949699226E+03  0.11949699226E+03  0.00000000000E+00 0.  1.
         25    1    1    2    0    0  0.11894499033E+03 -0.29948688221E+03  0.53769031281E+03  0.63919963691E+03  0.12500000000E+03 0.  0.
         25    1    1    2    0    0 -0.11894499033E+03  0.29948688221E+03  0.36572542417E+03  0.50321008459E+03  0.12500000000E+03 0.  0.
</event>
<event>
 4    0  0.2182372E-002  0.2027280E+03  0.7546771E-02  0.1147458E+00
         21   -1    0    0  502  501  0.00000000000E+00  0.00000000000E+00  0.11349589695E+03  0.11349589695E+03  0.00000000000E+00 0. -1.
         21   -1    0    0  501  502 -0.00000000000E+00 -0.00000000000E+00 -0.36211554143E+03  0.36211554143E+03  0.00000000000E+00 0. -1.
         25    1    1    2    0    0 -0.50113241002E+02  0.12293282498E+03 -0.20380461908E+02  0.18347800852E+03  0.12500000000E+03 0.  0.
         25    1    1    2    0    0  0.50113241002E+02 -0.12293282498E+03 -0.22823918258E+03  0.29213342987E+03  0.12500000000E+03 0.  0.
</event>
<event>
 4    0  0.2182372E-002  0.2118990E+03  0.7546771E-02  0.1140071E+00
         21   -1    0    0  502  501  0.00000000000E+00  0.00000000000E+00  0.30446105761E+03  0.30446105761E+03  0.00000000000E+00 0. -1.
         21   -1    0    0  501  502 -0.00000000000E+00 -0.00000000000E+00 -0.14747758524E+03  0.14747758524E+03  0.00000000000E+00 0. -1.
         25    1    1    2    0    0 -0.24379327982E+02  0.15843120714E+03  0.14673330093E+02  0.20380163308E+03  0.12500000000E+03 0.  0.
         25    1    1    2    0    0  0.24379327982E+02 -0.15843120714E+03  0.14231014227E+03  0.24813700978E+03  0.12500000000E+03 0.  0.
</event>
<event>
 4    0  0.2182372E-002  0.2230403E+03  0.7546771E-02  0.1131636E+00
         21   -1    0    0  502  501  0.00000000000E+00  0.00000000000E+00  0.35957601064E+03  0.35957601064E+03  0.00000000000E+00 0.  1.
         21   -1    0    0  501  502 -0.00000000000E+00 -0.00000000000E+00 -0.13834895012E+03  0.13834895012E+03  0.00000000000E+00 0.  1.
         25    1    1    2    0    0 -0.15810577243E+03 -0.29129154129E+02  0.21215919725E+03  0.29407901638E+03  0.12500000000E+03 0.  0.
         25    1    1    2    0    0  0.15810577243E+03  0.29129154129E+02  0.90678632798E+01  0.20384594438E+03  0.12500000000E+03 0.  0.
</event>
<event>
 4    0  0.2182372E-002  0.2124824E+03  0.7546771E-02  0.1139615E+00
         21   -1    0    0  502  501  0.00000000000E+00  0.00000000000E+00  0.12683084735E+03  0.12683084735E+03  0.00000000000E+00 0.  1.
         21   -1    0    0  501  502 -0.00000000000E+00 -0.00000000000E+00 -0.35597616848E+03  0.35597616848E+03  0.00000000000E+00 0.  1.
         25    1    1    2    0    0  0.59405766063E+02 -0.52146416309E+02 -0.28790111064E+03  0.32366702532E+03  0.12500000000E+03 0.  0.
         25    1    1    2    0    0 -0.59405766063E+02  0.52146416309E+02  0.58755789511E+02  0.15913999050E+03  0.12500000000E+03 0.  0.
</event>
<event>
 4    0  0.2182372E-002  0.2239558E+03  0.7546771E-02  0.1130968E+00
         21   -1    0    0  502  501  0.00000000000E+00  0.00000000000E+00  0.19818761814E+03  0.19818761814E+03  0.00000000000E+00 0. -1.
         21   -1    0    0  501  502 -0.00000000000E+00 -0.00000000000E+00 -0.25307436813E+03  0.25307436813E+03  0.00000000000E+00 0. -1.
         25    1    1    2    0    0 -0.14021633090E+03  0.64264005921E+02 -0.13185604469E+03  0.23833064937E+03  0.12500000000E+03 0.  0.
         25    1    1    2    0    0  0.14021633090E+03 -0.64264005921E+02  0.76969294707E+02  0.21293133690E+03  0.12500000000E+03 0.  0.
</event>
<event>
 4    0  0.2182372E-002  0.3320227E+03  0.7546771E-02  0.1070245E+00
         21   -1    0    0  502  501  0.00000000000E+00  0.00000000000E+00  0.43031184003E+03  0.43031184003E+03  0.00000000000E+00 0. -1.
         21   -1    0    0  501  502 -0.00000000000E+00 -0.00000000000E+00 -0.25618417004E+03  0.25618417004E+03  0.00000000000E+00 0. -1.
         25    1    1    2    0    0  0.23026315197E+03  0.14920365998E+03 -0.56673628217E+02  0.30678942524E+03  0.12500000000E+03 0.  0.
         25    1    1    2    0    0 -0.23026315197E+03 -0.14920365998E+03  0.23080129821E+03  0.37970658483E+03  0.12500000000E+03 0.  0.
</event>
<event>
 4    0  0.2182372E-002  0.3134721E+03  0.7546771E-02  0.1078693E+00
         21   -1    0    0  502  501  0.00000000000E+00  0.00000000000E+00  0.65477403732E+02  0.65477403732E+02  0.00000000000E+00 0. -1.
         21   -1    0    0  501  502 -0.00000000000E+00 -0.00000000000E+00 -0.15007430143E+04  0.15007430143E+04  0.00000000000E+00 0. -1.
         25    1    1    2    0    0  0.24254132408E+03 -0.71039635786E+02 -0.37540169672E+03  0.46949372481E+03  0.12500000000E+03 0.  0.
         25    1    1    2    0    0 -0.24254132408E+03  0.71039635786E+02 -0.10598639139E+04  0.10967266932E+04  0.12500000000E+03 0.  0.
</event>
<event>
 4    0  0.2182372E-002  0.2165080E+03  0.7546771E-02  0.1136514E+00
         21   -1    0    0  502  501  0.00000000000E+00  0.00000000000E+00  0.11598306430E+03  0.11598306430E+03  0.00000000000E+00 0. -1.
         21   -1    0    0  501  502 -0.00000000000E+00 -0.00000000000E+00 -0.40416016766E+03  0.40416016766E+03  0.00000000000E+00 0. -1.
         25    1    1    2    0    0 -0.72476199291E+01 -0.14780407840E+03 -0.27923657099E+02  0.19571229960E+03  0.12500000000E+03 0.  0.
         25    1    1    2    0    0  0.72476199291E+01  0.14780407840E+03 -0.26025344626E+03  0.32443093237E+03  0.12500000000E+03 0.  0.
</event>
<event>
 4    0  0.2182372E-002  0.2328537E+03  0.7546771E-02  0.1124647E+00
         21   -1    0    0  502  501  0.00000000000E+00  0.00000000000E+00  0.25303763811E+03  0.25303763811E+03  0.00000000000E+00 0.  1.
         21   -1    0    0  501  502 -0.00000000000E+00 -0.00000000000E+00 -0.21427971031E+03  0.21427971031E+03  0.00000000000E+00 0.  1.
         25    1    1    2    0    0 -0.82268394646E+02  0.52731370836E+02 -0.15164247295E+03  0.21947465874E+03  0.12500000000E+03 0.  0.
         25    1    1    2    0    0  0.82268394646E+02 -0.52731370836E+02  0.19040040074E+03  0.24784268969E+03  0.12500000000E+03 0.  0.
</event>
<event>
 4    0  0.2182372E-002  0.2321565E+03  0.7546771E-02  0.1125131E+00
         21   -1    0    0  502  501  0.00000000000E+00  0.00000000000E+00  0.28597976056E+02  0.28597976056E+02  0.00000000000E+00 0. -1.
         21   -1    0    0  501  502 -0.00000000000E+00 -0.00000000000E+00 -0.18846305135E+04  0.18846305135E+04  0.00000000000E+00 0. -1.
         25    1    1    2    0    0  0.33887083621E+02  0.40673494367E+02 -0.15198315048E+03  0.20378063110E+03  0.12500000000E+03 0.  0.
         25    1    1    2    0    0 -0.33887083621E+02 -0.40673494367E+02 -0.17040493869E+04  0.17094478584E+04  0.12500000000E+03 0.  0.
</event>
<event>
 4    0  0.2182372E-002  0.4016165E+03  0.7546771E-02  0.1043221E+00
         21   -1    0    0  502  501  0.00000000000E+00  0.00000000000E+00  0.83784632681E+03  0.83784632681E+03  0.00000000000E+00 0.  1.
         21   -1    0    0  501  502 -0.00000000000E+00 -0.00000000000E+00 -0.19251242661E+03  0.19251242661E+03  0.00000000000E+00 0.  1.
         25    1    1    2    0    0 -0.66745966860E+02  0.15366564587E+03  0.76256850775E+03  0.79069835198E+03  0.12500000000E+03 0.  0.
         25    1    1    2    0    0  0.66745966860E+02 -0.15366564587E+03 -0.11723460754E+03  0.23966040144E+03  0.12500000000E+03 0.  0.
</event>
<event>
 4    0  0.2182372E-002  0.1637022E+03  0.7546771E-02  0.1184579E+00
         21   -1    0    0  502  501  0.00000000000E+00  0.00000000000E+00  0.26854606170E+03  0.26854606170E+03  0.00000000000E+00 0. -1.
         21   -1    0    0  501  502 -0.00000000000E+00 -0.00000000000E+00 -0.99790679749E+02  0.99790679749E+02  0.00000000000E+00 0. -1.
         25    1    1    2    0    0  0.67025109700E+02 -0.57493859966E+02  0.19015178372E+02  0.15422219773E+03  0.12500000000E+03 0.  0.
         25    1    1    2    0    0 -0.67025109700E+02  0.57493859966E+02  0.14974020358E+03  0.21411454372E+03  0.12500000000E+03 0.  0.
</event>
<event>
 4    0  0.2182372E-002  0.2307482E+03  0.7546771E-02  0.1126114E+00
         21   -1    0    0  502  501  0.00000000000E+00  0.00000000000E+00  0.66639335154E+02  0.66639335154E+02  0.00000000000E+00 0.  1.
         21   -1    0    0  501  502 -0.00000000000E+00 -0.00000000000E+00 -0.79899865267E+03  0.79899865267E+03  0.00000000000E+00 0.  1.
         25    1    1    2    0    0 -0.10597565330E+03 -0.12283509758E+03 -0.56557527776E+03  0.60151450116E+03  0.12500000000E+03 0.  0.
         25    1    1    2    0    0  0.10597565330E+03  0.12283509758E+03 -0.16678403976E+03  0.26412348667E+03  0.12500000000E+03 0.  0.
</event>
<event>
 4    0  0.2182372E-002  0.2975095E+03  0.7546771E-02  0.1086492E+00
         21   -1    0    0  502  501  0.00000000000E+00  0.00000000000E+00  0.30634038258E+03  0.30634038258E+03  0.00000000000E+00 0. -1.
         21   -1    0    0  501  502 -0.00000000000E+00 -0.00000000000E+00 -0.28893313029E+03  0.28893313029E+03  0.00000000000E+00 0. -1.
         25    1    1    2    0    0  0.19612027184E+03  0.17176822700E+03 -0.61464822058E+02  0.29558485953E+03  0.12500000000E+03 0.  0.
         25    1    1    2    0    0 -0.19612027184E+03 -0.17176822700E+03  0.78872074344E+02  0.29968865334E+03  0.12500000000E+03 0.  0.
</event>
<event>
 4    0  0.2182372E-002  0.1981740E+03  0.7546771E-02  0.1151289E+00
         21   -1    0    0  502  501  0.00000000000E+00  0.00000000000E+00  0.67013770194E+02  0.67013770194E+02  0.00000000000E+00 0.  1.
         21   -1    0    0  501  502 -0.00000000000E+00 -0.00000000000E+00 -0.58604288718E+03  0.58604288718E+03  0.00000000000E+00 0.  1.
         25    1    1    2    0    0 -0.50148885602E+02 -0.83552972203E+02 -0.45552627368E+03  0.48231234268E+03  0.12500000000E+03 0.  0.
         25    1    1    2    0    0  0.50148885602E+02  0.83552972203E+02 -0.63502843306E+02  0.17074431469E+03  0.12500000000E+03 0.  0.
</event>
<event>
 4    0  0.2182372E-002  0.2397552E+03  0.7546771E-02  0.1119956E+00
         21   -1    0    0  502  501  0.00000000000E+00  0.00000000000E+00  0.58286210966E+02  0.58286210966E+02  0.00000000000E+00 0. -1.
         21   -1    0    0  501  502 -0.00000000000E+00 -0.00000000000E+00 -0.98621228539E+03  0.98621228539E+03  0.00000000000E+00 0. -1.
         25    1    1    2    0    0 -0.42237238967E+02  0.14208586438E+02 -0.89891583933E+03  0.90865865675E+03  0.12500000000E+03 0.  0.
         25    1    1    2    0    0  0.42237238967E+02 -0.14208586438E+02 -0.29010235091E+02  0.13583983961E+03  0.12500000000E+03 0.  0.
</event>
<event>
 4    0  0.2182372E-002  0.3736460E+03  0.7546771E-02  0.1053308E+00
         21   -1    0    0  502  501  0.00000000000E+00  0.00000000000E+00  0.72499256715E+03  0.72499256715E+03  0.00000000000E+00 0.  1.
         21   -1    0    0  501  502 -0.00000000000E+00 -0.00000000000E+00 -0.19256934157E+03  0.19256934157E+03  0.00000000000E+00 0.  1.
         25    1    1    2    0    0 -0.15046222201E+03  0.18362185007E+03 -0.53101134730E+02  0.27349697363E+03  0.12500000000E+03 0.  0.
         25    1    1    2    0    0  0.15046222201E+03 -0.18362185007E+03  0.58552436031E+03  0.64406493508E+03  0.12500000000E+03 0.  0.
</event>
<event>
 4    0  0.2182372E-002  0.2304415E+03  0.7546771E-02  0.1126329E+00
         21   -1    0    0  502  501  0.00000000000E+00  0.00000000000E+00  0.74542013810E+03  0.74542013810E+03  0.00000000000E+00 0. -1.
         21   -1    0    0  501  502 -0.00000000000E+00 -0.00000000000E+00 -0.71239394322E+02  0.71239394322E+02  0.00000000000E+00 0. -1.
         25    1    1    2    0    0  0.14956537600E+01 -0.19177265308E+03  0.29023282393E+03  0.36964723661E+03  0.12500000000E+03 0.  0.
         25    1    1    2    0    0 -0.14956537600E+01  0.19177265308E+03  0.38394791985E+03  0.44701229581E+03  0.12500000000E+03 0.  0.
</event>
<event>
 4    0  0.2182372E-002  0.2277511E+03  0.7546771E-02  0.1128233E+00
         21   -1    0    0  502  501  0.00000000000E+00  0.00000000000E+00  0.64013716810E+02  0.64013716810E+02  0.00000000000E+00 0. -1.
         21   -1    0    0  501  502 -0.00000000000E+00 -0.00000000000E+00 -0.81030420711E+03  0.81030420711E+03  0.00000000000E+00 0. -1.
         25    1    1    2    0    0 -0.18858734877E+03  0.25553039022E+02 -0.36309084843E+03  0.42857684274E+03  0.12500000000E+03 0.  0.
         25    1    1    2    0    0  0.18858734877E+03 -0.25553039022E+02 -0.38319964187E+03  0.44574108118E+03  0.12500000000E+03 0.  0.
</event>
<event>
 4    0  0.2182372E-002  0.3248517E+03  0.7546771E-02  0.1073438E+00
         21   -1    0    0  502  501  0.00000000000E+00  0.00000000000E+00  0.51141308790E+03  0.51141308790E+03  0.00000000000E+00 0.  1.
         21   -1    0    0  501  502 -0.00000000000E+00 -0.00000000000E+00 -0.20634712816E+03  0.20634712816E+03  0.00000000000E+00 0.  1.
         25    1    1    2    0    0 -0.45843201299E+02  0.23576656690E+03 -0.45757135205E+02  0.27460187290E+03  0.12500000000E+03 0.  0.
         25    1    1    2    0    0  0.45843201299E+02 -0.23576656690E+03  0.35082309495E+03  0.44315834317E+03  0.12500000000E+03 0.  0.
</event>
<event>
 4    0  0.2182372E-002  0.1951576E+03  0.7546771E-02  0.1153890E+00
         21   -1    0    0  502  501  0.00000000000E+00  0.00000000000E+00  0.11013528979E+03  0.11013528979E+03  0.00000000000E+00 0. -1.
         21   -1    0    0  501  502 -0.00000000000E+00 -0.00000000000E+00 -0.34581551621E+03  0.34581551621E+03  0.00000000000E+00 0. -1.
         25    1    1    2    0    0 -0.99825314657E+02 -0.11079783572E+03 -0.13517611227E+03  0.23693635258E+03  0.12500000000E+03 0.  0.
         25    1    1    2    0    0  0.99825314657E+02  0.11079783572E+03 -0.10050411414E+03  0.21901445342E+03  0.12500000000E+03 0.  0.
</event>
<event>
 4    0  0.2182372E-002  0.3739944E+03  0.7546771E-02  0.1053176E+00
         21   -1    0    0  502  501  0.00000000000E+00  0.00000000000E+00  0.14621701693E+04  0.14621701693E+04  0.00000000000E+00 0. -1.
         21   -1    0    0  501  502 -0.00000000000E+00 -0.00000000000E+00 -0.95660436102E+02  0.95660436102E+02  0.00000000000E+00 0. -1.
         25    1    1    2    0    0 -0.33846137419E+03 -0.93789044543E+02  0.62097055090E+03  0.72428027157E+03  0.12500000000E+03 0.  0.
         25    1    1    2    0    0  0.33846137419E+03  0.93789044543E+02  0.74553918232E+03  0.83355033386E+03  0.12500000000E+03 0.  0.
</event>
<event>
 4    0  0.2182372E-002  0.2174738E+03  0.7546771E-02  0.1135781E+00
         21   -1    0    0  502  501  0.00000000000E+00  0.00000000000E+00  0.11434395643E+04  0.11434395643E+04  0.00000000000E+00 0. -1.
         21   -1    0    0  501  502 -0.00000000000E+00 -0.00000000000E+00 -0.41361911740E+02  0.41361911740E+02  0.00000000000E+00 0. -1.
         25    1    1    2    0    0  0.17144424290E+03 -0.14318379987E+02  0.67502473077E+03  0.70772984364E+03  0.12500000000E+03 0.  0.
         25    1    1    2    0    0 -0.17144424290E+03  0.14318379987E+02  0.42705292177E+03  0.47707163238E+03  0.12500000000E+03 0.  0.
</event>
<event>
 4    0  0.2182372E-002  0.3835587E+03  0.7546771E-02  0.1049626E+00
         21   -1    0    0  502  501  0.00000000000E+00  0.00000000000E+00  0.16139262280E+04  0.16139262280E+04  0.00000000000E+00 0.  1.
         21   -1    0    0  501  502 -0.00000000000E+00 -0.00000000000E+00 -0.91154909979E+02  0.91154909979E+02  0.00000000000E+00 0.  1.
         25    1    1    2    0    0 -0.95749323481E+02  0.32263116224E+03  0.46124957971E+03  0.58449548721E+03  0.12500000000E+03 0.  0.
         25    1    1    2    0    0  0.95749323481E+02 -0.32263116224E+03  0.10615217383E+04  0.11205856508E+04  0.12500000000E+03 0.  0.
</event>
<event>
 4    0  0.2182372E-002  0.2780930E+03  0.7546771E-02  0.1096735E+00
         21   -1    0    0  502  501  0.00000000000E+00  0.00000000000E+00  0.67110924140E+03  0.67110924140E+03  0.00000000000E+00 0. -1.
         21   -1    0    0  501  502 -0.00000000000E+00 -0.00000000000E+00 -0.11523562571E+03  0.11523562571E+03  0.00000000000E+00 0. -1.
         25    1    1    2    0    0 -0.89403106253E+02 -0.21076551517E+03  0.14162497809E+03  0.29681248662E+03  0.12500000000E+03 0.  0.
         25    1    1    2    0    0  0.89403106253E+02  0.21076551517E+03  0.41424863760E+03  0.48953238049E+03  0.12500000000E+03 0.  0.
</event>
<event>
 4    0  0.2182372E-002  0.1602023E+03  0.7546771E-02  0.1188469E+00
         21   -1    0    0  502  501  0.00000000000E+00  0.00000000000E+00  0.15200785260E+03  0.15200785260E+03  0.00000000000E+00 0.  1.
         21   -1    0    0  501  502 -0.00000000000E+00 -0.00000000000E+00 -0.16883852453E+03  0.16883852453E+03  0.00000000000E+00 0.  1.
         25    1    1    2    0    0  0.35587402803E+01  0.99140497138E+02  0.56852265705E+01  0.15968351388E+03  0.12500000000E+03 0.  0.
         25    1    1    2    0    0 -0.35587402803E+01 -0.99140497138E+02 -0.22515898503E+02  0.16116286325E+03  0.12500000000E+03 0.  0.
</event>
<event>
 4    0  0.2182372E-002  0.1889533E+03  0.7546771E-02  0.1159409E+00
         21   -1    0    0  502  501  0.00000000000E+00  0.00000000000E+00  0.18322919356E+03  0.18322919356E+03  0.00000000000E+00 0. -1.
         21   -1    0    0  501  502 -0.00000000000E+00 -0.00000000000E+00 -0.19485612955E+03  0.19485612955E+03  0.00000000000E+00 0. -1.
         25    1    1    2    0    0 -0.94926808866E+02  0.23989002999E+02 -0.10829122932E+03  0.19219407289E+03  0.12500000000E+03 0.  0.
         25    1    1    2    0    0  0.94926808866E+02 -0.23989002999E+02  0.96664293330E+02  0.18589125023E+03  0.12500000000E+03 0.  0.
</event>
<event>
 4    0  0.2182372E-002  0.2462420E+03  0.7546771E-02  0.1115703E+00
         21   -1    0    0  502  501  0.00000000000E+00  0.00000000000E+00  0.40125518435E+03  0.40125518435E+03  0.00000000000E+00 0.  1.
         21   -1    0    0  501  502 -0.00000000000E+00 -0.00000000000E+00 -0.15111364279E+03  0.15111364279E+03  0.00000000000E+00 0.  1.
         25    1    1    2    0    0  0.45401400014E+02  0.15714221165E+03  0.27661170141E+03  0.34481008565E+03  0.12500000000E+03 0.  0.
         25    1    1    2    0    0 -0.45401400014E+02 -0.15714221165E+03 -0.26470159863E+02  0.20755874149E+03  0.12500000000E+03 0.  0.
</event>
<event>
 4    0  0.2182372E-002  0.2530817E+03  0.7546771E-02  0.1111373E+00
         21   -1    0    0  502  501  0.00000000000E+00  0.00000000000E+00  0.15377715115E+03  0.15377715115E+03  0.00000000000E+00 0. -1.
         21   -1    0    0  501  502 -0.00000000000E+00 -0.00000000000E+00 -0.41651417617E+03  0.41651417617E+03  0.00000000000E+00 0. -1.
         25    1    1    2    0    0 -0.16579852697E+03 -0.10354380666E+03 -0.17494962086E+02  0.23268335811E+03  0.12500000000E+03 0.  0.
         25    1    1    2    0    0  0.16579852697E+03  0.10354380666E+03 -0.24524206293E+03  0.33760796921E+03  0.12500000000E+03 0.  0.
</event>
<event>
 4    0  0.2182372E-002  0.2907034E+03  0.7546771E-02  0.1089982E+00
         21   -1    0    0  502  501  0.00000000000E+00  0.00000000000E+00  0.33577851065E+03  0.33577851065E+03  0.00000000000E+00 0. -1.
         21   -1    0    0  501  502 -0.00000000000E+00 -0.00000000000E+00 -0.25167926748E+03  0.25167926748E+03  0.00000000000E+00 0. -1.
         25    1    1    2    0    0 -0.20162473450E+03 -0.10599671441E+03  0.17377377471E+03  0.31258624698E+03  0.12500000000E+03 0.  0.
         25    1    1    2    0    0  0.20162473450E+03  0.10599671441E+03 -0.89674531549E+02  0.27487153115E+03  0.12500000000E+03 0.  0.
</event>
<event>
 4    0  0.2182372E-002  0.2295133E+03  0.7546771E-02  0.1126983E+00
         21   -1    0    0  502  501  0.00000000000E+00  0.00000000000E+00  0.26355807365E+03  0.26355807365E+03  0.00000000000E+00 0. -1.
         21   -1    0    0  501  502 -0.00000000000E+00 -0.00000000000E+00 -0.19986613766E+03  0.19986613766E+03  0.00000000000E+00 0. -1.
         25    1    1    2    0    0  0.10680221377E+03  0.85208175146E+02  0.16873327535E+03  0.25052557592E+03  0.12500000000E+03 0.  0.
         25    1    1    2    0    0 -0.10680221377E+03 -0.85208175146E+02 -0.10504133936E+03  0.21289863539E+03  0.12500000000E+03 0.  0.
</event>
<event>
 4    0  0.2182372E-002  0.2230596E+03  0.7546771E-02  0.1131622E+00
         21   -1    0    0  502  501  0.00000000000E+00  0.00000000000E+00  0.21821742502E+03  0.21821742502E+03  0.00000000000E+00 0. -1.
         21   -1    0    0  501  502 -0.00000000000E+00 -0.00000000000E+00 -0.22800932030E+03  0.22800932030E+03  0.00000000000E+00 0. -1.
         25    1    1    2    0    0 -0.16246568943E+03  0.48160482953E+02  0.68715760998E+02  0.22149805455E+03  0.12500000000E+03 0.  0.
         25    1    1    2    0    0  0.16246568943E+03 -0.48160482953E+02 -0.78507656279E+02  0.22472869077E+03  0.12500000000E+03 0.  0.
</event>
<event>
 4    0  0.2182372E-002  0.1863464E+03  0.7546771E-02  0.1161798E+00
         21   -1    0    0  502  501  0.00000000000E+00  0.00000000000E+00  0.96729554745E+01  0.96729554745E+01  0.00000000000E+00 0.  1.
         21   -1    0    0  501  502 -0.00000000000E+00 -0.00000000000E+00 -0.35899055949E+04  0.35899055949E+04  0.00000000000E+00 0.  1.
         25    1    1    2    0    0  0.22816316800E+02  0.37555275538E+00 -0.31065982222E+04  0.31091957545E+04  0.12500000000E+03 0.  0.
         25    1    1    2    0    0 -0.22816316800E+02 -0.37555275538E+00 -0.47363441723E+03  0.49038279592E+03  0.12500000000E+03 0.  0.
</event>
<event>
 4    0  0.2182372E-002  0.2209552E+03  0.7546771E-02  0.1133173E+00
         21   -1    0    0  502  501  0.00000000000E+00  0.00000000000E+00  0.10540250627E+04  0.10540250627E+04  0.00000000000E+00 0.  1.
         21   -1    0    0  501  502 -0.00000000000E+00 -0.00000000000E+00 -0.46318837697E+02  0.46318837697E+02  0.00000000000E+00 0.  1.
         25    1    1    2    0    0  0.53875542613E+02 -0.17373642986E+03  0.52988427818E+03  0.57401155860E+03  0.12500000000E+03 0.  0.
         25    1    1    2    0    0 -0.53875542613E+02  0.17373642986E+03  0.47782194686E+03  0.52633234182E+03  0.12500000000E+03 0.  0.
</event>
<event>
 4    0  0.2182372E-002  0.2076472E+03  0.7546771E-02  0.1143443E+00
         21   -1    0    0  502  501  0.00000000000E+00  0.00000000000E+00  0.11756369207E+03  0.11756369207E+03  0.00000000000E+00 0. -1.
         21   -1    0    0  501  502 -0.00000000000E+00 -0.00000000000E+00 -0.36675731006E+03  0.36675731006E+03  0.00000000000E+00 0. -1.
         25    1    1    2    0    0 -0.15891975529E+03 -0.11603140945E+02 -0.17806759814E+03  0.26967237717E+03  0.12500000000E+03 0.  0.
         25    1    1    2    0    0  0.15891975529E+03  0.11603140945E+02 -0.71126019848E+02  0.21464862496E+03  0.12500000000E+03 0.  0.
</event>
<event>
 4    0  0.2182372E-002  0.2258869E+03  0.7546771E-02  0.1129569E+00
         21   -1    0    0  502  501  0.00000000000E+00  0.00000000000E+00  0.98282716813E+02  0.98282716813E+02  0.00000000000E+00 0. -1.
         21   -1    0    0  501  502 -0.00000000000E+00 -0.00000000000E+00 -0.51916444479E+03  0.51916444479E+03  0.00000000000E+00 0. -1.
         25    1    1    2    0    0  0.57363082990E+02  0.12056435691E+03 -0.29261312005E+02  0.18522287069E+03  0.12500000000E+03 0.  0.
         25    1    1    2    0    0 -0.57363082990E+02 -0.12056435691E+03 -0.39162041597E+03  0.43222429091E+03  0.12500000000E+03 0.  0.
</event>
<event>
 4    0  0.2182372E-002  0.1990248E+03  0.7546771E-02  0.1150564E+00
         21   -1    0    0  502  501  0.00000000000E+00  0.00000000000E+00  0.17290201038E+02  0.17290201038E+02  0.00000000000E+00 0. -1.
         21   -1    0    0  501  502 -0.00000000000E+00 -0.00000000000E+00 -0.22909440331E+04  0.22909440331E+04  0.00000000000E+00 0. -1.
         25    1    1    2    0    0 -0.10535533756E+03 -0.83158844917E+02 -0.68874565386E+03  0.71274870491E+03  0.12500000000E+03 0.  0.
         25    1    1    2    0    0  0.10535533756E+03  0.83158844917E+02 -0.15849081782E+04  0.15954855293E+04  0.12500000000E+03 0.  0.
</event>
<event>
 4    0  0.2182372E-002  0.1844081E+03  0.7546771E-02  0.1163604E+00
         21   -1    0    0  502  501  0.00000000000E+00  0.00000000000E+00  0.16152938374E+03  0.16152938374E+03  0.00000000000E+00 0.  1.
         21   -1    0    0  501  502 -0.00000000000E+00 -0.00000000000E+00 -0.21052720343E+03  0.21052720343E+03  0.00000000000E+00 0.  1.
         25    1    1    2    0    0  0.12883699313E+03 -0.19129920145E+02  0.13466912946E+02  0.18102840216E+03  0.12500000000E+03 0.  0.
         25    1    1    2    0    0 -0.12883699313E+03  0.19129920145E+02 -0.62464732639E+02  0.19102818501E+03  0.12500000000E+03 0.  0.
</event>
<event>
 4    0  0.2182372E-002  0.1985566E+03  0.7546771E-02  0.1150963E+00
         21   -1    0    0  502  501  0.00000000000E+00  0.00000000000E+00  0.80487566327E+03  0.80487566327E+03  0.00000000000E+00 0.  1.
         21   -1    0    0  501  502 -0.00000000000E+00 -0.00000000000E+00 -0.48982375394E+02  0.48982375394E+02  0.00000000000E+00 0.  1.
         25    1    1    2    0    0  0.14463473618E+03 -0.44593738811E+00  0.26255046360E+03  0.32477246144E+03  0.12500000000E+03 0.  0.
         25    1    1    2    0    0 -0.14463473618E+03  0.44593738811E+00  0.49334282428E+03  0.52908557723E+03  0.12500000000E+03 0.  0.
</event>
<event>
 4    0  0.2182372E-002  0.2161644E+03  0.7546771E-02  0.1136775E+00
         21   -1    0    0  502  501  0.00000000000E+00  0.00000000000E+00  0.34938886528E+03  0.34938886528E+03  0.00000000000E+00 0.  1.
         21   -1    0    0  501  502 -0.00000000000E+00 -0.00000000000E+00 -0.13373934524E+03  0.13373934524E+03  0.00000000000E+00 0.  1.
         25    1    1    2    0    0  0.40582986394E+02  0.13757194525E+03 -0.68432388295E+01  0.19038079951E+03  0.12500000000E+03 0.  0.
         25    1    1    2    0    0 -0.40582986394E+02 -0.13757194525E+03  0.22249275887E+03  0.29274741101E+03  0.12500000000E+03 0.  0.
</event>
<event>
 4    0  0.2182372E-002  0.1883083E+03  0.7546771E-02  0.1159996E+00
         21   -1    0    0  502  501  0.00000000000E+00  0.00000000000E+00  0.15176304732E+03  0.15176304732E+03  0.00000000000E+00 0. -1.
         21   -1    0    0  501  502 -0.00000000000E+00 -0.00000000000E+00 -0.23365378327E+03  0.23365378327E+03  0.00000000000E+00 0. -1.
         25    1    1    2    0    0  0.11527144700E+03  0.36688331302E+02  0.32861079518E+02  0.17702652540E+03  0.12500000000E+03 0.  0.
         25    1    1    2    0    0 -0.11527144700E+03 -0.36688331302E+02 -0.11475181547E+03  0.20839030520E+03  0.12500000000E+03 0.  0.
</event>
<event>
 4    0  0.2182372E-002  0.2227391E+03  0.7546771E-02  0.1131857E+00
         21   -1    0    0  502  501  0.00000000000E+00  0.00000000000E+00  0.18637396198E+03  0.18637396198E+03  0.00000000000E+00 0.  1.
         21   -1    0    0  501  502 -0.00000000000E+00 -0.00000000000E+00 -0.26619979221E+03  0.26619979221E+03  0.00000000000E+00 0.  1.
         25    1    1    2    0    0 -0.65722429939E+02  0.14971223879E+03  0.46617177134E+02  0.21102453280E+03  0.12500000000E+03 0.  0.
         25    1    1    2    0    0  0.65722429939E+02 -0.14971223879E+03 -0.12644300737E+03  0.24154922139E+03  0.12500000000E+03 0.  0.
</event>
<event>
 4    0  0.2182372E-002  0.3614079E+03  0.7546771E-02  0.1058028E+00
         21   -1    0    0  502  501  0.00000000000E+00  0.00000000000E+00  0.44796880246E+03  0.44796880246E+03  0.00000000000E+00 0. -1.
         21   -1    0    0  501  502 -0.00000000000E+00 -0.00000000000E+00 -0.29157311979E+03  0.29157311979E+03  0.00000000000E+00 0. -1.
         25    1    1    2    0    0  0.13977189636E+02 -0.26242203975E+03  0.29746988692E+03  0.41614182967E+03  0.12500000000E+03 0.  0.
         25    1    1    2    0    0 -0.13977189636E+02  0.26242203975E+03 -0.14107420425E+03  0.32340009258E+03  0.12500000000E+03 0.  0.
</event>
<event>
 4    0  0.2182372E-002  0.1845020E+03  0.7546771E-02  0.1163516E+00
         21   -1    0    0  502  501  0.00000000000E+00  0.00000000000E+00  0.48339329802E+02  0.48339329802E+02  0.00000000000E+00 0.  1.
         21   -1    0    0  501  502 -0.00000000000E+00 -0.00000000000E+00 -0.70420920261E+03  0.70420920261E+03  0.00000000000E+00 0.  1.
         25    1    1    2    0    0 -0.10275146070E+03  0.74583911233E+02 -0.42564302163E+03  0.46142995606E+03  0.12500000000E+03 0.  0.
         25    1    1    2    0    0  0.10275146070E+03 -0.74583911233E+02 -0.23022685118E+03  0.29111857635E+03  0.12500000000E+03 0.  0.
</event>
<event>
 4    0  0.2182372E-002  0.2638771E+03  0.7546771E-02  0.1104836E+00
         21   -1    0    0  502  501  0.00000000000E+00  0.00000000000E+00  0.17833786001E+03  0.17833786001E+03  0.00000000000E+00 0.  1.
         21   -1    0    0  501  502 -0.00000000000E+00 -0.00000000000E+00 -0.39044498391E+03  0.39044498391E+03  0.00000000000E+00 0.  1.
         25    1    1    2    0    0 -0.46681929445E+02 -0.12754382902E+03  0.97178661013E+02  0.20860326703E+03  0.12500000000E+03 0.  0.
         25    1    1    2    0    0  0.46681929445E+02  0.12754382902E+03 -0.30928578491E+03  0.36017957689E+03  0.12500000000E+03 0.  0.
</event>
<event>
 4    0  0.2182372E-002  0.2254060E+03  0.7546771E-02  0.1129916E+00
         21   -1    0    0  502  501  0.00000000000E+00  0.00000000000E+00  0.31574562985E+02  0.31574562985E+02  0.00000000000E+00 0. -1.
         21   -1    0    0  501  502 -0.00000000000E+00 -0.00000000000E+00 -0.16091389226E+04  0.16091389226E+04  0.00000000000E+00 0. -1.
         25    1    1    2    0    0  0.15267537669E+03  0.59015639948E+02 -0.45541368975E+03  0.49981921253E+03  0.12500000000E+03 0.  0.
         25    1    1    2    0    0 -0.15267537669E+03 -0.59015639948E+02 -0.11221506698E+04  0.11408942730E+04  0.12500000000E+03 0.  0.
</event>
<event>
 4    0  0.2182372E-002  0.2908953E+03  0.7546771E-02  0.1089883E+00
         21   -1    0    0  502  501  0.00000000000E+00  0.00000000000E+00  0.81352214365E+03  0.81352214365E+03  0.00000000000E+00 0. -1.
         21   -1    0    0  501  502 -0.00000000000E+00 -0.00000000000E+00 -0.10401690496E+03  0.10401690496E+03  0.00000000000E+00 0. -1.
         25    1    1    2    0    0  0.16592492712E+03  0.97405067580E+02  0.72738069201E+02  0.24069618888E+03  0.12500000000E+03 0.  0.
         25    1    1    2    0    0 -0.16592492712E+03 -0.97405067580E+02  0.63676716949E+03  0.67684285973E+03  0.12500000000E+03 0.  0.
</event>
<event>
 4    0  0.2182372E-002  0.1289437E+03  0.7546771E-02  0.1229032E+00
         21   -1    0    0  502  501  0.00000000000E+00  0.00000000000E+00  0.33651564598E+02  0.33651564598E+02  0.00000000000E+00 0. -1.
         21   -1    0    0  501  502 -0.00000000000E+00 -0.00000000000E+00 -0.49407712481E+03  0.49407712481E+03  0.00000000000E+00 0. -1.
         25    1    1    2    0    0 -0.26190009917E+02  0.44116094060E+01 -0.19500066531E+03  0.23314295698E+03  0.12500000000E+03 0.  0.
         25    1    1    2    0    0  0.26190009917E+02 -0.44116094060E+01 -0.26542489490E+03  0.29458573243E+03  0.12500000000E+03 0.  0.
</event>
<event>
 4    0  0.2182372E-002  0.2075550E+03  0.7546771E-02  0.1143517E+00
         21   -1    0    0  502  501  0.00000000000E+00  0.00000000000E+00  0.58965536400E+03  0.58965536400E+03  0.00000000000E+00 0. -1.
         21   -1    0    0  501  502 -0.00000000000E+00 -0.00000000000E+00 -0.73058046140E+02  0.73058046140E+02  0.00000000000E+00 0. -1.
         25    1    1    2    0    0 -0.13254775223E+03 -0.88787828902E+02  0.18686843340E+03  0.27567552772E+03  0.12500000000E+03 0.  0.
         25    1    1    2    0    0  0.13254775223E+03  0.88787828902E+02  0.32972888446E+03  0.38703788242E+03  0.12500000000E+03 0.  0.
</event>
<event>
 4    0  0.2182372E-002  0.3095514E+03  0.7546771E-02  0.1080561E+00
         21   -1    0    0  502  501  0.00000000000E+00  0.00000000000E+00  0.20874570738E+03  0.20874570738E+03  0.00000000000E+00 0.  1.
         21   -1    0    0  501  502 -0.00000000000E+00 -0.00000000000E+00 -0.45903727105E+03  0.45903727105E+03  0.00000000000E+00 0. -1.
         25    1    1    2    0    0 -0.57657495599E+02 -0.25442943600E+03 -0.63086503129E+01  0.28935017500E+03  0.12500000000E+03 0.  0.
         25    1    1    2    0    0  0.57657495599E+02  0.25442943600E+03 -0.24398291336E+03  0.37843280343E+03  0.12500000000E+03 0.  0.
</event>
<event>
 4    0  0.2182372E-002  0.2326689E+03  0.7546771E-02  0.1124775E+00
         21   -1    0    0  502  501  0.00000000000E+00  0.00000000000E+00  0.10744612683E+04  0.10744612683E+04  0.00000000000E+00 0.  1.
         21   -1    0    0  501  502 -0.00000000000E+00 -0.00000000000E+00 -0.50383208807E+02  0.50383208807E+02  0.00000000000E+00 0.  1.
         25    1    1    2    0    0  0.93393341848E+01  0.17905582015E+02  0.98388247394E+03  0.99199675179E+03  0.12500000000E+03 0.  0.
         25    1    1    2    0    0 -0.93393341848E+01 -0.17905582015E+02  0.40195585584E+02  0.13284772535E+03  0.12500000000E+03 0.  0.
</event>
<event>
 4    0  0.2182372E-002  0.2939036E+03  0.7546771E-02  0.1088328E+00
         21   -1    0    0  502  501  0.00000000000E+00  0.00000000000E+00  0.13954129160E+03  0.13954129160E+03  0.00000000000E+00 0.  1.
         21   -1    0    0  501  502 -0.00000000000E+00 -0.00000000000E+00 -0.61902328188E+03  0.61902328188E+03  0.00000000000E+00 0.  1.
         25    1    1    2    0    0  0.24510847888E+03 -0.16923737447E+02 -0.37128159230E+03  0.46242794043E+03  0.12500000000E+03 0.  0.
         25    1    1    2    0    0 -0.24510847888E+03  0.16923737447E+02 -0.10820039799E+03  0.29613663305E+03  0.12500000000E+03 0.  0.
</event>
<event>
 4    0  0.2182372E-002  0.2067527E+03  0.7546771E-02  0.1144164E+00
         21   -1    0    0  502  501  0.00000000000E+00  0.00000000000E+00  0.63895699538E+03  0.63895699538E+03  0.00000000000E+00 0. -1.
         21   -1    0    0  501  502 -0.00000000000E+00 -0.00000000000E+00 -0.66900739340E+02  0.66900739340E+02  0.00000000000E+00 0. -1.
         25    1    1    2    0    0 -0.61630461678E+02 -0.12242411261E+03  0.44187834897E+03  0.47923632213E+03  0.12500000000E+03 0.  0.
         25    1    1    2    0    0  0.61630461678E+02  0.12242411261E+03  0.13017790707E+03  0.22662141259E+03  0.12500000000E+03 0.  0.
</event>
<event>
 4    0  0.2182372E-002  0.2752458E+03  0.7546771E-02  0.1098314E+00
         21   -1    0    0  502  501  0.00000000000E+00  0.00000000000E+00  0.44290554011E+03  0.44290554011E+03  0.00000000000E+00 0. -1.
         21   -1    0    0  501  502 -0.00000000000E+00 -0.00000000000E+00 -0.17105284286E+03  0.17105284286E+03  0.00000000000E+00 0. -1.
         25    1    1    2    0    0 -0.13597883061E+03 -0.18909662375E+03  0.22150251321E+03  0.34487119167E+03  0.12500000000E+03 0.  0.
         25    1    1    2    0    0  0.13597883061E+03  0.18909662375E+03  0.50350184032E+02  0.26908719130E+03  0.12500000000E+03 0.  0.
</event>
<event>
 4    0  0.2182372E-002  0.2467054E+03  0.7546771E-02  0.1115405E+00
         21   -1    0    0  502  501  0.00000000000E+00  0.00000000000E+00  0.14282508741E+03  0.14282508741E+03  0.00000000000E+00 0.  1.
         21   -1    0    0  501  502 -0.00000000000E+00 -0.00000000000E+00 -0.42614067173E+03  0.42614067173E+03  0.00000000000E+00 0. -1.
         25    1    1    2    0    0  0.19029247559E+03  0.35470148163E+02 -0.24329813727E+03  0.33509452589E+03  0.12500000000E+03 0.  0.
         25    1    1    2    0    0 -0.19029247559E+03 -0.35470148163E+02 -0.40017447042E+02  0.23387123326E+03  0.12500000000E+03 0.  0.
</event>
<event>
 4    0  0.2182372E-002  0.2707751E+03  0.7546771E-02  0.1100837E+00
         21   -1    0    0  502  501  0.00000000000E+00  0.00000000000E+00  0.67919483143E+03  0.67919483143E+03  0.00000000000E+00 0.  1.
         21   -1    0    0  501  502 -0.00000000000E+00 -0.00000000000E+00 -0.10795013022E+03  0.10795013022E+03  0.00000000000E+00 0.  1.
         25    1    1    2    0    0  0.50749658366E+02 -0.20072443920E+03  0.46261786188E+03  0.52202118199E+03  0.12500000000E+03 0.  0.
         25    1    1    2    0    0 -0.50749658366E+02  0.20072443920E+03  0.10862683933E+03  0.26512377965E+03  0.12500000000E+03 0.  0.
</event>
<event>
 4    0  0.2182372E-002  0.2579762E+03  0.7546771E-02  0.1108365E+00
         21   -1    0    0  502  501  0.00000000000E+00  0.00000000000E+00  0.16525757970E+03  0.16525757970E+03  0.00000000000E+00 0.  1.
         21   -1    0    0  501  502 -0.00000000000E+00 -0.00000000000E+00 -0.40271495086E+03  0.40271495086E+03  0.00000000000E+00 0.  1.
         25    1    1    2    0    0  0.15347559253E+03  0.10849646190E+03 -0.25622353978E+03  0.34146997245E+03  0.12500000000E+03 0.  0.
         25    1    1    2    0    0 -0.15347559253E+03 -0.10849646190E+03  0.18766168620E+02  0.22650255811E+03  0.12500000000E+03 0.  0.
</event>
<event>
 4    0  0.2182372E-002  0.3720008E+03  0.7546771E-02  0.1053931E+00
         21   -1    0    0  502  501  0.00000000000E+00  0.00000000000E+00  0.36793269832E+03  0.36793269832E+03  0.00000000000E+00 0. -1.
         21   -1    0    0  501  502 -0.00000000000E+00 -0.00000000000E+00 -0.37611382793E+03  0.37611382793E+03  0.00000000000E+00 0. -1.
         25    1    1    2    0    0  0.11560173701E+03 -0.31879875610E+03 -0.92204728117E+02  0.37299211838E+03  0.12500000000E+03 0.  0.
         25    1    1    2    0    0 -0.11560173701E+03  0.31879875610E+03  0.84023598514E+02  0.37105440787E+03  0.12500000000E+03 0.  0.
</event>
<event>
 4    0  0.2182372E-002  0.1982323E+03  0.7546771E-02  0.1151239E+00
         21   -1    0    0  502  501  0.00000000000E+00  0.00000000000E+00  0.13218163264E+04  0.13218163264E+04  0.00000000000E+00 0.  1.
         21   -1    0    0  501  502 -0.00000000000E+00 -0.00000000000E+00 -0.29728829678E+02  0.29728829678E+02  0.00000000000E+00 0.  1.
         25    1    1    2    0    0  0.29848304526E+02  0.77405052126E+02  0.10877496499E+04  0.10980467951E+04  0.12500000000E+03 0.  0.
         25    1    1    2    0    0 -0.29848304526E+02 -0.77405052126E+02  0.20433784687E+03  0.25349836102E+03  0.12500000000E+03 0.  0.
</event>
<event>
 4    0  0.2182372E-002  0.2363112E+03  0.7546771E-02  0.1122275E+00
         21   -1    0    0  502  501  0.00000000000E+00  0.00000000000E+00  0.36048939251E+03  0.36048939251E+03  0.00000000000E+00 0.  1.
         21   -1    0    0  501  502 -0.00000000000E+00 -0.00000000000E+00 -0.15490886121E+03  0.15490886121E+03  0.00000000000E+00 0.  1.
         25    1    1    2    0    0 -0.31574718154E+02  0.18986279800E+03  0.41361143508E+02  0.23319646028E+03  0.12500000000E+03 0.  0.
         25    1    1    2    0    0  0.31574718154E+02 -0.18986279800E+03  0.16421938780E+03  0.28220179344E+03  0.12500000000E+03 0.  0.
</event>
<event>
 4    0  0.2182372E-002  0.1933417E+03  0.7546771E-02  0.1155481E+00
         21   -1    0    0  502  501  0.00000000000E+00  0.00000000000E+00  0.14034681723E+03  0.14034681723E+03  0.00000000000E+00 0.  1.
         21   -1    0    0  501  502 -0.00000000000E+00 -0.00000000000E+00 -0.26634738506E+03  0.26634738506E+03  0.00000000000E+00 0.  1.
         25    1    1    2    0    0  0.11474037260E+03  0.91576711929E+02 -0.47965023372E+02  0.19868892959E+03  0.12500000000E+03 0.  0.
         25    1    1    2    0    0 -0.11474037260E+03 -0.91576711929E+02 -0.78035544461E+02  0.20800527270E+03  0.12500000000E+03 0.  0.
</event>
<event>
 4    0  0.2182372E-002  0.6051257E+03  0.7546771E-02  0.9894828E-01
         21   -1    0    0  502  501  0.00000000000E+00  0.00000000000E+00  0.52141768857E+03  0.52141768857E+03  0.00000000000E+00 0.  1.
         21   -1    0    0  501  502 -0.00000000000E+00 -0.00000000000E+00 -0.70227224473E+03  0.70227224473E+03  0.00000000000E+00 0.  1.
         25    1    1    2    0    0 -0.18957863870E+03 -0.47868959465E+03 -0.38602324301E+03  0.65553240379E+03  0.12500000000E+03 0.  0.
         25    1    1    2    0    0  0.18957863870E+03  0.47868959465E+03  0.20516868685E+03  0.56815752951E+03  0.12500000000E+03 0.  0.
</event>
<event>
 4    0  0.2182372E-002  0.1863737E+03  0.7546771E-02  0.1161773E+00
         21   -1    0    0  502  501  0.00000000000E+00  0.00000000000E+00  0.78099072540E+03  0.78099072540E+03  0.00000000000E+00 0.  1.
         21   -1    0    0  501  502 -0.00000000000E+00 -0.00000000000E+00 -0.44475778469E+02  0.44475778469E+02  0.00000000000E+00 0.  1.
         25    1    1    2    0    0 -0.12153530765E+03 -0.42854123715E+02  0.47904817947E+03  0.51158524722E+03  0.12500000000E+03 0.  0.
         25    1    1    2    0    0  0.12153530765E+03  0.42854123715E+02  0.25746676746E+03  0.31388125664E+03  0.12500000000E+03 0.  0.
</event>
<event>
 4    0  0.2182372E-002  0.1494876E+03  0.7546771E-02  0.1201104E+00
         21   -1    0    0  502  501  0.00000000000E+00  0.00000000000E+00  0.59240670284E+03  0.59240670284E+03  0.00000000000E+00 0. -1.
         21   -1    0    0  501  502 -0.00000000000E+00 -0.00000000000E+00 -0.37721630237E+02  0.37721630237E+02  0.00000000000E+00 0. -1.
         25    1    1    2    0    0  0.36701262567E+02 -0.40227267931E+02  0.14816835402E+03  0.20135559812E+03  0.12500000000E+03 0.  0.
         25    1    1    2    0    0 -0.36701262567E+02  0.40227267931E+02  0.40651671858E+03  0.42877273496E+03  0.12500000000E+03 0.  0.
</event>
<event>
 4    0  0.2182372E-002  0.3858464E+03  0.7546771E-02  0.1048794E+00
         21   -1    0    0  502  501  0.00000000000E+00  0.00000000000E+00  0.44731355326E+03  0.44731355326E+03  0.00000000000E+00 0. -1.
         21   -1    0    0  501  502 -0.00000000000E+00 -0.00000000000E+00 -0.33282575888E+03  0.33282575888E+03  0.00000000000E+00 0. -1.
         25    1    1    2    0    0 -0.17807275011E+03  0.31406543152E+03  0.11173631920E+03  0.39806658317E+03  0.12500000000E+03 0.  0.
         25    1    1    2    0    0  0.17807275011E+03 -0.31406543152E+03  0.27514751824E+01  0.38207272897E+03  0.12500000000E+03 0.  0.
</event>
<event>
 4    0  0.2182372E-002  0.2272922E+03  0.7546771E-02  0.1128560E+00
         21   -1    0    0  502  501  0.00000000000E+00  0.00000000000E+00  0.24494899977E+04  0.24494899977E+04  0.00000000000E+00 0.  1.
         21   -1    0    0  501  502 -0.00000000000E+00 -0.00000000000E+00 -0.21090823944E+02  0.21090823944E+02  0.00000000000E+00 0.  1.
         25    1    1    2    0    0 -0.10888209038E+03 -0.14393925089E+02  0.37269374337E+03  0.40815208076E+03  0.12500000000E+03 0.  0.
         25    1    1    2    0    0  0.10888209038E+03  0.14393925089E+02  0.20557054304E+04  0.20624287409E+04  0.12500000000E+03 0.  0.
</event>
<event>
 4    0  0.2182372E-002  0.2475521E+03  0.7546771E-02  0.1114862E+00
         21   -1    0    0  502  501  0.00000000000E+00  0.00000000000E+00  0.18931872056E+03  0.18931872056E+03  0.00000000000E+00 0.  1.
         21   -1    0    0  501  502 -0.00000000000E+00 -0.00000000000E+00 -0.32369764521E+03  0.32369764521E+03  0.00000000000E+00 0.  1.
         25    1    1    2    0    0  0.77141893649E+02 -0.64729236852E+02 -0.26246524995E+03  0.30765850108E+03  0.12500000000E+03 0.  0.
         25    1    1    2    0    0 -0.77141893649E+02  0.64729236852E+02  0.12808632530E+03  0.20535786468E+03  0.12500000000E+03 0.  0.
</event>
<event>
 4    0  0.2182372E-002  0.2749777E+03  0.7546771E-02  0.1098464E+00
         21   -1    0    0  502  501  0.00000000000E+00  0.00000000000E+00  0.10013389348E+04  0.10013389348E+04  0.00000000000E+00 0.  1.
         21   -1    0    0  501  502 -0.00000000000E+00 -0.00000000000E+00 -0.75511631631E+02  0.75511631631E+02  0.00000000000E+00 0.  1.
         25    1    1    2    0    0 -0.21312201509E+03 -0.55983833291E+02  0.67227648869E+03  0.71842596010E+03  0.12500000000E+03 0.  0.
         25    1    1    2    0    0  0.21312201509E+03  0.55983833291E+02  0.25355081451E+03  0.35842460636E+03  0.12500000000E+03 0.  0.
</event>
<event>
 4    0  0.2182372E-002  0.2184255E+03  0.7546771E-02  0.1135062E+00
         21   -1    0    0  502  501  0.00000000000E+00  0.00000000000E+00  0.28073650987E+03  0.28073650987E+03  0.00000000000E+00 0.  1.
         21   -1    0    0  501  502 -0.00000000000E+00 -0.00000000000E+00 -0.16994470686E+03  0.16994470686E+03  0.00000000000E+00 0.  1.
         25    1    1    2    0    0  0.16374016265E+03 -0.71765075352E+02  0.66866213780E+02  0.22816037660E+03  0.12500000000E+03 0.  0.
         25    1    1    2    0    0 -0.16374016265E+03  0.71765075352E+02  0.43925589227E+02  0.22252084013E+03  0.12500000000E+03 0.  0.
</event>
<event>
 4    0  0.2182372E-002  0.2173665E+03  0.7546771E-02  0.1135862E+00
         21   -1    0    0  502  501  0.00000000000E+00  0.00000000000E+00  0.10125619319E+03  0.10125619319E+03  0.00000000000E+00 0. -1.
         21   -1    0    0  501  502 -0.00000000000E+00 -0.00000000000E+00 -0.46662017463E+03  0.46662017463E+03  0.00000000000E+00 0. -1.
         25    1    1    2    0    0  0.15925998976E+03 -0.44069279303E+02 -0.26851201058E+03  0.33916005889E+03  0.12500000000E+03 0.  0.
         25    1    1    2    0    0 -0.15925998976E+03  0.44069279303E+02 -0.96851970855E+02  0.22871630894E+03  0.12500000000E+03 0.  0.
</event>
<event>
 4    0  0.2182372E-002  0.1944585E+03  0.7546771E-02  0.1154500E+00
         21   -1    0    0  502  501  0.00000000000E+00  0.00000000000E+00  0.12135022492E+04  0.12135022492E+04  0.00000000000E+00 0.  1.
         21   -1    0    0  501  502 -0.00000000000E+00 -0.00000000000E+00 -0.31161125348E+02  0.31161125348E+02  0.00000000000E+00 0.  1.
         25    1    1    2    0    0  0.11712909626E+03 -0.23104990268E+02  0.30607089914E+03  0.35150741253E+03  0.12500000000E+03 0.  0.
         25    1    1    2    0    0 -0.11712909626E+03  0.23104990268E+02  0.87627022472E+03  0.89315596202E+03  0.12500000000E+03 0.  0.
</event>
<event>
 4    0  0.2182372E-002  0.2917745E+03  0.7546771E-02  0.1089426E+00
         21   -1    0    0  502  501  0.00000000000E+00  0.00000000000E+00  0.67873516818E+03  0.67873516818E+03  0.00000000000E+00 0.  1.
         21   -1    0    0  501  502 -0.00000000000E+00 -0.00000000000E+00 -0.12542791365E+03  0.12542791365E+03  0.00000000000E+00 0.  1.
         25    1    1    2    0    0  0.25324813636E+03 -0.23971184626E+02  0.18119800815E+03  0.33640296435E+03  0.12500000000E+03 0.  0.
         25    1    1    2    0    0 -0.25324813636E+03  0.23971184626E+02  0.37210924638E+03  0.46776011748E+03  0.12500000000E+03 0.  0.
</event>
<event>
 4    0  0.2182372E-002  0.1567370E+03  0.7546771E-02  0.1192431E+00
         21   -1    0    0  502  501  0.00000000000E+00  0.00000000000E+00  0.25911854505E+03  0.25911854505E+03  0.00000000000E+00 0.  1.
         21   -1    0    0  501  502 -0.00000000000E+00 -0.00000000000E+00 -0.94807931087E+02  0.94807931087E+02  0.00000000000E+00 0.  1.
         25    1    1    2    0    0  0.15166583491E+02 -0.71382805588E+02  0.15004806647E+03  0.20848249912E+03  0.12500000000E+03 0.  0.
         25    1    1    2    0    0 -0.15166583491E+02  0.71382805588E+02  0.14262547489E+02  0.14544397701E+03  0.12500000000E+03 0.  0.
</event>
<event>
 4    0  0.2182372E-002  0.3138146E+03  0.7546771E-02  0.1078532E+00
         21   -1    0    0  502  501  0.00000000000E+00  0.00000000000E+00  0.30736829843E+03  0.30736829843E+03  0.00000000000E+00 0. -1.
         21   -1    0    0  501  502 -0.00000000000E+00 -0.00000000000E+00 -0.32039606129E+03  0.32039606129E+03  0.00000000000E+00 0. -1.
         25    1    1    2    0    0  0.89724538333E+01 -0.28616434625E+03 -0.36253334850E+02  0.31449935180E+03  0.12500000000E+03 0.  0.
         25    1    1    2    0    0 -0.89724538333E+01  0.28616434625E+03  0.23225571990E+02  0.31326500792E+03  0.12500000000E+03 0.  0.
</event>
<event>
 4    0  0.2182372E-002  0.1980744E+03  0.7546771E-02  0.1151374E+00
         21   -1    0    0  502  501  0.00000000000E+00  0.00000000000E+00  0.49132059125E+03  0.49132059125E+03  0.00000000000E+00 0.  1.
         21   -1    0    0  501  502 -0.00000000000E+00 -0.00000000000E+00 -0.79853068255E+02  0.79853068255E+02  0.00000000000E+00 0.  1.
         25    1    1    2    0    0 -0.80912651230E+02 -0.24949013599E+02  0.20870964887E+02  0.15241360695E+03  0.12500000000E+03 0.  0.
         25    1    1    2    0    0  0.80912651230E+02  0.24949013599E+02  0.39059655811E+03  0.41876005255E+03  0.12500000000E+03 0.  0.
</event>
<event>
 4    0  0.2182372E-002  0.1719253E+03  0.7546771E-02  0.1175855E+00
         21   -1    0    0  502  501  0.00000000000E+00  0.00000000000E+00  0.22097509739E+03  0.22097509739E+03  0.00000000000E+00 0.  1.
         21   -1    0    0  501  502 -0.00000000000E+00 -0.00000000000E+00 -0.13376308653E+03  0.13376308653E+03  0.00000000000E+00 0.  1.
         25    1    1    2    0    0  0.50514773918E+00  0.98372057828E+02 -0.23697648921E+02  0.16082255905E+03  0.12500000000E+03 0.  0.
         25    1    1    2    0    0 -0.50514773918E+00 -0.98372057828E+02  0.11090965979E+03  0.19391562487E+03  0.12500000000E+03 0.  0.
</event>
<event>
 4    0  0.2182372E-002  0.1980647E+03  0.7546771E-02  0.1151382E+00
         21   -1    0    0  502  501  0.00000000000E+00  0.00000000000E+00  0.14872307161E+03  0.14872307161E+03  0.00000000000E+00 0.  1.
         21   -1    0    0  501  502 -0.00000000000E+00 -0.00000000000E+00 -0.26377638616E+03  0.26377638616E+03  0.00000000000E+00 0.  1.
         25    1    1    2    0    0 -0.70375111289E+02 -0.11490905452E+03  0.19333330710E+02  0.18481213374E+03  0.12500000000E+03 0.  0.
         25    1    1    2    0    0  0.70375111289E+02  0.11490905452E+03 -0.13438664526E+03  0.22768732403E+03  0.12500000000E+03 0.  0.
</event>
<event>
 4    0  0.2182372E-002  0.2636114E+03  0.7546771E-02  0.1104993E+00
         21   -1    0    0  502  501  0.00000000000E+00  0.00000000000E+00  0.80193311093E+02  0.80193311093E+02  0.00000000000E+00 0. -1.
         21   -1    0    0  501  502 -0.00000000000E+00 -0.00000000000E+00 -0.86654300374E+03  0.86654300374E+03  0.00000000000E+00 0. -1.
         25    1    1    2    0    0  0.13289052325E+03 -0.17594058815E+03 -0.26305165223E+03  0.36528913681E+03  0.12500000000E+03 0.  0.
         25    1    1    2    0    0 -0.13289052325E+03  0.17594058815E+03 -0.52329804042E+03  0.58144717803E+03  0.12500000000E+03 0.  0.
</event>
<event>
 4    0  0.2182372E-002  0.2171659E+03  0.7546771E-02  0.1136014E+00
         21   -1    0    0  502  501  0.00000000000E+00  0.00000000000E+00  0.12959946536E+03  0.12959946536E+03  0.00000000000E+00 0. -1.
         21   -1    0    0  501  502 -0.00000000000E+00 -0.00000000000E+00 -0.36389819444E+03  0.36389819444E+03  0.00000000000E+00 0. -1.
         25    1    1    2    0    0 -0.46382948817E+02 -0.33293713127E+02  0.73912397412E+02  0.15603810998E+03  0.12500000000E+03 0.  0.
         25    1    1    2    0    0  0.46382948817E+02  0.33293713127E+02 -0.30821112649E+03  0.33745954982E+03  0.12500000000E+03 0.  0.
</event>
<event>
 4    0  0.2182372E-002  0.2087157E+03  0.7546771E-02  0.1142587E+00
         21   -1    0    0  502  501  0.00000000000E+00  0.00000000000E+00  0.20288672526E+04  0.20288672526E+04  0.00000000000E+00 0.  1.
         21   -1    0    0  501  502 -0.00000000000E+00 -0.00000000000E+00 -0.21471212858E+02  0.21471212858E+02  0.00000000000E+00 0.  1.
         25    1    1    2    0    0  0.51101718409E+02  0.44905410455E+02  0.25379409714E+03  0.29097134783E+03  0.12500000000E+03 0.  0.
         25    1    1    2    0    0 -0.51101718409E+02 -0.44905410455E+02  0.17536019426E+04  0.17593671176E+04  0.12500000000E+03 0.  0.
</event>
<event>
 4    0  0.2182372E-002  0.3131532E+03  0.7546771E-02  0.1078844E+00
         21   -1    0    0  502  501  0.00000000000E+00  0.00000000000E+00  0.65347731491E+03  0.65347731491E+03  0.00000000000E+00 0. -1.
         21   -1    0    0  501  502 -0.00000000000E+00 -0.00000000000E+00 -0.15006626052E+03  0.15006626052E+03  0.00000000000E+00 0. -1.
         25    1    1    2    0    0  0.26455361329E+03 -0.10983637418E+03  0.22645791143E+03  0.38595443909E+03  0.12500000000E+03 0.  0.
         25    1    1    2    0    0 -0.26455361329E+03  0.10983637418E+03  0.27695314295E+03  0.41758913634E+03  0.12500000000E+03 0.  0.
</event>
<event>
 4    0  0.2182372E-002  0.4093585E+03  0.7546771E-02  0.1040586E+00
         21   -1    0    0  502  501  0.00000000000E+00  0.00000000000E+00  0.24015024644E+03  0.24015024644E+03  0.00000000000E+00 0.  1.
         21   -1    0    0  501  502 -0.00000000000E+00 -0.00000000000E+00 -0.69778966343E+03  0.69778966343E+03  0.00000000000E+00 0.  1.
         25    1    1    2    0    0 -0.20241439174E+02  0.28597205286E+03 -0.53140186668E+03  0.61660576935E+03  0.12500000000E+03 0.  0.
         25    1    1    2    0    0  0.20241439174E+02 -0.28597205286E+03  0.73762449694E+02  0.32133414052E+03  0.12500000000E+03 0.  0.
</event>
<event>
 4    0  0.2182372E-002  0.2967548E+03  0.7546771E-02  0.1086874E+00
         21   -1    0    0  502  501  0.00000000000E+00  0.00000000000E+00  0.11503988925E+03  0.11503988925E+03  0.00000000000E+00 0. -1.
         21   -1    0    0  501  502 -0.00000000000E+00 -0.00000000000E+00 -0.76550351237E+03  0.76550351237E+03  0.00000000000E+00 0. -1.
         25    1    1    2    0    0  0.20287876298E+03  0.31558979560E+02 -0.58341031955E+03  0.63098998615E+03  0.12500000000E+03 0.  0.
         25    1    1    2    0    0 -0.20287876298E+03 -0.31558979560E+02 -0.67053303566E+02  0.24955341548E+03  0.12500000000E+03 0.  0.
</event>
<event>
 4    0  0.2182372E-002  0.2105267E+03  0.7546771E-02  0.1141150E+00
         21   -1    0    0  502  501  0.00000000000E+00  0.00000000000E+00  0.24492705025E+04  0.24492705025E+04  0.00000000000E+00 0. -1.
         21   -1    0    0  501  502 -0.00000000000E+00 -0.00000000000E+00 -0.18095792531E+02  0.18095792531E+02  0.00000000000E+00 0. -1.
         25    1    1    2    0    0  0.15870463943E+03 -0.29576707559E+02  0.91480704735E+03  0.93731471667E+03  0.12500000000E+03 0.  0.
         25    1    1    2    0    0 -0.15870463943E+03  0.29576707559E+02  0.15163676626E+04  0.15300515784E+04  0.12500000000E+03 0.  0.
</event>
<event>
 4    0  0.2182372E-002  0.2008528E+03  0.7546771E-02  0.1149021E+00
         21   -1    0    0  502  501  0.00000000000E+00  0.00000000000E+00  0.32156757815E+02  0.32156757815E+02  0.00000000000E+00 0. -1.
         21   -1    0    0  501  502 -0.00000000000E+00 -0.00000000000E+00 -0.12545374302E+04  0.12545374302E+04  0.00000000000E+00 0. -1.
         25    1    1    2    0    0  0.79366599452E+02 -0.13105949067E+03 -0.72403730083E+03  0.75055356917E+03  0.12500000000E+03 0.  0.
         25    1    1    2    0    0 -0.79366599452E+02  0.13105949067E+03 -0.49834337158E+03  0.53614061887E+03  0.12500000000E+03 0.  0.
</event>
<event>
 4    0  0.2182372E-002  0.2716168E+03  0.7546771E-02  0.1100358E+00
         21   -1    0    0  502  501  0.00000000000E+00  0.00000000000E+00  0.87068343584E+02  0.87068343584E+02  0.00000000000E+00 0. -1.
         21   -1    0    0  501  502 -0.00000000000E+00 -0.00000000000E+00 -0.84733105850E+03  0.84733105850E+03  0.00000000000E+00 0. -1.
         25    1    1    2    0    0  0.14895718469E+03  0.13986042344E+03 -0.15984477548E+03  0.28796620142E+03  0.12500000000E+03 0.  0.
         25    1    1    2    0    0 -0.14895718469E+03 -0.13986042344E+03 -0.60041793943E+03  0.64643320066E+03  0.12500000000E+03 0.  0.
</event>
<event>
 4    0  0.2182372E-002  0.1724205E+03  0.7546771E-02  0.1175347E+00
         21   -1    0    0  502  501  0.00000000000E+00  0.00000000000E+00  0.37660492311E+03  0.37660492311E+03  0.00000000000E+00 0. -1.
         21   -1    0    0  501  502 -0.00000000000E+00 -0.00000000000E+00 -0.78938991657E+02  0.78938991657E+02  0.00000000000E+00 0.  1.
         25    1    1    2    0    0 -0.51403841935E+02 -0.10701589227E+03  0.15280851321E+03  0.23036969826E+03  0.12500000000E+03 0.  0.
         25    1    1    2    0    0  0.51403841935E+02  0.10701589227E+03  0.14485741824E+03  0.22517421651E+03  0.12500000000E+03 0.  0.
</event>
<event>
 4    0  0.2182372E-002  0.2878695E+03  0.7546771E-02  0.1091467E+00
         21   -1    0    0  502  501  0.00000000000E+00  0.00000000000E+00  0.39202662341E+02  0.39202662341E+02  0.00000000000E+00 0.  1.
         21   -1    0    0  501  502 -0.00000000000E+00 -0.00000000000E+00 -0.21138583793E+04  0.21138583793E+04  0.00000000000E+00 0.  1.
         25    1    1    2    0    0 -0.19948017163E+03 -0.15806500347E+03 -0.12230717329E+04  0.12555103934E+04  0.12500000000E+03 0.  0.
         25    1    1    2    0    0  0.19948017163E+03  0.15806500347E+03 -0.85158398407E+03  0.89755064822E+03  0.12500000000E+03 0.  0.
</event>
<event>
 4    0  0.2182372E-002  0.1576361E+03  0.7546771E-02  0.1191392E+00
         21   -1    0    0  502  501  0.00000000000E+00  0.00000000000E+00  0.20047264905E+02  0.20047264905E+02  0.00000000000E+00 0. -1.
         21   -1    0    0  501  502 -0.00000000000E+00 -0.00000000000E+00 -0.12395275973E+04  0.12395275973E+04  0.00000000000E+00 0. -1.
         25    1    1    2    0    0 -0.80877211967E+02 -0.73318123000E+01 -0.81459915583E+03  0.82812539121E+03  0.12500000000E+03 0.  0.
         25    1    1    2    0    0  0.80877211967E+02  0.73318123000E+01 -0.40488117659E+03  0.43144947103E+03  0.12500000000E+03 0.  0.
</event>
<event>
 4    0  0.2182372E-002  0.1572482E+03  0.7546771E-02  0.1191839E+00
         21   -1    0    0  502  501  0.00000000000E+00  0.00000000000E+00  0.10360216102E+04  0.10360216102E+04  0.00000000000E+00 0.  1.
         21   -1    0    0  501  502 -0.00000000000E+00 -0.00000000000E+00 -0.23867256570E+02  0.23867256570E+02  0.00000000000E+00 0.  1.
         25    1    1    2    0    0  0.41130304319E+02 -0.82680263310E+02  0.58683807084E+03  0.60706807630E+03  0.12500000000E+03 0.  0.
         25    1    1    2    0    0 -0.41130304319E+02  0.82680263310E+02  0.42531628277E+03  0.45282079045E+03  0.12500000000E+03 0.  0.
</event>
<event>
 4    0  0.2182372E-002  0.2523827E+03  0.7546771E-02  0.1111808E+00
         21   -1    0    0  502  501  0.00000000000E+00  0.00000000000E+00  0.23277378691E+03  0.23277378691E+03  0.00000000000E+00 0.  1.
         21   -1    0    0  501  502 -0.00000000000E+00 -0.00000000000E+00 -0.27364348403E+03  0.27364348403E+03  0.00000000000E+00 0.  1.
         25    1    1    2    0    0 -0.16945196826E+03 -0.11185511091E+03  0.62579479687E+02  0.24650908028E+03  0.12500000000E+03 0.  0.
         25    1    1    2    0    0  0.16945196826E+03  0.11185511091E+03 -0.10344917681E+03  0.25990819065E+03  0.12500000000E+03 0.  0.
</event>
<event>
 4    0  0.2182372E-002  0.1951873E+03  0.7546771E-02  0.1153864E+00
         21   -1    0    0  502  501  0.00000000000E+00  0.00000000000E+00  0.24974866430E+02  0.24974866430E+02  0.00000000000E+00 0.  1.
         21   -1    0    0  501  502 -0.00000000000E+00 -0.00000000000E+00 -0.15254574780E+04  0.15254574780E+04  0.00000000000E+00 0.  1.
         25    1    1    2    0    0  0.99874874626E+02  0.80381287263E+02 -0.10588300970E+04  0.10738632670E+04  0.12500000000E+03 0.  0.
         25    1    1    2    0    0 -0.99874874626E+02 -0.80381287263E+02 -0.44165251454E+03  0.47656907739E+03  0.12500000000E+03 0.  0.
</event>
<event>
 4    0  0.2182372E-002  0.2463960E+03  0.7546771E-02  0.1115604E+00
         21   -1    0    0  502  501  0.00000000000E+00  0.00000000000E+00  0.62890413506E+03  0.62890413506E+03  0.00000000000E+00 0.  1.
         21   -1    0    0  501  502 -0.00000000000E+00 -0.00000000000E+00 -0.96534549255E+02  0.96534549255E+02  0.00000000000E+00 0.  1.
         25    1    1    2    0    0  0.20122367651E+03 -0.67632981802E+02  0.25947276486E+03  0.35779366109E+03  0.12500000000E+03 0.  0.
         25    1    1    2    0    0 -0.20122367651E+03  0.67632981802E+02  0.27289682095E+03  0.36764502322E+03  0.12500000000E+03 0.  0.
</event>
<event>
 4    0  0.2182372E-002  0.2140445E+03  0.7546771E-02  0.1138403E+00
         21   -1    0    0  502  501  0.00000000000E+00  0.00000000000E+00  0.85385508836E+03  0.85385508836E+03  0.00000000000E+00 0.  1.
         21   -1    0    0  501  502 -0.00000000000E+00 -0.00000000000E+00 -0.53656680912E+02  0.53656680912E+02  0.00000000000E+00 0.  1.
         25    1    1    2    0    0 -0.44868100291E+02  0.11897577528E+01  0.44259951925E+02  0.13999466165E+03  0.12500000000E+03 0.  0.
         25    1    1    2    0    0  0.44868100291E+02 -0.11897577528E+01  0.75593845552E+03  0.76751710762E+03  0.12500000000E+03 0.  0.
</event>
<event>
 4    0  0.2182372E-002  0.1916993E+03  0.7546771E-02  0.1156938E+00
         21   -1    0    0  502  501  0.00000000000E+00  0.00000000000E+00  0.33560150072E+03  0.33560150072E+03  0.00000000000E+00 0.  1.
         21   -1    0    0  501  502 -0.00000000000E+00 -0.00000000000E+00 -0.10950076980E+03  0.10950076980E+03  0.00000000000E+00 0.  1.
         25    1    1    2    0    0 -0.82034772920E+02 -0.90289992729E+02  0.21331537406E+02  0.17596028314E+03  0.12500000000E+03 0.  0.
         25    1    1    2    0    0  0.82034772920E+02  0.90289992729E+02  0.20476919352E+03  0.26914198737E+03  0.12500000000E+03 0.  0.
</event>
<event>
 4    0  0.2182372E-002  0.2774838E+03  0.7546771E-02  0.1097071E+00
         21   -1    0    0  502  501  0.00000000000E+00  0.00000000000E+00  0.44620823996E+03  0.44620823996E+03  0.00000000000E+00 0.  1.
         21   -1    0    0  501  502 -0.00000000000E+00 -0.00000000000E+00 -0.17255905363E+03  0.17255905363E+03  0.00000000000E+00 0.  1.
         25    1    1    2    0    0  0.73686534118E+02  0.17409568314E+03 -0.41685017380E+02  0.23043795883E+03  0.12500000000E+03 0.  0.
         25    1    1    2    0    0 -0.73686534118E+02 -0.17409568314E+03  0.31533420371E+03  0.38832933475E+03  0.12500000000E+03 0.  0.
</event>
<event>
 4    0  0.2182372E-002  0.1594978E+03  0.7546771E-02  0.1189265E+00
         21   -1    0    0  502  501  0.00000000000E+00  0.00000000000E+00  0.84245137312E+02  0.84245137312E+02  0.00000000000E+00 0. -1.
         21   -1    0    0  501  502 -0.00000000000E+00 -0.00000000000E+00 -0.30197038874E+03  0.30197038874E+03  0.00000000000E+00 0. -1.
         25    1    1    2    0    0 -0.50068698672E+02  0.84873969546E+02 -0.96511367923E+02  0.18614486142E+03  0.12500000000E+03 0.  0.
         25    1    1    2    0    0  0.50068698672E+02 -0.84873969546E+02 -0.12121388350E+03  0.20007066463E+03  0.12500000000E+03 0.  0.
</event>
<event>
 4    0  0.2182372E-002  0.4043210E+03  0.7546771E-02  0.1042294E+00
         21   -1    0    0  502  501  0.00000000000E+00  0.00000000000E+00  0.28818627619E+03  0.28818627619E+03  0.00000000000E+00 0. -1.
         21   -1    0    0  501  502 -0.00000000000E+00 -0.00000000000E+00 -0.56725629962E+03  0.56725629962E+03  0.00000000000E+00 0. -1.
         25    1    1    2    0    0  0.37722763054E+03  0.85377911310E+01 -0.21782424144E+03  0.45326149106E+03  0.12500000000E+03 0.  0.
         25    1    1    2    0    0 -0.37722763054E+03 -0.85377911310E+01 -0.61245781993E+02  0.40218108475E+03  0.12500000000E+03 0.  0.
</event>
<event>
 4    0  0.2182372E-002  0.3235673E+03  0.7546771E-02  0.1074019E+00
         21   -1    0    0  502  501  0.00000000000E+00  0.00000000000E+00  0.50373734526E+03  0.50373734526E+03  0.00000000000E+00 0.  1.
         21   -1    0    0  501  502 -0.00000000000E+00 -0.00000000000E+00 -0.20783813251E+03  0.20783813251E+03  0.00000000000E+00 0.  1.
         25    1    1    2    0    0  0.11560163513E+03  0.14233290431E+02  0.45009273233E+03  0.48142994537E+03  0.12500000000E+03 0.  0.
         25    1    1    2    0    0 -0.11560163513E+03 -0.14233290431E+02 -0.15419351958E+03  0.23014553240E+03  0.12500000000E+03 0.  0.
</event>
<event>
 4    0  0.2182372E-002  0.1941836E+03  0.7546771E-02  0.1154741E+00
         21   -1    0    0  502  501  0.00000000000E+00  0.00000000000E+00  0.22996053628E+04  0.22996053628E+04  0.00000000000E+00 0.  1.
         21   -1    0    0  501  502 -0.00000000000E+00 -0.00000000000E+00 -0.16397281954E+02  0.16397281954E+02  0.00000000000E+00 0.  1.
         25    1    1    2    0    0  0.30658350100E+02 -0.14486507856E+03  0.12161951666E+04  0.12315362393E+04  0.12500000000E+03 0.  0.
         25    1    1    2    0    0 -0.30658350100E+02  0.14486507856E+03  0.10670129142E+04  0.10844664054E+04  0.12500000000E+03 0.  0.
</event>
<event>
 4    0  0.2182372E-002  0.3217782E+03  0.7546771E-02  0.1074834E+00
         21   -1    0    0  502  501  0.00000000000E+00  0.00000000000E+00  0.25596617218E+03  0.25596617218E+03  0.00000000000E+00 0.  1.
         21   -1    0    0  501  502 -0.00000000000E+00 -0.00000000000E+00 -0.40451134739E+03  0.40451134739E+03  0.00000000000E+00 0.  1.
         25    1    1    2    0    0  0.25730029244E+03 -0.14436382688E+03 -0.10457633395E+03  0.33705424582E+03  0.12500000000E+03 0.  0.
         25    1    1    2    0    0 -0.25730029244E+03  0.14436382688E+03 -0.43968841255E+02  0.32342327375E+03  0.12500000000E+03 0.  0.
</event>
<event>
 4    0  0.2182372E-002  0.1841480E+03  0.7546771E-02  0.1163848E+00
         21   -1    0    0  502  501  0.00000000000E+00  0.00000000000E+00  0.86705998877E+02  0.86705998877E+02  0.00000000000E+00 0. -1.
         21   -1    0    0  501  502 -0.00000000000E+00 -0.00000000000E+00 -0.39109755222E+03  0.39109755222E+03  0.00000000000E+00 0. -1.
         25    1    1    2    0    0 -0.81707589698E+02 -0.10684520897E+03 -0.13415045128E+03  0.22740574415E+03  0.12500000000E+03 0.  0.
         25    1    1    2    0    0  0.81707589698E+02  0.10684520897E+03 -0.17024110206E+03  0.25039780695E+03  0.12500000000E+03 0.  0.
</event>
<event>
 4    0  0.2182372E-002  0.2268786E+03  0.7546771E-02  0.1128856E+00
         21   -1    0    0  502  501  0.00000000000E+00  0.00000000000E+00  0.24448869768E+03  0.24448869768E+03  0.00000000000E+00 0.  1.
         21   -1    0    0  501  502 -0.00000000000E+00 -0.00000000000E+00 -0.21053695032E+03  0.21053695032E+03  0.00000000000E+00 0.  1.
         25    1    1    2    0    0 -0.69107182613E+02  0.17619167670E+03  0.22431225240E+02  0.22791987516E+03  0.12500000000E+03 0.  0.
         25    1    1    2    0    0  0.69107182613E+02 -0.17619167670E+03  0.11520522118E+02  0.22710577284E+03  0.12500000000E+03 0.  0.
</event>
<event>
 4    0  0.2182372E-002  0.1677960E+03  0.7546771E-02  0.1180166E+00
         21   -1    0    0  502  501  0.00000000000E+00  0.00000000000E+00  0.50132980428E+02  0.50132980428E+02  0.00000000000E+00 0. -1.
         21   -1    0    0  501  502 -0.00000000000E+00 -0.00000000000E+00 -0.56161602462E+03  0.56161602462E+03  0.00000000000E+00 0. -1.
         25    1    1    2    0    0  0.26433055038E+02 -0.10312114828E+03 -0.31883076144E+03  0.35862338471E+03  0.12500000000E+03 0.  0.
         25    1    1    2    0    0 -0.26433055038E+02  0.10312114828E+03 -0.19265228275E+03  0.25312562033E+03  0.12500000000E+03 0.  0.
</event>
<event>
 4    0  0.2182372E-002  0.2403111E+03  0.7546771E-02  0.1119586E+00
         21   -1    0    0  502  501  0.00000000000E+00  0.00000000000E+00  0.79213734206E+02  0.79213734206E+02  0.00000000000E+00 0.  1.
         21   -1    0    0  501  502 -0.00000000000E+00 -0.00000000000E+00 -0.72903279588E+03  0.72903279588E+03  0.00000000000E+00 0.  1.
         25    1    1    2    0    0 -0.12195348468E+03  0.70929121479E+02 -0.57558976539E+03  0.60566671588E+03  0.12500000000E+03 0.  0.
         25    1    1    2    0    0  0.12195348468E+03 -0.70929121479E+02 -0.74229296286E+02  0.20257981421E+03  0.12500000000E+03 0.  0.
</event>
<event>
 4    0  0.2182372E-002  0.1976055E+03  0.7546771E-02  0.1151775E+00
         21   -1    0    0  502  501  0.00000000000E+00  0.00000000000E+00  0.26226439858E+03  0.26226439858E+03  0.00000000000E+00 0. -1.
         21   -1    0    0  501  502 -0.00000000000E+00 -0.00000000000E+00 -0.14888768551E+03  0.14888768551E+03  0.00000000000E+00 0. -1.
         25    1    1    2    0    0  0.62183026981E+01 -0.15290603857E+03  0.54603689823E+02  0.20500118746E+03  0.12500000000E+03 0.  0.
         25    1    1    2    0    0 -0.62183026981E+01  0.15290603857E+03  0.58773023242E+02  0.20615089663E+03  0.12500000000E+03 0.  0.
</event>
<event>
 4    0  0.2182372E-002  0.1836803E+03  0.7546771E-02  0.1164288E+00
         21   -1    0    0  502  501  0.00000000000E+00  0.00000000000E+00  0.94432711759E+02  0.94432711759E+02  0.00000000000E+00 0. -1.
         21   -1    0    0  501  502 -0.00000000000E+00 -0.00000000000E+00 -0.35727517298E+03  0.35727517298E+03  0.00000000000E+00 0. -1.
         25    1    1    2    0    0 -0.13276207939E+03 -0.20624543301E+02 -0.12171422154E+03  0.22020557040E+03  0.12500000000E+03 0.  0.
         25    1    1    2    0    0  0.13276207939E+03  0.20624543301E+02 -0.14112823968E+03  0.23150231434E+03  0.12500000000E+03 0.  0.
</event>
<event>
 4    0  0.2182372E-002  0.2968084E+03  0.7546771E-02  0.1086847E+00
         21   -1    0    0  502  501  0.00000000000E+00  0.00000000000E+00  0.14484287846E+03  0.14484287846E+03  0.00000000000E+00 0.  1.
         21   -1    0    0  501  502 -0.00000000000E+00 -0.00000000000E+00 -0.60821232065E+03  0.60821232065E+03  0.00000000000E+00 0.  1.
         25    1    1    2    0    0 -0.23026872171E+03 -0.77421368756E+01 -0.55051885153E+02  0.26784199622E+03  0.12500000000E+03 0.  0.
         25    1    1    2    0    0  0.23026872171E+03  0.77421368756E+01 -0.40831755703E+03  0.48521320289E+03  0.12500000000E+03 0.  0.
</event>
<event>
 4    0  0.2182372E-002  0.2656663E+03  0.7546771E-02  0.1103786E+00
         21   -1    0    0  502  501  0.00000000000E+00  0.00000000000E+00  0.11461825096E+03  0.11461825096E+03  0.00000000000E+00 0. -1.
         21   -1    0    0  501  502 -0.00000000000E+00 -0.00000000000E+00 -0.61577079244E+03  0.61577079244E+03  0.00000000000E+00 0. -1.
         25    1    1    2    0    0  0.19897664886E+03  0.12308851184E+03 -0.23060461247E+03  0.35149107503E+03  0.12500000000E+03 0.  0.
         25    1    1    2    0    0 -0.19897664886E+03 -0.12308851184E+03 -0.27054792902E+03  0.37889796837E+03  0.12500000000E+03 0.  0.
</event>
<event>
 4    0  0.2182372E-002  0.3003528E+03  0.7546771E-02  0.1085064E+00
         21   -1    0    0  502  501  0.00000000000E+00  0.00000000000E+00  0.66807468397E+03  0.66807468397E+03  0.00000000000E+00 0. -1.
         21   -1    0    0  501  502 -0.00000000000E+00 -0.00000000000E+00 -0.13503248504E+03  0.13503248504E+03  0.00000000000E+00 0. -1.
         25    1    1    2    0    0 -0.26801244978E+03 -0.51880223978E+02  0.25577939786E+03  0.39442405004E+03  0.12500000000E+03 0.  0.
         25    1    1    2    0    0  0.26801244978E+03  0.51880223978E+02  0.27726280107E+03  0.40868311897E+03  0.12500000000E+03 0.  0.
</event>
<event>
 4    0  0.2182372E-002  0.2111720E+03  0.7546771E-02  0.1140641E+00
         21   -1    0    0  502  501  0.00000000000E+00  0.00000000000E+00  0.37731851026E+03  0.37731851026E+03  0.00000000000E+00 0.  1.
         21   -1    0    0  501  502 -0.00000000000E+00 -0.00000000000E+00 -0.11818558136E+03  0.11818558136E+03  0.00000000000E+00 0.  1.
         25    1    1    2    0    0  0.44666762500E+02  0.10548033571E+03 -0.18126487978E+02  0.17051331461E+03  0.12500000000E+03 0.  0.
         25    1    1    2    0    0 -0.44666762500E+02 -0.10548033571E+03  0.27725941688E+03  0.32499077701E+03  0.12500000000E+03 0.  0.
</event>
<event>
 4    0  0.2182372E-002  0.1698486E+03  0.7546771E-02  0.1178006E+00
         21   -1    0    0  502  501  0.00000000000E+00  0.00000000000E+00  0.12921171316E+03  0.12921171316E+03  0.00000000000E+00 0. -1.
         21   -1    0    0  501  502 -0.00000000000E+00 -0.00000000000E+00 -0.22326566712E+03  0.22326566712E+03  0.00000000000E+00 0. -1.
         25    1    1    2    0    0 -0.88817211312E+02 -0.67885856035E+02 -0.74995720186E+02  0.18370178149E+03  0.12500000000E+03 0.  0.
         25    1    1    2    0    0  0.88817211312E+02  0.67885856035E+02 -0.19058233772E+02  0.16877559880E+03  0.12500000000E+03 0.  0.
</event>
<event>
 4    0  0.2182372E-002  0.2113266E+03  0.7546771E-02  0.1140520E+00
         21   -1    0    0  502  501  0.00000000000E+00  0.00000000000E+00  0.75107995393E+03  0.75107995393E+03  0.00000000000E+00 0. -1.
         21   -1    0    0  501  502 -0.00000000000E+00 -0.00000000000E+00 -0.59459645273E+02  0.59459645273E+02  0.00000000000E+00 0. -1.
         25    1    1    2    0    0 -0.11747617339E+03  0.99865797123E+02  0.48489755118E+03  0.52395082202E+03  0.12500000000E+03 0.  0.
         25    1    1    2    0    0  0.11747617339E+03 -0.99865797123E+02  0.20672275747E+03  0.28658877718E+03  0.12500000000E+03 0.  0.
</event>
<event>
 4    0  0.2182372E-002  0.1830769E+03  0.7546771E-02  0.1164858E+00
         21   -1    0    0  502  501  0.00000000000E+00  0.00000000000E+00  0.16954132606E+03  0.16954132606E+03  0.00000000000E+00 0. -1.
         21   -1    0    0  501  502 -0.00000000000E+00 -0.00000000000E+00 -0.19769314573E+03  0.19769314573E+03  0.00000000000E+00 0. -1.
         25    1    1    2    0    0  0.98301059408E+02  0.40485584926E+02  0.67342348508E+02  0.17737579533E+03  0.12500000000E+03 0.  0.
         25    1    1    2    0    0 -0.98301059408E+02 -0.40485584926E+02 -0.95494168183E+02  0.18985867645E+03  0.12500000000E+03 0.  0.
</event>
<event>
 4    0  0.2182372E-002  0.1632434E+03  0.7546771E-02  0.1185083E+00
         21   -1    0    0  502  501  0.00000000000E+00  0.00000000000E+00  0.21750145378E+03  0.21750145378E+03  0.00000000000E+00 0. -1.
         21   -1    0    0  501  502 -0.00000000000E+00 -0.00000000000E+00 -0.12252057992E+03  0.12252057992E+03  0.00000000000E+00 0. -1.
         25    1    1    2    0    0  0.59342162578E+02 -0.80351086120E+02  0.13813905605E+02  0.16060390185E+03  0.12500000000E+03 0.  0.
         25    1    1    2    0    0 -0.59342162578E+02  0.80351086120E+02  0.81166968261E+02  0.17941813185E+03  0.12500000000E+03 0.  0.
</event>
<event>
 4    0  0.2182372E-002  0.1755530E+03  0.7546771E-02  0.1172178E+00
         21   -1    0    0  502  501  0.00000000000E+00  0.00000000000E+00  0.80193160123E+02  0.80193160123E+02  0.00000000000E+00 0. -1.
         21   -1    0    0  501  502 -0.00000000000E+00 -0.00000000000E+00 -0.38430759161E+03  0.38430759161E+03  0.00000000000E+00 0. -1.
         25    1    1    2    0    0  0.43292283983E+02 -0.10668742285E+03 -0.21028889216E+03  0.27037538019E+03  0.12500000000E+03 0.  0.
         25    1    1    2    0    0 -0.43292283983E+02  0.10668742285E+03 -0.93825539325E+02  0.19412537154E+03  0.12500000000E+03 0.  0.
</event>
<event>
 4    0  0.2182372E-002  0.1801656E+03  0.7546771E-02  0.1167643E+00
         21   -1    0    0  502  501  0.00000000000E+00  0.00000000000E+00  0.36044776026E+02  0.36044776026E+02  0.00000000000E+00 0. -1.
         21   -1    0    0  501  502 -0.00000000000E+00 -0.00000000000E+00 -0.90053708856E+03  0.90053708856E+03  0.00000000000E+00 0. -1.
         25    1    1    2    0    0  0.31371772782E+02 -0.12410116773E+03 -0.37714690803E+03  0.41743272296E+03  0.12500000000E+03 0.  0.
         25    1    1    2    0    0 -0.31371772782E+02  0.12410116773E+03 -0.48734540451E+03  0.51914914163E+03  0.12500000000E+03 0.  0.
</event>
<event>
 4    0  0.2182372E-002  0.2116812E+03  0.7546771E-02  0.1140242E+00
         21   -1    0    0  502  501  0.00000000000E+00  0.00000000000E+00  0.28733667517E+03  0.28733667517E+03  0.00000000000E+00 0. -1.
         21   -1    0    0  501  502 -0.00000000000E+00 -0.00000000000E+00 -0.15594567547E+03  0.15594567547E+03  0.00000000000E+00 0. -1.
         25    1    1    2    0    0  0.11555719373E+03  0.12281173125E+03  0.94326686891E+02  0.23012759551E+03  0.12500000000E+03 0.  0.
         25    1    1    2    0    0 -0.11555719373E+03 -0.12281173125E+03  0.37064312808E+02  0.21315475514E+03  0.12500000000E+03 0.  0.
</event>
<event>
 4    0  0.2182372E-002  0.2779069E+03  0.7546771E-02  0.1096838E+00
         21   -1    0    0  502  501  0.00000000000E+00  0.00000000000E+00  0.33854648398E+02  0.33854648398E+02  0.00000000000E+00 0.  1.
         21   -1    0    0  501  502 -0.00000000000E+00 -0.00000000000E+00 -0.22812888595E+04  0.22812888595E+04  0.00000000000E+00 0.  1.
         25    1    1    2    0    0 -0.17737040449E+03 -0.23938357439E+02 -0.18400305866E+04  0.18529357423E+04  0.12500000000E+03 0.  0.
         25    1    1    2    0    0  0.17737040449E+03  0.23938357439E+02 -0.40740362443E+03  0.46220776556E+03  0.12500000000E+03 0.  0.
</event>
<event>
 4    0  0.2182372E-002  0.1854554E+03  0.7546771E-02  0.1162625E+00
         21   -1    0    0  502  501  0.00000000000E+00  0.00000000000E+00  0.52597611665E+03  0.52597611665E+03  0.00000000000E+00 0.  1.
         21   -1    0    0  501  502 -0.00000000000E+00 -0.00000000000E+00 -0.65390270550E+02  0.65390270550E+02  0.00000000000E+00 0.  1.
         25    1    1    2    0    0 -0.12026395720E+03  0.29066807053E+02  0.32408185425E+03  0.36873072414E+03  0.12500000000E+03 0.  0.
         25    1    1    2    0    0  0.12026395720E+03 -0.29066807053E+02  0.13650399186E+03  0.22263566306E+03  0.12500000000E+03 0.  0.
</event>
<event>
 4    0  0.2182372E-002  0.1711752E+03  0.7546771E-02  0.1176628E+00
         21   -1    0    0  502  501  0.00000000000E+00  0.00000000000E+00  0.20251354714E+04  0.20251354714E+04  0.00000000000E+00 0.  1.
         21   -1    0    0  501  502 -0.00000000000E+00 -0.00000000000E+00 -0.14468629728E+02  0.14468629728E+02  0.00000000000E+00 0.  1.
         25    1    1    2    0    0  0.18383239240E+02  0.42456519988E+02  0.16452039982E+04  0.16505943460E+04  0.12500000000E+03 0.  0.
         25    1    1    2    0    0 -0.18383239240E+02 -0.42456519988E+02  0.36546284348E+03  0.38900975507E+03  0.12500000000E+03 0.  0.
</event>
<event>
 4    0  0.2182372E-002  0.2171669E+03  0.7546771E-02  0.1136013E+00
         21   -1    0    0  502  501  0.00000000000E+00  0.00000000000E+00  0.29488961811E+03  0.29488961811E+03  0.00000000000E+00 0.  1.
         21   -1    0    0  501  502 -0.00000000000E+00 -0.00000000000E+00 -0.15992916094E+03  0.15992916094E+03  0.00000000000E+00 0.  1.
         25    1    1    2    0    0 -0.87019913120E+02  0.15087267207E+03  0.10377653089E+03  0.23817975737E+03  0.12500000000E+03 0.  0.
         25    1    1    2    0    0  0.87019913120E+02 -0.15087267207E+03  0.31183926273E+02  0.21663902168E+03  0.12500000000E+03 0.  0.
</event>
<event>
 4    0  0.2182372E-002  0.2031248E+03  0.7546771E-02  0.1147129E+00
         21   -1    0    0  502  501  0.00000000000E+00  0.00000000000E+00  0.14885794261E+03  0.14885794261E+03  0.00000000000E+00 0.  1.
         21   -1    0    0  501  502 -0.00000000000E+00 -0.00000000000E+00 -0.27717495809E+03  0.27717495809E+03  0.00000000000E+00 0.  1.
         25    1    1    2    0    0  0.75149247601E+02  0.13932989747E+03 -0.89293667487E+02  0.22058691892E+03  0.12500000000E+03 0.  0.
         25    1    1    2    0    0 -0.75149247601E+02 -0.13932989747E+03 -0.39023347992E+02  0.20544598179E+03  0.12500000000E+03 0.  0.
</event>
<event>
 4    0  0.2182372E-002  0.2539394E+03  0.7546771E-02  0.1110840E+00
         21   -1    0    0  502  501  0.00000000000E+00  0.00000000000E+00  0.36992232814E+03  0.36992232814E+03  0.00000000000E+00 0.  1.
         21   -1    0    0  501  502 -0.00000000000E+00 -0.00000000000E+00 -0.17432102783E+03  0.17432102783E+03  0.00000000000E+00 0.  1.
         25    1    1    2    0    0 -0.17393461097E+03  0.11029887762E+03  0.18380385924E+03  0.30303126896E+03  0.12500000000E+03 0.  0.
         25    1    1    2    0    0  0.17393461097E+03 -0.11029887762E+03  0.11797441075E+02  0.24121208700E+03  0.12500000000E+03 0.  0.
</event>
<event>
 4    0  0.2182372E-002  0.2197483E+03  0.7546771E-02  0.1134071E+00
         21   -1    0    0  502  501  0.00000000000E+00  0.00000000000E+00  0.73643397532E+02  0.73643397532E+02  0.00000000000E+00 0.  1.
         21   -1    0    0  501  502 -0.00000000000E+00 -0.00000000000E+00 -0.65571835781E+03  0.65571835781E+03  0.00000000000E+00 0.  1.
         25    1    1    2    0    0  0.50289437050E+02 -0.17009155751E+03 -0.23344975531E+03  0.31872237711E+03  0.12500000000E+03 0.  0.
         25    1    1    2    0    0 -0.50289437050E+02  0.17009155751E+03 -0.34862520497E+03  0.41063937823E+03  0.12500000000E+03 0.  0.
</event>
<event>
 4    0  0.2182372E-002  0.2668557E+03  0.7546771E-02  0.1103093E+00
         21   -1    0    0  502  501  0.00000000000E+00  0.00000000000E+00  0.12988264601E+04  0.12988264601E+04  0.00000000000E+00 0. -1.
         21   -1    0    0  501  502 -0.00000000000E+00 -0.00000000000E+00 -0.54827917278E+02  0.54827917278E+02  0.00000000000E+00 0. -1.
         25    1    1    2    0    0  0.86795576174E+02 -0.98568977423E+02  0.12539092589E+03  0.22044772544E+03  0.12500000000E+03 0.  0.
         25    1    1    2    0    0 -0.86795576174E+02  0.98568977423E+02  0.11186076169E+04  0.11332066519E+04  0.12500000000E+03 0.  0.
</event>
<event>
 4    0  0.2182372E-002  0.2024736E+03  0.7546771E-02  0.1147669E+00
         21   -1    0    0  502  501  0.00000000000E+00  0.00000000000E+00  0.22224261272E+02  0.22224261272E+02  0.00000000000E+00 0. -1.
         21   -1    0    0  501  502 -0.00000000000E+00 -0.00000000000E+00 -0.18446306666E+04  0.18446306666E+04  0.00000000000E+00 0. -1.
         25    1    1    2    0    0 -0.19480516147E+02 -0.15706375371E+03 -0.82847234249E+03  0.85266636823E+03  0.12500000000E+03 0.  0.
         25    1    1    2    0    0  0.19480516147E+02  0.15706375371E+03 -0.99393406280E+03  0.10141885596E+04  0.12500000000E+03 0.  0.
</event>
<event>
 4    0  0.2182372E-002  0.2211174E+03  0.7546771E-02  0.1133053E+00
         21   -1    0    0  502  501  0.00000000000E+00  0.00000000000E+00  0.66908240176E+02  0.66908240176E+02  0.00000000000E+00 0.  1.
         21   -1    0    0  501  502 -0.00000000000E+00 -0.00000000000E+00 -0.73074542048E+03  0.73074542048E+03  0.00000000000E+00 0.  1.
         25    1    1    2    0    0  0.11410135067E+03  0.12372853459E+03 -0.45869134747E+03  0.50433185576E+03  0.12500000000E+03 0.  0.
         25    1    1    2    0    0 -0.11410135067E+03 -0.12372853459E+03 -0.20514583284E+03  0.29332180490E+03  0.12500000000E+03 0.  0.
</event>
<event>
 4    0  0.2182372E-002  0.2074047E+03  0.7546771E-02  0.1143638E+00
         21   -1    0    0  502  501  0.00000000000E+00  0.00000000000E+00  0.49072357882E+02  0.49072357882E+02  0.00000000000E+00 0.  1.
         21   -1    0    0  501  502 -0.00000000000E+00 -0.00000000000E+00 -0.87659762202E+03  0.87659762202E+03  0.00000000000E+00 0.  1.
         25    1    1    2    0    0  0.15184582063E+03  0.58597819756E+02 -0.48074105292E+03  0.52271198349E+03  0.12500000000E+03 0.  0.
         25    1    1    2    0    0 -0.15184582063E+03 -0.58597819756E+02 -0.34678421121E+03  0.40295799641E+03  0.12500000000E+03 0.  0.
</event>
<event>
 4    0  0.2182372E-002  0.2033488E+03  0.7546771E-02  0.1146944E+00
         21   -1    0    0  502  501  0.00000000000E+00  0.00000000000E+00  0.16554006158E+04  0.16554006158E+04  0.00000000000E+00 0. -1.
         21   -1    0    0  501  502 -0.00000000000E+00 -0.00000000000E+00 -0.24979287229E+02  0.24979287229E+02  0.00000000000E+00 0.  1.
         25    1    1    2    0    0  0.12037929951E+03  0.10113450656E+03  0.68413764615E+03  0.71301380285E+03  0.12500000000E+03 0.  0.
         25    1    1    2    0    0 -0.12037929951E+03 -0.10113450656E+03  0.94628368239E+03  0.96736610015E+03  0.12500000000E+03 0.  0.
</event>
<event>
 4    0  0.2182372E-002  0.1868284E+03  0.7546771E-02  0.1161353E+00
         21   -1    0    0  502  501  0.00000000000E+00  0.00000000000E+00  0.14234321100E+02  0.14234321100E+02  0.00000000000E+00 0.  1.
         21   -1    0    0  501  502 -0.00000000000E+00 -0.00000000000E+00 -0.24521614671E+04  0.24521614671E+04  0.00000000000E+00 0.  1.
         25    1    1    2    0    0 -0.57321058225E+02 -0.94093824917E+02 -0.66119474502E+03  0.68186717361E+03  0.12500000000E+03 0.  0.
         25    1    1    2    0    0  0.57321058225E+02  0.94093824917E+02 -0.17767324010E+04  0.17845286146E+04  0.12500000000E+03 0.  0.
</event>
<event>
 4    0  0.2182372E-002  0.1887560E+03  0.7546771E-02  0.1159588E+00
         21   -1    0    0  502  501  0.00000000000E+00  0.00000000000E+00  0.12866399769E+03  0.12866399769E+03  0.00000000000E+00 0. -1.
         21   -1    0    0  501  502 -0.00000000000E+00 -0.00000000000E+00 -0.27691384455E+03  0.27691384455E+03  0.00000000000E+00 0. -1.
         25    1    1    2    0    0 -0.10738597580E+03 -0.51399089917E+02  0.79076128841E+01  0.17280377480E+03  0.12500000000E+03 0.  0.
         25    1    1    2    0    0  0.10738597580E+03  0.51399089917E+02 -0.15615745974E+03  0.23277406745E+03  0.12500000000E+03 0.  0.
</event>
<event>
 4    0  0.2182372E-002  0.3856004E+03  0.7546771E-02  0.1048883E+00
         21   -1    0    0  502  501  0.00000000000E+00  0.00000000000E+00  0.52308886531E+03  0.52308886531E+03  0.00000000000E+00 0.  1.
         21   -1    0    0  501  502 -0.00000000000E+00 -0.00000000000E+00 -0.28424931702E+03  0.28424931702E+03  0.00000000000E+00 0.  1.
         25    1    1    2    0    0  0.27758559149E+03  0.19043971762E+03  0.26650846575E+03  0.44718319397E+03  0.12500000000E+03 0.  0.
         25    1    1    2    0    0 -0.27758559149E+03 -0.19043971762E+03 -0.27668917461E+02  0.36015498836E+03  0.12500000000E+03 0.  0.
</event>
<event>
 4    0  0.2182372E-002  0.3013036E+03  0.7546771E-02  0.1084591E+00
         21   -1    0    0  502  501  0.00000000000E+00  0.00000000000E+00  0.12076180274E+03  0.12076180274E+03  0.00000000000E+00 0. -1.
         21   -1    0    0  501  502 -0.00000000000E+00 -0.00000000000E+00 -0.75175956920E+03  0.75175956920E+03  0.00000000000E+00 0. -1.
         25    1    1    2    0    0  0.16089133505E+03 -0.43309481931E+02 -0.27601033745E+00  0.20829500499E+03  0.12500000000E+03 0.  0.
         25    1    1    2    0    0 -0.16089133505E+03  0.43309481931E+02 -0.63072175612E+03  0.66422636696E+03  0.12500000000E+03 0.  0.
</event>
<event>
 4    0  0.2182372E-002  0.3740047E+03  0.7546771E-02  0.1053172E+00
         21   -1    0    0  502  501  0.00000000000E+00  0.00000000000E+00  0.35646716109E+03  0.35646716109E+03  0.00000000000E+00 0.  1.
         21   -1    0    0  501  502 -0.00000000000E+00 -0.00000000000E+00 -0.39240513147E+03  0.39240513147E+03  0.00000000000E+00 0.  1.
         25    1    1    2    0    0  0.22625073574E+03  0.97900514639E+02 -0.27021325093E+03  0.38654121018E+03  0.12500000000E+03 0.  0.
         25    1    1    2    0    0 -0.22625073574E+03 -0.97900514639E+02  0.23427528054E+03  0.36233108238E+03  0.12500000000E+03 0.  0.
</event>
<event>
 4    0  0.2182372E-002  0.2476545E+03  0.7546771E-02  0.1114796E+00
         21   -1    0    0  502  501  0.00000000000E+00  0.00000000000E+00  0.16383886067E+03  0.16383886067E+03  0.00000000000E+00 0.  1.
         21   -1    0    0  501  502 -0.00000000000E+00 -0.00000000000E+00 -0.37434812440E+03  0.37434812440E+03  0.00000000000E+00 0.  1.
         25    1    1    2    0    0  0.99244983149E+02  0.18837785716E+03 -0.84298049278E+02  0.26089642554E+03  0.12500000000E+03 0.  0.
         25    1    1    2    0    0 -0.99244983149E+02 -0.18837785716E+03 -0.12621121445E+03  0.27729055953E+03  0.12500000000E+03 0.  0.
</event>
<event>
 4    0  0.2182372E-002  0.1831786E+03  0.7546771E-02  0.1164762E+00
         21   -1    0    0  502  501  0.00000000000E+00  0.00000000000E+00  0.97463538469E+03  0.97463538469E+03  0.00000000000E+00 0.  1.
         21   -1    0    0  501  502 -0.00000000000E+00 -0.00000000000E+00 -0.34427657177E+02  0.34427657177E+02  0.00000000000E+00 0.  1.
         25    1    1    2    0    0 -0.45818072859E+02  0.14054827147E+02  0.81447662839E+03  0.82540536233E+03  0.12500000000E+03 0.  0.
         25    1    1    2    0    0  0.45818072859E+02 -0.14054827147E+02  0.12573109912E+03  0.18365767954E+03  0.12500000000E+03 0.  0.
</event>
<event>
 4    0  0.2182372E-002  0.2023279E+03  0.7546771E-02  0.1147790E+00
         21   -1    0    0  502  501  0.00000000000E+00  0.00000000000E+00  0.27456764718E+04  0.27456764718E+04  0.00000000000E+00 0. -1.
         21   -1    0    0  501  502 -0.00000000000E+00 -0.00000000000E+00 -0.14909473314E+02  0.14909473314E+02  0.00000000000E+00 0. -1.
         25    1    1    2    0    0  0.24871706906E+02 -0.20538453504E+02  0.24282059341E+04  0.24316351470E+04  0.12500000000E+03 0.  0.
         25    1    1    2    0    0 -0.24871706906E+02  0.20538453504E+02  0.30256106438E+03  0.32895079808E+03  0.12500000000E+03 0.  0.
</event>
<event>
 4    0  0.2182372E-002  0.2518905E+03  0.7546771E-02  0.1112116E+00
         21   -1    0    0  502  501  0.00000000000E+00  0.00000000000E+00  0.14233673747E+04  0.14233673747E+04  0.00000000000E+00 0.  1.
         21   -1    0    0  501  502 -0.00000000000E+00 -0.00000000000E+00 -0.44576569704E+02  0.44576569704E+02  0.00000000000E+00 0.  1.
         25    1    1    2    0    0  0.94340720446E+02 -0.15712759681E+03  0.34174718593E+03  0.40743759314E+03  0.12500000000E+03 0.  0.
         25    1    1    2    0    0 -0.94340720446E+02  0.15712759681E+03  0.10370436190E+04  0.10605063512E+04  0.12500000000E+03 0.  0.
</event>
<event>
 4    0  0.2182372E-002  0.2267040E+03  0.7546771E-02  0.1128981E+00
         21   -1    0    0  502  501  0.00000000000E+00  0.00000000000E+00  0.25856384035E+03  0.25856384035E+03  0.00000000000E+00 0.  1.
         21   -1    0    0  501  502 -0.00000000000E+00 -0.00000000000E+00 -0.19876989136E+03  0.19876989136E+03  0.00000000000E+00 0.  1.
         25    1    1    2    0    0 -0.13796100265E+03  0.37556916154E+02 -0.94972905232E+02  0.21234079432E+03  0.12500000000E+03 0.  0.
         25    1    1    2    0    0  0.13796100265E+03 -0.37556916154E+02  0.15476685422E+03  0.24499293739E+03  0.12500000000E+03 0.  0.
</event>
<event>
 4    0  0.2182372E-002  0.2972207E+03  0.7546771E-02  0.1086638E+00
         21   -1    0    0  502  501  0.00000000000E+00  0.00000000000E+00  0.11756941509E+03  0.11756941509E+03  0.00000000000E+00 0. -1.
         21   -1    0    0  501  502 -0.00000000000E+00 -0.00000000000E+00 -0.75138691904E+03  0.75138691904E+03  0.00000000000E+00 0. -1.
         25    1    1    2    0    0  0.85050272391E+02  0.19202485783E+03 -0.69660683494E+02  0.25413521142E+03  0.12500000000E+03 0.  0.
         25    1    1    2    0    0 -0.85050272391E+02 -0.19202485783E+03 -0.56415682046E+03  0.61482112270E+03  0.12500000000E+03 0.  0.
</event>
<event>
 4    0  0.2182372E-002  0.2557298E+03  0.7546771E-02  0.1109736E+00
         21   -1    0    0  502  501  0.00000000000E+00  0.00000000000E+00  0.25537958116E+03  0.25537958116E+03  0.00000000000E+00 0.  1.
         21   -1    0    0  501  502 -0.00000000000E+00 -0.00000000000E+00 -0.25608046176E+03  0.25608046176E+03  0.00000000000E+00 0.  1.
         25    1    1    2    0    0  0.15593323776E+03  0.11024536903E+03 -0.11569136980E+03  0.25588807920E+03  0.12500000000E+03 0.  0.
         25    1    1    2    0    0 -0.15593323776E+03 -0.11024536903E+03  0.11499048920E+03  0.25557196372E+03  0.12500000000E+03 0.  0.
</event>
<event>
 4    0  0.2182372E-002  0.2625763E+03  0.7546771E-02  0.1105605E+00
         21   -1    0    0  502  501  0.00000000000E+00  0.00000000000E+00  0.19692668992E+04  0.19692668992E+04  0.00000000000E+00 0. -1.
         21   -1    0    0  501  502 -0.00000000000E+00 -0.00000000000E+00 -0.35011160607E+02  0.35011160607E+02  0.00000000000E+00 0. -1.
         25    1    1    2    0    0 -0.11309896168E+03 -0.19141191183E+03  0.12052099669E+04  0.12319033889E+04  0.12500000000E+03 0.  0.
         25    1    1    2    0    0  0.11309896168E+03  0.19141191183E+03  0.72904577163E+03  0.77237467090E+03  0.12500000000E+03 0.  0.
</event>
<event>
 4    0  0.2182372E-002  0.1693420E+03  0.7546771E-02  0.1178536E+00
         21   -1    0    0  502  501  0.00000000000E+00  0.00000000000E+00  0.22120427324E+02  0.22120427324E+02  0.00000000000E+00 0.  1.
         21   -1    0    0  501  502 -0.00000000000E+00 -0.00000000000E+00 -0.12963901209E+04  0.12963901209E+04  0.00000000000E+00 0.  1.
         25    1    1    2    0    0  0.37876236367E+02 -0.73697756870E+02 -0.94332036701E+03  0.95516714949E+03  0.12500000000E+03 0.  0.
         25    1    1    2    0    0 -0.37876236367E+02  0.73697756870E+02 -0.33094932657E+03  0.36334339874E+03  0.12500000000E+03 0.  0.
</event>
<event>
 4    0  0.2182372E-002  0.2405076E+03  0.7546771E-02  0.1119455E+00
         21   -1    0    0  502  501  0.00000000000E+00  0.00000000000E+00  0.49757676318E+03  0.49757676318E+03  0.00000000000E+00 0. -1.
         21   -1    0    0  501  502 -0.00000000000E+00 -0.00000000000E+00 -0.11625126549E+03  0.11625126549E+03  0.00000000000E+00 0. -1.
         25    1    1    2    0    0  0.57952819048E+02 -0.18228503690E+03  0.94890228595E+02  0.24741770227E+03  0.12500000000E+03 0.  0.
         25    1    1    2    0    0 -0.57952819048E+02  0.18228503690E+03  0.28643526909E+03  0.36641032640E+03  0.12500000000E+03 0.  0.
</event>
<event>
 4    0  0.2182372E-002  0.2893603E+03  0.7546771E-02  0.1090684E+00
         21   -1    0    0  502  501  0.00000000000E+00  0.00000000000E+00  0.51725001832E+03  0.51725001832E+03  0.00000000000E+00 0. -1.
         21   -1    0    0  501  502 -0.00000000000E+00 -0.00000000000E+00 -0.16187413139E+03  0.16187413139E+03  0.00000000000E+00 0. -1.
         25    1    1    2    0    0  0.28923941426E+02 -0.21459790339E+03  0.67622814621E+01  0.25011913757E+03  0.12500000000E+03 0.  0.
         25    1    1    2    0    0 -0.28923941426E+02  0.21459790339E+03  0.34861360546E+03  0.42900501214E+03  0.12500000000E+03 0.  0.
</event>
<event>
 4    0  0.2182372E-002  0.2299355E+03  0.7546771E-02  0.1126685E+00
         21   -1    0    0  502  501  0.00000000000E+00  0.00000000000E+00  0.10903376168E+04  0.10903376168E+04  0.00000000000E+00 0. -1.
         21   -1    0    0  501  502 -0.00000000000E+00 -0.00000000000E+00 -0.48489864818E+02  0.48489864818E+02  0.00000000000E+00 0. -1.
         25    1    1    2    0    0 -0.13192798826E+03 -0.13843019406E+03  0.58537760632E+03  0.62837875099E+03  0.12500000000E+03 0.  0.
         25    1    1    2    0    0  0.13192798826E+03  0.13843019406E+03  0.45647014563E+03  0.51044873060E+03  0.12500000000E+03 0.  0.
</event>
<event>
 4    0  0.2182372E-002  0.1772851E+03  0.7546771E-02  0.1170457E+00
         21   -1    0    0  502  501  0.00000000000E+00  0.00000000000E+00  0.10327043487E+03  0.10327043487E+03  0.00000000000E+00 0. -1.
         21   -1    0    0  501  502 -0.00000000000E+00 -0.00000000000E+00 -0.30434669589E+03  0.30434669589E+03  0.00000000000E+00 0. -1.
         25    1    1    2    0    0 -0.40979843722E+02  0.11790200059E+03 -0.11777407365E+03  0.21231100245E+03  0.12500000000E+03 0.  0.
         25    1    1    2    0    0  0.40979843722E+02 -0.11790200059E+03 -0.83302187369E+02  0.19530612831E+03  0.12500000000E+03 0.  0.
</event>
<event>
 4    0  0.2182372E-002  0.4253411E+03  0.7546771E-02  0.1035342E+00
         21   -1    0    0  502  501  0.00000000000E+00  0.00000000000E+00  0.23343736229E+03  0.23343736229E+03  0.00000000000E+00 0.  1.
         21   -1    0    0  501  502 -0.00000000000E+00 -0.00000000000E+00 -0.77500485703E+03  0.77500485703E+03  0.00000000000E+00 0.  1.
         25    1    1    2    0    0  0.22857838320E+03 -0.21020759258E+03  0.40280914656E+02  0.33716889141E+03  0.12500000000E+03 0.  0.
         25    1    1    2    0    0 -0.22857838320E+03  0.21020759258E+03 -0.58184840939E+03  0.67127332791E+03  0.12500000000E+03 0.  0.
</event>
<event>
 4    0  0.2182372E-002  0.2230304E+03  0.7546771E-02  0.1131644E+00
         21   -1    0    0  502  501  0.00000000000E+00  0.00000000000E+00  0.41283898837E+03  0.41283898837E+03  0.00000000000E+00 0.  1.
         21   -1    0    0  501  502 -0.00000000000E+00 -0.00000000000E+00 -0.12048899262E+03  0.12048899262E+03  0.00000000000E+00 0.  1.
         25    1    1    2    0    0 -0.10146452657E+03 -0.14585054731E+03  0.20655328280E+03  0.29976105641E+03  0.12500000000E+03 0.  0.
         25    1    1    2    0    0  0.10146452657E+03  0.14585054731E+03  0.85796712951E+02  0.23356692458E+03  0.12500000000E+03 0.  0.
</event>
<event>
 4    0  0.2182372E-002  0.2911107E+03  0.7546771E-02  0.1089771E+00
         21   -1    0    0  502  501  0.00000000000E+00  0.00000000000E+00  0.40994300804E+02  0.40994300804E+02  0.00000000000E+00 0. -1.
         21   -1    0    0  501  502 -0.00000000000E+00 -0.00000000000E+00 -0.20672495199E+04  0.20672495199E+04  0.00000000000E+00 0. -1.
         25    1    1    2    0    0 -0.20173713300E+03 -0.10707981862E+03 -0.54160705280E+03  0.60093856427E+03  0.12500000000E+03 0.  0.
         25    1    1    2    0    0  0.20173713300E+03  0.10707981862E+03 -0.14846481663E+04  0.15073052564E+04  0.12500000000E+03 0.  0.
</event>
<event>
 4    0  0.2182372E-002  0.1869876E+03  0.7546771E-02  0.1161207E+00
         21   -1    0    0  502  501  0.00000000000E+00  0.00000000000E+00  0.48902041671E+02  0.48902041671E+02  0.00000000000E+00 0.  1.
         21   -1    0    0  501  502 -0.00000000000E+00 -0.00000000000E+00 -0.71498786655E+03  0.71498786655E+03  0.00000000000E+00 0.  1.
         25    1    1    2    0    0  0.11904908260E+03  0.32286664267E+02 -0.46422079941E+03  0.49632757667E+03  0.12500000000E+03 0.  0.
         25    1    1    2    0    0 -0.11904908260E+03 -0.32286664267E+02 -0.20186502547E+03  0.26756233155E+03  0.12500000000E+03 0.  0.
</event>
<event>
 4    0  0.2182372E-002  0.1852000E+03  0.7546771E-02  0.1162863E+00
         21   -1    0    0  502  501  0.00000000000E+00  0.00000000000E+00  0.25175529609E+04  0.25175529609E+04  0.00000000000E+00 0.  1.
         21   -1    0    0  501  502 -0.00000000000E+00 -0.00000000000E+00 -0.13623966251E+02  0.13623966251E+02  0.00000000000E+00 0.  1.
         25    1    1    2    0    0 -0.91142328930E+02 -0.15504096602E+02  0.56428420080E+03  0.58531099461E+03  0.12500000000E+03 0.  0.
         25    1    1    2    0    0  0.91142328930E+02  0.15504096602E+02  0.19396447939E+04  0.19458659326E+04  0.12500000000E+03 0.  0.
</event>
<event>
 4    0  0.2182372E-002  0.2052465E+03  0.7546771E-02  0.1145386E+00
         21   -1    0    0  502  501  0.00000000000E+00  0.00000000000E+00  0.17517070243E+04  0.17517070243E+04  0.00000000000E+00 0.  1.
         21   -1    0    0  501  502 -0.00000000000E+00 -0.00000000000E+00 -0.24048621665E+02  0.24048621665E+02  0.00000000000E+00 0.  1.
         25    1    1    2    0    0  0.11437639144E+03 -0.98668246094E+02  0.11263857841E+04  0.11433229274E+04  0.12500000000E+03 0.  0.
         25    1    1    2    0    0 -0.11437639144E+03  0.98668246094E+02  0.60127261855E+03  0.63243271858E+03  0.12500000000E+03 0.  0.
</event>
<event>
 4    0  0.2182372E-002  0.3186511E+03  0.7546771E-02  0.1076272E+00
         21   -1    0    0  502  501  0.00000000000E+00  0.00000000000E+00  0.35311066990E+03  0.35311066990E+03  0.00000000000E+00 0.  1.
         21   -1    0    0  501  502 -0.00000000000E+00 -0.00000000000E+00 -0.28755445779E+03  0.28755445779E+03  0.00000000000E+00 0.  1.
         25    1    1    2    0    0 -0.12285160711E+03 -0.24695962170E+03  0.13245764077E+03  0.33053229603E+03  0.12500000000E+03 0.  0.
         25    1    1    2    0    0  0.12285160711E+03  0.24695962170E+03 -0.66901428657E+02  0.31013283167E+03  0.12500000000E+03 0.  0.
</event>
<event>
 4    0  0.2182372E-002  0.1809045E+03  0.7546771E-02  0.1166931E+00
         21   -1    0    0  502  501  0.00000000000E+00  0.00000000000E+00  0.43296503529E+03  0.43296503529E+03  0.00000000000E+00 0. -1.
         21   -1    0    0  501  502 -0.00000000000E+00 -0.00000000000E+00 -0.75586791035E+02  0.75586791035E+02  0.00000000000E+00 0. -1.
         25    1    1    2    0    0 -0.22350136867E+02  0.11448034379E+03  0.26179878111E+03  0.31268015531E+03  0.12500000000E+03 0.  0.
         25    1    1    2    0    0  0.22350136867E+02 -0.11448034379E+03  0.95579463143E+02  0.19587167102E+03  0.12500000000E+03 0.  0.
</event>
<event>
 4    0  0.2182372E-002  0.2527112E+03  0.7546771E-02  0.1111603E+00
         21   -1    0    0  502  501  0.00000000000E+00  0.00000000000E+00  0.52496073444E+03  0.52496073444E+03  0.00000000000E+00 0. -1.
         21   -1    0    0  501  502 -0.00000000000E+00 -0.00000000000E+00 -0.12165285150E+03  0.12165285150E+03  0.00000000000E+00 0. -1.
         25    1    1    2    0    0 -0.10151008892E+03 -0.28801427520E+02 -0.44780563135E+02  0.16959987976E+03  0.12500000000E+03 0.  0.
         25    1    1    2    0    0  0.10151008892E+03  0.28801427520E+02  0.44808844607E+03  0.47701370618E+03  0.12500000000E+03 0.  0.
</event>
<event>
 4    0  0.2182372E-002  0.2057600E+03  0.7546771E-02  0.1144968E+00
         21   -1    0    0  502  501  0.00000000000E+00  0.00000000000E+00  0.80611695633E+03  0.80611695633E+03  0.00000000000E+00 0. -1.
         21   -1    0    0  501  502 -0.00000000000E+00 -0.00000000000E+00 -0.52519904079E+02  0.52519904079E+02  0.00000000000E+00 0. -1.
         25    1    1    2    0    0  0.80832801992E+02 -0.10060250017E+03  0.58604636376E+03  0.61296830701E+03  0.12500000000E+03 0.  0.
         25    1    1    2    0    0 -0.80832801992E+02  0.10060250017E+03  0.16755068850E+03  0.24566855341E+03  0.12500000000E+03 0.  0.
</event>
<event>
 4    0  0.2182372E-002  0.1847621E+03  0.7546771E-02  0.1163272E+00
         21   -1    0    0  502  501  0.00000000000E+00  0.00000000000E+00  0.53758876553E+03  0.53758876553E+03  0.00000000000E+00 0. -1.
         21   -1    0    0  501  502 -0.00000000000E+00 -0.00000000000E+00 -0.63500274657E+02  0.63500274657E+02  0.00000000000E+00 0. -1.
         25    1    1    2    0    0 -0.13046617804E+03  0.15314048128E+02  0.17939330458E+03  0.25507430566E+03  0.12500000000E+03 0.  0.
         25    1    1    2    0    0  0.13046617804E+03 -0.15314048128E+02  0.29469518630E+03  0.34601473453E+03  0.12500000000E+03 0.  0.
</event>
<event>
 4    0  0.2182372E-002  0.1887320E+03  0.7546771E-02  0.1159610E+00
         21   -1    0    0  502  501  0.00000000000E+00  0.00000000000E+00  0.19494558776E+03  0.19494558776E+03  0.00000000000E+00 0. -1.
         21   -1    0    0  501  502 -0.00000000000E+00 -0.00000000000E+00 -0.18271640633E+03  0.18271640633E+03  0.00000000000E+00 0. -1.
         25    1    1    2    0    0 -0.11469387416E+03  0.71113611320E+02  0.48361462633E+02  0.19019900513E+03  0.12500000000E+03 0.  0.
         25    1    1    2    0    0  0.11469387416E+03 -0.71113611320E+02 -0.36132281198E+02  0.18746298896E+03  0.12500000000E+03 0.  0.
</event>
<event>
 4    0  0.2182372E-002  0.2485754E+03  0.7546771E-02  0.1114208E+00
         21   -1    0    0  502  501  0.00000000000E+00  0.00000000000E+00  0.66290311557E+02  0.66290311557E+02  0.00000000000E+00 0. -1.
         21   -1    0    0  501  502 -0.00000000000E+00 -0.00000000000E+00 -0.93210821453E+03  0.93210821453E+03  0.00000000000E+00 0. -1.
         25    1    1    2    0    0 -0.12800304377E+03 -0.90227580866E+02 -0.13749308763E+03  0.24301264311E+03  0.12500000000E+03 0.  0.
         25    1    1    2    0    0  0.12800304377E+03  0.90227580866E+02 -0.72832481534E+03  0.75538588298E+03  0.12500000000E+03 0.  0.
</event>
<event>
 4    0  0.2182372E-002  0.2156294E+03  0.7546771E-02  0.1137184E+00
         21   -1    0    0  502  501  0.00000000000E+00  0.00000000000E+00  0.19350821756E+03  0.19350821756E+03  0.00000000000E+00 0.  1.
         21   -1    0    0  501  502 -0.00000000000E+00 -0.00000000000E+00 -0.24027931287E+03  0.24027931287E+03  0.00000000000E+00 0.  1.
         25    1    1    2    0    0 -0.16585809594E+03 -0.87619017149E+01  0.34268460636E+02  0.21067749359E+03  0.12500000000E+03 0.  0.
         25    1    1    2    0    0  0.16585809594E+03  0.87619017149E+01 -0.81039555944E+02  0.22311003684E+03  0.12500000000E+03 0.  0.
</event>
<event>
 4    0  0.2182372E-002  0.2060221E+03  0.7546771E-02  0.1144755E+00
         21   -1    0    0  502  501  0.00000000000E+00  0.00000000000E+00  0.11130087758E+02  0.11130087758E+02  0.00000000000E+00 0.  1.
         21   -1    0    0  501  502 -0.00000000000E+00 -0.00000000000E+00 -0.38135451467E+04  0.38135451467E+04  0.00000000000E+00 0.  1.
         25    1    1    2    0    0  0.15341161165E+03  0.40347559066E+02 -0.22790561605E+04  0.22879871133E+04  0.12500000000E+03 0.  0.
         25    1    1    2    0    0 -0.15341161165E+03 -0.40347559066E+02 -0.15233588984E+04  0.15366881211E+04  0.12500000000E+03 0.  0.
</event>
<event>
 4    0  0.2182372E-002  0.2608488E+03  0.7546771E-02  0.1106634E+00
         21   -1    0    0  502  501  0.00000000000E+00  0.00000000000E+00  0.47828532260E+02  0.47828532260E+02  0.00000000000E+00 0.  1.
         21   -1    0    0  501  502 -0.00000000000E+00 -0.00000000000E+00 -0.14226251406E+04  0.14226251406E+04  0.00000000000E+00 0.  1.
         25    1    1    2    0    0  0.90765963058E+02  0.17193295059E+03 -0.10281764251E+04  0.10538364013E+04  0.12500000000E+03 0.  0.
         25    1    1    2    0    0 -0.90765963058E+02 -0.17193295059E+03 -0.34662018327E+03  0.41661727160E+03  0.12500000000E+03 0.  0.
</event>
<event>
 4    0  0.2182372E-002  0.2359518E+03  0.7546771E-02  0.1122519E+00
         21   -1    0    0  502  501  0.00000000000E+00  0.00000000000E+00  0.12823115712E+04  0.12823115712E+04  0.00000000000E+00 0.  1.
         21   -1    0    0  501  502 -0.00000000000E+00 -0.00000000000E+00 -0.43416321200E+02  0.43416321200E+02  0.00000000000E+00 0.  1.
         25    1    1    2    0    0 -0.13458912309E+03 -0.11036618795E+03  0.89689295719E+03  0.92213713956E+03  0.12500000000E+03 0.  0.
         25    1    1    2    0    0  0.13458912309E+03  0.11036618795E+03  0.34200229284E+03  0.40359075287E+03  0.12500000000E+03 0.  0.
</event>
<event>
 4    0  0.2182372E-002  0.1954324E+03  0.7546771E-02  0.1153651E+00
         21   -1    0    0  502  501  0.00000000000E+00  0.00000000000E+00  0.82419093689E+03  0.82419093689E+03  0.00000000000E+00 0.  1.
         21   -1    0    0  501  502 -0.00000000000E+00 -0.00000000000E+00 -0.46341006270E+02  0.46341006270E+02  0.00000000000E+00 0.  1.
         25    1    1    2    0    0  0.49672269923E+02 -0.42630714428E+02  0.69008349037E+03  0.70436136741E+03  0.12500000000E+03 0.  0.
         25    1    1    2    0    0 -0.49672269923E+02  0.42630714428E+02  0.87766440247E+02  0.16617057575E+03  0.12500000000E+03 0.  0.
</event>
<event>
 4    0  0.2182372E-002  0.1691035E+03  0.7546771E-02  0.1178786E+00
         21   -1    0    0  502  501  0.00000000000E+00  0.00000000000E+00  0.38026220895E+02  0.38026220895E+02  0.00000000000E+00 0.  1.
         21   -1    0    0  501  502 -0.00000000000E+00 -0.00000000000E+00 -0.75200714902E+03  0.75200714902E+03  0.00000000000E+00 0.  1.
         25    1    1    2    0    0 -0.86312290872E+02 -0.55422423196E+02 -0.47260290114E+03  0.49949970843E+03  0.12500000000E+03 0.  0.
         25    1    1    2    0    0  0.86312290872E+02  0.55422423196E+02 -0.24137802698E+03  0.29053366148E+03  0.12500000000E+03 0.  0.
</event>
<event>
 4    0  0.2182372E-002  0.2358467E+03  0.7546771E-02  0.1122591E+00
         21   -1    0    0  502  501  0.00000000000E+00  0.00000000000E+00  0.43198858660E+02  0.43198858660E+02  0.00000000000E+00 0. -1.
         21   -1    0    0  501  502 -0.00000000000E+00 -0.00000000000E+00 -0.12876190092E+04  0.12876190092E+04  0.00000000000E+00 0. -1.
         25    1    1    2    0    0 -0.12030175814E+03 -0.46299498553E+02 -0.19078596483E+03  0.26199320784E+03  0.12500000000E+03 0.  0.
         25    1    1    2    0    0  0.12030175814E+03  0.46299498553E+02 -0.10536341857E+04  0.10688246600E+04  0.12500000000E+03 0.  0.
</event>
<event>
 4    0  0.2182372E-002  0.2468620E+03  0.7546771E-02  0.1115304E+00
         21   -1    0    0  502  501  0.00000000000E+00  0.00000000000E+00  0.36213028899E+03  0.36213028899E+03  0.00000000000E+00 0. -1.
         21   -1    0    0  501  502 -0.00000000000E+00 -0.00000000000E+00 -0.16828433060E+03  0.16828433060E+03  0.00000000000E+00 0. -1.
         25    1    1    2    0    0 -0.47714945141E+02  0.34935825578E+02 -0.12276996106E+03  0.18491806628E+03  0.12500000000E+03 0.  0.
         25    1    1    2    0    0  0.47714945141E+02 -0.34935825578E+02  0.31661591945E+03  0.34549655331E+03  0.12500000000E+03 0.  0.
</event>
<event>
 4    0  0.2182372E-002  0.1665690E+03  0.7546771E-02  0.1181474E+00
         21   -1    0    0  502  501  0.00000000000E+00  0.00000000000E+00  0.29224185534E+03  0.29224185534E+03  0.00000000000E+00 0. -1.
         21   -1    0    0  501  502 -0.00000000000E+00 -0.00000000000E+00 -0.94939307713E+02  0.94939307713E+02  0.00000000000E+00 0. -1.
         25    1    1    2    0    0 -0.34959228016E+02 -0.61762240214E+02  0.19646830358E+03  0.24343688351E+03  0.12500000000E+03 0.  0.
         25    1    1    2    0    0  0.34959228016E+02  0.61762240214E+02  0.83424404838E+00  0.14374427955E+03  0.12500000000E+03 0.  0.
</event>
<event>
 4    0  0.2182372E-002  0.2185708E+03  0.7546771E-02  0.1134953E+00
         21   -1    0    0  502  501  0.00000000000E+00  0.00000000000E+00  0.13318135569E+04  0.13318135569E+04  0.00000000000E+00 0. -1.
         21   -1    0    0  501  502 -0.00000000000E+00 -0.00000000000E+00 -0.35870796631E+02  0.35870796631E+02  0.00000000000E+00 0. -1.
         25    1    1    2    0    0 -0.34550666932E+01 -0.36775684488E+02  0.11969114656E+04  0.12039877263E+04  0.12500000000E+03 0.  0.
         25    1    1    2    0    0  0.34550666932E+01  0.36775684488E+02  0.99031294615E+02  0.16369662724E+03  0.12500000000E+03 0.  0.
</event>
<event>
 4    0  0.2182372E-002  0.1808378E+03  0.7546771E-02  0.1166995E+00
         21   -1    0    0  502  501  0.00000000000E+00  0.00000000000E+00  0.22502576202E+03  0.22502576202E+03  0.00000000000E+00 0.  1.
         21   -1    0    0  501  502 -0.00000000000E+00 -0.00000000000E+00 -0.14532695398E+03  0.14532695398E+03  0.00000000000E+00 0.  1.
         25    1    1    2    0    0  0.48611294019E+02 -0.12097102955E+03  0.30675636954E+02  0.18320219049E+03  0.12500000000E+03 0.  0.
         25    1    1    2    0    0 -0.48611294019E+02  0.12097102955E+03  0.49023171083E+02  0.18715052551E+03  0.12500000000E+03 0.  0.
</event>
<event>
 4    0  0.2182372E-002  0.1843450E+03  0.7546771E-02  0.1163663E+00
         21   -1    0    0  502  501  0.00000000000E+00  0.00000000000E+00  0.18651935897E+03  0.18651935897E+03  0.00000000000E+00 0. -1.
         21   -1    0    0  501  502 -0.00000000000E+00 -0.00000000000E+00 -0.18219608364E+03  0.18219608364E+03  0.00000000000E+00 0. -1.
         25    1    1    2    0    0 -0.60582314243E+02  0.71490285262E+02  0.10003061070E+03  0.18550525805E+03  0.12500000000E+03 0.  0.
         25    1    1    2    0    0  0.60582314243E+02 -0.71490285262E+02 -0.95707335366E+02  0.18321018457E+03  0.12500000000E+03 0.  0.
</event>
<event>
 4    0  0.2182372E-002  0.1772598E+03  0.7546771E-02  0.1170482E+00
         21   -1    0    0  502  501  0.00000000000E+00  0.00000000000E+00  0.19451116689E+03  0.19451116689E+03  0.00000000000E+00 0.  1.
         21   -1    0    0  501  502 -0.00000000000E+00 -0.00000000000E+00 -0.16153845753E+03  0.16153845753E+03  0.00000000000E+00 0.  1.
         25    1    1    2    0    0  0.50536504043E+02  0.93876892043E+02 -0.50353294367E+02  0.17183498874E+03  0.12500000000E+03 0.  0.
         25    1    1    2    0    0 -0.50536504043E+02 -0.93876892043E+02  0.83326003725E+02  0.18421463568E+03  0.12500000000E+03 0.  0.
</event>
<event>
 4    0  0.2182372E-002  0.1442869E+03  0.7546771E-02  0.1207674E+00
         21   -1    0    0  502  501  0.00000000000E+00  0.00000000000E+00  0.18457571914E+03  0.18457571914E+03  0.00000000000E+00 0. -1.
         21   -1    0    0  501  502 -0.00000000000E+00 -0.00000000000E+00 -0.11279229357E+03  0.11279229357E+03  0.00000000000E+00 0. -1.
         25    1    1    2    0    0 -0.21660202858E+02  0.77457490128E+00  0.10671728666E+03  0.16578101105E+03  0.12500000000E+03 0.  0.
         25    1    1    2    0    0  0.21660202858E+02 -0.77457490128E+00 -0.34933861090E+02  0.13158700166E+03  0.12500000000E+03 0.  0.
</event>
<event>
 4    0  0.2182372E-002  0.2139133E+03  0.7546771E-02  0.1138504E+00
         21   -1    0    0  502  501  0.00000000000E+00  0.00000000000E+00  0.26338199352E+04  0.26338199352E+04  0.00000000000E+00 0. -1.
         21   -1    0    0  501  502 -0.00000000000E+00 -0.00000000000E+00 -0.17373593010E+02  0.17373593010E+02  0.00000000000E+00 0. -1.
         25    1    1    2    0    0 -0.15608780305E+03 -0.62266336062E+02  0.10385754958E+04  0.10594831567E+04  0.12500000000E+03 0.  0.
         25    1    1    2    0    0  0.15608780305E+03  0.62266336062E+02  0.15778708463E+04  0.15917103714E+04  0.12500000000E+03 0.  0.
</event>
<event>
 4    0  0.2182372E-002  0.2038805E+03  0.7546771E-02  0.1146506E+00
         21   -1    0    0  502  501  0.00000000000E+00  0.00000000000E+00  0.12193738401E+03  0.12193738401E+03  0.00000000000E+00 0.  1.
         21   -1    0    0  501  502 -0.00000000000E+00 -0.00000000000E+00 -0.34089014431E+03  0.34089014431E+03  0.00000000000E+00 0.  1.
         25    1    1    2    0    0 -0.79280392485E+02 -0.11083337109E+03 -0.12015393481E+02  0.18530727579E+03  0.12500000000E+03 0.  0.
         25    1    1    2    0    0  0.79280392485E+02  0.11083337109E+03 -0.20693736682E+03  0.27752025253E+03  0.12500000000E+03 0.  0.
</event>
<event>
 4    0  0.2182372E-002  0.2658936E+03  0.7546771E-02  0.1103653E+00
         21   -1    0    0  502  501  0.00000000000E+00  0.00000000000E+00  0.37511392632E+03  0.37511392632E+03  0.00000000000E+00 0.  1.
         21   -1    0    0  501  502 -0.00000000000E+00 -0.00000000000E+00 -0.18847446085E+03  0.18847446085E+03  0.00000000000E+00 0.  1.
         25    1    1    2    0    0 -0.67736830915E+02  0.95346365480E+02 -0.12230526986E+03  0.21038723038E+03  0.12500000000E+03 0.  0.
         25    1    1    2    0    0  0.67736830915E+02 -0.95346365480E+02  0.30894473533E+03  0.35320115679E+03  0.12500000000E+03 0.  0.
</event>
<event>
 4    0  0.2182372E-002  0.1684685E+03  0.7546771E-02  0.1179454E+00
         21   -1    0    0  502  501  0.00000000000E+00  0.00000000000E+00  0.19308205374E+03  0.19308205374E+03  0.00000000000E+00 0. -1.
         21   -1    0    0  501  502 -0.00000000000E+00 -0.00000000000E+00 -0.14699265622E+03  0.14699265622E+03  0.00000000000E+00 0. -1.
         25    1    1    2    0    0 -0.45536235014E+02  0.36444516306E+02  0.12066608425E+03  0.18326771499E+03  0.12500000000E+03 0.  0.
         25    1    1    2    0    0  0.45536235014E+02 -0.36444516306E+02 -0.74576686733E+02  0.15680699497E+03  0.12500000000E+03 0.  0.
</event>
<event>
 4    0  0.2182372E-002  0.2555558E+03  0.7546771E-02  0.1109843E+00
         21   -1    0    0  502  501  0.00000000000E+00  0.00000000000E+00  0.96166268165E+02  0.96166268165E+02  0.00000000000E+00 0.  1.
         21   -1    0    0  501  502 -0.00000000000E+00 -0.00000000000E+00 -0.67912345073E+03  0.67912345073E+03  0.00000000000E+00 0.  1.
         25    1    1    2    0    0 -0.20076239385E+03  0.93392929966E+02 -0.33032910835E+03  0.41685740725E+03  0.12500000000E+03 0.  0.
         25    1    1    2    0    0  0.20076239385E+03 -0.93392929966E+02 -0.25262807422E+03  0.35843231165E+03  0.12500000000E+03 0.  0.
</event>
<event>
 4    0  0.2182372E-002  0.2264712E+03  0.7546771E-02  0.1129148E+00
         21   -1    0    0  502  501  0.00000000000E+00  0.00000000000E+00  0.19501202719E+03  0.19501202719E+03  0.00000000000E+00 0.  1.
         21   -1    0    0  501  502 -0.00000000000E+00 -0.00000000000E+00 -0.26300527143E+03  0.26300527143E+03  0.00000000000E+00 0.  1.
         25    1    1    2    0    0  0.17747194995E+02 -0.18790176922E+03 -0.40561927837E+02  0.22998327721E+03  0.12500000000E+03 0.  0.
         25    1    1    2    0    0 -0.17747194995E+02  0.18790176922E+03 -0.27431316402E+02  0.22803402142E+03  0.12500000000E+03 0.  0.
</event>
<event>
 4    0  0.2182372E-002  0.1701351E+03  0.7546771E-02  0.1177707E+00
         21   -1    0    0  502  501  0.00000000000E+00  0.00000000000E+00  0.87397154188E+02  0.87397154188E+02  0.00000000000E+00 0.  1.
         21   -1    0    0  501  502 -0.00000000000E+00 -0.00000000000E+00 -0.33120006552E+03  0.33120006552E+03  0.00000000000E+00 0.  1.
         25    1    1    2    0    0  0.79983973308E+02 -0.66256874992E+02 -0.59980758729E+02  0.17323423705E+03  0.12500000000E+03 0.  0.
         25    1    1    2    0    0 -0.79983973308E+02  0.66256874992E+02 -0.18382215260E+03  0.24536298266E+03  0.12500000000E+03 0.  0.
</event>
<event>
 4    0  0.2182372E-002  0.2160308E+03  0.7546771E-02  0.1136877E+00
         21   -1    0    0  502  501  0.00000000000E+00  0.00000000000E+00  0.28287880494E+02  0.28287880494E+02  0.00000000000E+00 0. -1.
         21   -1    0    0  501  502 -0.00000000000E+00 -0.00000000000E+00 -0.16497992231E+04  0.16497992231E+04  0.00000000000E+00 0. -1.
         25    1    1    2    0    0  0.52491316274E+02  0.10697722817E+03 -0.13148391049E+04  0.13261320965E+04  0.12500000000E+03 0.  0.
         25    1    1    2    0    0 -0.52491316274E+02 -0.10697722817E+03 -0.30667223772E+03  0.35195500709E+03  0.12500000000E+03 0.  0.
</event>
<event>
 4    0  0.2182372E-002  0.2013567E+03  0.7546771E-02  0.1148599E+00
         21   -1    0    0  502  501  0.00000000000E+00  0.00000000000E+00  0.11850786097E+03  0.11850786097E+03  0.00000000000E+00 0.  1.
         21   -1    0    0  501  502 -0.00000000000E+00 -0.00000000000E+00 -0.34212513251E+03  0.34212513251E+03  0.00000000000E+00 0.  1.
         25    1    1    2    0    0  0.17384558523E+02 -0.13163524516E+03 -0.14150919031E+02  0.18290792534E+03  0.12500000000E+03 0.  0.
         25    1    1    2    0    0 -0.17384558523E+02  0.13163524516E+03 -0.20946635251E+03  0.27772506814E+03  0.12500000000E+03 0.  0.
</event>
<event>
 4    0  0.2182372E-002  0.4059524E+03  0.7546771E-02  0.1041738E+00
         21   -1    0    0  502  501  0.00000000000E+00  0.00000000000E+00  0.42552339709E+03  0.42552339709E+03  0.00000000000E+00 0.  1.
         21   -1    0    0  501  502 -0.00000000000E+00 -0.00000000000E+00 -0.38728157314E+03  0.38728157314E+03  0.00000000000E+00 0.  1.
         25    1    1    2    0    0  0.41300487576E+02 -0.38181626370E+03  0.60190546665E+02  0.40833477859E+03  0.12500000000E+03 0.  0.
         25    1    1    2    0    0 -0.41300487576E+02  0.38181626370E+03 -0.21948722715E+02  0.40447019164E+03  0.12500000000E+03 0.  0.
</event>
<event>
 4    0  0.2182372E-002  0.3121541E+03  0.7546771E-02  0.1079318E+00
         21   -1    0    0  502  501  0.00000000000E+00  0.00000000000E+00  0.72300310917E+03  0.72300310917E+03  0.00000000000E+00 0. -1.
         21   -1    0    0  501  502 -0.00000000000E+00 -0.00000000000E+00 -0.13477146103E+03  0.13477146103E+03  0.00000000000E+00 0. -1.
         25    1    1    2    0    0 -0.12124819191E+03 -0.21966382975E+03  0.10541820693E+03  0.29948509228E+03  0.12500000000E+03 0.  0.
         25    1    1    2    0    0  0.12124819191E+03  0.21966382975E+03  0.48281344121E+03  0.55828947792E+03  0.12500000000E+03 0.  0.
</event>
<event>
 4    0  0.2182372E-002  0.1411947E+03  0.7546771E-02  0.1211730E+00
         21   -1    0    0  502  501  0.00000000000E+00  0.00000000000E+00  0.59798145922E+02  0.59798145922E+02  0.00000000000E+00 0.  1.
         21   -1    0    0  501  502 -0.00000000000E+00 -0.00000000000E+00 -0.33338720023E+03  0.33338720023E+03  0.00000000000E+00 0.  1.
         25    1    1    2    0    0 -0.48822379537E+02 -0.43684117280E+02 -0.14286518164E+03  0.20081679952E+03  0.12500000000E+03 0.  0.
         25    1    1    2    0    0  0.48822379537E+02  0.43684117280E+02 -0.13072387267E+03  0.19236854663E+03  0.12500000000E+03 0.  0.
</event>
<event>
 4    0  0.2182372E-002  0.3003971E+03  0.7546771E-02  0.1085042E+00
         21   -1    0    0  502  501  0.00000000000E+00  0.00000000000E+00  0.11923203222E+03  0.11923203222E+03  0.00000000000E+00 0. -1.
         21   -1    0    0  501  502 -0.00000000000E+00 -0.00000000000E+00 -0.75683010586E+03  0.75683010586E+03  0.00000000000E+00 0. -1.
         25    1    1    2    0    0 -0.21306663858E+03 -0.84584940704E+01 -0.56773474447E+03  0.61920649114E+03  0.12500000000E+03 0.  0.
         25    1    1    2    0    0  0.21306663858E+03  0.84584940704E+01 -0.69863329175E+02  0.25685564693E+03  0.12500000000E+03 0.  0.
</event>
<event>
 4    0  0.2182372E-002  0.2890431E+03  0.7546771E-02  0.1090850E+00
         21   -1    0    0  502  501  0.00000000000E+00  0.00000000000E+00  0.47400391922E+03  0.47400391922E+03  0.00000000000E+00 0. -1.
         21   -1    0    0  501  502 -0.00000000000E+00 -0.00000000000E+00 -0.17625579899E+03  0.17625579899E+03  0.00000000000E+00 0. -1.
         25    1    1    2    0    0  0.20634535817E+03  0.89664729815E+01 -0.29910169869E+02  0.24326615617E+03  0.12500000000E+03 0.  0.
         25    1    1    2    0    0 -0.20634535817E+03 -0.89664729815E+01  0.32765829010E+03  0.40699356205E+03  0.12500000000E+03 0.  0.
</event>
<event>
 4    0  0.2182372E-002  0.2724762E+03  0.7546771E-02  0.1099871E+00
         21   -1    0    0  502  501  0.00000000000E+00  0.00000000000E+00  0.36464824815E+03  0.36464824815E+03  0.00000000000E+00 0.  1.
         21   -1    0    0  501  502 -0.00000000000E+00 -0.00000000000E+00 -0.20360248927E+03  0.20360248927E+03  0.00000000000E+00 0.  1.
         25    1    1    2    0    0  0.19907695498E+03  0.20138654260E+02 -0.61617351727E+02  0.24384195175E+03  0.12500000000E+03 0.  0.
         25    1    1    2    0    0 -0.19907695498E+03 -0.20138654260E+02  0.22266311061E+03  0.32440878568E+03  0.12500000000E+03 0.  0.
</event>
<event>
 4    0  0.2182372E-002  0.1828416E+03  0.7546771E-02  0.1165081E+00
         21   -1    0    0  502  501  0.00000000000E+00  0.00000000000E+00  0.23577238520E+03  0.23577238520E+03  0.00000000000E+00 0. -1.
         21   -1    0    0  501  502 -0.00000000000E+00 -0.00000000000E+00 -0.14179373944E+03  0.14179373944E+03  0.00000000000E+00 0. -1.
         25    1    1    2    0    0  0.12289804303E+03  0.50156325915E+02  0.32890483321E+02  0.18527377014E+03  0.12500000000E+03 0.  0.
         25    1    1    2    0    0 -0.12289804303E+03 -0.50156325915E+02  0.61088162437E+02  0.19229235450E+03  0.12500000000E+03 0.  0.
</event>
<event>
 4    0  0.2182372E-002  0.2707920E+03  0.7546771E-02  0.1100827E+00
         21   -1    0    0  502  501  0.00000000000E+00  0.00000000000E+00  0.37187033396E+03  0.37187033396E+03  0.00000000000E+00 0. -1.
         21   -1    0    0  501  502 -0.00000000000E+00 -0.00000000000E+00 -0.19718784386E+03  0.19718784386E+03  0.00000000000E+00 0. -1.
         25    1    1    2    0    0 -0.14401458729E+03 -0.19072622249E+03  0.11279007430E+03  0.29234105794E+03  0.12500000000E+03 0.  0.
         25    1    1    2    0    0  0.14401458729E+03  0.19072622249E+03  0.61892415800E+02  0.27671711987E+03  0.12500000000E+03 0.  0.
</event>
<event>
 4    0  0.2182372E-002  0.2198269E+03  0.7546771E-02  0.1134012E+00
         21   -1    0    0  502  501  0.00000000000E+00  0.00000000000E+00  0.18896245199E+03  0.18896245199E+03  0.00000000000E+00 0.  1.
         21   -1    0    0  501  502 -0.00000000000E+00 -0.00000000000E+00 -0.25573258265E+03  0.25573258265E+03  0.00000000000E+00 0.  1.
         25    1    1    2    0    0 -0.11042919726E+03  0.13366211764E+03 -0.85342224572E+02  0.23014878795E+03  0.12500000000E+03 0.  0.
         25    1    1    2    0    0  0.11042919726E+03 -0.13366211764E+03  0.18572093909E+02  0.21454624670E+03  0.12500000000E+03 0.  0.
</event>
<event>
 4    0  0.2182372E-002  0.4037082E+03  0.7546771E-02  0.1042503E+00
         21   -1    0    0  502  501  0.00000000000E+00  0.00000000000E+00  0.14944366415E+03  0.14944366415E+03  0.00000000000E+00 0. -1.
         21   -1    0    0  501  502 -0.00000000000E+00 -0.00000000000E+00 -0.10905800863E+04  0.10905800863E+04  0.00000000000E+00 0.  1.
         25    1    1    2    0    0 -0.36452599416E+02 -0.36640834385E+03 -0.30394064228E+03  0.49354714109E+03  0.12500000000E+03 0.  0.
         25    1    1    2    0    0  0.36452599416E+02  0.36640834385E+03 -0.63719577984E+03  0.74647660934E+03  0.12500000000E+03 0.  0.
</event>
<event>
 4    0  0.2182372E-002  0.2175335E+03  0.7546771E-02  0.1135735E+00
         21   -1    0    0  502  501  0.00000000000E+00  0.00000000000E+00  0.67293122401E+02  0.67293122401E+02  0.00000000000E+00 0. -1.
         21   -1    0    0  501  502 -0.00000000000E+00 -0.00000000000E+00 -0.70320444917E+03  0.70320444917E+03  0.00000000000E+00 0. -1.
         25    1    1    2    0    0  0.16965880781E+03  0.44378658946E+00 -0.41351533616E+03  0.46411662463E+03  0.12500000000E+03 0.  0.
         25    1    1    2    0    0 -0.16965880781E+03 -0.44378658946E+00 -0.22239599060E+03  0.30638094694E+03  0.12500000000E+03 0.  0.
</event>
<event>
 4    0  0.2182372E-002  0.2058415E+03  0.7546771E-02  0.1144902E+00
         21   -1    0    0  502  501  0.00000000000E+00  0.00000000000E+00  0.10395950650E+03  0.10395950650E+03  0.00000000000E+00 0.  1.
         21   -1    0    0  501  502 -0.00000000000E+00 -0.00000000000E+00 -0.40756933251E+03  0.40756933251E+03  0.00000000000E+00 0.  1.
         25    1    1    2    0    0 -0.81027967666E+02 -0.23312356447E+02  0.22312268328E+02  0.15241992923E+03  0.12500000000E+03 0.  0.
         25    1    1    2    0    0  0.81027967666E+02  0.23312356447E+02 -0.32592209434E+03  0.35910890978E+03  0.12500000000E+03 0.  0.
</event>
<event>
 4    0  0.2182372E-002  0.1812280E+03  0.7546771E-02  0.1166620E+00
         21   -1    0    0  502  501  0.00000000000E+00  0.00000000000E+00  0.11399454440E+03  0.11399454440E+03  0.00000000000E+00 0. -1.
         21   -1    0    0  501  502 -0.00000000000E+00 -0.00000000000E+00 -0.28811553720E+03  0.28811553720E+03  0.00000000000E+00 0. -1.
         25    1    1    2    0    0  0.64887981291E+02  0.10409349986E+03 -0.35348806250E+02  0.17866293665E+03  0.12500000000E+03 0.  0.
         25    1    1    2    0    0 -0.64887981291E+02 -0.10409349986E+03 -0.13877218655E+03  0.22344714495E+03  0.12500000000E+03 0.  0.
</event>
<event>
 4    0  0.2182372E-002  0.2567252E+03  0.7546771E-02  0.1109127E+00
         21   -1    0    0  502  501  0.00000000000E+00  0.00000000000E+00  0.26017229054E+03  0.26017229054E+03  0.00000000000E+00 0. -1.
         21   -1    0    0  501  502 -0.00000000000E+00 -0.00000000000E+00 -0.25332374721E+03  0.25332374721E+03  0.00000000000E+00 0. -1.
         25    1    1    2    0    0 -0.29951141885E+02  0.18205400560E+03  0.13088005745E+03  0.25844790828E+03  0.12500000000E+03 0.  0.
         25    1    1    2    0    0  0.29951141885E+02 -0.18205400560E+03 -0.12403151411E+03  0.25504812948E+03  0.12500000000E+03 0.  0.
</event>
<event>
 4    0  0.2182372E-002  0.3554552E+03  0.7546771E-02  0.1060398E+00
         21   -1    0    0  502  501  0.00000000000E+00  0.00000000000E+00  0.88003516801E+02  0.88003516801E+02  0.00000000000E+00 0. -1.
         21   -1    0    0  501  502 -0.00000000000E+00 -0.00000000000E+00 -0.14357201813E+04  0.14357201813E+04  0.00000000000E+00 0. -1.
         25    1    1    2    0    0  0.43296155768E+02 -0.17207116217E+03 -0.70514894729E+02  0.22821128880E+03  0.12500000000E+03 0.  0.
         25    1    1    2    0    0 -0.43296155768E+02  0.17207116217E+03 -0.12772017698E+04  0.12955124093E+04  0.12500000000E+03 0.  0.
</event>
<event>
 4    0  0.2182372E-002  0.1917759E+03  0.7546771E-02  0.1156869E+00
         21   -1    0    0  502  501  0.00000000000E+00  0.00000000000E+00  0.13532374070E+04  0.13532374070E+04  0.00000000000E+00 0.  1.
         21   -1    0    0  501  502 -0.00000000000E+00 -0.00000000000E+00 -0.27177774407E+02  0.27177774407E+02  0.00000000000E+00 0.  1.
         25    1    1    2    0    0  0.98536790703E+02  0.66246531485E+02  0.36073508959E+03  0.39981609136E+03  0.12500000000E+03 0.  0.
         25    1    1    2    0    0 -0.98536790703E+02 -0.66246531485E+02  0.96532454297E+03  0.98059909000E+03  0.12500000000E+03 0.  0.
</event>
<event>
 4    0  0.2182372E-002  0.2832650E+03  0.7546771E-02  0.1093919E+00
         21   -1    0    0  502  501  0.00000000000E+00  0.00000000000E+00  0.52233292155E+02  0.52233292155E+02  0.00000000000E+00 0.  1.
         21   -1    0    0  501  502 -0.00000000000E+00 -0.00000000000E+00 -0.15361673616E+04  0.15361673616E+04  0.00000000000E+00 0.  1.
         25    1    1    2    0    0 -0.20544463151E+03 -0.14516941018E+03 -0.84431008847E+03  0.88981244078E+03  0.12500000000E+03 0.  0.
         25    1    1    2    0    0  0.20544463151E+03  0.14516941018E+03 -0.63962398094E+03  0.69858821294E+03  0.12500000000E+03 0.  0.
</event>
<event>
 4    0  0.2182372E-002  0.2434625E+03  0.7546771E-02  0.1117507E+00
         21   -1    0    0  502  501  0.00000000000E+00  0.00000000000E+00  0.45833517890E+03  0.45833517890E+03  0.00000000000E+00 0.  1.
         21   -1    0    0  501  502 -0.00000000000E+00 -0.00000000000E+00 -0.12932454447E+03  0.12932454447E+03  0.00000000000E+00 0.  1.
         25    1    1    2    0    0  0.13969101554E+03 -0.16445785002E+02  0.35094745362E+03  0.39821245444E+03  0.12500000000E+03 0.  0.
         25    1    1    2    0    0 -0.13969101554E+03  0.16445785002E+02 -0.21936819185E+02  0.18944726893E+03  0.12500000000E+03 0.  0.
</event>
<event>
 4    0  0.2182372E-002  0.1976401E+03  0.7546771E-02  0.1151745E+00
         21   -1    0    0  502  501  0.00000000000E+00  0.00000000000E+00  0.10141982497E+03  0.10141982497E+03  0.00000000000E+00 0. -1.
         21   -1    0    0  501  502 -0.00000000000E+00 -0.00000000000E+00 -0.38514763762E+03  0.38514763762E+03  0.00000000000E+00 0. -1.
         25    1    1    2    0    0 -0.13520255653E+03  0.14386227429E+02 -0.22846766132E+03  0.29378421861E+03  0.12500000000E+03 0.  0.
         25    1    1    2    0    0  0.13520255653E+03 -0.14386227429E+02 -0.55260151327E+02  0.19278324397E+03  0.12500000000E+03 0.  0.
</event>
<event>
 4    0  0.2182372E-002  0.2742068E+03  0.7546771E-02  0.1098896E+00
         21   -1    0    0  502  501  0.00000000000E+00  0.00000000000E+00  0.11554158722E+04  0.11554158722E+04  0.00000000000E+00 0. -1.
         21   -1    0    0  501  502 -0.00000000000E+00 -0.00000000000E+00 -0.65075612386E+02  0.65075612386E+02  0.00000000000E+00 0. -1.
         25    1    1    2    0    0  0.18329549388E+03 -0.15991168600E+03  0.58942390387E+03  0.64978036585E+03  0.12500000000E+03 0.  0.
         25    1    1    2    0    0 -0.18329549388E+03  0.15991168600E+03  0.50091635595E+03  0.57071111874E+03  0.12500000000E+03 0.  0.
</event>
<event>
 4    0  0.2182372E-002  0.2046745E+03  0.7546771E-02  0.1145854E+00
         21   -1    0    0  502  501  0.00000000000E+00  0.00000000000E+00  0.43047585872E+03  0.43047585872E+03  0.00000000000E+00 0.  1.
         21   -1    0    0  501  502 -0.00000000000E+00 -0.00000000000E+00 -0.97314722998E+02  0.97314722998E+02  0.00000000000E+00 0.  1.
         25    1    1    2    0    0 -0.60655247793E+02 -0.38043797198E+02  0.35404678563E+03  0.38223097207E+03  0.12500000000E+03 0.  0.
         25    1    1    2    0    0  0.60655247793E+02  0.38043797198E+02 -0.20885649910E+02  0.14555960965E+03  0.12500000000E+03 0.  0.
</event>
<event>
 4    0  0.2182372E-002  0.1705222E+03  0.7546771E-02  0.1177304E+00
         21   -1    0    0  502  501  0.00000000000E+00  0.00000000000E+00  0.10051015438E+03  0.10051015438E+03  0.00000000000E+00 0. -1.
         21   -1    0    0  501  502 -0.00000000000E+00 -0.00000000000E+00 -0.28930228449E+03  0.28930228449E+03  0.00000000000E+00 0. -1.
         25    1    1    2    0    0 -0.44653124538E+02  0.49114947813E+02  0.14318665486E+02  0.14225401158E+03  0.12500000000E+03 0.  0.
         25    1    1    2    0    0  0.44653124538E+02 -0.49114947813E+02 -0.20311079560E+03  0.24755842728E+03  0.12500000000E+03 0.  0.
</event>
<event>
 4    0  0.2182372E-002  0.1448361E+03  0.7546771E-02  0.1206966E+00
         21   -1    0    0  502  501  0.00000000000E+00  0.00000000000E+00  0.46084644361E+03  0.46084644361E+03  0.00000000000E+00 0.  1.
         21   -1    0    0  501  502 -0.00000000000E+00 -0.00000000000E+00 -0.45519489758E+02  0.45519489758E+02  0.00000000000E+00 0.  1.
         25    1    1    2    0    0  0.39837126866E+02  0.64048660998E+01  0.10098169512E+03  0.16568138621E+03  0.12500000000E+03 0.  0.
         25    1    1    2    0    0 -0.39837126866E+02 -0.64048660998E+01  0.31434525873E+03  0.34068454716E+03  0.12500000000E+03 0.  0.
</event>
<event>
 4    0  0.2182372E-002  0.1676281E+03  0.7546771E-02  0.1180344E+00
         21   -1    0    0  502  501  0.00000000000E+00  0.00000000000E+00  0.15301465675E+03  0.15301465675E+03  0.00000000000E+00 0. -1.
         21   -1    0    0  501  502 -0.00000000000E+00 -0.00000000000E+00 -0.18363718525E+03  0.18363718525E+03  0.00000000000E+00 0. -1.
         25    1    1    2    0    0 -0.32541590411E+02  0.10018810331E+03  0.21958870527E+02  0.16493575460E+03  0.12500000000E+03 0.  0.
         25    1    1    2    0    0  0.32541590411E+02 -0.10018810331E+03 -0.52581399025E+02  0.17171608741E+03  0.12500000000E+03 0.  0.
</event>
<event>
 4    0  0.2182372E-002  0.1841587E+03  0.7546771E-02  0.1163838E+00
         21   -1    0    0  502  501  0.00000000000E+00  0.00000000000E+00  0.22471959382E+03  0.22471959382E+03  0.00000000000E+00 0.  1.
         21   -1    0    0  501  502 -0.00000000000E+00 -0.00000000000E+00 -0.15091891425E+03  0.15091891425E+03  0.00000000000E+00 0.  1.
         25    1    1    2    0    0 -0.12071409908E+03 -0.58583216030E+02  0.54134456652E+02  0.19120519426E+03  0.12500000000E+03 0.  0.
         25    1    1    2    0    0  0.12071409908E+03  0.58583216030E+02  0.19666222915E+02  0.18443331380E+03  0.12500000000E+03 0.  0.
</event>
<event>
 4    0  0.2182372E-002  0.1947608E+03  0.7546771E-02  0.1154236E+00
         21   -1    0    0  502  501  0.00000000000E+00  0.00000000000E+00  0.40616611626E+03  0.40616611626E+03  0.00000000000E+00 0. -1.
         21   -1    0    0  501  502 -0.00000000000E+00 -0.00000000000E+00 -0.93389779955E+02  0.93389779955E+02  0.00000000000E+00 0. -1.
         25    1    1    2    0    0  0.51118960529E+02  0.60341368232E+02  0.31887732691E+03  0.35151383823E+03  0.12500000000E+03 0.  0.
         25    1    1    2    0    0 -0.51118960529E+02 -0.60341368232E+02 -0.61009906115E+01  0.14804205798E+03  0.12500000000E+03 0.  0.
</event>
<event>
 4    0  0.2182372E-002  0.1927982E+03  0.7546771E-02  0.1155961E+00
         21   -1    0    0  502  501  0.00000000000E+00  0.00000000000E+00  0.33881034149E+02  0.33881034149E+02  0.00000000000E+00 0. -1.
         21   -1    0    0  501  502 -0.00000000000E+00 -0.00000000000E+00 -0.10971078277E+04  0.10971078277E+04  0.00000000000E+00 0. -1.
         25    1    1    2    0    0  0.14344927816E+03  0.30148255994E+02 -0.50898198536E+03  0.54421895792E+03  0.12500000000E+03 0.  0.
         25    1    1    2    0    0 -0.14344927816E+03 -0.30148255994E+02 -0.55424480817E+03  0.58676990390E+03  0.12500000000E+03 0.  0.
</event>
<event>
 4    0  0.2182372E-002  0.1737423E+03  0.7546771E-02  0.1174000E+00
         21   -1    0    0  502  501  0.00000000000E+00  0.00000000000E+00  0.17149963919E+03  0.17149963919E+03  0.00000000000E+00 0. -1.
         21   -1    0    0  501  502 -0.00000000000E+00 -0.00000000000E+00 -0.17601435751E+03  0.17601435751E+03  0.00000000000E+00 0. -1.
         25    1    1    2    0    0 -0.40796088269E+02 -0.86372219377E+02  0.71484321698E+02  0.17279898538E+03  0.12500000000E+03 0.  0.
         25    1    1    2    0    0  0.40796088269E+02  0.86372219377E+02 -0.75999040012E+02  0.17471501132E+03  0.12500000000E+03 0.  0.
</event>
<event>
 4    0  0.2182372E-002  0.2593105E+03  0.7546771E-02  0.1107558E+00
         21   -1    0    0  502  501  0.00000000000E+00  0.00000000000E+00  0.11028754139E+03  0.11028754139E+03  0.00000000000E+00 0.  1.
         21   -1    0    0  501  502 -0.00000000000E+00 -0.00000000000E+00 -0.60969676591E+03  0.60969676591E+03  0.00000000000E+00 0.  1.
         25    1    1    2    0    0 -0.15536660881E+03  0.14247112195E+03 -0.13206875309E+03  0.27839532910E+03  0.12500000000E+03 0.  0.
         25    1    1    2    0    0  0.15536660881E+03 -0.14247112195E+03 -0.36734047142E+03  0.44158897820E+03  0.12500000000E+03 0.  0.
</event>
<event>
 4    0  0.2182372E-002  0.1772296E+03  0.7546771E-02  0.1170512E+00
         21   -1    0    0  502  501  0.00000000000E+00  0.00000000000E+00  0.21945079182E+02  0.21945079182E+02  0.00000000000E+00 0.  1.
         21   -1    0    0  501  502 -0.00000000000E+00 -0.00000000000E+00 -0.14313152382E+04  0.14313152382E+04  0.00000000000E+00 0.  1.
         25    1    1    2    0    0  0.98145083296E+02 -0.38146181738E+02 -0.42367520768E+03  0.45410711309E+03  0.12500000000E+03 0.  0.
         25    1    1    2    0    0 -0.98145083296E+02  0.38146181738E+02 -0.98569495136E+03  0.99915320432E+03  0.12500000000E+03 0.  0.
</event>
<event>
 4    0  0.2182372E-002  0.2024600E+03  0.7546771E-02  0.1147680E+00
         21   -1    0    0  502  501  0.00000000000E+00  0.00000000000E+00  0.22965110447E+03  0.22965110447E+03  0.00000000000E+00 0. -1.
         21   -1    0    0  501  502 -0.00000000000E+00 -0.00000000000E+00 -0.17848838795E+03  0.17848838795E+03  0.00000000000E+00 0. -1.
         25    1    1    2    0    0  0.96585680011E+02  0.12066264367E+03  0.64315905873E+02  0.20892535248E+03  0.12500000000E+03 0.  0.
         25    1    1    2    0    0 -0.96585680011E+02 -0.12066264367E+03 -0.13153189350E+02  0.19921413994E+03  0.12500000000E+03 0.  0.
</event>
<event>
 4    0  0.2182372E-002  0.1865780E+03  0.7546771E-02  0.1161584E+00
         21   -1    0    0  502  501  0.00000000000E+00  0.00000000000E+00  0.11123907993E+04  0.11123907993E+04  0.00000000000E+00 0. -1.
         21   -1    0    0  501  502 -0.00000000000E+00 -0.00000000000E+00 -0.31294179246E+02  0.31294179246E+02  0.00000000000E+00 0. -1.
         25    1    1    2    0    0 -0.15233886615E+02 -0.12468437770E+03  0.71947353898E+03  0.74097600409E+03  0.12500000000E+03 0.  0.
         25    1    1    2    0    0  0.15233886615E+02  0.12468437770E+03  0.36162308107E+03  0.40270897445E+03  0.12500000000E+03 0.  0.
</event>
<event>
 4    0  0.2182372E-002  0.1764224E+03  0.7546771E-02  0.1171311E+00
         21   -1    0    0  502  501  0.00000000000E+00  0.00000000000E+00  0.87621103614E+03  0.87621103614E+03  0.00000000000E+00 0.  1.
         21   -1    0    0  501  502 -0.00000000000E+00 -0.00000000000E+00 -0.35522090433E+02  0.35522090433E+02  0.00000000000E+00 0.  1.
         25    1    1    2    0    0 -0.11057196873E+03 -0.34542531451E+02  0.30248402760E+03  0.34719005415E+03  0.12500000000E+03 0.  0.
         25    1    1    2    0    0  0.11057196873E+03  0.34542531451E+02  0.53820491811E+03  0.56454307242E+03  0.12500000000E+03 0.  0.
</event>
<event>
 4    0  0.2182372E-002  0.2402953E+03  0.7546771E-02  0.1119596E+00
         21   -1    0    0  502  501  0.00000000000E+00  0.00000000000E+00  0.20440726894E+02  0.20440726894E+02  0.00000000000E+00 0.  1.
         21   -1    0    0  501  502 -0.00000000000E+00 -0.00000000000E+00 -0.28248433679E+04  0.28248433679E+04  0.00000000000E+00 0.  1.
         25    1    1    2    0    0  0.29251239285E+02  0.15983605922E+03 -0.21443464436E+04  0.21541239219E+04  0.12500000000E+03 0.  0.
         25    1    1    2    0    0 -0.29251239285E+02 -0.15983605922E+03 -0.66005619738E+03  0.69116017284E+03  0.12500000000E+03 0.  0.
</event>
<event>
 4    0  0.2182372E-002  0.1407481E+03  0.7546771E-02  0.1212326E+00
         21   -1    0    0  502  501  0.00000000000E+00  0.00000000000E+00  0.88102770156E+02  0.88102770156E+02  0.00000000000E+00 0. -1.
         21   -1    0    0  501  502 -0.00000000000E+00 -0.00000000000E+00 -0.22485136027E+03  0.22485136027E+03  0.00000000000E+00 0. -1.
         25    1    1    2    0    0 -0.42895318724E+02 -0.44606165605E+02 -0.47418146945E+02  0.14732005647E+03  0.12500000000E+03 0.  0.
         25    1    1    2    0    0  0.42895318724E+02  0.44606165605E+02 -0.89330443169E+02  0.16563407396E+03  0.12500000000E+03 0.  0.
</event>
<event>
 4    0  0.2182372E-002  0.3833560E+03  0.7546771E-02  0.1049700E+00
         21   -1    0    0  502  501  0.00000000000E+00  0.00000000000E+00  0.15295330688E+04  0.15295330688E+04  0.00000000000E+00 0. -1.
         21   -1    0    0  501  502 -0.00000000000E+00 -0.00000000000E+00 -0.96082796228E+02  0.96082796228E+02  0.00000000000E+00 0. -1.
         25    1    1    2    0    0  0.18976513356E+03  0.21907396891E+03  0.25544380129E+03  0.40605510142E+03  0.12500000000E+03 0.  0.
         25    1    1    2    0    0 -0.18976513356E+03 -0.21907396891E+03  0.11780064713E+04  0.12195607636E+04  0.12500000000E+03 0.  0.
</event>
<event>
 4    0  0.2182372E-002  0.2322814E+03  0.7546771E-02  0.1125044E+00
         21   -1    0    0  502  501  0.00000000000E+00  0.00000000000E+00  0.83834206959E+03  0.83834206959E+03  0.00000000000E+00 0. -1.
         21   -1    0    0  501  502 -0.00000000000E+00 -0.00000000000E+00 -0.64358726421E+02  0.64358726421E+02  0.00000000000E+00 0. -1.
         25    1    1    2    0    0 -0.30357421024E+02  0.15521796561E+03  0.61121314802E+03  0.64359979970E+03  0.12500000000E+03 0.  0.
         25    1    1    2    0    0  0.30357421024E+02 -0.15521796561E+03  0.16277019515E+03  0.25910099631E+03  0.12500000000E+03 0.  0.
</event>
<event>
 4    0  0.2182372E-002  0.2784662E+03  0.7546771E-02  0.1096530E+00
         21   -1    0    0  502  501  0.00000000000E+00  0.00000000000E+00  0.39116935997E+03  0.39116935997E+03  0.00000000000E+00 0.  1.
         21   -1    0    0  501  502 -0.00000000000E+00 -0.00000000000E+00 -0.19823488902E+03  0.19823488902E+03  0.00000000000E+00 0.  1.
         25    1    1    2    0    0 -0.80814558871E+02  0.89756977532E+02 -0.13377454535E+03  0.21933521588E+03  0.12500000000E+03 0.  0.
         25    1    1    2    0    0  0.80814558871E+02 -0.89756977532E+02  0.32670901629E+03  0.37006903311E+03  0.12500000000E+03 0.  0.
</event>
<event>
 4    0  0.2182372E-002  0.4614926E+03  0.7546771E-02  0.1024349E+00
         21   -1    0    0  502  501  0.00000000000E+00  0.00000000000E+00  0.51284845672E+03  0.51284845672E+03  0.00000000000E+00 0. -1.
         21   -1    0    0  501  502 -0.00000000000E+00 -0.00000000000E+00 -0.41527943417E+03  0.41527943417E+03  0.00000000000E+00 0. -1.
         25    1    1    2    0    0 -0.27887154902E+03  0.27297375131E+03  0.26225584209E+03  0.48650502204E+03  0.12500000000E+03 0.  0.
         25    1    1    2    0    0  0.27887154902E+03 -0.27297375131E+03 -0.16468681954E+03  0.44162286885E+03  0.12500000000E+03 0.  0.
</event>
<event>
 4    0  0.2182372E-002  0.1644164E+03  0.7546771E-02  0.1183799E+00
         21   -1    0    0  502  501  0.00000000000E+00  0.00000000000E+00  0.38233687182E+03  0.38233687182E+03  0.00000000000E+00 0. -1.
         21   -1    0    0  501  502 -0.00000000000E+00 -0.00000000000E+00 -0.70704056534E+02  0.70704056534E+02  0.00000000000E+00 0. -1.
         25    1    1    2    0    0  0.89023226478E+02  0.13659096026E+02  0.76719432580E+02  0.17211210618E+03  0.12500000000E+03 0.  0.
         25    1    1    2    0    0 -0.89023226478E+02 -0.13659096026E+02  0.23491338271E+03  0.28092882218E+03  0.12500000000E+03 0.  0.
</event>
<event>
 4    0  0.2182372E-002  0.2787584E+03  0.7546771E-02  0.1096369E+00
         21   -1    0    0  502  501  0.00000000000E+00  0.00000000000E+00  0.21343956420E+03  0.21343956420E+03  0.00000000000E+00 0.  1.
         21   -1    0    0  501  502 -0.00000000000E+00 -0.00000000000E+00 -0.36406676406E+03  0.36406676406E+03  0.00000000000E+00 0.  1.
         25    1    1    2    0    0  0.24113050233E+02  0.88421226685E+02  0.16468631587E+03  0.22615555521E+03  0.12500000000E+03 0.  0.
         25    1    1    2    0    0 -0.24113050233E+02 -0.88421226685E+02 -0.31531351573E+03  0.35135077305E+03  0.12500000000E+03 0.  0.
</event>
<event>
 4    0  0.2182372E-002  0.2875998E+03  0.7546771E-02  0.1091609E+00
         21   -1    0    0  502  501  0.00000000000E+00  0.00000000000E+00  0.13591991460E+03  0.13591991460E+03  0.00000000000E+00 0.  1.
         21   -1    0    0  501  502 -0.00000000000E+00 -0.00000000000E+00 -0.60854694510E+03  0.60854694510E+03  0.00000000000E+00 0.  1.
         25    1    1    2    0    0 -0.18035815773E+03  0.99155020577E+02 -0.32787420069E+02  0.24302427467E+03  0.12500000000E+03 0.  0.
         25    1    1    2    0    0  0.18035815773E+03 -0.99155020577E+02 -0.43983961044E+03  0.50144258503E+03  0.12500000000E+03 0.  0.
</event>
<event>
 4    0  0.2182372E-002  0.1968361E+03  0.7546771E-02  0.1152436E+00
         21   -1    0    0  502  501  0.00000000000E+00  0.00000000000E+00  0.33909732821E+03  0.33909732821E+03  0.00000000000E+00 0. -1.
         21   -1    0    0  501  502 -0.00000000000E+00 -0.00000000000E+00 -0.11425764200E+03  0.11425764200E+03  0.00000000000E+00 0. -1.
         25    1    1    2    0    0 -0.62109024712E+02  0.13503306484E+03  0.14934313929E+03  0.24498945447E+03  0.12500000000E+03 0.  0.
         25    1    1    2    0    0  0.62109024712E+02 -0.13503306484E+03  0.75496546925E+02  0.20836551574E+03  0.12500000000E+03 0.  0.
</event>
<event>
 4    0  0.2182372E-002  0.2524870E+03  0.7546771E-02  0.1111743E+00
         21   -1    0    0  502  501  0.00000000000E+00  0.00000000000E+00  0.11634329941E+03  0.11634329941E+03  0.00000000000E+00 0.  1.
         21   -1    0    0  501  502 -0.00000000000E+00 -0.00000000000E+00 -0.54794461352E+03  0.54794461352E+03  0.00000000000E+00 0.  1.
         25    1    1    2    0    0  0.83403807741E+02 -0.17644853157E+03 -0.84025620917E+02  0.24652704600E+03  0.12500000000E+03 0.  0.
         25    1    1    2    0    0 -0.83403807741E+02  0.17644853157E+03 -0.34757569319E+03  0.41776086693E+03  0.12500000000E+03 0.  0.
</event>
<event>
 4    0  0.2182372E-002  0.3223010E+03  0.7546771E-02  0.1074595E+00
         21   -1    0    0  502  501  0.00000000000E+00  0.00000000000E+00  0.33589536730E+03  0.33589536730E+03  0.00000000000E+00 0.  1.
         21   -1    0    0  501  502 -0.00000000000E+00 -0.00000000000E+00 -0.30925689533E+03  0.30925689533E+03  0.00000000000E+00 0.  1.
         25    1    1    2    0    0 -0.59216278828E+02  0.15281195403E+03 -0.23467218977E+03  0.31233651344E+03  0.12500000000E+03 0.  0.
         25    1    1    2    0    0  0.59216278828E+02 -0.15281195403E+03  0.26131066174E+03  0.33281574920E+03  0.12500000000E+03 0.  0.
</event>
<event>
 4    0  0.2182372E-002  0.7495479E+03  0.7546771E-02  0.9636060E-01
         21   -1    0    0  502  501  0.00000000000E+00  0.00000000000E+00  0.11754073914E+04  0.11754073914E+04  0.00000000000E+00 0. -1.
         21   -1    0    0  501  502 -0.00000000000E+00 -0.00000000000E+00 -0.47798073371E+03  0.47798073371E+03  0.00000000000E+00 0. -1.
         25    1    1    2    0    0  0.57786716394E+03 -0.45299153209E+03  0.25600671481E+03  0.78758886822E+03  0.12500000000E+03 0.  0.
         25    1    1    2    0    0 -0.57786716394E+03  0.45299153209E+03  0.44141994291E+03  0.86579925693E+03  0.12500000000E+03 0.  0.
</event>
<event>
 4    0  0.2182372E-002  0.2721406E+03  0.7546771E-02  0.1100061E+00
         21   -1    0    0  502  501  0.00000000000E+00  0.00000000000E+00  0.92165533334E+02  0.92165533334E+02  0.00000000000E+00 0. -1.
         21   -1    0    0  501  502 -0.00000000000E+00 -0.00000000000E+00 -0.80355979717E+03  0.80355979717E+03  0.00000000000E+00 0. -1.
         25    1    1    2    0    0  0.19756444702E+03 -0.92144027455E+00 -0.58493452233E+03  0.62992535684E+03  0.12500000000E+03 0.  0.
         25    1    1    2    0    0 -0.19756444702E+03  0.92144027455E+00 -0.12645974151E+03  0.26579997366E+03  0.12500000000E+03 0.  0.
</event>
<event>
 4    0  0.2182372E-002  0.2099597E+03  0.7546771E-02  0.1141598E+00
         21   -1    0    0  502  501  0.00000000000E+00  0.00000000000E+00  0.13712260298E+03  0.13712260298E+03  0.00000000000E+00 0.  1.
         21   -1    0    0  501  502 -0.00000000000E+00 -0.00000000000E+00 -0.32148672096E+03  0.32148672096E+03  0.00000000000E+00 0.  1.
         25    1    1    2    0    0 -0.13397516287E+03  0.86880838856E+02 -0.32758687563E+02  0.20541605594E+03  0.12500000000E+03 0.  0.
         25    1    1    2    0    0  0.13397516287E+03 -0.86880838856E+02 -0.15160543043E+03  0.25319326800E+03  0.12500000000E+03 0.  0.
</event>
<event>
 4    0  0.2182372E-002  0.2183029E+03  0.7546771E-02  0.1135155E+00
         21   -1    0    0  502  501  0.00000000000E+00  0.00000000000E+00  0.10800057134E+04  0.10800057134E+04  0.00000000000E+00 0.  1.
         21   -1    0    0  501  502 -0.00000000000E+00 -0.00000000000E+00 -0.44125834793E+02  0.44125834793E+02  0.00000000000E+00 0.  1.
         25    1    1    2    0    0 -0.17855043281E+03 -0.64151107289E+01  0.49096776067E+03  0.53721108767E+03  0.12500000000E+03 0.  0.
         25    1    1    2    0    0  0.17855043281E+03  0.64151107289E+01  0.54491211799E+03  0.58692046057E+03  0.12500000000E+03 0.  0.
</event>
<event>
 4    0  0.2182372E-002  0.1927838E+03  0.7546771E-02  0.1155974E+00
         21   -1    0    0  502  501  0.00000000000E+00  0.00000000000E+00  0.13157611818E+03  0.13157611818E+03  0.00000000000E+00 0. -1.
         21   -1    0    0  501  502 -0.00000000000E+00 -0.00000000000E+00 -0.28246444667E+03  0.28246444667E+03  0.00000000000E+00 0. -1.
         25    1    1    2    0    0 -0.53264229151E+02  0.10817214163E+03 -0.16530332545E+03  0.23976755355E+03  0.12500000000E+03 0.  0.
         25    1    1    2    0    0  0.53264229151E+02 -0.10817214163E+03  0.14414996957E+02  0.17427301131E+03  0.12500000000E+03 0.  0.
</event>
<event>
 4    0  0.2182372E-002  0.3702769E+03  0.7546771E-02  0.1054587E+00
         21   -1    0    0  502  501  0.00000000000E+00  0.00000000000E+00  0.62873944860E+02  0.62873944860E+02  0.00000000000E+00 0.  1.
         21   -1    0    0  501  502 -0.00000000000E+00 -0.00000000000E+00 -0.21806326052E+04  0.21806326052E+04  0.00000000000E+00 0.  1.
         25    1    1    2    0    0 -0.31041376960E+03 -0.15261772214E+03 -0.11885155568E+04  0.12441234289E+04  0.12500000000E+03 0.  0.
         25    1    1    2    0    0  0.31041376960E+03  0.15261772214E+03 -0.92924310346E+03  0.99938312112E+03  0.12500000000E+03 0.  0.
</event>
<event>
 4    0  0.2182372E-002  0.1823452E+03  0.7546771E-02  0.1165552E+00
         21   -1    0    0  502  501  0.00000000000E+00  0.00000000000E+00  0.95972419332E+03  0.95972419332E+03  0.00000000000E+00 0. -1.
         21   -1    0    0  501  502 -0.00000000000E+00 -0.00000000000E+00 -0.34645119385E+02  0.34645119385E+02  0.00000000000E+00 0. -1.
         25    1    1    2    0    0  0.35047233265E+02  0.60876309241E+02  0.76969855517E+03  0.78294003564E+03  0.12500000000E+03 0.  0.
         25    1    1    2    0    0 -0.35047233265E+02 -0.60876309241E+02  0.15538051877E+03  0.21142927706E+03  0.12500000000E+03 0.  0.
</event>
<event>
 4    0  0.2182372E-002  0.1926672E+03  0.7546771E-02  0.1156077E+00
         21   -1    0    0  502  501  0.00000000000E+00  0.00000000000E+00  0.66218632020E+03  0.66218632020E+03  0.00000000000E+00 0.  1.
         21   -1    0    0  501  502 -0.00000000000E+00 -0.00000000000E+00 -0.56057689121E+02  0.56057689121E+02  0.00000000000E+00 0.  1.
         25    1    1    2    0    0  0.14633515465E+03 -0.81664918038E+01  0.31027513045E+03  0.36520723658E+03  0.12500000000E+03 0.  0.
         25    1    1    2    0    0 -0.14633515465E+03  0.81664918038E+01  0.29585350063E+03  0.35303677274E+03  0.12500000000E+03 0.  0.
</event>
<event>
 4    0  0.2182372E-002  0.1836505E+03  0.7546771E-02  0.1164316E+00
         21   -1    0    0  502  501  0.00000000000E+00  0.00000000000E+00  0.56846081853E+03  0.56846081853E+03  0.00000000000E+00 0. -1.
         21   -1    0    0  501  502 -0.00000000000E+00 -0.00000000000E+00 -0.59331254733E+02  0.59331254733E+02  0.00000000000E+00 0. -1.
         25    1    1    2    0    0 -0.76328168445E+02  0.10923308094E+03  0.28629518614E+03  0.33962889877E+03  0.12500000000E+03 0.  0.
         25    1    1    2    0    0  0.76328168445E+02 -0.10923308094E+03  0.22283437766E+03  0.28816317450E+03  0.12500000000E+03 0.  0.
</event>
<event>
 4    0  0.2182372E-002  0.2415363E+03  0.7546771E-02  0.1118774E+00
         21   -1    0    0  502  501  0.00000000000E+00  0.00000000000E+00  0.29466795940E+03  0.29466795940E+03  0.00000000000E+00 0.  1.
         21   -1    0    0  501  502 -0.00000000000E+00 -0.00000000000E+00 -0.19798489599E+03  0.19798489599E+03  0.00000000000E+00 0.  1.
         25    1    1    2    0    0  0.13266538606E+03  0.15198699208E+03  0.94116584144E+02  0.25530977621E+03  0.12500000000E+03 0.  0.
         25    1    1    2    0    0 -0.13266538606E+03 -0.15198699208E+03  0.25664792673E+01  0.23734307918E+03  0.12500000000E+03 0.  0.
</event>
<event>
 4    0  0.2182372E-002  0.6124231E+03  0.7546771E-02  0.9879962E-01
         21   -1    0    0  502  501  0.00000000000E+00  0.00000000000E+00  0.10293664152E+04  0.10293664152E+04  0.00000000000E+00 0.  1.
         21   -1    0    0  501  502 -0.00000000000E+00 -0.00000000000E+00 -0.36436210449E+03  0.36436210449E+03  0.00000000000E+00 0.  1.
         25    1    1    2    0    0  0.67319500211E+02  0.52220581388E+03  0.62532167455E+01  0.54119768096E+03  0.12500000000E+03 0.  0.
         25    1    1    2    0    0 -0.67319500211E+02 -0.52220581388E+03  0.65875109393E+03  0.85253083869E+03  0.12500000000E+03 0.  0.
</event>
<event>
 4    0  0.2182372E-002  0.1841736E+03  0.7546771E-02  0.1163824E+00
         21   -1    0    0  502  501  0.00000000000E+00  0.00000000000E+00  0.23101288106E+02  0.23101288106E+02  0.00000000000E+00 0.  1.
         21   -1    0    0  501  502 -0.00000000000E+00 -0.00000000000E+00 -0.14683121037E+04  0.14683121037E+04  0.00000000000E+00 0.  1.
         25    1    1    2    0    0 -0.85044713629E+02 -0.71187295218E+02 -0.10360951055E+04  0.10494847793E+04  0.12500000000E+03 0.  0.
         25    1    1    2    0    0  0.85044713629E+02  0.71187295218E+02 -0.40911571011E+03  0.44192861253E+03  0.12500000000E+03 0.  0.
</event>
<event>
 4    0  0.2182372E-002  0.2435216E+03  0.7546771E-02  0.1117469E+00
         21   -1    0    0  502  501  0.00000000000E+00  0.00000000000E+00  0.71668758833E+03  0.71668758833E+03  0.00000000000E+00 0. -1.
         21   -1    0    0  501  502 -0.00000000000E+00 -0.00000000000E+00 -0.82745659974E+02  0.82745659974E+02  0.00000000000E+00 0. -1.
         25    1    1    2    0    0  0.26515675851E+02 -0.20700051121E+03  0.29858326054E+03  0.38513537384E+03  0.12500000000E+03 0.  0.
         25    1    1    2    0    0 -0.26515675851E+02  0.20700051121E+03  0.33535866781E+03  0.41429787446E+03  0.12500000000E+03 0.  0.
</event>
<event>
 4    0  0.2182372E-002  0.2344087E+03  0.7546771E-02  0.1123575E+00
         21   -1    0    0  502  501  0.00000000000E+00  0.00000000000E+00  0.85081748389E+02  0.85081748389E+02  0.00000000000E+00 0. -1.
         21   -1    0    0  501  502 -0.00000000000E+00 -0.00000000000E+00 -0.64581959654E+03  0.64581959654E+03  0.00000000000E+00 0. -1.
         25    1    1    2    0    0  0.19816138262E+03  0.35940185321E+01 -0.29042557109E+03  0.37316599909E+03  0.12500000000E+03 0.  0.
         25    1    1    2    0    0 -0.19816138262E+03 -0.35940185321E+01 -0.27031227706E+03  0.35773534584E+03  0.12500000000E+03 0.  0.
</event>
<event>
 4    0  0.2182372E-002  0.3035137E+03  0.7546771E-02  0.1083497E+00
         21   -1    0    0  502  501  0.00000000000E+00  0.00000000000E+00  0.64853622937E+03  0.64853622937E+03  0.00000000000E+00 0. -1.
         21   -1    0    0  501  502 -0.00000000000E+00 -0.00000000000E+00 -0.14204379120E+03  0.14204379120E+03  0.00000000000E+00 0. -1.
         25    1    1    2    0    0 -0.42395373481E+02  0.30240889195E+02  0.60701353310E+03  0.62193432808E+03  0.12500000000E+03 0.  0.
         25    1    1    2    0    0  0.42395373481E+02 -0.30240889195E+02 -0.10052109493E+03  0.16864569250E+03  0.12500000000E+03 0.  0.
</event>
<event>
 4    0  0.2182372E-002  0.2501050E+03  0.7546771E-02  0.1113238E+00
         21   -1    0    0  502  501  0.00000000000E+00  0.00000000000E+00  0.59264493665E+02  0.59264493665E+02  0.00000000000E+00 0. -1.
         21   -1    0    0  501  502 -0.00000000000E+00 -0.00000000000E+00 -0.10554802557E+04  0.10554802557E+04  0.00000000000E+00 0. -1.
         25    1    1    2    0    0  0.49887297808E+01 -0.14622268709E+03 -0.85412964125E+03  0.87553892301E+03  0.12500000000E+03 0.  0.
         25    1    1    2    0    0 -0.49887297808E+01  0.14622268709E+03 -0.14208612079E+03  0.23920582636E+03  0.12500000000E+03 0.  0.
</event>
<event>
 4    0  0.2182372E-002  0.4205191E+03  0.7546771E-02  0.1036897E+00
         21   -1    0    0  502  501  0.00000000000E+00  0.00000000000E+00  0.27248913831E+04  0.27248913831E+04  0.00000000000E+00 0. -1.
         21   -1    0    0  501  502 -0.00000000000E+00 -0.00000000000E+00 -0.64896659673E+02  0.64896659673E+02  0.00000000000E+00 0. -1.
         25    1    1    2    0    0  0.36898780518E+03 -0.15088792877E+03  0.14888081229E+04  0.15463162012E+04  0.12500000000E+03 0.  0.
         25    1    1    2    0    0 -0.36898780518E+03  0.15088792877E+03  0.11711866006E+04  0.12434718416E+04  0.12500000000E+03 0.  0.
</event>
<event>
 4    0  0.2182372E-002  0.2096366E+03  0.7546771E-02  0.1141854E+00
         21   -1    0    0  502  501  0.00000000000E+00  0.00000000000E+00  0.58468560551E+02  0.58468560551E+02  0.00000000000E+00 0. -1.
         21   -1    0    0  501  502 -0.00000000000E+00 -0.00000000000E+00 -0.75164300117E+03  0.75164300117E+03  0.00000000000E+00 0. -1.
         25    1    1    2    0    0  0.85496584097E+02 -0.96828530174E+02 -0.55502159939E+03  0.58340329613E+03  0.12500000000E+03 0.  0.
         25    1    1    2    0    0 -0.85496584097E+02  0.96828530174E+02 -0.13815284123E+03  0.22670826559E+03  0.12500000000E+03 0.  0.
</event>
<event>
 4    0  0.2182372E-002  0.2002369E+03  0.7546771E-02  0.1149539E+00
         21   -1    0    0  502  501  0.00000000000E+00  0.00000000000E+00  0.95424939654E+02  0.95424939654E+02  0.00000000000E+00 0.  1.
         21   -1    0    0  501  502 -0.00000000000E+00 -0.00000000000E+00 -0.42017105695E+03  0.42017105695E+03  0.00000000000E+00 0.  1.
         25    1    1    2    0    0  0.43404055715E+02 -0.10061649337E+03 -0.30609828691E+03  0.34832276991E+03  0.12500000000E+03 0.  0.
         25    1    1    2    0    0 -0.43404055715E+02  0.10061649337E+03 -0.18647830387E+02  0.16727322669E+03  0.12500000000E+03 0.  0.
</event>
<event>
 4    0  0.2182372E-002  0.2576716E+03  0.7546771E-02  0.1108550E+00
         21   -1    0    0  502  501  0.00000000000E+00  0.00000000000E+00  0.40053238545E+03  0.40053238545E+03  0.00000000000E+00 0.  1.
         21   -1    0    0  501  502 -0.00000000000E+00 -0.00000000000E+00 -0.16576595997E+03  0.16576595997E+03  0.00000000000E+00 0.  1.
         25    1    1    2    0    0 -0.79557381471E+02 -0.20737714560E+03  0.15900985776E+03  0.30040604576E+03  0.12500000000E+03 0.  0.
         25    1    1    2    0    0  0.79557381471E+02  0.20737714560E+03  0.75756567713E+02  0.26589229966E+03  0.12500000000E+03 0.  0.
</event>
<event>
 4    0  0.2182372E-002  0.2127008E+03  0.7546771E-02  0.1139445E+00
         21   -1    0    0  502  501  0.00000000000E+00  0.00000000000E+00  0.48264988735E+02  0.48264988735E+02  0.00000000000E+00 0.  1.
         21   -1    0    0  501  502 -0.00000000000E+00 -0.00000000000E+00 -0.93735903348E+03  0.93735903348E+03  0.00000000000E+00 0.  1.
         25    1    1    2    0    0 -0.19344147359E+02  0.16270240306E+03 -0.56649649377E+03  0.60281800359E+03  0.12500000000E+03 0.  0.
         25    1    1    2    0    0  0.19344147359E+02 -0.16270240306E+03 -0.32259755097E+03  0.38280601862E+03  0.12500000000E+03 0.  0.
</event>
<event>
 4    0  0.2182372E-002  0.1637644E+03  0.7546771E-02  0.1184511E+00
         21   -1    0    0  502  501  0.00000000000E+00  0.00000000000E+00  0.36380197860E+03  0.36380197860E+03  0.00000000000E+00 0.  1.
         21   -1    0    0  501  502 -0.00000000000E+00 -0.00000000000E+00 -0.73718052120E+02  0.73718052120E+02  0.00000000000E+00 0.  1.
         25    1    1    2    0    0 -0.64513492807E+02  0.53497183416E+02  0.23130164778E+03  0.27595179227E+03  0.12500000000E+03 0.  0.
         25    1    1    2    0    0  0.64513492807E+02 -0.53497183416E+02  0.58782278693E+02  0.16156823845E+03  0.12500000000E+03 0.  0.
</event>
<event>
 4    0  0.2182372E-002  0.2696549E+03  0.7546771E-02  0.1101477E+00
         21   -1    0    0  502  501  0.00000000000E+00  0.00000000000E+00  0.38754111129E+02  0.38754111129E+02  0.00000000000E+00 0. -1.
         21   -1    0    0  501  502 -0.00000000000E+00 -0.00000000000E+00 -0.18762848073E+04  0.18762848073E+04  0.00000000000E+00 0. -1.
         25    1    1    2    0    0  0.99924866495E+02 -0.20140942617E+03 -0.12058845658E+04  0.12330179731E+04  0.12500000000E+03 0.  0.
         25    1    1    2    0    0 -0.99924866495E+02  0.20140942617E+03 -0.63164613044E+03  0.68202094542E+03  0.12500000000E+03 0.  0.
</event>
<event>
 4    0  0.2182372E-002  0.2137938E+03  0.7546771E-02  0.1138596E+00
         21   -1    0    0  502  501  0.00000000000E+00  0.00000000000E+00  0.21650857754E+03  0.21650857754E+03  0.00000000000E+00 0.  1.
         21   -1    0    0  501  502 -0.00000000000E+00 -0.00000000000E+00 -0.21111314217E+03  0.21111314217E+03  0.00000000000E+00 0.  1.
         25    1    1    2    0    0 -0.10811641535E+02  0.39125268386E+02 -0.16594289244E+03  0.21168306916E+03  0.12500000000E+03 0.  0.
         25    1    1    2    0    0  0.10811641535E+02 -0.39125268386E+02  0.17133832781E+03  0.21593865054E+03  0.12500000000E+03 0.  0.
</event>
<event>
 4    0  0.2182372E-002  0.1725046E+03  0.7546771E-02  0.1175261E+00
         21   -1    0    0  502  501  0.00000000000E+00  0.00000000000E+00  0.14394083870E+03  0.14394083870E+03  0.00000000000E+00 0.  1.
         21   -1    0    0  501  502 -0.00000000000E+00 -0.00000000000E+00 -0.20673666033E+03  0.20673666033E+03  0.00000000000E+00 0.  1.
         25    1    1    2    0    0  0.44132426628E+02  0.49561467033E+02  0.68857456463E+02  0.15738602036E+03  0.12500000000E+03 0.  0.
         25    1    1    2    0    0 -0.44132426628E+02 -0.49561467033E+02 -0.13165327810E+03  0.19329147867E+03  0.12500000000E+03 0.  0.
</event>
<event>
 4    0  0.2182372E-002  0.1716496E+03  0.7546771E-02  0.1176138E+00
         21   -1    0    0  502  501  0.00000000000E+00  0.00000000000E+00  0.27836063947E+02  0.27836063947E+02  0.00000000000E+00 0.  1.
         21   -1    0    0  501  502 -0.00000000000E+00 -0.00000000000E+00 -0.10584675712E+04  0.10584675712E+04  0.00000000000E+00 0.  1.
         25    1    1    2    0    0  0.86148805104E+02  0.51856911174E+02 -0.32211637294E+03  0.35985373914E+03  0.12500000000E+03 0.  0.
         25    1    1    2    0    0 -0.86148805104E+02 -0.51856911174E+02 -0.70851513429E+03  0.72644989598E+03  0.12500000000E+03 0.  0.
</event>
<event>
 4    0  0.2182372E-002  0.2536861E+03  0.7546771E-02  0.1110997E+00
         21   -1    0    0  502  501  0.00000000000E+00  0.00000000000E+00  0.89531855937E+02  0.89531855937E+02  0.00000000000E+00 0. -1.
         21   -1    0    0  501  502 -0.00000000000E+00 -0.00000000000E+00 -0.71881277286E+03  0.71881277286E+03  0.00000000000E+00 0. -1.
         25    1    1    2    0    0 -0.19479090007E+03 -0.10250928024E+03 -0.34129949817E+03  0.42492586969E+03  0.12500000000E+03 0.  0.
         25    1    1    2    0    0  0.19479090007E+03  0.10250928024E+03 -0.28798141875E+03  0.38341875910E+03  0.12500000000E+03 0.  0.
</event>
<event>
 4    0  0.2182372E-002  0.1798799E+03  0.7546771E-02  0.1167919E+00
         21   -1    0    0  502  501  0.00000000000E+00  0.00000000000E+00  0.20330813734E+03  0.20330813734E+03  0.00000000000E+00 0. -1.
         21   -1    0    0  501  502 -0.00000000000E+00 -0.00000000000E+00 -0.15915142021E+03  0.15915142021E+03  0.00000000000E+00 0. -1.
         25    1    1    2    0    0  0.70893646305E+02 -0.53829187999E+02 -0.72478422433E+02  0.16971037766E+03  0.12500000000E+03 0.  0.
         25    1    1    2    0    0 -0.70893646305E+02  0.53829187999E+02  0.11663513956E+03  0.19274917989E+03  0.12500000000E+03 0.  0.
</event>
<event>
 4    0  0.2182372E-002  0.3239915E+03  0.7546771E-02  0.1073827E+00
         21   -1    0    0  502  501  0.00000000000E+00  0.00000000000E+00  0.16924719687E+03  0.16924719687E+03  0.00000000000E+00 0.  1.
         21   -1    0    0  501  502 -0.00000000000E+00 -0.00000000000E+00 -0.62021985372E+03  0.62021985372E+03  0.00000000000E+00 0.  1.
         25    1    1    2    0    0 -0.13136779875E+03  0.26308835401E+03 -0.16018834247E+03  0.35743291067E+03  0.12500000000E+03 0.  0.
         25    1    1    2    0    0  0.13136779875E+03 -0.26308835401E+03 -0.29078431438E+03  0.43203413992E+03  0.12500000000E+03 0.  0.
</event>
<event>
 4    0  0.2182372E-002  0.2119376E+03  0.7546771E-02  0.1140041E+00
         21   -1    0    0  502  501  0.00000000000E+00  0.00000000000E+00  0.83240948925E+03  0.83240948925E+03  0.00000000000E+00 0. -1.
         21   -1    0    0  501  502 -0.00000000000E+00 -0.00000000000E+00 -0.53960865371E+02  0.53960865371E+02  0.00000000000E+00 0. -1.
         25    1    1    2    0    0 -0.13712363583E+03  0.13096590832E+02  0.60163562220E+03  0.62973393913E+03  0.12500000000E+03 0.  0.
         25    1    1    2    0    0  0.13712363583E+03 -0.13096590832E+02  0.17681300168E+03  0.25663641549E+03  0.12500000000E+03 0.  0.
</event>
<event>
 4    0  0.2182372E-002  0.2313240E+03  0.7546771E-02  0.1125711E+00
         21   -1    0    0  502  501  0.00000000000E+00  0.00000000000E+00  0.12103266491E+03  0.12103266491E+03  0.00000000000E+00 0.  1.
         21   -1    0    0  501  502 -0.00000000000E+00 -0.00000000000E+00 -0.44211844149E+03  0.44211844149E+03  0.00000000000E+00 0.  1.
         25    1    1    2    0    0  0.93712531249E+02 -0.22042844501E+02 -0.36646017961E+03  0.39898118846E+03  0.12500000000E+03 0.  0.
         25    1    1    2    0    0 -0.93712531249E+02  0.22042844501E+02  0.45374403033E+02  0.16416991794E+03  0.12500000000E+03 0.  0.
</event>
<event>
 4    0  0.2182372E-002  0.1741885E+03  0.7546771E-02  0.1173549E+00
         21   -1    0    0  502  501  0.00000000000E+00  0.00000000000E+00  0.45103094343E+03  0.45103094343E+03  0.00000000000E+00 0.  1.
         21   -1    0    0  501  502 -0.00000000000E+00 -0.00000000000E+00 -0.67271754410E+02  0.67271754410E+02  0.00000000000E+00 0.  1.
         25    1    1    2    0    0 -0.81926013250E+02  0.16814096604E+02  0.32261717383E+03  0.35595143818E+03  0.12500000000E+03 0.  0.
         25    1    1    2    0    0  0.81926013250E+02 -0.16814096604E+02  0.61142015189E+02  0.16235125966E+03  0.12500000000E+03 0.  0.
</event>
<event>
 4    0  0.2182372E-002  0.2013295E+03  0.7546771E-02  0.1148622E+00
         21   -1    0    0  502  501  0.00000000000E+00  0.00000000000E+00  0.14212919400E+03  0.14212919400E+03  0.00000000000E+00 0.  1.
         21   -1    0    0  501  502 -0.00000000000E+00 -0.00000000000E+00 -0.28518829371E+03  0.28518829371E+03  0.00000000000E+00 0.  1.
         25    1    1    2    0    0 -0.15659399774E+03 -0.59978692389E+01 -0.51649290796E+02  0.20700314926E+03  0.12500000000E+03 0.  0.
         25    1    1    2    0    0  0.15659399774E+03  0.59978692389E+01 -0.91409808919E+02  0.22031433846E+03  0.12500000000E+03 0.  0.
</event>
<event>
 4    0  0.2182372E-002  0.2325825E+03  0.7546771E-02  0.1124835E+00
         21   -1    0    0  502  501  0.00000000000E+00  0.00000000000E+00  0.78744294280E+03  0.78744294280E+03  0.00000000000E+00 0. -1.
         21   -1    0    0  501  502 -0.00000000000E+00 -0.00000000000E+00 -0.68696561554E+02  0.68696561554E+02  0.00000000000E+00 0. -1.
         25    1    1    2    0    0 -0.14137139471E+03  0.55001471398E+02  0.58820817797E+03  0.62018133939E+03  0.12500000000E+03 0.  0.
         25    1    1    2    0    0  0.14137139471E+03 -0.55001471398E+02  0.13053820328E+03  0.23595816496E+03  0.12500000000E+03 0.  0.
</event>
<event>
 4    0  0.2182372E-002  0.1751779E+03  0.7546771E-02  0.1172553E+00
         21   -1    0    0  502  501  0.00000000000E+00  0.00000000000E+00  0.97224516068E+03  0.97224516068E+03  0.00000000000E+00 0.  1.
         21   -1    0    0  501  502 -0.00000000000E+00 -0.00000000000E+00 -0.31563337818E+02  0.31563337818E+02  0.00000000000E+00 0.  1.
         25    1    1    2    0    0  0.12350658942E+01  0.10492017144E+03  0.28794928921E+03  0.33098271997E+03  0.12500000000E+03 0.  0.
         25    1    1    2    0    0 -0.12350658942E+01 -0.10492017144E+03  0.65273253365E+03  0.67282577853E+03  0.12500000000E+03 0.  0.
</event>
<event>
 4    0  0.2182372E-002  0.1908230E+03  0.7546771E-02  0.1157721E+00
         21   -1    0    0  502  501  0.00000000000E+00  0.00000000000E+00  0.56081510279E+02  0.56081510279E+02  0.00000000000E+00 0.  1.
         21   -1    0    0  501  502 -0.00000000000E+00 -0.00000000000E+00 -0.64929434537E+03  0.64929434537E+03  0.00000000000E+00 0.  1.
         25    1    1    2    0    0  0.48241297664E+02  0.12084837397E+03 -0.18182367388E+03  0.25615698443E+03  0.12500000000E+03 0.  0.
         25    1    1    2    0    0 -0.48241297664E+02 -0.12084837397E+03 -0.41138916121E+03  0.44921887121E+03  0.12500000000E+03 0.  0.
</event>
<event>
 4    0  0.2182372E-002  0.2442501E+03  0.7546771E-02  0.1116994E+00
         21   -1    0    0  502  501  0.00000000000E+00  0.00000000000E+00  0.62880739178E+03  0.62880739178E+03  0.00000000000E+00 0. -1.
         21   -1    0    0  501  502 -0.00000000000E+00 -0.00000000000E+00 -0.94874990622E+02  0.94874990622E+02  0.00000000000E+00 0. -1.
         25    1    1    2    0    0 -0.45561874902E+02 -0.19407736398E+03  0.36401095608E+03  0.43344075005E+03  0.12500000000E+03 0.  0.
         25    1    1    2    0    0  0.45561874902E+02  0.19407736398E+03  0.16992144507E+03  0.29024163235E+03  0.12500000000E+03 0.  0.
</event>
<event>
 4    0  0.2182372E-002  0.2219290E+03  0.7546771E-02  0.1132453E+00
         21   -1    0    0  502  501  0.00000000000E+00  0.00000000000E+00  0.12850136441E+03  0.12850136441E+03  0.00000000000E+00 0.  1.
         21   -1    0    0  501  502 -0.00000000000E+00 -0.00000000000E+00 -0.38328383059E+03  0.38328383059E+03  0.00000000000E+00 0.  1.
         25    1    1    2    0    0  0.12467774485E+03  0.12976202950E+03 -0.16807192252E+03  0.27614470030E+03  0.12500000000E+03 0.  0.
         25    1    1    2    0    0 -0.12467774485E+03 -0.12976202950E+03 -0.86710543662E+02  0.23564049470E+03  0.12500000000E+03 0.  0.
</event>
<event>
 4    0  0.2182372E-002  0.1733684E+03  0.7546771E-02  0.1174380E+00
         21   -1    0    0  502  501  0.00000000000E+00  0.00000000000E+00  0.54977698753E+03  0.54977698753E+03  0.00000000000E+00 0.  1.
         21   -1    0    0  501  502 -0.00000000000E+00 -0.00000000000E+00 -0.54670539344E+02  0.54670539344E+02  0.00000000000E+00 0.  1.
         25    1    1    2    0    0 -0.84798238431E+02  0.22878242730E+02  0.39042973853E+03  0.41925473874E+03  0.12500000000E+03 0.  0.
         25    1    1    2    0    0  0.84798238431E+02 -0.22878242730E+02  0.10467670966E+03  0.18519278813E+03  0.12500000000E+03 0.  0.
</event>
<event>
 4    0  0.2182372E-002  0.2578614E+03  0.7546771E-02  0.1108435E+00
         21   -1    0    0  502  501  0.00000000000E+00  0.00000000000E+00  0.39179052331E+02  0.39179052331E+02  0.00000000000E+00 0.  1.
         21   -1    0    0  501  502 -0.00000000000E+00 -0.00000000000E+00 -0.16971441291E+04  0.16971441291E+04  0.00000000000E+00 0.  1.
         25    1    1    2    0    0  0.11693841108E+03  0.65093030625E+02 -0.14401781074E+04  0.14517746643E+04  0.12500000000E+03 0.  0.
         25    1    1    2    0    0 -0.11693841108E+03 -0.65093030625E+02 -0.21778696936E+03  0.28454851720E+03  0.12500000000E+03 0.  0.
</event>
<event>
 4    0  0.2182372E-002  0.2206519E+03  0.7546771E-02  0.1133398E+00
         21   -1    0    0  502  501  0.00000000000E+00  0.00000000000E+00  0.21798493232E+03  0.21798493232E+03  0.00000000000E+00 0.  1.
         21   -1    0    0  501  502 -0.00000000000E+00 -0.00000000000E+00 -0.22335147227E+03  0.22335147227E+03  0.00000000000E+00 0.  1.
         25    1    1    2    0    0 -0.14077638667E+03 -0.11498452103E+03  0.20945767465E+01  0.22061010488E+03  0.12500000000E+03 0.  0.
         25    1    1    2    0    0  0.14077638667E+03  0.11498452103E+03 -0.74611166954E+01  0.22072629971E+03  0.12500000000E+03 0.  0.
</event>
<event>
 4    0  0.2182372E-002  0.2320396E+03  0.7546771E-02  0.1125212E+00
         21   -1    0    0  502  501  0.00000000000E+00  0.00000000000E+00  0.59344465029E+03  0.59344465029E+03  0.00000000000E+00 0. -1.
         21   -1    0    0  501  502 -0.00000000000E+00 -0.00000000000E+00 -0.90728545404E+02  0.90728545404E+02  0.00000000000E+00 0. -1.
         25    1    1    2    0    0 -0.92288148707E+02 -0.14932116177E+03  0.12450781360E+03  0.24887970466E+03  0.12500000000E+03 0.  0.
         25    1    1    2    0    0  0.92288148707E+02  0.14932116177E+03  0.37820829129E+03  0.43529349104E+03  0.12500000000E+03 0.  0.
</event>
<event>
 4    0  0.2182372E-002  0.2576772E+03  0.7546771E-02  0.1108547E+00
         21   -1    0    0  502  501  0.00000000000E+00  0.00000000000E+00  0.67023831866E+02  0.67023831866E+02  0.00000000000E+00 0. -1.
         21   -1    0    0  501  502 -0.00000000000E+00 -0.00000000000E+00 -0.99065547650E+03  0.99065547650E+03  0.00000000000E+00 0. -1.
         25    1    1    2    0    0  0.10459962099E+03  0.19830320495E+03 -0.50804048705E+03  0.56920591906E+03  0.12500000000E+03 0.  0.
         25    1    1    2    0    0 -0.10459962099E+03 -0.19830320495E+03 -0.41559115758E+03  0.48847338931E+03  0.12500000000E+03 0.  0.
</event>
<event>
 4    0  0.2182372E-002  0.2201528E+03  0.7546771E-02  0.1133769E+00
         21   -1    0    0  502  501  0.00000000000E+00  0.00000000000E+00  0.24860324975E+03  0.24860324975E+03  0.00000000000E+00 0. -1.
         21   -1    0    0  501  502 -0.00000000000E+00 -0.00000000000E+00 -0.19495821185E+03  0.19495821185E+03  0.00000000000E+00 0. -1.
         25    1    1    2    0    0 -0.47908817852E+02 -0.14879134392E+03  0.11919641330E+03  0.23295257843E+03  0.12500000000E+03 0.  0.
         25    1    1    2    0    0  0.47908817852E+02  0.14879134392E+03 -0.65551375405E+02  0.21060888317E+03  0.12500000000E+03 0.  0.
</event>
<event>
 4    0  0.2182372E-002  0.1726562E+03  0.7546771E-02  0.1175106E+00
         21   -1    0    0  502  501  0.00000000000E+00  0.00000000000E+00  0.10585290511E+02  0.10585290511E+02  0.00000000000E+00 0. -1.
         21   -1    0    0  501  502 -0.00000000000E+00 -0.00000000000E+00 -0.28161862487E+04  0.28161862487E+04  0.00000000000E+00 0. -1.
         25    1    1    2    0    0 -0.11422946948E+03  0.33055110076E+02 -0.14571859471E+04  0.14673639277E+04  0.12500000000E+03 0.  0.
         25    1    1    2    0    0  0.11422946948E+03 -0.33055110076E+02 -0.13484150111E+04  0.13594076115E+04  0.12500000000E+03 0.  0.
</event>
<event>
 4    0  0.2182372E-002  0.1928571E+03  0.7546771E-02  0.1155909E+00
         21   -1    0    0  502  501  0.00000000000E+00  0.00000000000E+00  0.90787223805E+02  0.90787223805E+02  0.00000000000E+00 0. -1.
         21   -1    0    0  501  502 -0.00000000000E+00 -0.00000000000E+00 -0.40968181296E+03  0.40968181296E+03  0.00000000000E+00 0. -1.
         25    1    1    2    0    0  0.60661411053E+01  0.11204855128E+03 -0.36510489484E+02  0.17190023779E+03  0.12500000000E+03 0.  0.
         25    1    1    2    0    0 -0.60661411053E+01 -0.11204855128E+03 -0.28238409967E+03  0.32856879897E+03  0.12500000000E+03 0.  0.
</event>
<event>
 4    0  0.2182372E-002  0.2335221E+03  0.7546771E-02  0.1124185E+00
         21   -1    0    0  502  501  0.00000000000E+00  0.00000000000E+00  0.19782684967E+04  0.19782684967E+04  0.00000000000E+00 0.  1.
         21   -1    0    0  501  502 -0.00000000000E+00 -0.00000000000E+00 -0.27565802847E+02  0.27565802847E+02  0.00000000000E+00 0.  1.
         25    1    1    2    0    0  0.12452226966E+03 -0.20275369794E+02  0.16265492007E+04  0.16362164248E+04  0.12500000000E+03 0.  0.
         25    1    1    2    0    0 -0.12452226966E+03  0.20275369794E+02  0.32415349316E+03  0.36961787483E+03  0.12500000000E+03 0.  0.
</event>
<event>
 4    0  0.2182372E-002  0.1621880E+03  0.7546771E-02  0.1186248E+00
         21   -1    0    0  502  501  0.00000000000E+00  0.00000000000E+00  0.29930101047E+02  0.29930101047E+02  0.00000000000E+00 0. -1.
         21   -1    0    0  501  502 -0.00000000000E+00 -0.00000000000E+00 -0.87887944120E+03  0.87887944120E+03  0.00000000000E+00 0. -1.
         25    1    1    2    0    0 -0.10215413123E+02  0.10106416124E+03 -0.37119555002E+03  0.40463496599E+03  0.12500000000E+03 0.  0.
         25    1    1    2    0    0  0.10215413123E+02 -0.10106416124E+03 -0.47775379014E+03  0.50417457626E+03  0.12500000000E+03 0.  0.
</event>
<event>
 4    0  0.2182372E-002  0.1703621E+03  0.7546771E-02  0.1177471E+00
         21   -1    0    0  502  501  0.00000000000E+00  0.00000000000E+00  0.79589776071E+03  0.79589776071E+03  0.00000000000E+00 0. -1.
         21   -1    0    0  501  502 -0.00000000000E+00 -0.00000000000E+00 -0.36466057495E+02  0.36466057495E+02  0.00000000000E+00 0. -1.
         25    1    1    2    0    0 -0.91744868807E+02  0.54835878862E+02  0.27117300481E+03  0.31714963834E+03  0.12500000000E+03 0.  0.
         25    1    1    2    0    0  0.91744868807E+02 -0.54835878862E+02  0.48825869840E+03  0.51521417986E+03  0.12500000000E+03 0.  0.
</event>
<event>
 4    0  0.2182372E-002  0.2321060E+03  0.7546771E-02  0.1125166E+00
         21   -1    0    0  502  501  0.00000000000E+00  0.00000000000E+00  0.45787646091E+03  0.45787646091E+03  0.00000000000E+00 0.  1.
         21   -1    0    0  501  502 -0.00000000000E+00 -0.00000000000E+00 -0.11765880112E+03  0.11765880112E+03  0.00000000000E+00 0.  1.
         25    1    1    2    0    0  0.12610659730E+03 -0.12235483440E+03  0.63639313560E+02  0.22483002828E+03  0.12500000000E+03 0.  0.
         25    1    1    2    0    0 -0.12610659730E+03  0.12235483440E+03  0.27657834623E+03  0.35070523376E+03  0.12500000000E+03 0.  0.
</event>
<event>
 4    0  0.2182372E-002  0.2670140E+03  0.7546771E-02  0.1103001E+00
         21   -1    0    0  502  501  0.00000000000E+00  0.00000000000E+00  0.11138686946E+03  0.11138686946E+03  0.00000000000E+00 0. -1.
         21   -1    0    0  501  502 -0.00000000000E+00 -0.00000000000E+00 -0.64007967408E+03  0.64007967408E+03  0.00000000000E+00 0. -1.
         25    1    1    2    0    0 -0.55251935477E+01  0.17602635805E+03 -0.43391320822E+02  0.22028075997E+03  0.12500000000E+03 0.  0.
         25    1    1    2    0    0  0.55251935477E+01 -0.17602635805E+03 -0.48530148380E+03  0.53118578357E+03  0.12500000000E+03 0.  0.
</event>
<event>
 4    0  0.2182372E-002  0.3775872E+03  0.7546771E-02  0.1051829E+00
         21   -1    0    0  502  501  0.00000000000E+00  0.00000000000E+00  0.76651040925E+03  0.76651040925E+03  0.00000000000E+00 0.  1.
         21   -1    0    0  501  502 -0.00000000000E+00 -0.00000000000E+00 -0.18600154726E+03  0.18600154726E+03  0.00000000000E+00 0.  1.
         25    1    1    2    0    0  0.72253900996E+02 -0.28195439073E+03  0.54944817076E+03  0.63422172543E+03  0.12500000000E+03 0.  0.
         25    1    1    2    0    0 -0.72253900996E+02  0.28195439073E+03  0.31060691226E+02  0.31829023108E+03  0.12500000000E+03 0.  0.
</event>
<event>
 4    0  0.2182372E-002  0.2879066E+03  0.7546771E-02  0.1091447E+00
         21   -1    0    0  502  501  0.00000000000E+00  0.00000000000E+00  0.16551708170E+03  0.16551708170E+03  0.00000000000E+00 0. -1.
         21   -1    0    0  501  502 -0.00000000000E+00 -0.00000000000E+00 -0.50079549450E+03  0.50079549450E+03  0.00000000000E+00 0.  1.
         25    1    1    2    0    0  0.10808200706E+03  0.22628765824E+03 -0.91078887518E+02  0.29463229333E+03  0.12500000000E+03 0.  0.
         25    1    1    2    0    0 -0.10808200706E+03 -0.22628765824E+03 -0.24419952529E+03  0.37168028287E+03  0.12500000000E+03 0.  0.
</event>
<event>
 4    0  0.2182372E-002  0.1735589E+03  0.7546771E-02  0.1174186E+00
         21   -1    0    0  502  501  0.00000000000E+00  0.00000000000E+00  0.52754850046E+02  0.52754850046E+02  0.00000000000E+00 0.  1.
         21   -1    0    0  501  502 -0.00000000000E+00 -0.00000000000E+00 -0.57099398958E+03  0.57099398958E+03  0.00000000000E+00 0.  1.
         25    1    1    2    0    0 -0.12035619607E+03 -0.23526781314E+01 -0.26371961221E+03  0.31569634602E+03  0.12500000000E+03 0.  0.
         25    1    1    2    0    0  0.12035619607E+03  0.23526781314E+01 -0.25451952732E+03  0.30805249361E+03  0.12500000000E+03 0.  0.
</event>
<event>
 4    0  0.2182372E-002  0.1834974E+03  0.7546771E-02  0.1164461E+00
         21   -1    0    0  502  501  0.00000000000E+00  0.00000000000E+00  0.51774725964E+02  0.51774725964E+02  0.00000000000E+00 0.  1.
         21   -1    0    0  501  502 -0.00000000000E+00 -0.00000000000E+00 -0.65034228827E+03  0.65034228827E+03  0.00000000000E+00 0.  1.
         25    1    1    2    0    0 -0.43585090397E+02  0.29107565805E+02 -0.53592291223E+03  0.55279768301E+03  0.12500000000E+03 0.  0.
         25    1    1    2    0    0  0.43585090397E+02 -0.29107565805E+02 -0.62644650071E+02  0.14931933121E+03  0.12500000000E+03 0.  0.
</event>
<event>
 4    0  0.2182372E-002  0.1663902E+03  0.7546771E-02  0.1181665E+00
         21   -1    0    0  502  501  0.00000000000E+00  0.00000000000E+00  0.13223782352E+02  0.13223782352E+02  0.00000000000E+00 0.  1.
         21   -1    0    0  501  502 -0.00000000000E+00 -0.00000000000E+00 -0.20936291024E+04  0.20936291024E+04  0.00000000000E+00 0.  1.
         25    1    1    2    0    0  0.29364987392E+02  0.37293504563E+02 -0.41321702024E+03  0.43431142488E+03  0.12500000000E+03 0.  0.
         25    1    1    2    0    0 -0.29364987392E+02 -0.37293504563E+02 -0.16671882998E+04  0.16725414599E+04  0.12500000000E+03 0.  0.
</event>
<event>
 4    0  0.2182372E-002  0.1836809E+03  0.7546771E-02  0.1164287E+00
         21   -1    0    0  502  501  0.00000000000E+00  0.00000000000E+00  0.18098596343E+02  0.18098596343E+02  0.00000000000E+00 0. -1.
         21   -1    0    0  501  502 -0.00000000000E+00 -0.00000000000E+00 -0.18641597039E+04  0.18641597039E+04  0.00000000000E+00 0. -1.
         25    1    1    2    0    0 -0.18377751737E+02 -0.12177087969E+03 -0.12012151831E+04  0.12139640872E+04  0.12500000000E+03 0.  0.
         25    1    1    2    0    0  0.18377751737E+02  0.12177087969E+03 -0.64484592448E+03  0.66829421306E+03  0.12500000000E+03 0.  0.
</event>
<event>
 4    0  0.2182372E-002  0.1592180E+03  0.7546771E-02  0.1189582E+00
         21   -1    0    0  502  501  0.00000000000E+00  0.00000000000E+00  0.64404317948E+03  0.64404317948E+03  0.00000000000E+00 0.  1.
         21   -1    0    0  501  502 -0.00000000000E+00 -0.00000000000E+00 -0.39361288399E+02  0.39361288399E+02  0.00000000000E+00 0.  1.
         25    1    1    2    0    0 -0.17714772517E+02 -0.61281012125E+02  0.14093563857E+03  0.19888949151E+03  0.12500000000E+03 0.  0.
         25    1    1    2    0    0  0.17714772517E+02  0.61281012125E+02  0.46374625251E+03  0.48451497637E+03  0.12500000000E+03 0.  0.
</event>
<event>
 4    0  0.2182372E-002  0.2027586E+03  0.7546771E-02  0.1147432E+00
         21   -1    0    0  502  501  0.00000000000E+00  0.00000000000E+00  0.32221039261E+02  0.32221039261E+02  0.00000000000E+00 0.  1.
         21   -1    0    0  501  502 -0.00000000000E+00 -0.00000000000E+00 -0.12759064640E+04  0.12759064640E+04  0.00000000000E+00 0.  1.
         25    1    1    2    0    0 -0.37626830800E+02 -0.12319549844E+03 -0.92604889804E+03  0.94328387603E+03  0.12500000000E+03 0.  0.
         25    1    1    2    0    0  0.37626830800E+02  0.12319549844E+03 -0.31763652672E+03  0.36484362724E+03  0.12500000000E+03 0.  0.
</event>
<event>
 4    0  0.2182372E-002  0.2147992E+03  0.7546771E-02  0.1137821E+00
         21   -1    0    0  502  501  0.00000000000E+00  0.00000000000E+00  0.57995448885E+02  0.57995448885E+02  0.00000000000E+00 0.  1.
         21   -1    0    0  501  502 -0.00000000000E+00 -0.00000000000E+00 -0.79555683139E+03  0.79555683139E+03  0.00000000000E+00 0.  1.
         25    1    1    2    0    0 -0.59455438284E+02 -0.11816590004E+03 -0.14210822332E+03  0.23090663960E+03  0.12500000000E+03 0.  0.
         25    1    1    2    0    0  0.59455438284E+02  0.11816590004E+03 -0.59545315918E+03  0.62264564067E+03  0.12500000000E+03 0.  0.
</event>
<event>
 4    0  0.2182372E-002  0.2358054E+03  0.7546771E-02  0.1122619E+00
         21   -1    0    0  502  501  0.00000000000E+00  0.00000000000E+00  0.37834999305E+03  0.37834999305E+03  0.00000000000E+00 0.  1.
         21   -1    0    0  501  502 -0.00000000000E+00 -0.00000000000E+00 -0.14696496197E+03  0.14696496197E+03  0.00000000000E+00 0.  1.
         25    1    1    2    0    0 -0.32910884803E+02  0.19534521556E+03  0.14591757492E+03  0.27597068368E+03  0.12500000000E+03 0.  0.
         25    1    1    2    0    0  0.32910884803E+02 -0.19534521556E+03  0.85467456157E+02  0.24934427133E+03  0.12500000000E+03 0.  0.
</event>
<event>
 4    0  0.2182372E-002  0.4254430E+03  0.7546771E-02  0.1035309E+00
         21   -1    0    0  502  501  0.00000000000E+00  0.00000000000E+00  0.38884769929E+03  0.38884769929E+03  0.00000000000E+00 0.  1.
         21   -1    0    0  501  502 -0.00000000000E+00 -0.00000000000E+00 -0.46548238448E+03  0.46548238448E+03  0.00000000000E+00 0.  1.
         25    1    1    2    0    0  0.16423222090E+03  0.76501181767E+01 -0.41177178266E+03  0.46066446323E+03  0.12500000000E+03 0.  0.
         25    1    1    2    0    0 -0.16423222090E+03 -0.76501181767E+01  0.33513709747E+03  0.39366562053E+03  0.12500000000E+03 0.  0.
</event>
<event>
 4    0  0.2182372E-002  0.2212161E+03  0.7546771E-02  0.1132980E+00
         21   -1    0    0  502  501  0.00000000000E+00  0.00000000000E+00  0.41869088791E+03  0.41869088791E+03  0.00000000000E+00 0. -1.
         21   -1    0    0  501  502 -0.00000000000E+00 -0.00000000000E+00 -0.11687992320E+03  0.11687992320E+03  0.00000000000E+00 0.  1.
         25    1    1    2    0    0  0.49768443046E+02 -0.15315265223E+03  0.46921422765E+02  0.20918712370E+03  0.12500000000E+03 0.  0.
         25    1    1    2    0    0 -0.49768443046E+02  0.15315265223E+03  0.25488954195E+03  0.32638368741E+03  0.12500000000E+03 0.  0.
</event>
<event>
 4    0  0.2182372E-002  0.2598226E+03  0.7546771E-02  0.1107250E+00
         21   -1    0    0  502  501  0.00000000000E+00  0.00000000000E+00  0.11023082013E+03  0.11023082013E+03  0.00000000000E+00 0.  1.
         21   -1    0    0  501  502 -0.00000000000E+00 -0.00000000000E+00 -0.61242217239E+03  0.61242217239E+03  0.00000000000E+00 0.  1.
         25    1    1    2    0    0  0.16604064346E+03  0.79153952471E+02 -0.43792146969E+03  0.49115685588E+03  0.12500000000E+03 0.  0.
         25    1    1    2    0    0 -0.16604064346E+03 -0.79153952471E+02 -0.64269882578E+02  0.23149613664E+03  0.12500000000E+03 0.  0.
</event>
<event>
 4    0  0.2182372E-002  0.2089927E+03  0.7546771E-02  0.1142366E+00
         21   -1    0    0  502  501  0.00000000000E+00  0.00000000000E+00  0.30902528331E+03  0.30902528331E+03  0.00000000000E+00 0.  1.
         21   -1    0    0  501  502 -0.00000000000E+00 -0.00000000000E+00 -0.14134099262E+03  0.14134099262E+03  0.00000000000E+00 0.  1.
         25    1    1    2    0    0 -0.93296166523E+02 -0.13903857047E+03  0.88290085863E+02  0.22683923388E+03  0.12500000000E+03 0.  0.
         25    1    1    2    0    0  0.93296166523E+02  0.13903857047E+03  0.79394204831E+02  0.22352704205E+03  0.12500000000E+03 0.  0.
</event>
<event>
 4    0  0.2182372E-002  0.3237149E+03  0.7546771E-02  0.1073952E+00
         21   -1    0    0  502  501  0.00000000000E+00  0.00000000000E+00  0.18912248157E+03  0.18912248157E+03  0.00000000000E+00 0. -1.
         21   -1    0    0  501  502 -0.00000000000E+00 -0.00000000000E+00 -0.55409249369E+03  0.55409249369E+03  0.00000000000E+00 0. -1.
         25    1    1    2    0    0 -0.47216462514E+02 -0.29756551166E+02 -0.51922986048E+03  0.53697252694E+03  0.12500000000E+03 0.  0.
         25    1    1    2    0    0  0.47216462514E+02  0.29756551166E+02  0.15425984836E+03  0.20624244831E+03  0.12500000000E+03 0.  0.
</event>
<event>
 4    0  0.2182372E-002  0.2633620E+03  0.7546771E-02  0.1105140E+00
         21   -1    0    0  502  501  0.00000000000E+00  0.00000000000E+00  0.15334585336E+03  0.15334585336E+03  0.00000000000E+00 0. -1.
         21   -1    0    0  501  502 -0.00000000000E+00 -0.00000000000E+00 -0.45230794982E+03  0.45230794982E+03  0.00000000000E+00 0. -1.
         25    1    1    2    0    0 -0.84564629405E+02  0.21560749996E+03 -0.13816930443E+03  0.29724321232E+03  0.12500000000E+03 0.  0.
         25    1    1    2    0    0  0.84564629405E+02 -0.21560749996E+03 -0.16079279203E+03  0.30841059086E+03  0.12500000000E+03 0.  0.
</event>
<event>
 4    0  0.2182372E-002  0.1530518E+03  0.7546771E-02  0.1196772E+00
         21   -1    0    0  502  501  0.00000000000E+00  0.00000000000E+00  0.10569360632E+04  0.10569360632E+04  0.00000000000E+00 0.  1.
         21   -1    0    0  501  502 -0.00000000000E+00 -0.00000000000E+00 -0.22162986922E+02  0.22162986922E+02  0.00000000000E+00 0.  1.
         25    1    1    2    0    0  0.44786325064E+02 -0.65923278585E+02  0.38323301868E+03  0.41090660761E+03  0.12500000000E+03 0.  0.
         25    1    1    2    0    0 -0.44786325064E+02  0.65923278585E+02  0.65154005759E+03  0.66819244250E+03  0.12500000000E+03 0.  0.
</event>
<event>
 4    0  0.2182372E-002  0.1630460E+03  0.7546771E-02  0.1185300E+00
         21   -1    0    0  502  501  0.00000000000E+00  0.00000000000E+00  0.27347612666E+03  0.27347612666E+03  0.00000000000E+00 0.  1.
         21   -1    0    0  501  502 -0.00000000000E+00 -0.00000000000E+00 -0.97207745960E+02  0.97207745960E+02  0.00000000000E+00 0.  1.
         25    1    1    2    0    0  0.86604944922E+02  0.10275850925E+02  0.22310903455E+02  0.15404150743E+03  0.12500000000E+03 0.  0.
         25    1    1    2    0    0 -0.86604944922E+02 -0.10275850925E+02  0.15395747724E+03  0.21664236519E+03  0.12500000000E+03 0.  0.
</event>
<event>
 4    0  0.2182372E-002  0.2392951E+03  0.7546771E-02  0.1120263E+00
         21   -1    0    0  502  501  0.00000000000E+00  0.00000000000E+00  0.14966110785E+03  0.14966110785E+03  0.00000000000E+00 0.  1.
         21   -1    0    0  501  502 -0.00000000000E+00 -0.00000000000E+00 -0.38261214832E+03  0.38261214832E+03  0.00000000000E+00 0.  1.
         25    1    1    2    0    0  0.90196391542E+02 -0.17886248653E+03 -0.73258345522E+02  0.24722249761E+03  0.12500000000E+03 0.  0.
         25    1    1    2    0    0 -0.90196391542E+02  0.17886248653E+03 -0.15969269494E+03  0.28505075856E+03  0.12500000000E+03 0.  0.
</event>
<event>
 4    0  0.2182372E-002  0.1969415E+03  0.7546771E-02  0.1152345E+00
         21   -1    0    0  502  501  0.00000000000E+00  0.00000000000E+00  0.44986513468E+03  0.44986513468E+03  0.00000000000E+00 0.  1.
         21   -1    0    0  501  502 -0.00000000000E+00 -0.00000000000E+00 -0.86216844217E+02  0.86216844217E+02  0.00000000000E+00 0.  1.
         25    1    1    2    0    0  0.13188553811E+03 -0.69024047927E+02  0.22492435149E+03  0.29727777961E+03  0.12500000000E+03 0.  0.
         25    1    1    2    0    0 -0.13188553811E+03  0.69024047927E+02  0.13872393898E+03  0.23880419929E+03  0.12500000000E+03 0.  0.
</event>
<event>
 4    0  0.2182372E-002  0.2113427E+03  0.7546771E-02  0.1140507E+00
         21   -1    0    0  502  501  0.00000000000E+00  0.00000000000E+00  0.38983997335E+02  0.38983997335E+02  0.00000000000E+00 0.  1.
         21   -1    0    0  501  502 -0.00000000000E+00 -0.00000000000E+00 -0.11457454367E+04  0.11457454367E+04  0.00000000000E+00 0.  1.
         25    1    1    2    0    0 -0.75913897080E+02 -0.13711591422E+03 -0.74092230381E+03  0.76756403902E+03  0.12500000000E+03 0.  0.
         25    1    1    2    0    0  0.75913897080E+02  0.13711591422E+03 -0.36583913558E+03  0.41716539504E+03  0.12500000000E+03 0.  0.
</event>
<event>
 4    0  0.2182372E-002  0.1903782E+03  0.7546771E-02  0.1158121E+00
         21   -1    0    0  502  501  0.00000000000E+00  0.00000000000E+00  0.12006642539E+03  0.12006642539E+03  0.00000000000E+00 0.  1.
         21   -1    0    0  501  502 -0.00000000000E+00 -0.00000000000E+00 -0.30186515347E+03  0.30186515347E+03  0.00000000000E+00 0.  1.
         25    1    1    2    0    0  0.11899190422E+02 -0.65047338965E+02  0.50344509879E+02  0.15010768373E+03  0.12500000000E+03 0.  0.
         25    1    1    2    0    0 -0.11899190422E+02  0.65047338965E+02 -0.23214323795E+03  0.27182389513E+03  0.12500000000E+03 0.  0.
</event>
<event>
 4    0  0.2182372E-002  0.1943375E+03  0.7546771E-02  0.1154606E+00
         21   -1    0    0  502  501  0.00000000000E+00  0.00000000000E+00  0.23108870488E+04  0.23108870488E+04  0.00000000000E+00 0. -1.
         21   -1    0    0  501  502 -0.00000000000E+00 -0.00000000000E+00 -0.16343099370E+02  0.16343099370E+02  0.00000000000E+00 0. -1.
         25    1    1    2    0    0 -0.66831054120E+02 -0.12789143065E+03  0.13647668592E+04  0.13780552194E+04  0.12500000000E+03 0.  0.
         25    1    1    2    0    0  0.66831054120E+02  0.12789143065E+03  0.92977709026E+03  0.94917492877E+03  0.12500000000E+03 0.  0.
</event>
<event>
 4    0  0.2182372E-002  0.2059597E+03  0.7546771E-02  0.1144806E+00
         21   -1    0    0  502  501  0.00000000000E+00  0.00000000000E+00  0.96043001768E+02  0.96043001768E+02  0.00000000000E+00 0.  1.
         21   -1    0    0  501  502 -0.00000000000E+00 -0.00000000000E+00 -0.44167097296E+03  0.44167097296E+03  0.00000000000E+00 0.  1.
         25    1    1    2    0    0  0.89630955429E+02 -0.58339272072E+02 -0.33458303781E+03  0.37283775027E+03  0.12500000000E+03 0.  0.
         25    1    1    2    0    0 -0.89630955429E+02  0.58339272072E+02 -0.11044933379E+02  0.16487622445E+03  0.12500000000E+03 0.  0.
</event>
<event>
 4    0  0.2182372E-002  0.2078571E+03  0.7546771E-02  0.1143274E+00
         21   -1    0    0  502  501  0.00000000000E+00  0.00000000000E+00  0.27602336278E+03  0.27602336278E+03  0.00000000000E+00 0. -1.
         21   -1    0    0  501  502 -0.00000000000E+00 -0.00000000000E+00 -0.15652509577E+03  0.15652509577E+03  0.00000000000E+00 0. -1.
         25    1    1    2    0    0  0.71590606134E+02 -0.13950654110E+03  0.11666612677E+03  0.23199843756E+03  0.12500000000E+03 0.  0.
         25    1    1    2    0    0 -0.71590606134E+02  0.13950654110E+03  0.28321402379E+01  0.20055002098E+03  0.12500000000E+03 0.  0.
</event>
<event>
 4    0  0.2182372E-002  0.4768703E+03  0.7546771E-02  0.1019999E+00
         21   -1    0    0  502  501  0.00000000000E+00  0.00000000000E+00  0.34530273359E+03  0.34530273359E+03  0.00000000000E+00 0. -1.
         21   -1    0    0  501  502 -0.00000000000E+00 -0.00000000000E+00 -0.65856790116E+03  0.65856790116E+03  0.00000000000E+00 0. -1.
         25    1    1    2    0    0  0.38779433894E+03  0.63663522039E+02  0.95417546699E+02  0.42328123225E+03  0.12500000000E+03 0.  0.
         25    1    1    2    0    0 -0.38779433894E+03 -0.63663522039E+02 -0.40868271427E+03  0.58058940251E+03  0.12500000000E+03 0.  0.
</event>
<event>
 4    0  0.2182372E-002  0.6193231E+03  0.7546771E-02  0.9866108E-01
         21   -1    0    0  502  501  0.00000000000E+00  0.00000000000E+00  0.44444362940E+03  0.44444362940E+03  0.00000000000E+00 0. -1.
         21   -1    0    0  501  502 -0.00000000000E+00 -0.00000000000E+00 -0.86301411953E+03  0.86301411953E+03  0.00000000000E+00 0.  1.
         25    1    1    2    0    0 -0.14641676595E+03  0.51831295840E+03 -0.50380165804E+03  0.74801557660E+03  0.12500000000E+03 0.  0.
         25    1    1    2    0    0  0.14641676595E+03 -0.51831295840E+03  0.85231167915E+02  0.55944217233E+03  0.12500000000E+03 0.  0.
</event>
<event>
 4    0  0.2182372E-002  0.2358880E+03  0.7546771E-02  0.1122563E+00
         21   -1    0    0  502  501  0.00000000000E+00  0.00000000000E+00  0.58648604531E+02  0.58648604531E+02  0.00000000000E+00 0. -1.
         21   -1    0    0  501  502 -0.00000000000E+00 -0.00000000000E+00 -0.94875468834E+03  0.94875468834E+03  0.00000000000E+00 0. -1.
         25    1    1    2    0    0 -0.19347684030E+03  0.31387775085E+02 -0.53045762575E+03  0.57916213004E+03  0.12500000000E+03 0.  0.
         25    1    1    2    0    0  0.19347684030E+03 -0.31387775085E+02 -0.35964845806E+03  0.42824116283E+03  0.12500000000E+03 0.  0.
</event>
<event>
 4    0  0.2182372E-002  0.1778135E+03  0.7546771E-02  0.1169936E+00
         21   -1    0    0  502  501  0.00000000000E+00  0.00000000000E+00  0.29385402709E+03  0.29385402709E+03  0.00000000000E+00 0. -1.
         21   -1    0    0  501  502 -0.00000000000E+00 -0.00000000000E+00 -0.10759640864E+03  0.10759640864E+03  0.00000000000E+00 0. -1.
         25    1    1    2    0    0 -0.25907277625E+02 -0.10492907192E+03  0.16725017349E+03  0.23511469053E+03  0.12500000000E+03 0.  0.
         25    1    1    2    0    0  0.25907277625E+02  0.10492907192E+03  0.19007444959E+02  0.16633574520E+03  0.12500000000E+03 0.  0.
</event>
<event>
 4    0  0.2182372E-002  0.1864087E+03  0.7546771E-02  0.1161741E+00
         21   -1    0    0  502  501  0.00000000000E+00  0.00000000000E+00  0.97120380060E+03  0.97120380060E+03  0.00000000000E+00 0.  1.
         21   -1    0    0  501  502 -0.00000000000E+00 -0.00000000000E+00 -0.35778485584E+02  0.35778485584E+02  0.00000000000E+00 0.  1.
         25    1    1    2    0    0 -0.32854365649E+01 -0.61258894085E+02  0.13296479265E+03  0.19253073075E+03  0.12500000000E+03 0.  0.
         25    1    1    2    0    0  0.32854365649E+01  0.61258894085E+02  0.80246052237E+03  0.81445155544E+03  0.12500000000E+03 0.  0.
</event>
<event>
 4    0  0.2182372E-002  0.2721635E+03  0.7546771E-02  0.1100048E+00
         21   -1    0    0  502  501  0.00000000000E+00  0.00000000000E+00  0.16509926877E+03  0.16509926877E+03  0.00000000000E+00 0.  1.
         21   -1    0    0  501  502 -0.00000000000E+00 -0.00000000000E+00 -0.44865725500E+03  0.44865725500E+03  0.00000000000E+00 0.  1.
         25    1    1    2    0    0 -0.42673648078E+02 -0.19911806553E+03  0.51445849372E+01  0.23899897701E+03  0.12500000000E+03 0.  0.
         25    1    1    2    0    0  0.42673648078E+02  0.19911806553E+03 -0.28870257116E+03  0.37475754676E+03  0.12500000000E+03 0.  0.
</event>
<event>
 4    0  0.2182372E-002  0.2832622E+03  0.7546771E-02  0.1093920E+00
         21   -1    0    0  502  501  0.00000000000E+00  0.00000000000E+00  0.81269359271E+03  0.81269359271E+03  0.00000000000E+00 0.  1.
         21   -1    0    0  501  502 -0.00000000000E+00 -0.00000000000E+00 -0.98730302797E+02  0.98730302797E+02  0.00000000000E+00 0.  1.
         25    1    1    2    0    0 -0.10007325794E+03  0.21409899448E+03  0.20641106111E+03  0.33776258309E+03  0.12500000000E+03 0.  0.
         25    1    1    2    0    0  0.10007325794E+03 -0.21409899448E+03  0.50755222881E+03  0.57366131241E+03  0.12500000000E+03 0.  0.
</event>
<event>
 4    0  0.2182372E-002  0.3836066E+03  0.7546771E-02  0.1049609E+00
         21   -1    0    0  502  501  0.00000000000E+00  0.00000000000E+00  0.14942461853E+03  0.14942461853E+03  0.00000000000E+00 0.  1.
         21   -1    0    0  501  502 -0.00000000000E+00 -0.00000000000E+00 -0.98480437287E+03  0.98480437287E+03  0.00000000000E+00 0.  1.
         25    1    1    2    0    0 -0.18171668675E+03 -0.30936775110E+03 -0.49591336625E+03  0.62472748178E+03  0.12500000000E+03 0.  0.
         25    1    1    2    0    0  0.18171668675E+03  0.30936775110E+03 -0.33946638810E+03  0.50950150963E+03  0.12500000000E+03 0.  0.
</event>
<event>
 4    0  0.2182372E-002  0.3095537E+03  0.7546771E-02  0.1080560E+00
         21   -1    0    0  502  501  0.00000000000E+00  0.00000000000E+00  0.94119964122E+02  0.94119964122E+02  0.00000000000E+00 0.  1.
         21   -1    0    0  501  502 -0.00000000000E+00 -0.00000000000E+00 -0.10180995305E+04  0.10180995305E+04  0.00000000000E+00 0.  1.
         25    1    1    2    0    0 -0.21365334761E+03 -0.78072051129E+02 -0.15894447072E+03  0.30435397629E+03  0.12500000000E+03 0.  0.
         25    1    1    2    0    0  0.21365334761E+03  0.78072051129E+02 -0.76503509564E+03  0.80786551831E+03  0.12500000000E+03 0.  0.
</event>
<event>
 4    0  0.2182372E-002  0.2559801E+03  0.7546771E-02  0.1109583E+00
         21   -1    0    0  502  501  0.00000000000E+00  0.00000000000E+00  0.65540788472E+03  0.65540788472E+03  0.00000000000E+00 0.  1.
         21   -1    0    0  501  502 -0.00000000000E+00 -0.00000000000E+00 -0.99977165913E+02  0.99977165913E+02  0.00000000000E+00 0.  1.
         25    1    1    2    0    0 -0.60323494322E+02  0.18261788704E+03  0.11005163792E+03  0.25441025853E+03  0.12500000000E+03 0.  0.
         25    1    1    2    0    0  0.60323494322E+02 -0.18261788704E+03  0.44537908089E+03  0.50097479211E+03  0.12500000000E+03 0.  0.
</event>
<event>
 4    0  0.2182372E-002  0.1876005E+03  0.7546771E-02  0.1160643E+00
         21   -1    0    0  502  501  0.00000000000E+00  0.00000000000E+00  0.20620229330E+03  0.20620229330E+03  0.00000000000E+00 0.  1.
         21   -1    0    0  501  502 -0.00000000000E+00 -0.00000000000E+00 -0.17067688440E+03  0.17067688440E+03  0.00000000000E+00 0.  1.
         25    1    1    2    0    0  0.13016128305E+03  0.15315882231E+02 -0.31368520205E+02  0.18380837824E+03  0.12500000000E+03 0.  0.
         25    1    1    2    0    0 -0.13016128305E+03 -0.15315882231E+02  0.66893929103E+02  0.19307079946E+03  0.12500000000E+03 0.  0.
</event>
<event>
 4    0  0.2182372E-002  0.2420658E+03  0.7546771E-02  0.1118424E+00
         21   -1    0    0  502  501  0.00000000000E+00  0.00000000000E+00  0.13011328115E+03  0.13011328115E+03  0.00000000000E+00 0.  1.
         21   -1    0    0  501  502 -0.00000000000E+00 -0.00000000000E+00 -0.45034496833E+03  0.45034496833E+03  0.00000000000E+00 0.  1.
         25    1    1    2    0    0 -0.12274569024E+03 -0.75667189510E+02  0.18441152049E+02  0.19172142324E+03  0.12500000000E+03 0.  0.
         25    1    1    2    0    0  0.12274569024E+03  0.75667189510E+02 -0.33867283924E+03  0.38873682624E+03  0.12500000000E+03 0.  0.
</event>
<event>
 4    0  0.2182372E-002  0.1967885E+03  0.7546771E-02  0.1152477E+00
         21   -1    0    0  502  501  0.00000000000E+00  0.00000000000E+00  0.35246366128E+03  0.35246366128E+03  0.00000000000E+00 0. -1.
         21   -1    0    0  501  502 -0.00000000000E+00 -0.00000000000E+00 -0.10987153946E+03  0.10987153946E+03  0.00000000000E+00 0. -1.
         25    1    1    2    0    0 -0.28113149827E+02 -0.73004629194E+02 -0.31779190165E+02  0.15084741299E+03  0.12500000000E+03 0.  0.
         25    1    1    2    0    0  0.28113149827E+02  0.73004629194E+02  0.27437131198E+03  0.31148778775E+03  0.12500000000E+03 0.  0.
</event>
<event>
 4    0  0.2182372E-002  0.2379887E+03  0.7546771E-02  0.1121140E+00
         21   -1    0    0  502  501  0.00000000000E+00  0.00000000000E+00  0.77326242881E+02  0.77326242881E+02  0.00000000000E+00 0.  1.
         21   -1    0    0  501  502 -0.00000000000E+00 -0.00000000000E+00 -0.73246326932E+03  0.73246326932E+03  0.00000000000E+00 0.  1.
         25    1    1    2    0    0 -0.73304121973E+02  0.18679811877E+03 -0.37405536241E+03  0.44250361086E+03  0.12500000000E+03 0.  0.
         25    1    1    2    0    0  0.73304121973E+02 -0.18679811877E+03 -0.28108166403E+03  0.36728590135E+03  0.12500000000E+03 0.  0.
</event>
<event>
 4    0  0.2182372E-002  0.2462912E+03  0.7546771E-02  0.1115671E+00
         21   -1    0    0  502  501  0.00000000000E+00  0.00000000000E+00  0.44394973203E+03  0.44394973203E+03  0.00000000000E+00 0.  1.
         21   -1    0    0  501  502 -0.00000000000E+00 -0.00000000000E+00 -0.13663568434E+03  0.13663568434E+03  0.00000000000E+00 0.  1.
         25    1    1    2    0    0 -0.11148554308E+03 -0.17169373248E+03  0.87751151856E+02  0.25540757378E+03  0.12500000000E+03 0.  0.
         25    1    1    2    0    0  0.11148554308E+03  0.17169373248E+03  0.21956289584E+03  0.32517784260E+03  0.12500000000E+03 0.  0.
</event>
<event>
 4    0  0.2182372E-002  0.2469881E+03  0.7546771E-02  0.1115223E+00
         21   -1    0    0  502  501  0.00000000000E+00  0.00000000000E+00  0.43938662774E+03  0.43938662774E+03  0.00000000000E+00 0.  1.
         21   -1    0    0  501  502 -0.00000000000E+00 -0.00000000000E+00 -0.13883694784E+03  0.13883694784E+03  0.00000000000E+00 0.  1.
         25    1    1    2    0    0  0.18790819366E+03 -0.94680669433E+02  0.11137840726E+03  0.26889415764E+03  0.12500000000E+03 0.  0.
         25    1    1    2    0    0 -0.18790819366E+03  0.94680669433E+02  0.18917127264E+03  0.30932941794E+03  0.12500000000E+03 0.  0.
</event>
<event>
 4    0  0.2182372E-002  0.2109138E+03  0.7546771E-02  0.1140844E+00
         21   -1    0    0  502  501  0.00000000000E+00  0.00000000000E+00  0.11853038682E+03  0.11853038682E+03  0.00000000000E+00 0. -1.
         21   -1    0    0  501  502 -0.00000000000E+00 -0.00000000000E+00 -0.37530165863E+03  0.37530165863E+03  0.00000000000E+00 0. -1.
         25    1    1    2    0    0  0.33171085899E+02  0.13011677343E+03 -0.65603451190E+01  0.18357214874E+03  0.12500000000E+03 0.  0.
         25    1    1    2    0    0 -0.33171085899E+02 -0.13011677343E+03 -0.25021092670E+03  0.31025989671E+03  0.12500000000E+03 0.  0.
</event>
<event>
 4    0  0.2182372E-002  0.2039482E+03  0.7546771E-02  0.1146450E+00
         21   -1    0    0  502  501  0.00000000000E+00  0.00000000000E+00  0.31853725905E+03  0.31853725905E+03  0.00000000000E+00 0.  1.
         21   -1    0    0  501  502 -0.00000000000E+00 -0.00000000000E+00 -0.13058084099E+03  0.13058084099E+03  0.00000000000E+00 0.  1.
         25    1    1    2    0    0 -0.10204271020E+03 -0.32617539836E+02  0.22653241810E+03  0.28003313208E+03  0.12500000000E+03 0.  0.
         25    1    1    2    0    0  0.10204271020E+03  0.32617539836E+02 -0.38576000048E+02  0.16908496796E+03  0.12500000000E+03 0.  0.
</event>
<event>
 4    0  0.2182372E-002  0.2394604E+03  0.7546771E-02  0.1120153E+00
         21   -1    0    0  502  501  0.00000000000E+00  0.00000000000E+00  0.35728814149E+03  0.35728814149E+03  0.00000000000E+00 0.  1.
         21   -1    0    0  501  502 -0.00000000000E+00 -0.00000000000E+00 -0.16049024585E+03  0.16049024585E+03  0.00000000000E+00 0.  1.
         25    1    1    2    0    0  0.17265298200E+03  0.15661301554E+01  0.21636052292E+03  0.30372418546E+03  0.12500000000E+03 0.  0.
         25    1    1    2    0    0 -0.17265298200E+03 -0.15661301554E+01 -0.19562627282E+02  0.21405420188E+03  0.12500000000E+03 0.  0.
</event>
<event>
 4    0  0.2182372E-002  0.1793946E+03  0.7546771E-02  0.1168390E+00
         21   -1    0    0  502  501  0.00000000000E+00  0.00000000000E+00  0.17278295022E+03  0.17278295022E+03  0.00000000000E+00 0.  1.
         21   -1    0    0  501  502 -0.00000000000E+00 -0.00000000000E+00 -0.18625928258E+03  0.18625928258E+03  0.00000000000E+00 0.  1.
         25    1    1    2    0    0 -0.38776549071E+02 -0.11632798997E+02 -0.12896554666E+03  0.18410881293E+03  0.12500000000E+03 0.  0.
         25    1    1    2    0    0  0.38776549071E+02  0.11632798997E+02  0.11548921430E+03  0.17493341987E+03  0.12500000000E+03 0.  0.
</event>
<event>
 4    0  0.2182372E-002  0.3163663E+03  0.7546771E-02  0.1077334E+00
         21   -1    0    0  502  501  0.00000000000E+00  0.00000000000E+00  0.70294709532E+02  0.70294709532E+02  0.00000000000E+00 0.  1.
         21   -1    0    0  501  502 -0.00000000000E+00 -0.00000000000E+00 -0.14238292132E+04  0.14238292132E+04  0.00000000000E+00 0.  1.
         25    1    1    2    0    0  0.21780113694E+03  0.19182992411E+03 -0.71231417272E+03  0.77926409881E+03  0.12500000000E+03 0.  0.
         25    1    1    2    0    0 -0.21780113694E+03 -0.19182992411E+03 -0.64122033095E+03  0.71485982393E+03  0.12500000000E+03 0.  0.
</event>
<event>
 4    0  0.2182372E-002  0.3056119E+03  0.7546771E-02  0.1082468E+00
         21   -1    0    0  502  501  0.00000000000E+00  0.00000000000E+00  0.18437436042E+03  0.18437436042E+03  0.00000000000E+00 0. -1.
         21   -1    0    0  501  502 -0.00000000000E+00 -0.00000000000E+00 -0.50657075362E+03  0.50657075362E+03  0.00000000000E+00 0. -1.
         25    1    1    2    0    0  0.87033665126E+02 -0.14833694606E+03  0.87068787568E+02  0.22974917236E+03  0.12500000000E+03 0.  0.
         25    1    1    2    0    0 -0.87033665126E+02  0.14833694606E+03 -0.40926518077E+03  0.46119594168E+03  0.12500000000E+03 0.  0.
</event>
<event>
 4    0  0.2182372E-002  0.1861027E+03  0.7546771E-02  0.1162024E+00
         21   -1    0    0  502  501  0.00000000000E+00  0.00000000000E+00  0.30747809562E+03  0.30747809562E+03  0.00000000000E+00 0.  1.
         21   -1    0    0  501  502 -0.00000000000E+00 -0.00000000000E+00 -0.11263960624E+03  0.11263960624E+03  0.00000000000E+00 0.  1.
         25    1    1    2    0    0 -0.11995887257E+03 -0.67961351696E+02  0.98072722252E+02  0.21036191500E+03  0.12500000000E+03 0.  0.
         25    1    1    2    0    0  0.11995887257E+03  0.67961351696E+02  0.96765767131E+02  0.20975578686E+03  0.12500000000E+03 0.  0.
</event>
<event>
 4    0  0.2182372E-002  0.1996361E+03  0.7546771E-02  0.1150046E+00
         21   -1    0    0  502  501  0.00000000000E+00  0.00000000000E+00  0.84892552442E+02  0.84892552442E+02  0.00000000000E+00 0.  1.
         21   -1    0    0  501  502 -0.00000000000E+00 -0.00000000000E+00 -0.46947079028E+03  0.46947079028E+03  0.00000000000E+00 0.  1.
         25    1    1    2    0    0  0.68231668344E+02 -0.13903768389E+03 -0.21391197970E+03  0.29218208906E+03  0.12500000000E+03 0.  0.
         25    1    1    2    0    0 -0.68231668344E+02  0.13903768389E+03 -0.17066625814E+03  0.26218125366E+03  0.12500000000E+03 0.  0.
</event>
<event>
 4    0  0.2182372E-002  0.2543615E+03  0.7546771E-02  0.1110579E+00
         21   -1    0    0  502  501  0.00000000000E+00  0.00000000000E+00  0.36654984845E+03  0.36654984845E+03  0.00000000000E+00 0.  1.
         21   -1    0    0  501  502 -0.00000000000E+00 -0.00000000000E+00 -0.17651019180E+03  0.17651019180E+03  0.00000000000E+00 0.  1.
         25    1    1    2    0    0 -0.11336174373E+03 -0.18668033941E+03  0.55445358264E+02  0.25768124071E+03  0.12500000000E+03 0.  0.
         25    1    1    2    0    0  0.11336174373E+03  0.18668033941E+03  0.13459429838E+03  0.28537879953E+03  0.12500000000E+03 0.  0.
</event>
<event>
 4    0  0.2182372E-002  0.1629441E+03  0.7546771E-02  0.1185412E+00
         21   -1    0    0  502  501  0.00000000000E+00  0.00000000000E+00  0.11314300796E+04  0.11314300796E+04  0.00000000000E+00 0.  1.
         21   -1    0    0  501  502 -0.00000000000E+00 -0.00000000000E+00 -0.23466567339E+02  0.23466567339E+02  0.00000000000E+00 0.  1.
         25    1    1    2    0    0 -0.72014118273E+02 -0.58817706373E+02  0.38475724432E+03  0.41510082254E+03  0.12500000000E+03 0.  0.
         25    1    1    2    0    0  0.72014118273E+02  0.58817706373E+02  0.72320626796E+03  0.73979582442E+03  0.12500000000E+03 0.  0.
</event>
<event>
 4    0  0.2182372E-002  0.2544113E+03  0.7546771E-02  0.1110548E+00
         21   -1    0    0  502  501  0.00000000000E+00  0.00000000000E+00  0.23629730720E+03  0.23629730720E+03  0.00000000000E+00 0.  1.
         21   -1    0    0  501  502 -0.00000000000E+00 -0.00000000000E+00 -0.27391393445E+03  0.27391393445E+03  0.00000000000E+00 0.  1.
         25    1    1    2    0    0 -0.94649803179E+02 -0.17846364116E+03  0.72502089568E+02  0.24837352807E+03  0.12500000000E+03 0.  0.
         25    1    1    2    0    0  0.94649803179E+02  0.17846364116E+03 -0.11011871682E+03  0.26183771357E+03  0.12500000000E+03 0.  0.
</event>
<event>
 4    0  0.2182372E-002  0.3142030E+03  0.7546771E-02  0.1078349E+00
         21   -1    0    0  502  501  0.00000000000E+00  0.00000000000E+00  0.34784848776E+03  0.34784848776E+03  0.00000000000E+00 0. -1.
         21   -1    0    0  501  502 -0.00000000000E+00 -0.00000000000E+00 -0.28381192171E+03  0.28381192171E+03  0.00000000000E+00 0. -1.
         25    1    1    2    0    0  0.70804195657E+02  0.17861961814E+03 -0.18399073098E+03  0.29393160972E+03  0.12500000000E+03 0.  0.
         25    1    1    2    0    0 -0.70804195657E+02 -0.17861961814E+03  0.24802729703E+03  0.33772879975E+03  0.12500000000E+03 0.  0.
</event>
<event>
 4    0  0.2182372E-002  0.2317342E+03  0.7546771E-02  0.1125425E+00
         21   -1    0    0  502  501  0.00000000000E+00  0.00000000000E+00  0.64828036677E+03  0.64828036677E+03  0.00000000000E+00 0.  1.
         21   -1    0    0  501  502 -0.00000000000E+00 -0.00000000000E+00 -0.82835651368E+02  0.82835651368E+02  0.00000000000E+00 0.  1.
         25    1    1    2    0    0  0.50773794479E+01 -0.77801341436E+02  0.56489841500E+03  0.58379281238E+03  0.12500000000E+03 0.  0.
         25    1    1    2    0    0 -0.50773794479E+01  0.77801341436E+02  0.54630039931E+00  0.14732320576E+03  0.12500000000E+03 0.  0.
</event>
<event>
 4    0  0.2182372E-002  0.1988833E+03  0.7546771E-02  0.1150685E+00
         21   -1    0    0  502  501  0.00000000000E+00  0.00000000000E+00  0.15180208065E+03  0.15180208065E+03  0.00000000000E+00 0. -1.
         21   -1    0    0  501  502 -0.00000000000E+00 -0.00000000000E+00 -0.26056670124E+03  0.26056670124E+03  0.00000000000E+00 0. -1.
         25    1    1    2    0    0  0.28487593281E+02  0.12226173192E+03 -0.14808908142E+03  0.23090008683E+03  0.12500000000E+03 0.  0.
         25    1    1    2    0    0 -0.28487593281E+02 -0.12226173192E+03  0.39324460828E+02  0.18146869505E+03  0.12500000000E+03 0.  0.
</event>
<event>
 4    0  0.2182372E-002  0.2321916E+03  0.7546771E-02  0.1125107E+00
         21   -1    0    0  502  501  0.00000000000E+00  0.00000000000E+00  0.44540076602E+03  0.44540076602E+03  0.00000000000E+00 0.  1.
         21   -1    0    0  501  502 -0.00000000000E+00 -0.00000000000E+00 -0.12104362060E+03  0.12104362060E+03  0.00000000000E+00 0.  1.
         25    1    1    2    0    0  0.71755586205E+02  0.16556941463E+03  0.25447819567E+03  0.33607476443E+03  0.12500000000E+03 0.  0.
         25    1    1    2    0    0 -0.71755586205E+02 -0.16556941463E+03  0.69878949742E+02  0.23036962219E+03  0.12500000000E+03 0.  0.
</event>
<event>
 4    0  0.2182372E-002  0.2498346E+03  0.7546771E-02  0.1113409E+00
         21   -1    0    0  502  501  0.00000000000E+00  0.00000000000E+00  0.16677993103E+03  0.16677993103E+03  0.00000000000E+00 0. -1.
         21   -1    0    0  501  502 -0.00000000000E+00 -0.00000000000E+00 -0.37424972145E+03  0.37424972145E+03  0.00000000000E+00 0. -1.
         25    1    1    2    0    0 -0.85052283037E+02  0.87910627138E+02  0.89443225985E+02  0.19643640164E+03  0.12500000000E+03 0.  0.
         25    1    1    2    0    0  0.85052283037E+02 -0.87910627138E+02 -0.29691301641E+03  0.34459325084E+03  0.12500000000E+03 0.  0.
</event>
<event>
 4    0  0.2182372E-002  0.3018731E+03  0.7546771E-02  0.1084308E+00
         21   -1    0    0  502  501  0.00000000000E+00  0.00000000000E+00  0.37286884750E+03  0.37286884750E+03  0.00000000000E+00 0.  1.
         21   -1    0    0  501  502 -0.00000000000E+00 -0.00000000000E+00 -0.24439516607E+03  0.24439516607E+03  0.00000000000E+00 0. -1.
         25    1    1    2    0    0 -0.54900340213E+02  0.25104446104E+03  0.16370322825E+03  0.32933435246E+03  0.12500000000E+03 0.  0.
         25    1    1    2    0    0  0.54900340213E+02 -0.25104446104E+03 -0.35229546821E+02  0.28792966110E+03  0.12500000000E+03 0.  0.
</event>
<event>
 4    0  0.2182372E-002  0.2213733E+03  0.7546771E-02  0.1132863E+00
         21   -1    0    0  502  501  0.00000000000E+00  0.00000000000E+00  0.38593866799E+03  0.38593866799E+03  0.00000000000E+00 0.  1.
         21   -1    0    0  501  502 -0.00000000000E+00 -0.00000000000E+00 -0.12697908740E+03  0.12697908740E+03  0.00000000000E+00 0.  1.
         25    1    1    2    0    0  0.14837200191E+03  0.10649738982E+03  0.13529477391E+03  0.25939472014E+03  0.12500000000E+03 0.  0.
         25    1    1    2    0    0 -0.14837200191E+03 -0.10649738982E+03  0.12366480668E+03  0.25352303525E+03  0.12500000000E+03 0.  0.
</event>
<event>
 4    0  0.2182372E-002  0.2375245E+03  0.7546771E-02  0.1121453E+00
         21   -1    0    0  502  501  0.00000000000E+00  0.00000000000E+00  0.19994537263E+03  0.19994537263E+03  0.00000000000E+00 0. -1.
         21   -1    0    0  501  502 -0.00000000000E+00 -0.00000000000E+00 -0.28216653134E+03  0.28216653134E+03  0.00000000000E+00 0. -1.
         25    1    1    2    0    0 -0.10926113568E+03 -0.12561229469E+03  0.74941873681E+02  0.22126393465E+03  0.12500000000E+03 0.  0.
         25    1    1    2    0    0  0.10926113568E+03  0.12561229469E+03 -0.15716303239E+03  0.26084796932E+03  0.12500000000E+03 0.  0.
</event>
<event>
 4    0  0.2182372E-002  0.1957846E+03  0.7546771E-02  0.1153345E+00
         21   -1    0    0  502  501  0.00000000000E+00  0.00000000000E+00  0.91052414493E+03  0.91052414493E+03  0.00000000000E+00 0.  1.
         21   -1    0    0  501  502 -0.00000000000E+00 -0.00000000000E+00 -0.42098403172E+02  0.42098403172E+02  0.00000000000E+00 0.  1.
         25    1    1    2    0    0 -0.55898906845E+02  0.12948721548E+03  0.56329033359E+03  0.59398032516E+03  0.12500000000E+03 0.  0.
         25    1    1    2    0    0  0.55898906845E+02 -0.12948721548E+03  0.30513540817E+03  0.35864222294E+03  0.12500000000E+03 0.  0.
</event>
<event>
 4    0  0.2182372E-002  0.3373328E+03  0.7546771E-02  0.1067938E+00
         21   -1    0    0  502  501  0.00000000000E+00  0.00000000000E+00  0.64017434623E+02  0.64017434623E+02  0.00000000000E+00 0. -1.
         21   -1    0    0  501  502 -0.00000000000E+00 -0.00000000000E+00 -0.17775381919E+04  0.17775381919E+04  0.00000000000E+00 0. -1.
         25    1    1    2    0    0 -0.18856488717E+03  0.22402724453E+03 -0.11610018655E+04  0.12038667928E+04  0.12500000000E+03 0.  0.
         25    1    1    2    0    0  0.18856488717E+03 -0.22402724453E+03 -0.55251889180E+03  0.63768883380E+03  0.12500000000E+03 0.  0.
</event>
<event>
 4    0  0.2182372E-002  0.1890365E+03  0.7546771E-02  0.1159333E+00
         21   -1    0    0  502  501  0.00000000000E+00  0.00000000000E+00  0.16819450302E+03  0.16819450302E+03  0.00000000000E+00 0.  1.
         21   -1    0    0  501  502 -0.00000000000E+00 -0.00000000000E+00 -0.21246122485E+03  0.21246122485E+03  0.00000000000E+00 0. -1.
         25    1    1    2    0    0 -0.83070369516E+02  0.10867703763E+03  0.15517618163E+02  0.18594940514E+03  0.12500000000E+03 0.  0.
         25    1    1    2    0    0  0.83070369516E+02 -0.10867703763E+03 -0.59784339993E+02  0.19470632272E+03  0.12500000000E+03 0.  0.
</event>
<event>
 4    0  0.2182372E-002  0.2361024E+03  0.7546771E-02  0.1122417E+00
         21   -1    0    0  502  501  0.00000000000E+00  0.00000000000E+00  0.22478002572E+03  0.22478002572E+03  0.00000000000E+00 0.  1.
         21   -1    0    0  501  502 -0.00000000000E+00 -0.00000000000E+00 -0.24799499679E+03  0.24799499679E+03  0.00000000000E+00 0.  1.
         25    1    1    2    0    0 -0.95175338014E+02  0.90469644563E+02 -0.16303902750E+03  0.24382335007E+03  0.12500000000E+03 0.  0.
         25    1    1    2    0    0  0.95175338014E+02 -0.90469644563E+02  0.13982405643E+03  0.22895167243E+03  0.12500000000E+03 0.  0.
</event>
<event>
 4    0  0.2182372E-002  0.2370784E+03  0.7546771E-02  0.1121755E+00
         21   -1    0    0  502  501  0.00000000000E+00  0.00000000000E+00  0.10497071804E+03  0.10497071804E+03  0.00000000000E+00 0. -1.
         21   -1    0    0  501  502 -0.00000000000E+00 -0.00000000000E+00 -0.53544615091E+03  0.53544615091E+03  0.00000000000E+00 0. -1.
         25    1    1    2    0    0 -0.19836652352E+03 -0.30754959896E+02 -0.23808004061E+03  0.33556258872E+03  0.12500000000E+03 0.  0.
         25    1    1    2    0    0  0.19836652352E+03  0.30754959896E+02 -0.19239539226E+03  0.30485428023E+03  0.12500000000E+03 0.  0.
</event>
<event>
 4    0  0.2182372E-002  0.1887350E+03  0.7546771E-02  0.1159607E+00
         21   -1    0    0  502  501  0.00000000000E+00  0.00000000000E+00  0.22898993264E+04  0.22898993264E+04  0.00000000000E+00 0.  1.
         21   -1    0    0  501  502 -0.00000000000E+00 -0.00000000000E+00 -0.15555669875E+02  0.15555669875E+02  0.00000000000E+00 0.  1.
         25    1    1    2    0    0  0.65791148673E+02 -0.76945786706E+02  0.17401545583E+04  0.17475731790E+04  0.12500000000E+03 0.  0.
         25    1    1    2    0    0 -0.65791148673E+02  0.76945786706E+02  0.53418909823E+03  0.55788181723E+03  0.12500000000E+03 0.  0.
</event>
<event>
 4    0  0.2182372E-002  0.2541670E+03  0.7546771E-02  0.1110699E+00
         21   -1    0    0  502  501  0.00000000000E+00  0.00000000000E+00  0.35739046104E+03  0.35739046104E+03  0.00000000000E+00 0. -1.
         21   -1    0    0  501  502 -0.00000000000E+00 -0.00000000000E+00 -0.18075707189E+03  0.18075707189E+03  0.00000000000E+00 0. -1.
         25    1    1    2    0    0 -0.62317469314E+02 -0.13812710781E+03  0.25906242725E+03  0.32511675765E+03  0.12500000000E+03 0.  0.
         25    1    1    2    0    0  0.62317469314E+02  0.13812710781E+03 -0.82429038094E+02  0.21303077528E+03  0.12500000000E+03 0.  0.
</event>
<event>
 4    0  0.2182372E-002  0.2067650E+03  0.7546771E-02  0.1144154E+00
         21   -1    0    0  502  501  0.00000000000E+00  0.00000000000E+00  0.53111988836E+03  0.53111988836E+03  0.00000000000E+00 0.  1.
         21   -1    0    0  501  502 -0.00000000000E+00 -0.00000000000E+00 -0.80493591804E+02  0.80493591804E+02  0.00000000000E+00 0.  1.
         25    1    1    2    0    0 -0.74255612972E+02  0.12489264773E+03  0.34001655260E+03  0.39031823626E+03  0.12500000000E+03 0.  0.
         25    1    1    2    0    0  0.74255612972E+02 -0.12489264773E+03  0.11060974395E+03  0.22129524390E+03  0.12500000000E+03 0.  0.
</event>
<event>
 4    0  0.2182372E-002  0.2669914E+03  0.7546771E-02  0.1103014E+00
         21   -1    0    0  502  501  0.00000000000E+00  0.00000000000E+00  0.27008279471E+03  0.27008279471E+03  0.00000000000E+00 0. -1.
         21   -1    0    0  501  502 -0.00000000000E+00 -0.00000000000E+00 -0.26393543814E+03  0.26393543814E+03  0.00000000000E+00 0. -1.
         25    1    1    2    0    0 -0.10400105749E+03  0.11856785389E+03 -0.17239411025E+03  0.26498921711E+03  0.12500000000E+03 0.  0.
         25    1    1    2    0    0  0.10400105749E+03 -0.11856785389E+03  0.17854146681E+03  0.26902901574E+03  0.12500000000E+03 0.  0.
</event>
<event>
 4    0  0.2182372E-002  0.1738294E+03  0.7546771E-02  0.1173912E+00
         21   -1    0    0  502  501  0.00000000000E+00  0.00000000000E+00  0.50810421424E+03  0.50810421424E+03  0.00000000000E+00 0.  1.
         21   -1    0    0  501  502 -0.00000000000E+00 -0.00000000000E+00 -0.59469380823E+02  0.59469380823E+02  0.00000000000E+00 0.  1.
         25    1    1    2    0    0 -0.65964240932E+02 -0.93975232539E+02  0.16303621269E+03  0.23534747090E+03  0.12500000000E+03 0.  0.
         25    1    1    2    0    0  0.65964240932E+02  0.93975232539E+02  0.28559862072E+03  0.33222612416E+03  0.12500000000E+03 0.  0.
</event>
<event>
 4    0  0.2182372E-002  0.3857637E+03  0.7546771E-02  0.1048824E+00
         21   -1    0    0  502  501  0.00000000000E+00  0.00000000000E+00  0.63847750198E+03  0.63847750198E+03  0.00000000000E+00 0.  1.
         21   -1    0    0  501  502 -0.00000000000E+00 -0.00000000000E+00 -0.23307571655E+03  0.23307571655E+03  0.00000000000E+00 0. -1.
         25    1    1    2    0    0 -0.25866230961E+03  0.19931612633E+03  0.18615307147E+02  0.35014945136E+03  0.12500000000E+03 0.  0.
         25    1    1    2    0    0  0.25866230961E+03 -0.19931612633E+03  0.38678647828E+03  0.52140376716E+03  0.12500000000E+03 0.  0.
</event>
<event>
 4    0  0.2182372E-002  0.1853003E+03  0.7546771E-02  0.1162770E+00
         21   -1    0    0  502  501  0.00000000000E+00  0.00000000000E+00  0.21729630557E+03  0.21729630557E+03  0.00000000000E+00 0.  1.
         21   -1    0    0  501  502 -0.00000000000E+00 -0.00000000000E+00 -0.15801565710E+03  0.15801565710E+03  0.00000000000E+00 0.  1.
         25    1    1    2    0    0  0.35790708455E+02  0.82302927949E+02  0.13418282836E+03  0.20416850440E+03  0.12500000000E+03 0.  0.
         25    1    1    2    0    0 -0.35790708455E+02 -0.82302927949E+02 -0.74902179891E+02  0.17114345828E+03  0.12500000000E+03 0.  0.
</event>
<event>
 4    0  0.2182372E-002  0.1842141E+03  0.7546771E-02  0.1163786E+00
         21   -1    0    0  502  501  0.00000000000E+00  0.00000000000E+00  0.17657012846E+03  0.17657012846E+03  0.00000000000E+00 0. -1.
         21   -1    0    0  501  502 -0.00000000000E+00 -0.00000000000E+00 -0.19218905619E+03  0.19218905619E+03  0.00000000000E+00 0. -1.
         25    1    1    2    0    0 -0.11796086159E+03  0.64675866026E+02  0.67677456498E+01  0.18376216938E+03  0.12500000000E+03 0.  0.
         25    1    1    2    0    0  0.11796086159E+03 -0.64675866026E+02 -0.22386673381E+02  0.18499701527E+03  0.12500000000E+03 0.  0.
</event>
<event>
 4    0  0.2182372E-002  0.2897223E+03  0.7546771E-02  0.1090494E+00
         21   -1    0    0  502  501  0.00000000000E+00  0.00000000000E+00  0.55609715825E+03  0.55609715825E+03  0.00000000000E+00 0. -1.
         21   -1    0    0  501  502 -0.00000000000E+00 -0.00000000000E+00 -0.15094308990E+03  0.15094308990E+03  0.00000000000E+00 0. -1.
         25    1    1    2    0    0  0.15884984011E+03 -0.55231176880E+02  0.44671000609E+03  0.49341522488E+03  0.12500000000E+03 0.  0.
         25    1    1    2    0    0 -0.15884984011E+03  0.55231176880E+02 -0.41555937740E+02  0.21362502326E+03  0.12500000000E+03 0.  0.
</event>
<event>
 4    0  0.2182372E-002  0.3277009E+03  0.7546771E-02  0.1072159E+00
         21   -1    0    0  502  501  0.00000000000E+00  0.00000000000E+00  0.69411568030E+02  0.69411568030E+02  0.00000000000E+00 0. -1.
         21   -1    0    0  501  502 -0.00000000000E+00 -0.00000000000E+00 -0.15471177840E+04  0.15471177840E+04  0.00000000000E+00 0. -1.
         25    1    1    2    0    0 -0.25068752635E+03 -0.89531894139E+02 -0.38225673614E+03  0.48229182894E+03  0.12500000000E+03 0.  0.
         25    1    1    2    0    0  0.25068752635E+03  0.89531894139E+02 -0.10954494798E+04  0.11342375231E+04  0.12500000000E+03 0.  0.
</event>
<event>
 4    0  0.2182372E-002  0.2174732E+03  0.7546771E-02  0.1135781E+00
         21   -1    0    0  502  501  0.00000000000E+00  0.00000000000E+00  0.48918756456E+03  0.48918756456E+03  0.00000000000E+00 0.  1.
         21   -1    0    0  501  502 -0.00000000000E+00 -0.00000000000E+00 -0.96679893750E+02  0.96679893750E+02  0.00000000000E+00 0.  1.
         25    1    1    2    0    0  0.11813763489E+03 -0.12316666270E+03  0.12832672990E+03  0.24742529617E+03  0.12500000000E+03 0.  0.
         25    1    1    2    0    0 -0.11813763489E+03  0.12316666270E+03  0.26418094091E+03  0.33844216215E+03  0.12500000000E+03 0.  0.
</event>
<event>
 4    0  0.2182372E-002  0.2272780E+03  0.7546771E-02  0.1128570E+00
         21   -1    0    0  502  501  0.00000000000E+00  0.00000000000E+00  0.78202601793E+02  0.78202601793E+02  0.00000000000E+00 0. -1.
         21   -1    0    0  501  502 -0.00000000000E+00 -0.00000000000E+00 -0.66053133646E+03  0.66053133646E+03  0.00000000000E+00 0. -1.
         25    1    1    2    0    0  0.61083667550E+02 -0.16541640242E+03 -0.40534933268E+03  0.45937662341E+03  0.12500000000E+03 0.  0.
         25    1    1    2    0    0 -0.61083667550E+02  0.16541640242E+03 -0.17697940199E+03  0.27935731485E+03  0.12500000000E+03 0.  0.
</event>
<event>
 4    0  0.2182372E-002  0.2358262E+03  0.7546771E-02  0.1122605E+00
         21   -1    0    0  502  501  0.00000000000E+00  0.00000000000E+00  0.48963750258E+02  0.48963750258E+02  0.00000000000E+00 0.  1.
         21   -1    0    0  501  502 -0.00000000000E+00 -0.00000000000E+00 -0.11358198140E+04  0.11358198140E+04  0.00000000000E+00 0.  1.
         25    1    1    2    0    0  0.14277637285E+03 -0.62504544406E+02 -0.22870646811E+03  0.30368332070E+03  0.12500000000E+03 0.  0.
         25    1    1    2    0    0 -0.14277637285E+03  0.62504544406E+02 -0.85814959564E+03  0.88110024357E+03  0.12500000000E+03 0.  0.
</event>
<event>
 4    0  0.2182372E-002  0.3134247E+03  0.7546771E-02  0.1078716E+00
         21   -1    0    0  502  501  0.00000000000E+00  0.00000000000E+00  0.10220789720E+03  0.10220789720E+03  0.00000000000E+00 0. -1.
         21   -1    0    0  501  502 -0.00000000000E+00 -0.00000000000E+00 -0.96112945151E+03  0.96112945151E+03  0.00000000000E+00 0. -1.
         25    1    1    2    0    0  0.24759008724E+03  0.74519777640E+00 -0.18184090220E+03  0.33165120282E+03  0.12500000000E+03 0.  0.
         25    1    1    2    0    0 -0.24759008724E+03 -0.74519777640E+00 -0.67708065211E+03  0.73168614589E+03  0.12500000000E+03 0.  0.
</event>
<event>
 4    0  0.2182372E-002  0.2301297E+03  0.7546771E-02  0.1126549E+00
         21   -1    0    0  502  501  0.00000000000E+00  0.00000000000E+00  0.12960732756E+03  0.12960732756E+03  0.00000000000E+00 0. -1.
         21   -1    0    0  501  502 -0.00000000000E+00 -0.00000000000E+00 -0.40861636117E+03  0.40861636117E+03  0.00000000000E+00 0. -1.
         25    1    1    2    0    0  0.81133589483E+02 -0.39990029874E+02 -0.33916880319E+03  0.37261553764E+03  0.12500000000E+03 0.  0.
         25    1    1    2    0    0 -0.81133589483E+02  0.39990029874E+02  0.60159769588E+02  0.16560815109E+03  0.12500000000E+03 0.  0.
</event>
<event>
 4    0  0.2182372E-002  0.2934876E+03  0.7546771E-02  0.1088542E+00
         21   -1    0    0  502  501  0.00000000000E+00  0.00000000000E+00  0.24131620120E+02  0.24131620120E+02  0.00000000000E+00 0. -1.
         21   -1    0    0  501  502 -0.00000000000E+00 -0.00000000000E+00 -0.35693818117E+04  0.35693818117E+04  0.00000000000E+00 0. -1.
         25    1    1    2    0    0  0.14321559638E+03 -0.11600609314E+03 -0.60233165555E+03  0.64218108348E+03  0.12500000000E+03 0.  0.
         25    1    1    2    0    0 -0.14321559638E+03  0.11600609314E+03 -0.29429185360E+04  0.29513323483E+04  0.12500000000E+03 0.  0.
</event>
<event>
 4    0  0.2182372E-002  0.1730752E+03  0.7546771E-02  0.1174678E+00
         21   -1    0    0  502  501  0.00000000000E+00  0.00000000000E+00  0.64700689163E+03  0.64700689163E+03  0.00000000000E+00 0.  1.
         21   -1    0    0  501  502 -0.00000000000E+00 -0.00000000000E+00 -0.46297834876E+02  0.46297834876E+02  0.00000000000E+00 0.  1.
         25    1    1    2    0    0 -0.89862768675E+02  0.38149103514E+02  0.16159895256E+03  0.22642855995E+03  0.12500000000E+03 0.  0.
         25    1    1    2    0    0  0.89862768675E+02 -0.38149103514E+02  0.43911010419E+03  0.46687616656E+03  0.12500000000E+03 0.  0.
</event>
<event>
 4    0  0.2182372E-002  0.2023556E+03  0.7546771E-02  0.1147767E+00
         21   -1    0    0  502  501  0.00000000000E+00  0.00000000000E+00  0.33552998913E+03  0.33552998913E+03  0.00000000000E+00 0. -1.
         21   -1    0    0  501  502 -0.00000000000E+00 -0.00000000000E+00 -0.12203914323E+03  0.12203914323E+03  0.00000000000E+00 0. -1.
         25    1    1    2    0    0  0.48465411250E+02 -0.73651510096E+02 -0.43030502570E+02  0.15890269091E+03  0.12500000000E+03 0.  0.
         25    1    1    2    0    0 -0.48465411250E+02  0.73651510096E+02  0.25652134847E+03  0.29866644145E+03  0.12500000000E+03 0.  0.
</event>
<event>
 4    0  0.2182372E-002  0.2202772E+03  0.7546771E-02  0.1133677E+00
         21   -1    0    0  502  501  0.00000000000E+00  0.00000000000E+00  0.11997480792E+04  0.11997480792E+04  0.00000000000E+00 0.  1.
         21   -1    0    0  501  502 -0.00000000000E+00 -0.00000000000E+00 -0.40443538085E+02  0.40443538085E+02  0.00000000000E+00 0.  1.
         25    1    1    2    0    0  0.29262232802E+02  0.17502375011E+03  0.68526301730E+03  0.71881847100E+03  0.12500000000E+03 0.  0.
         25    1    1    2    0    0 -0.29262232802E+02 -0.17502375011E+03  0.47404152385E+03  0.52137314632E+03  0.12500000000E+03 0.  0.
</event>
<event>
 4    0  0.2182372E-002  0.3422417E+03  0.7546771E-02  0.1065845E+00
         21   -1    0    0  502  501  0.00000000000E+00  0.00000000000E+00  0.36176004280E+03  0.36176004280E+03  0.00000000000E+00 0.  1.
         21   -1    0    0  501  502 -0.00000000000E+00 -0.00000000000E+00 -0.32377646324E+03  0.32377646324E+03  0.00000000000E+00 0.  1.
         25    1    1    2    0    0 -0.21285604047E+03 -0.23656116772E+03  0.34361642774E+02  0.34361985178E+03  0.12500000000E+03 0.  0.
         25    1    1    2    0    0  0.21285604047E+03  0.23656116772E+03  0.36219367834E+01  0.34191665427E+03  0.12500000000E+03 0.  0.
</event>
<event>
 4    0  0.2182372E-002  0.2198125E+03  0.7546771E-02  0.1134023E+00
         21   -1    0    0  502  501  0.00000000000E+00  0.00000000000E+00  0.14258771707E+03  0.14258771707E+03  0.00000000000E+00 0.  1.
         21   -1    0    0  501  502 -0.00000000000E+00 -0.00000000000E+00 -0.33886188583E+03  0.33886188583E+03  0.00000000000E+00 0.  1.
         25    1    1    2    0    0  0.11219841357E+03  0.58810043578E+02  0.43154411921E+02  0.18312402491E+03  0.12500000000E+03 0.  0.
         25    1    1    2    0    0 -0.11219841357E+03 -0.58810043578E+02 -0.23942858069E+03  0.29832557799E+03  0.12500000000E+03 0.  0.
</event>
<event>
 4    0  0.2182372E-002  0.2021801E+03  0.7546771E-02  0.1147913E+00
         21   -1    0    0  502  501  0.00000000000E+00  0.00000000000E+00  0.57984808517E+03  0.57984808517E+03  0.00000000000E+00 0.  1.
         21   -1    0    0  501  502 -0.00000000000E+00 -0.00000000000E+00 -0.70495695862E+02  0.70495695862E+02  0.00000000000E+00 0.  1.
         25    1    1    2    0    0  0.89511845442E+02 -0.77360934608E+02  0.42530082669E+03  0.45880592614E+03  0.12500000000E+03 0.  0.
         25    1    1    2    0    0 -0.89511845442E+02  0.77360934608E+02  0.84051562617E+02  0.19153785489E+03  0.12500000000E+03 0.  0.
</event>
<event>
 4    0  0.2182372E-002  0.2665915E+03  0.7546771E-02  0.1103246E+00
         21   -1    0    0  502  501  0.00000000000E+00  0.00000000000E+00  0.10241738452E+03  0.10241738452E+03  0.00000000000E+00 0. -1.
         21   -1    0    0  501  502 -0.00000000000E+00 -0.00000000000E+00 -0.69393543967E+03  0.69393543967E+03  0.00000000000E+00 0.  1.
         25    1    1    2    0    0 -0.19504033672E+03 -0.13050864047E+03 -0.32459772185E+03  0.41959732985E+03  0.12500000000E+03 0.  0.
         25    1    1    2    0    0  0.19504033672E+03  0.13050864047E+03 -0.26692033330E+03  0.37675549434E+03  0.12500000000E+03 0.  0.
</event>
<event>
 4    0  0.2182372E-002  0.2419492E+03  0.7546771E-02  0.1118501E+00
         21   -1    0    0  502  501  0.00000000000E+00  0.00000000000E+00  0.81444534683E+03  0.81444534683E+03  0.00000000000E+00 0. -1.
         21   -1    0    0  501  502 -0.00000000000E+00 -0.00000000000E+00 -0.71876404961E+02  0.71876404961E+02  0.00000000000E+00 0. -1.
         25    1    1    2    0    0 -0.61542860829E+02  0.19199563166E+03  0.45844681868E+03  0.51618633444E+03  0.12500000000E+03 0.  0.
         25    1    1    2    0    0  0.61542860829E+02 -0.19199563166E+03  0.28412212318E+03  0.37013541735E+03  0.12500000000E+03 0.  0.
</event>
<event>
 4    0  0.2182372E-002  0.3466676E+03  0.7546771E-02  0.1063991E+00
         21   -1    0    0  502  501  0.00000000000E+00  0.00000000000E+00  0.18373713897E+03  0.18373713897E+03  0.00000000000E+00 0. -1.
         21   -1    0    0  501  502 -0.00000000000E+00 -0.00000000000E+00 -0.65407791452E+03  0.65407791452E+03  0.00000000000E+00 0. -1.
         25    1    1    2    0    0 -0.23399087297E+03  0.20753426726E+03 -0.33431093715E+03  0.47456401404E+03  0.12500000000E+03 0.  0.
         25    1    1    2    0    0  0.23399087297E+03 -0.20753426726E+03 -0.13602983840E+03  0.36325103945E+03  0.12500000000E+03 0.  0.
</event>
<event>
 4    0  0.2182372E-002  0.1546429E+03  0.7546771E-02  0.1194881E+00
         21   -1    0    0  502  501  0.00000000000E+00  0.00000000000E+00  0.66797810741E+02  0.66797810741E+02  0.00000000000E+00 0. -1.
         21   -1    0    0  501  502 -0.00000000000E+00 -0.00000000000E+00 -0.35801229316E+03  0.35801229316E+03  0.00000000000E+00 0. -1.
         25    1    1    2    0    0  0.48946366412E+02  0.24098691621E+02 -0.24572298169E+03  0.28103607857E+03  0.12500000000E+03 0.  0.
         25    1    1    2    0    0 -0.48946366412E+02 -0.24098691621E+02 -0.45491500723E+02  0.14377402533E+03  0.12500000000E+03 0.  0.
</event>
<event>
 4    0  0.2182372E-002  0.1933701E+03  0.7546771E-02  0.1155456E+00
         21   -1    0    0  502  501  0.00000000000E+00  0.00000000000E+00  0.11282540432E+04  0.11282540432E+04  0.00000000000E+00 0.  1.
         21   -1    0    0  501  502 -0.00000000000E+00 -0.00000000000E+00 -0.33141474295E+02  0.33141474295E+02  0.00000000000E+00 0.  1.
         25    1    1    2    0    0  0.32490128586E+02  0.86420486958E+02  0.20197339675E+03  0.25483791322E+03  0.12500000000E+03 0.  0.
         25    1    1    2    0    0 -0.32490128586E+02 -0.86420486958E+02  0.89313917219E+03  0.90655760430E+03  0.12500000000E+03 0.  0.
</event>
<event>
 4    0  0.2182372E-002  0.1730765E+03  0.7546771E-02  0.1174677E+00
         21   -1    0    0  502  501  0.00000000000E+00  0.00000000000E+00  0.15190942921E+03  0.15190942921E+03  0.00000000000E+00 0.  1.
         21   -1    0    0  501  502 -0.00000000000E+00 -0.00000000000E+00 -0.19719297636E+03  0.19719297636E+03  0.00000000000E+00 0.  1.
         25    1    1    2    0    0 -0.24164651464E+02  0.30185765941E+02 -0.13690035124E+03  0.18937216537E+03  0.12500000000E+03 0.  0.
         25    1    1    2    0    0  0.24164651464E+02 -0.30185765941E+02  0.91616804087E+02  0.15973024021E+03  0.12500000000E+03 0.  0.
</event>
<event>
 4    0  0.2182372E-002  0.2763908E+03  0.7546771E-02  0.1097677E+00
         21   -1    0    0  502  501  0.00000000000E+00  0.00000000000E+00  0.10799569480E+03  0.10799569480E+03  0.00000000000E+00 0. -1.
         21   -1    0    0  501  502 -0.00000000000E+00 -0.00000000000E+00 -0.70736048813E+03  0.70736048813E+03  0.00000000000E+00 0. -1.
         25    1    1    2    0    0  0.22466063130E+03  0.53874111861E+02 -0.17286561262E+03  0.31445562360E+03  0.12500000000E+03 0.  0.
         25    1    1    2    0    0 -0.22466063130E+03 -0.53874111861E+02 -0.42649918072E+03  0.50090055933E+03  0.12500000000E+03 0.  0.
</event>
<event>
 4    0  0.2182372E-002  0.1653950E+03  0.7546771E-02  0.1182737E+00
         21   -1    0    0  502  501  0.00000000000E+00  0.00000000000E+00  0.16457732185E+03  0.16457732185E+03  0.00000000000E+00 0.  1.
         21   -1    0    0  501  502 -0.00000000000E+00 -0.00000000000E+00 -0.16621680896E+03  0.16621680896E+03  0.00000000000E+00 0.  1.
         25    1    1    2    0    0 -0.66621171557E+01 -0.88575914240E+02 -0.62791795451E+02  0.16570421227E+03  0.12500000000E+03 0.  0.
         25    1    1    2    0    0  0.66621171557E+01  0.88575914240E+02  0.61152308343E+02  0.16508991854E+03  0.12500000000E+03 0.  0.
</event>
<event>
 4    0  0.2182372E-002  0.2051914E+03  0.7546771E-02  0.1145431E+00
         21   -1    0    0  502  501  0.00000000000E+00  0.00000000000E+00  0.23908202504E+02  0.23908202504E+02  0.00000000000E+00 0.  1.
         21   -1    0    0  501  502 -0.00000000000E+00 -0.00000000000E+00 -0.17610484992E+04  0.17610484992E+04  0.00000000000E+00 0.  1.
         25    1    1    2    0    0 -0.49597316336E+02 -0.12656343705E+03 -0.47953226952E+03  0.51386223338E+03  0.12500000000E+03 0.  0.
         25    1    1    2    0    0  0.49597316336E+02  0.12656343705E+03 -0.12576080272E+04  0.12710944683E+04  0.12500000000E+03 0.  0.
</event>
<event>
 4    0  0.2182372E-002  0.1887227E+03  0.7546771E-02  0.1159618E+00
         21   -1    0    0  502  501  0.00000000000E+00  0.00000000000E+00  0.84223235658E+03  0.84223235658E+03  0.00000000000E+00 0. -1.
         21   -1    0    0  501  502 -0.00000000000E+00 -0.00000000000E+00 -0.42287909527E+02  0.42287909527E+02  0.00000000000E+00 0. -1.
         25    1    1    2    0    0 -0.32355783617E+02 -0.13645861749E+03  0.35782973720E+03  0.40414721556E+03  0.12500000000E+03 0.  0.
         25    1    1    2    0    0  0.32355783617E+02  0.13645861749E+03  0.44211470986E+03  0.48037305055E+03  0.12500000000E+03 0.  0.
</event>
<event>
 4    0  0.2182372E-002  0.2294666E+03  0.7546771E-02  0.1127016E+00
         21   -1    0    0  502  501  0.00000000000E+00  0.00000000000E+00  0.62398618191E+02  0.62398618191E+02  0.00000000000E+00 0. -1.
         21   -1    0    0  501  502 -0.00000000000E+00 -0.00000000000E+00 -0.84384787982E+03  0.84384787982E+03  0.00000000000E+00 0. -1.
         25    1    1    2    0    0  0.18514723926E+02  0.23693673185E+02 -0.15401566944E+02  0.12948510886E+03  0.12500000000E+03 0.  0.
         25    1    1    2    0    0 -0.18514723926E+02 -0.23693673185E+02 -0.76604769469E+03  0.77676138916E+03  0.12500000000E+03 0.  0.
</event>
<event>
 4    0  0.2182372E-002  0.2987901E+03  0.7546771E-02  0.1085847E+00
         21   -1    0    0  502  501  0.00000000000E+00  0.00000000000E+00  0.51072882515E+03  0.51072882515E+03  0.00000000000E+00 0.  1.
         21   -1    0    0  501  502 -0.00000000000E+00 -0.00000000000E+00 -0.17480026709E+03  0.17480026709E+03  0.00000000000E+00 0.  1.
         25    1    1    2    0    0 -0.25475748588E+03 -0.92718727542E+02  0.18212601337E+03  0.34970419470E+03  0.12500000000E+03 0.  0.
         25    1    1    2    0    0  0.25475748588E+03  0.92718727542E+02  0.15380254469E+03  0.33582489753E+03  0.12500000000E+03 0.  0.
</event>
<event>
 4    0  0.2182372E-002  0.1988694E+03  0.7546771E-02  0.1150696E+00
         21   -1    0    0  502  501  0.00000000000E+00  0.00000000000E+00  0.76230114900E+02  0.76230114900E+02  0.00000000000E+00 0. -1.
         21   -1    0    0  501  502 -0.00000000000E+00 -0.00000000000E+00 -0.51881098581E+03  0.51881098581E+03  0.00000000000E+00 0. -1.
         25    1    1    2    0    0 -0.92849439858E+02  0.11208344400E+03 -0.14297479849E+03  0.23927078782E+03  0.12500000000E+03 0.  0.
         25    1    1    2    0    0  0.92849439858E+02 -0.11208344400E+03 -0.29960607242E+03  0.35577031288E+03  0.12500000000E+03 0.  0.
</event>
<event>
 4    0  0.2182372E-002  0.2463364E+03  0.7546771E-02  0.1115642E+00
         21   -1    0    0  502  501  0.00000000000E+00  0.00000000000E+00  0.53864466035E+03  0.53864466035E+03  0.00000000000E+00 0. -1.
         21   -1    0    0  501  502 -0.00000000000E+00 -0.00000000000E+00 -0.11265616044E+03  0.11265616044E+03  0.00000000000E+00 0. -1.
         25    1    1    2    0    0  0.18182147524E+02 -0.20756404592E+03  0.15940591588E+03  0.29060053280E+03  0.12500000000E+03 0.  0.
         25    1    1    2    0    0 -0.18182147524E+02  0.20756404592E+03  0.26658258403E+03  0.36070028799E+03  0.12500000000E+03 0.  0.
</event>
<event>
 4    0  0.2182372E-002  0.2544765E+03  0.7546771E-02  0.1110508E+00
         21   -1    0    0  502  501  0.00000000000E+00  0.00000000000E+00  0.47969563945E+02  0.47969563945E+02  0.00000000000E+00 0. -1.
         21   -1    0    0  501  502 -0.00000000000E+00 -0.00000000000E+00 -0.13499869687E+04  0.13499869687E+04  0.00000000000E+00 0. -1.
         25    1    1    2    0    0 -0.16250926519E+03 -0.15017060672E+03 -0.61490055243E+03  0.66534815080E+03  0.12500000000E+03 0.  0.
         25    1    1    2    0    0  0.16250926519E+03  0.15017060672E+03 -0.68711685228E+03  0.73260838180E+03  0.12500000000E+03 0.  0.
</event>
<event>
 4    0  0.2182372E-002  0.1784424E+03  0.7546771E-02  0.1169319E+00
         21   -1    0    0  502  501  0.00000000000E+00  0.00000000000E+00  0.75616248755E+02  0.75616248755E+02  0.00000000000E+00 0.  1.
         21   -1    0    0  501  502 -0.00000000000E+00 -0.00000000000E+00 -0.42109604115E+03  0.42109604115E+03  0.00000000000E+00 0.  1.
         25    1    1    2    0    0 -0.50342271746E+02  0.95618546893E+02 -0.78966749787E+02  0.18313382649E+03  0.12500000000E+03 0.  0.
         25    1    1    2    0    0  0.50342271746E+02 -0.95618546893E+02 -0.26651304261E+03  0.31357846341E+03  0.12500000000E+03 0.  0.
</event>
<event>
 4    0  0.2182372E-002  0.1975708E+03  0.7546771E-02  0.1151805E+00
         21   -1    0    0  502  501  0.00000000000E+00  0.00000000000E+00  0.20458687957E+03  0.20458687957E+03  0.00000000000E+00 0.  1.
         21   -1    0    0  501  502 -0.00000000000E+00 -0.00000000000E+00 -0.19079524023E+03  0.19079524023E+03  0.00000000000E+00 0.  1.
         25    1    1    2    0    0 -0.11637353725E+03 -0.16948018064E+02 -0.91036998635E+02  0.19427498709E+03  0.12500000000E+03 0.  0.
         25    1    1    2    0    0  0.11637353725E+03  0.16948018064E+02  0.10482863798E+03  0.20110713271E+03  0.12500000000E+03 0.  0.
</event>
<event>
 4    0  0.2182372E-002  0.1794617E+03  0.7546771E-02  0.1168325E+00
         21   -1    0    0  502  501  0.00000000000E+00  0.00000000000E+00  0.13375564571E+04  0.13375564571E+04  0.00000000000E+00 0.  1.
         21   -1    0    0  501  502 -0.00000000000E+00 -0.00000000000E+00 -0.24078622067E+02  0.24078622067E+02  0.00000000000E+00 0.  1.
         25    1    1    2    0    0  0.62412777815E+02 -0.90630969082E+00  0.10840163140E+04  0.10929833234E+04  0.12500000000E+03 0.  0.
         25    1    1    2    0    0 -0.62412777815E+02  0.90630969082E+00  0.22946152096E+03  0.26865175569E+03  0.12500000000E+03 0.  0.
</event>
<event>
 4    0  0.2182372E-002  0.2072480E+03  0.7546771E-02  0.1143764E+00
         21   -1    0    0  502  501  0.00000000000E+00  0.00000000000E+00  0.39704460309E+03  0.39704460309E+03  0.00000000000E+00 0.  1.
         21   -1    0    0  501  502 -0.00000000000E+00 -0.00000000000E+00 -0.10817861064E+03  0.10817861064E+03  0.00000000000E+00 0.  1.
         25    1    1    2    0    0 -0.61095757017E+02 -0.14287578497E+03  0.21317373702E+03  0.29191475401E+03  0.12500000000E+03 0.  0.
         25    1    1    2    0    0  0.61095757017E+02  0.14287578497E+03  0.75692255432E+02  0.21330845972E+03  0.12500000000E+03 0.  0.
</event>
<event>
 4    0  0.2182372E-002  0.1896791E+03  0.7546771E-02  0.1158751E+00
         21   -1    0    0  502  501  0.00000000000E+00  0.00000000000E+00  0.30299233338E+03  0.30299233338E+03  0.00000000000E+00 0.  1.
         21   -1    0    0  501  502 -0.00000000000E+00 -0.00000000000E+00 -0.11874281195E+03  0.11874281195E+03  0.00000000000E+00 0.  1.
         25    1    1    2    0    0  0.65092030559E+02 -0.10443975116E+02 -0.48527531542E+02  0.14941877518E+03  0.12500000000E+03 0.  0.
         25    1    1    2    0    0 -0.65092030559E+02  0.10443975116E+02  0.23277705297E+03  0.27231637015E+03  0.12500000000E+03 0.  0.
</event>
<event>
 4    0  0.2182372E-002  0.2059947E+03  0.7546771E-02  0.1144778E+00
         21   -1    0    0  502  501  0.00000000000E+00  0.00000000000E+00  0.23928076542E+04  0.23928076542E+04  0.00000000000E+00 0.  1.
         21   -1    0    0  501  502 -0.00000000000E+00 -0.00000000000E+00 -0.17733910381E+02  0.17733910381E+02  0.00000000000E+00 0.  1.
         25    1    1    2    0    0  0.13042181696E+03  0.93969986935E+02  0.10054381385E+04  0.10258513825E+04  0.12500000000E+03 0.  0.
         25    1    1    2    0    0 -0.13042181696E+03 -0.93969986935E+02  0.13696356054E+04  0.13846901820E+04  0.12500000000E+03 0.  0.
</event>
<event>
 4    0  0.2182372E-002  0.1698642E+03  0.7546771E-02  0.1177990E+00
         21   -1    0    0  502  501  0.00000000000E+00  0.00000000000E+00  0.62538077294E+02  0.62538077294E+02  0.00000000000E+00 0.  1.
         21   -1    0    0  501  502 -0.00000000000E+00 -0.00000000000E+00 -0.46138048774E+03  0.46138048774E+03  0.00000000000E+00 0.  1.
         25    1    1    2    0    0  0.39019267047E+02 -0.19516297153E+02 -0.36354057270E+03  0.38689809648E+03  0.12500000000E+03 0.  0.
         25    1    1    2    0    0 -0.39019267047E+02  0.19516297153E+02 -0.35301837741E+02  0.13702046856E+03  0.12500000000E+03 0.  0.
</event>
<event>
 4    0  0.2182372E-002  0.3709271E+03  0.7546771E-02  0.1054339E+00
         21   -1    0    0  502  501  0.00000000000E+00  0.00000000000E+00  0.44442058748E+03  0.44442058748E+03  0.00000000000E+00 0. -1.
         21   -1    0    0  501  502 -0.00000000000E+00 -0.00000000000E+00 -0.30958716817E+03  0.30958716817E+03  0.00000000000E+00 0. -1.
         25    1    1    2    0    0 -0.30076772670E+03  0.87947965293E+02  0.22410402943E+03  0.40502306852E+03  0.12500000000E+03 0.  0.
         25    1    1    2    0    0  0.30076772670E+03 -0.87947965293E+02 -0.89270610122E+02  0.34898468713E+03  0.12500000000E+03 0.  0.
</event>
<event>
 4    0  0.2182372E-002  0.1457945E+03  0.7546771E-02  0.1205738E+00
         21   -1    0    0  502  501  0.00000000000E+00  0.00000000000E+00  0.14299507843E+03  0.14299507843E+03  0.00000000000E+00 0. -1.
         21   -1    0    0  501  502 -0.00000000000E+00 -0.00000000000E+00 -0.14864873762E+03  0.14864873762E+03  0.00000000000E+00 0. -1.
         25    1    1    2    0    0 -0.18499475098E+02  0.47576980589E+02 -0.57839333064E+02  0.14688835253E+03  0.12500000000E+03 0.  0.
         25    1    1    2    0    0  0.18499475098E+02 -0.47576980589E+02  0.52185673865E+02  0.14475546352E+03  0.12500000000E+03 0.  0.
</event>
<event>
 4    0  0.2182372E-002  0.1999666E+03  0.7546771E-02  0.1149767E+00
         21   -1    0    0  502  501  0.00000000000E+00  0.00000000000E+00  0.59592519243E+03  0.59592519243E+03  0.00000000000E+00 0.  1.
         21   -1    0    0  501  502 -0.00000000000E+00 -0.00000000000E+00 -0.67100100265E+02  0.67100100265E+02  0.00000000000E+00 0.  1.
         25    1    1    2    0    0 -0.71681256266E+02  0.12535588877E+03  0.16620264064E+03  0.25318100068E+03  0.12500000000E+03 0.  0.
         25    1    1    2    0    0  0.71681256266E+02 -0.12535588877E+03  0.36262245153E+03  0.40984429202E+03  0.12500000000E+03 0.  0.
</event>
<event>
 4    0  0.2182372E-002  0.1734965E+03  0.7546771E-02  0.1174250E+00
         21   -1    0    0  502  501  0.00000000000E+00  0.00000000000E+00  0.29524667039E+03  0.29524667039E+03  0.00000000000E+00 0. -1.
         21   -1    0    0  501  502 -0.00000000000E+00 -0.00000000000E+00 -0.10195212543E+03  0.10195212543E+03  0.00000000000E+00 0. -1.
         25    1    1    2    0    0 -0.45274705992E+02  0.19810920442E+02  0.22221783674E+03  0.25970760200E+03  0.12500000000E+03 0.  0.
         25    1    1    2    0    0  0.45274705992E+02 -0.19810920442E+02 -0.28923291783E+02  0.13749119382E+03  0.12500000000E+03 0.  0.
</event>
<event>
 4    0  0.2182372E-002  0.1465171E+03  0.7546771E-02  0.1204819E+00
         21   -1    0    0  502  501  0.00000000000E+00  0.00000000000E+00  0.35684889421E+03  0.35684889421E+03  0.00000000000E+00 0.  1.
         21   -1    0    0  501  502 -0.00000000000E+00 -0.00000000000E+00 -0.60157878500E+02  0.60157878500E+02  0.00000000000E+00 0.  1.
         25    1    1    2    0    0 -0.74341884998E+01 -0.70796701997E+02  0.18795766770E+03  0.23668655437E+03  0.12500000000E+03 0.  0.
         25    1    1    2    0    0  0.74341884998E+01  0.70796701997E+02  0.10873334800E+03  0.18032021834E+03  0.12500000000E+03 0.  0.
</event>
<event>
 4    0  0.2182372E-002  0.1995814E+03  0.7546771E-02  0.1150093E+00
         21   -1    0    0  502  501  0.00000000000E+00  0.00000000000E+00  0.37926381221E+02  0.37926381221E+02  0.00000000000E+00 0. -1.
         21   -1    0    0  501  502 -0.00000000000E+00 -0.00000000000E+00 -0.10502644745E+04  0.10502644745E+04  0.00000000000E+00 0. -1.
         25    1    1    2    0    0  0.11465254430E+03 -0.78288095308E+02 -0.69765307726E+03  0.72223199042E+03  0.12500000000E+03 0.  0.
         25    1    1    2    0    0 -0.11465254430E+03  0.78288095308E+02 -0.31468501601E+03  0.36595886529E+03  0.12500000000E+03 0.  0.
</event>
<event>
 4    0  0.2182372E-002  0.1951681E+03  0.7546771E-02  0.1153881E+00
         21   -1    0    0  502  501  0.00000000000E+00  0.00000000000E+00  0.45535361162E+03  0.45535361162E+03  0.00000000000E+00 0. -1.
         21   -1    0    0  501  502 -0.00000000000E+00 -0.00000000000E+00 -0.83650542876E+02  0.83650542876E+02  0.00000000000E+00 0. -1.
         25    1    1    2    0    0 -0.54661546893E+02  0.57639831425E+02  0.36136539518E+03  0.39053832553E+03  0.12500000000E+03 0.  0.
         25    1    1    2    0    0  0.54661546893E+02 -0.57639831425E+02  0.10337673565E+02  0.14846582896E+03  0.12500000000E+03 0.  0.
</event>
<event>
 4    0  0.2182372E-002  0.2341695E+03  0.7546771E-02  0.1123739E+00
         21   -1    0    0  502  501  0.00000000000E+00  0.00000000000E+00  0.69445411157E+03  0.69445411157E+03  0.00000000000E+00 0. -1.
         21   -1    0    0  501  502 -0.00000000000E+00 -0.00000000000E+00 -0.78961816717E+02  0.78961816717E+02  0.00000000000E+00 0. -1.
         25    1    1    2    0    0  0.17636830512E+03  0.25662017360E+02  0.45024634245E+03  0.50011107474E+03  0.12500000000E+03 0.  0.
         25    1    1    2    0    0 -0.17636830512E+03 -0.25662017360E+02  0.16524595240E+03  0.27330485355E+03  0.12500000000E+03 0.  0.
</event>
<event>
 4    0  0.2182372E-002  0.2826231E+03  0.7546771E-02  0.1094265E+00
         21   -1    0    0  502  501  0.00000000000E+00  0.00000000000E+00  0.92335108374E+03  0.92335108374E+03  0.00000000000E+00 0. -1.
         21   -1    0    0  501  502 -0.00000000000E+00 -0.00000000000E+00 -0.86506464114E+02  0.86506464114E+02  0.00000000000E+00 0. -1.
         25    1    1    2    0    0  0.60470532089E+02  0.11800639421E+03  0.32468799883E+02  0.18509839894E+03  0.12500000000E+03 0.  0.
         25    1    1    2    0    0 -0.60470532089E+02 -0.11800639421E+03  0.80437581975E+03  0.82475914891E+03  0.12500000000E+03 0.  0.
</event>
<event>
 4    0  0.2182372E-002  0.2043902E+03  0.7546771E-02  0.1146087E+00
         21   -1    0    0  502  501  0.00000000000E+00  0.00000000000E+00  0.25735856588E+03  0.25735856588E+03  0.00000000000E+00 0. -1.
         21   -1    0    0  501  502 -0.00000000000E+00 -0.00000000000E+00 -0.16232355444E+03  0.16232355444E+03  0.00000000000E+00 0. -1.
         25    1    1    2    0    0 -0.11333565241E+03  0.10985808097E+03  0.83620489494E+02  0.21801640838E+03  0.12500000000E+03 0.  0.
         25    1    1    2    0    0  0.11333565241E+03 -0.10985808097E+03  0.11414521939E+02  0.20166571194E+03  0.12500000000E+03 0.  0.
</event>
<event>
 4    0  0.2182372E-002  0.1883648E+03  0.7546771E-02  0.1159944E+00
         21   -1    0    0  502  501  0.00000000000E+00  0.00000000000E+00  0.48492175901E+03  0.48492175901E+03  0.00000000000E+00 0.  1.
         21   -1    0    0  501  502 -0.00000000000E+00 -0.00000000000E+00 -0.73169156113E+02  0.73169156113E+02  0.00000000000E+00 0.  1.
         25    1    1    2    0    0 -0.12061422117E+03  0.12080265623E+02  0.99435280707E+02  0.20051458354E+03  0.12500000000E+03 0.  0.
         25    1    1    2    0    0  0.12061422117E+03 -0.12080265623E+02  0.31231732220E+03  0.35757633158E+03  0.12500000000E+03 0.  0.
</event>
<event>
 4    0  0.2182372E-002  0.2427063E+03  0.7546771E-02  0.1118003E+00
         21   -1    0    0  502  501  0.00000000000E+00  0.00000000000E+00  0.33521601678E+03  0.33521601678E+03  0.00000000000E+00 0.  1.
         21   -1    0    0  501  502 -0.00000000000E+00 -0.00000000000E+00 -0.17572650643E+03  0.17572650643E+03  0.00000000000E+00 0.  1.
         25    1    1    2    0    0  0.33948257163E+02 -0.20125286429E+03  0.12219107072E+03  0.26872077946E+03  0.12500000000E+03 0.  0.
         25    1    1    2    0    0 -0.33948257163E+02  0.20125286429E+03  0.37298439623E+02  0.24222174375E+03  0.12500000000E+03 0.  0.
</event>
<event>
 4    0  0.2182372E-002  0.1956530E+03  0.7546771E-02  0.1153459E+00
         21   -1    0    0  502  501  0.00000000000E+00  0.00000000000E+00  0.27861877635E+03  0.27861877635E+03  0.00000000000E+00 0.  1.
         21   -1    0    0  501  502 -0.00000000000E+00 -0.00000000000E+00 -0.13739231312E+03  0.13739231312E+03  0.00000000000E+00 0.  1.
         25    1    1    2    0    0  0.12481833134E+03  0.83742821626E+02  0.62201544191E+02  0.20514996493E+03  0.12500000000E+03 0.  0.
         25    1    1    2    0    0 -0.12481833134E+03 -0.83742821626E+02  0.79024919032E+02  0.21086112454E+03  0.12500000000E+03 0.  0.
</event>
<event>
 4    0  0.2182372E-002  0.2811527E+03  0.7546771E-02  0.1095061E+00
         21   -1    0    0  502  501  0.00000000000E+00  0.00000000000E+00  0.35873485751E+03  0.35873485751E+03  0.00000000000E+00 0.  1.
         21   -1    0    0  501  502 -0.00000000000E+00 -0.00000000000E+00 -0.22034888691E+03  0.22034888691E+03  0.00000000000E+00 0.  1.
         25    1    1    2    0    0  0.17512686835E+03  0.85310848846E+02  0.23356266155E+03  0.32882195459E+03  0.12500000000E+03 0.  0.
         25    1    1    2    0    0 -0.17512686835E+03 -0.85310848846E+02 -0.95176690942E+02  0.25026178983E+03  0.12500000000E+03 0.  0.
</event>
<event>
 4    0  0.2182372E-002  0.2682565E+03  0.7546771E-02  0.1102282E+00
         21   -1    0    0  502  501  0.00000000000E+00  0.00000000000E+00  0.18154837834E+04  0.18154837834E+04  0.00000000000E+00 0. -1.
         21   -1    0    0  501  502 -0.00000000000E+00 -0.00000000000E+00 -0.39637661528E+02  0.39637661528E+02  0.00000000000E+00 0. -1.
         25    1    1    2    0    0 -0.16915165397E+02  0.94820847439E+02  0.13782953610E+03  0.20952111337E+03  0.12500000000E+03 0.  0.
         25    1    1    2    0    0  0.16915165397E+02 -0.94820847439E+02  0.16380165858E+04  0.16456003316E+04  0.12500000000E+03 0.  0.
</event>
<event>
 4    0  0.2182372E-002  0.1845270E+03  0.7546771E-02  0.1163492E+00
         21   -1    0    0  502  501  0.00000000000E+00  0.00000000000E+00  0.97152116854E+02  0.97152116854E+02  0.00000000000E+00 0. -1.
         21   -1    0    0  501  502 -0.00000000000E+00 -0.00000000000E+00 -0.35048354384E+03  0.35048354384E+03  0.00000000000E+00 0. -1.
         25    1    1    2    0    0  0.13117888524E+03 -0.24206216487E+02 -0.15714320600E+03  0.24106602424E+03  0.12500000000E+03 0.  0.
         25    1    1    2    0    0 -0.13117888524E+03  0.24206216487E+02 -0.96188220984E+02  0.20656963646E+03  0.12500000000E+03 0.  0.
</event>
<event>
 4    0  0.2182372E-002  0.2943574E+03  0.7546771E-02  0.1088096E+00
         21   -1    0    0  502  501  0.00000000000E+00  0.00000000000E+00  0.45820633488E+03  0.45820633488E+03  0.00000000000E+00 0. -1.
         21   -1    0    0  501  502 -0.00000000000E+00 -0.00000000000E+00 -0.18909879472E+03  0.18909879472E+03  0.00000000000E+00 0. -1.
         25    1    1    2    0    0  0.13540109170E+03 -0.14354415895E+02 -0.11733472205E+03  0.21893364722E+03  0.12500000000E+03 0.  0.
         25    1    1    2    0    0 -0.13540109170E+03  0.14354415895E+02  0.38644226221E+03  0.42837148238E+03  0.12500000000E+03 0.  0.
</event>
<event>
 4    0  0.2182372E-002  0.2374640E+03  0.7546771E-02  0.1121494E+00
         21   -1    0    0  502  501  0.00000000000E+00  0.00000000000E+00  0.46061233135E+02  0.46061233135E+02  0.00000000000E+00 0.  1.
         21   -1    0    0  501  502 -0.00000000000E+00 -0.00000000000E+00 -0.12242212438E+04  0.12242212438E+04  0.00000000000E+00 0.  1.
         25    1    1    2    0    0  0.16096166097E+03 -0.10107464566E+03 -0.40689883980E+03  0.46617207781E+03  0.12500000000E+03 0.  0.
         25    1    1    2    0    0 -0.16096166097E+03  0.10107464566E+03 -0.77126117091E+03  0.80411039917E+03  0.12500000000E+03 0.  0.
</event>
<event>
 4    0  0.2182372E-002  0.2019921E+03  0.7546771E-02  0.1148069E+00
         21   -1    0    0  502  501  0.00000000000E+00  0.00000000000E+00  0.14531305761E+03  0.14531305761E+03  0.00000000000E+00 0. -1.
         21   -1    0    0  501  502 -0.00000000000E+00 -0.00000000000E+00 -0.28077862461E+03  0.28077862461E+03  0.00000000000E+00 0. -1.
         25    1    1    2    0    0 -0.15702276134E+02  0.28559174022E+02  0.96050607404E+02  0.16097486474E+03  0.12500000000E+03 0.  0.
         25    1    1    2    0    0  0.15702276134E+02 -0.28559174022E+02 -0.23151617441E+03  0.26511681748E+03  0.12500000000E+03 0.  0.
</event>
<event>
 4    0  0.2182372E-002  0.1845930E+03  0.7546771E-02  0.1163431E+00
         21   -1    0    0  502  501  0.00000000000E+00  0.00000000000E+00  0.63290671273E+02  0.63290671273E+02  0.00000000000E+00 0. -1.
         21   -1    0    0  501  502 -0.00000000000E+00 -0.00000000000E+00 -0.53838226350E+03  0.53838226350E+03  0.00000000000E+00 0. -1.
         25    1    1    2    0    0  0.64818327031E+01  0.71273417970E+02 -0.42569059603E+03  0.44939892947E+03  0.12500000000E+03 0.  0.
         25    1    1    2    0    0 -0.64818327031E+01 -0.71273417970E+02 -0.49400996198E+02  0.15227400530E+03  0.12500000000E+03 0.  0.
</event>
<event>
 4    0  0.2182372E-002  0.2153835E+03  0.7546771E-02  0.1137372E+00
         21   -1    0    0  502  501  0.00000000000E+00  0.00000000000E+00  0.18594484663E+04  0.18594484663E+04  0.00000000000E+00 0. -1.
         21   -1    0    0  501  502 -0.00000000000E+00 -0.00000000000E+00 -0.24948279373E+02  0.24948279373E+02  0.00000000000E+00 0. -1.
         25    1    1    2    0    0 -0.37124364060E+02 -0.10170245554E+03  0.31357593360E+03  0.35450877846E+03  0.12500000000E+03 0.  0.
         25    1    1    2    0    0  0.37124364060E+02  0.10170245554E+03  0.15209242534E+04  0.15298879672E+04  0.12500000000E+03 0.  0.
</event>
<event>
 4    0  0.2182372E-002  0.1939703E+03  0.7546771E-02  0.1154928E+00
         21   -1    0    0  502  501  0.00000000000E+00  0.00000000000E+00  0.62793584807E+03  0.62793584807E+03  0.00000000000E+00 0. -1.
         21   -1    0    0  501  502 -0.00000000000E+00 -0.00000000000E+00 -0.59917724324E+02  0.59917724324E+02  0.00000000000E+00 0. -1.
         25    1    1    2    0    0  0.86011773322E+02 -0.11264365107E+03  0.20646056067E+03  0.27988851421E+03  0.12500000000E+03 0.  0.
         25    1    1    2    0    0 -0.86011773322E+02  0.11264365107E+03  0.36155756307E+03  0.40796505818E+03  0.12500000000E+03 0.  0.
</event>
<event>
 4    0  0.2182372E-002  0.1823352E+03  0.7546771E-02  0.1165562E+00
         21   -1    0    0  502  501  0.00000000000E+00  0.00000000000E+00  0.30313094888E+03  0.30313094888E+03  0.00000000000E+00 0.  1.
         21   -1    0    0  501  502 -0.00000000000E+00 -0.00000000000E+00 -0.10967577112E+03  0.10967577112E+03  0.00000000000E+00 0.  1.
         25    1    1    2    0    0 -0.10808398031E+03 -0.50916421022E+02  0.16221248760E+03  0.23709179628E+03  0.12500000000E+03 0.  0.
         25    1    1    2    0    0  0.10808398031E+03  0.50916421022E+02  0.31242690153E+02  0.17571492372E+03  0.12500000000E+03 0.  0.
</event>
<event>
 4    0  0.2182372E-002  0.2121217E+03  0.7546771E-02  0.1139897E+00
         21   -1    0    0  502  501  0.00000000000E+00  0.00000000000E+00  0.15734868808E+03  0.15734868808E+03  0.00000000000E+00 0.  1.
         21   -1    0    0  501  502 -0.00000000000E+00 -0.00000000000E+00 -0.28596115677E+03  0.28596115677E+03  0.00000000000E+00 0.  1.
         25    1    1    2    0    0  0.32198744686E+02  0.11340239855E+03  0.65677819853E+02  0.18394411971E+03  0.12500000000E+03 0.  0.
         25    1    1    2    0    0 -0.32198744686E+02 -0.11340239855E+03 -0.19429028854E+03  0.25936572514E+03  0.12500000000E+03 0.  0.
</event>
<event>
 4    0  0.2182372E-002  0.1792733E+03  0.7546771E-02  0.1168508E+00
         21   -1    0    0  502  501  0.00000000000E+00  0.00000000000E+00  0.29832745850E+04  0.29832745850E+04  0.00000000000E+00 0.  1.
         21   -1    0    0  501  502 -0.00000000000E+00 -0.00000000000E+00 -0.10773029194E+02  0.10773029194E+02  0.00000000000E+00 0.  1.
         25    1    1    2    0    0 -0.12094284315E+03 -0.13893214797E+02  0.18299138665E+04  0.18382137938E+04  0.12500000000E+03 0.  0.
         25    1    1    2    0    0  0.12094284315E+03  0.13893214797E+02  0.11425876892E+04  0.11558338204E+04  0.12500000000E+03 0.  0.
</event>
<event>
 4    0  0.2182372E-002  0.1748088E+03  0.7546771E-02  0.1172924E+00
         21   -1    0    0  502  501  0.00000000000E+00  0.00000000000E+00  0.28456844086E+02  0.28456844086E+02  0.00000000000E+00 0. -1.
         21   -1    0    0  501  502 -0.00000000000E+00 -0.00000000000E+00 -0.10738401159E+04  0.10738401159E+04  0.00000000000E+00 0. -1.
         25    1    1    2    0    0 -0.19354784335E+02 -0.11766432155E+03 -0.43846818908E+03  0.47127364989E+03  0.12500000000E+03 0.  0.
         25    1    1    2    0    0  0.19354784335E+02  0.11766432155E+03 -0.60691508277E+03  0.63102331014E+03  0.12500000000E+03 0.  0.
</event>
<event>
 4    0  0.2182372E-002  0.2221418E+03  0.7546771E-02  0.1132296E+00
         21   -1    0    0  502  501  0.00000000000E+00  0.00000000000E+00  0.87341851440E+02  0.87341851440E+02  0.00000000000E+00 0.  1.
         21   -1    0    0  501  502 -0.00000000000E+00 -0.00000000000E+00 -0.56498685894E+03  0.56498685894E+03  0.00000000000E+00 0.  1.
         25    1    1    2    0    0 -0.59356418816E+02 -0.16939833748E+03 -0.29574554415E+03  0.36784427150E+03  0.12500000000E+03 0.  0.
         25    1    1    2    0    0  0.59356418816E+02  0.16939833748E+03 -0.18189946335E+03  0.28448443887E+03  0.12500000000E+03 0.  0.
</event>
<event>
 4    0  0.2182372E-002  0.2792409E+03  0.7546771E-02  0.1096104E+00
         21   -1    0    0  502  501  0.00000000000E+00  0.00000000000E+00  0.11428656807E+03  0.11428656807E+03  0.00000000000E+00 0.  1.
         21   -1    0    0  501  502 -0.00000000000E+00 -0.00000000000E+00 -0.68228033589E+03  0.68228033589E+03  0.00000000000E+00 0.  1.
         25    1    1    2    0    0  0.15741709850E+03 -0.10745205789E+03 -0.53903822604E+02  0.23421509289E+03  0.12500000000E+03 0.  0.
         25    1    1    2    0    0 -0.15741709850E+03  0.10745205789E+03 -0.51408994521E+03  0.56235181107E+03  0.12500000000E+03 0.  0.
</event>
<event>
 4    0  0.2182372E-002  0.2570970E+03  0.7546771E-02  0.1108900E+00
         21   -1    0    0  502  501  0.00000000000E+00  0.00000000000E+00  0.91660911900E+02  0.91660911900E+02  0.00000000000E+00 0.  1.
         21   -1    0    0  501  502 -0.00000000000E+00 -0.00000000000E+00 -0.72112356228E+03  0.72112356228E+03  0.00000000000E+00 0.  1.
         25    1    1    2    0    0  0.15746982623E+03  0.15086872502E+03 -0.22937774350E+03  0.34028997572E+03  0.12500000000E+03 0.  0.
         25    1    1    2    0    0 -0.15746982623E+03 -0.15086872502E+03 -0.40008490688E+03  0.47249449846E+03  0.12500000000E+03 0.  0.
</event>
<event>
 4    0  0.2182372E-002  0.4373378E+03  0.7546771E-02  0.1031567E+00
         21   -1    0    0  502  501  0.00000000000E+00  0.00000000000E+00  0.15654643139E+04  0.15654643139E+04  0.00000000000E+00 0. -1.
         21   -1    0    0  501  502 -0.00000000000E+00 -0.00000000000E+00 -0.12217742251E+03  0.12217742251E+03  0.00000000000E+00 0. -1.
         25    1    1    2    0    0  0.14863251970E+03 -0.29066461029E+03  0.21459166702E+03  0.41018547651E+03  0.12500000000E+03 0.  0.
         25    1    1    2    0    0 -0.14863251970E+03  0.29066461029E+03  0.12286952244E+04  0.12774562599E+04  0.12500000000E+03 0.  0.
</event>
<event>
 4    0  0.2182372E-002  0.2324309E+03  0.7546771E-02  0.1124940E+00
         21   -1    0    0  502  501  0.00000000000E+00  0.00000000000E+00  0.13272734000E+03  0.13272734000E+03  0.00000000000E+00 0.  1.
         21   -1    0    0  501  502 -0.00000000000E+00 -0.00000000000E+00 -0.40703098172E+03  0.40703098172E+03  0.00000000000E+00 0.  1.
         25    1    1    2    0    0  0.71461784788E+02 -0.16223855870E+03 -0.23409629370E+03  0.31914606583E+03  0.12500000000E+03 0.  0.
         25    1    1    2    0    0 -0.71461784788E+02  0.16223855870E+03 -0.40207348019E+02  0.22061225589E+03  0.12500000000E+03 0.  0.
</event>
<event>
 4    0  0.2182372E-002  0.1915518E+03  0.7546771E-02  0.1157069E+00
         21   -1    0    0  502  501  0.00000000000E+00  0.00000000000E+00  0.55195478358E+02  0.55195478358E+02  0.00000000000E+00 0.  1.
         21   -1    0    0  501  502 -0.00000000000E+00 -0.00000000000E+00 -0.66476644617E+03  0.66476644617E+03  0.00000000000E+00 0.  1.
         25    1    1    2    0    0  0.67456691451E+01  0.48460249480E+02 -0.56158998828E+03  0.57740991918E+03  0.12500000000E+03 0.  0.
         25    1    1    2    0    0 -0.67456691451E+01 -0.48460249480E+02 -0.47980979534E+02  0.14255200535E+03  0.12500000000E+03 0.  0.
</event>
<event>
 4    0  0.2182372E-002  0.1793951E+03  0.7546771E-02  0.1168390E+00
         21   -1    0    0  502  501  0.00000000000E+00  0.00000000000E+00  0.80375093155E+02  0.80375093155E+02  0.00000000000E+00 0. -1.
         21   -1    0    0  501  502 -0.00000000000E+00 -0.00000000000E+00 -0.40040520895E+03  0.40040520895E+03  0.00000000000E+00 0. -1.
         25    1    1    2    0    0  0.93591074801E+02  0.57169245105E+02 -0.25020433057E+03  0.30042439799E+03  0.12500000000E+03 0.  0.
         25    1    1    2    0    0 -0.93591074801E+02 -0.57169245105E+02 -0.69825785220E+02  0.18035590412E+03  0.12500000000E+03 0.  0.
</event>
<event>
 4    0  0.2182372E-002  0.3428531E+03  0.7546771E-02  0.1065587E+00
         21   -1    0    0  502  501  0.00000000000E+00  0.00000000000E+00  0.84899778832E+02  0.84899778832E+02  0.00000000000E+00 0.  1.
         21   -1    0    0  501  502 -0.00000000000E+00 -0.00000000000E+00 -0.13845529984E+04  0.13845529984E+04  0.00000000000E+00 0.  1.
         25    1    1    2    0    0  0.29612736251E+03 -0.35160153512E+02 -0.89412218606E+03  0.95079289797E+03  0.12500000000E+03 0.  0.
         25    1    1    2    0    0 -0.29612736251E+03  0.35160153512E+02 -0.40553103353E+03  0.51865987928E+03  0.12500000000E+03 0.  0.
</event>
<event>
 4    0  0.2182372E-002  0.2706083E+03  0.7546771E-02  0.1100932E+00
         21   -1    0    0  502  501  0.00000000000E+00  0.00000000000E+00  0.26329768482E+03  0.26329768482E+03  0.00000000000E+00 0. -1.
         21   -1    0    0  501  502 -0.00000000000E+00 -0.00000000000E+00 -0.27812186679E+03  0.27812186679E+03  0.00000000000E+00 0. -1.
         25    1    1    2    0    0  0.95057413622E+02  0.18240697116E+03  0.11630979059E+03  0.26732224449E+03  0.12500000000E+03 0.  0.
         25    1    1    2    0    0 -0.95057413622E+02 -0.18240697116E+03 -0.13113397255E+03  0.27409730712E+03  0.12500000000E+03 0.  0.
</event>
<event>
 4    0  0.2182372E-002  0.2228459E+03  0.7546771E-02  0.1131779E+00
         21   -1    0    0  502  501  0.00000000000E+00  0.00000000000E+00  0.45417092007E+03  0.45417092007E+03  0.00000000000E+00 0. -1.
         21   -1    0    0  501  502 -0.00000000000E+00 -0.00000000000E+00 -0.10934275405E+03  0.10934275405E+03  0.00000000000E+00 0. -1.
         25    1    1    2    0    0  0.10688252072E+03 -0.49496830336E+02 -0.71134682633E+01  0.17189942083E+03  0.12500000000E+03 0.  0.
         25    1    1    2    0    0 -0.10688252072E+03  0.49496830336E+02  0.35194163428E+03  0.39161425330E+03  0.12500000000E+03 0.  0.
</event>
<event>
 4    0  0.2182372E-002  0.1902677E+03  0.7546771E-02  0.1158220E+00
         21   -1    0    0  502  501  0.00000000000E+00  0.00000000000E+00  0.21197350865E+03  0.21197350865E+03  0.00000000000E+00 0.  1.
         21   -1    0    0  501  502 -0.00000000000E+00 -0.00000000000E+00 -0.17078461008E+03  0.17078461008E+03  0.00000000000E+00 0.  1.
         25    1    1    2    0    0 -0.13215934957E+02  0.10479516855E+03  0.11821867039E+03  0.20188447765E+03  0.12500000000E+03 0.  0.
         25    1    1    2    0    0  0.13215934957E+02 -0.10479516855E+03 -0.77029771821E+02  0.18087364108E+03  0.12500000000E+03 0.  0.
</event>
<event>
 4    0  0.2182372E-002  0.2679758E+03  0.7546771E-02  0.1102444E+00
         21   -1    0    0  502  501  0.00000000000E+00  0.00000000000E+00  0.47050129391E+03  0.47050129391E+03  0.00000000000E+00 0. -1.
         21   -1    0    0  501  502 -0.00000000000E+00 -0.00000000000E+00 -0.15262666833E+03  0.15262666833E+03  0.00000000000E+00 0. -1.
         25    1    1    2    0    0  0.60086152766E+02  0.21545369573E+03  0.67719446595E+02  0.26503125138E+03  0.12500000000E+03 0.  0.
         25    1    1    2    0    0 -0.60086152766E+02 -0.21545369573E+03  0.25015517898E+03  0.35809671086E+03  0.12500000000E+03 0.  0.
</event>
<event>
 4    0  0.2182372E-002  0.2876707E+03  0.7546771E-02  0.1091572E+00
         21   -1    0    0  502  501  0.00000000000E+00  0.00000000000E+00  0.85184605969E+03  0.85184605969E+03  0.00000000000E+00 0.  1.
         21   -1    0    0  501  502 -0.00000000000E+00 -0.00000000000E+00 -0.97147165274E+02  0.97147165274E+02  0.00000000000E+00 0.  1.
         25    1    1    2    0    0  0.20621617714E+03 -0.44903539968E+02  0.62524931044E+03  0.67164212184E+03  0.12500000000E+03 0.  0.
         25    1    1    2    0    0 -0.20621617714E+03  0.44903539968E+02  0.12944958398E+03  0.27735110313E+03  0.12500000000E+03 0.  0.
</event>
<event>
 4    0  0.2182372E-002  0.2260822E+03  0.7546771E-02  0.1129428E+00
         21   -1    0    0  502  501  0.00000000000E+00  0.00000000000E+00  0.80818871157E+03  0.80818871157E+03  0.00000000000E+00 0.  1.
         21   -1    0    0  501  502 -0.00000000000E+00 -0.00000000000E+00 -0.63244079266E+02  0.63244079266E+02  0.00000000000E+00 0.  1.
         25    1    1    2    0    0  0.85302954442E+01  0.12377111317E+03  0.64568032688E+03  0.66926836091E+03  0.12500000000E+03 0.  0.
         25    1    1    2    0    0 -0.85302954442E+01 -0.12377111317E+03  0.99264305425E+02  0.20216442993E+03  0.12500000000E+03 0.  0.
</event>
<event>
 4    0  0.2182372E-002  0.2631631E+03  0.7546771E-02  0.1105258E+00
         21   -1    0    0  502  501  0.00000000000E+00  0.00000000000E+00  0.85237943097E+03  0.85237943097E+03  0.00000000000E+00 0.  1.
         21   -1    0    0  501  502 -0.00000000000E+00 -0.00000000000E+00 -0.81248817947E+02  0.81248817947E+02  0.00000000000E+00 0.  1.
         25    1    1    2    0    0  0.10986300749E+03 -0.18851739821E+01  0.23957437688E+02  0.16814396545E+03  0.12500000000E+03 0.  0.
         25    1    1    2    0    0 -0.10986300749E+03  0.18851739821E+01  0.74717317534E+03  0.76548428347E+03  0.12500000000E+03 0.  0.
</event>
<event>
 4    0  0.2182372E-002  0.2333207E+03  0.7546771E-02  0.1124324E+00
         21   -1    0    0  502  501  0.00000000000E+00  0.00000000000E+00  0.27808941018E+03  0.27808941018E+03  0.00000000000E+00 0.  1.
         21   -1    0    0  501  502 -0.00000000000E+00 -0.00000000000E+00 -0.19575918498E+03  0.19575918498E+03  0.00000000000E+00 0.  1.
         25    1    1    2    0    0 -0.13991832858E+03  0.85563306453E+02 -0.69678198140E+02  0.21766549882E+03  0.12500000000E+03 0.  0.
         25    1    1    2    0    0  0.13991832858E+03 -0.85563306453E+02  0.15200842334E+03  0.25618309634E+03  0.12500000000E+03 0.  0.
</event>
<event>
 4    0  0.2182372E-002  0.2061688E+03  0.7546771E-02  0.1144636E+00
         21   -1    0    0  502  501  0.00000000000E+00  0.00000000000E+00  0.11172689376E+03  0.11172689376E+03  0.00000000000E+00 0.  1.
         21   -1    0    0  501  502 -0.00000000000E+00 -0.00000000000E+00 -0.38044166187E+03  0.38044166187E+03  0.00000000000E+00 0.  1.
         25    1    1    2    0    0  0.12113860461E+03  0.58882633533E+02 -0.22777002684E+02  0.18516348968E+03  0.12500000000E+03 0.  0.
         25    1    1    2    0    0 -0.12113860461E+03 -0.58882633533E+02 -0.24593776542E+03  0.30700506595E+03  0.12500000000E+03 0.  0.
</event>
<event>
 4    0  0.2182372E-002  0.2110422E+03  0.7546771E-02  0.1140743E+00
         21   -1    0    0  502  501  0.00000000000E+00  0.00000000000E+00  0.14883087108E+04  0.14883087108E+04  0.00000000000E+00 0. -1.
         21   -1    0    0  501  502 -0.00000000000E+00 -0.00000000000E+00 -0.29925777054E+02  0.29925777054E+02  0.00000000000E+00 0. -1.
         25    1    1    2    0    0  0.15753984446E+03  0.47897011098E+02  0.88183577552E+03  0.90574403738E+03  0.12500000000E+03 0.  0.
         25    1    1    2    0    0 -0.15753984446E+03 -0.47897011098E+02  0.57654715827E+03  0.61249045052E+03  0.12500000000E+03 0.  0.
</event>
<event>
 4    0  0.2182372E-002  0.2228581E+03  0.7546771E-02  0.1131770E+00
         21   -1    0    0  502  501  0.00000000000E+00  0.00000000000E+00  0.12213720685E+03  0.12213720685E+03  0.00000000000E+00 0.  1.
         21   -1    0    0  501  502 -0.00000000000E+00 -0.00000000000E+00 -0.40663884950E+03  0.40663884950E+03  0.00000000000E+00 0.  1.
         25    1    1    2    0    0 -0.16008906688E+03 -0.90834720106E+02 -0.15731690366E+03  0.27249415386E+03  0.12500000000E+03 0.  0.
         25    1    1    2    0    0  0.16008906688E+03  0.90834720106E+02 -0.12718473899E+03  0.25628190249E+03  0.12500000000E+03 0.  0.
</event>
<event>
 4    0  0.2182372E-002  0.1811049E+03  0.7546771E-02  0.1166738E+00
         21   -1    0    0  502  501  0.00000000000E+00  0.00000000000E+00  0.32900075441E+03  0.32900075441E+03  0.00000000000E+00 0. -1.
         21   -1    0    0  501  502 -0.00000000000E+00 -0.00000000000E+00 -0.99692700742E+02  0.99692700742E+02  0.00000000000E+00 0. -1.
         25    1    1    2    0    0  0.91175481734E+02 -0.20735433819E+02  0.59795678478E+01  0.15621677860E+03  0.12500000000E+03 0.  0.
         25    1    1    2    0    0 -0.91175481734E+02  0.20735433819E+02  0.22332848582E+03  0.27247667655E+03  0.12500000000E+03 0.  0.
</event>
<event>
 4    0  0.2182372E-002  0.2323661E+03  0.7546771E-02  0.1124985E+00
         21   -1    0    0  502  501  0.00000000000E+00  0.00000000000E+00  0.90668179991E+02  0.90668179991E+02  0.00000000000E+00 0. -1.
         21   -1    0    0  501  502 -0.00000000000E+00 -0.00000000000E+00 -0.59551219872E+03  0.59551219872E+03  0.00000000000E+00 0. -1.
         25    1    1    2    0    0  0.14092797702E+03  0.13603979031E+03 -0.25422308561E+03  0.34441529657E+03  0.12500000000E+03 0.  0.
         25    1    1    2    0    0 -0.14092797702E+03 -0.13603979031E+03 -0.25062093312E+03  0.34176508214E+03  0.12500000000E+03 0.  0.
</event>
<event>
 4    0  0.2182372E-002  0.1416387E+03  0.7546771E-02  0.1211141E+00
         21   -1    0    0  502  501  0.00000000000E+00  0.00000000000E+00  0.11457125598E+03  0.11457125598E+03  0.00000000000E+00 0.  1.
         21   -1    0    0  501  502 -0.00000000000E+00 -0.00000000000E+00 -0.17510083953E+03  0.17510083953E+03  0.00000000000E+00 0.  1.
         25    1    1    2    0    0  0.53914795548E+02 -0.34211077452E+02 -0.10881145545E+02  0.14078566095E+03  0.12500000000E+03 0.  0.
         25    1    1    2    0    0 -0.53914795548E+02  0.34211077452E+02 -0.49648438006E+02  0.14888643456E+03  0.12500000000E+03 0.  0.
</event>
<event>
 4    0  0.2182372E-002  0.1898311E+03  0.7546771E-02  0.1158614E+00
         21   -1    0    0  502  501  0.00000000000E+00  0.00000000000E+00  0.21429394066E+03  0.21429394066E+03  0.00000000000E+00 0.  1.
         21   -1    0    0  501  502 -0.00000000000E+00 -0.00000000000E+00 -0.16816087639E+03  0.16816087639E+03  0.00000000000E+00 0.  1.
         25    1    1    2    0    0  0.86486830812E+02  0.11221655857E+03  0.45375189896E+01  0.18899237286E+03  0.12500000000E+03 0.  0.
         25    1    1    2    0    0 -0.86486830812E+02 -0.11221655857E+03  0.41595545283E+02  0.19346244418E+03  0.12500000000E+03 0.  0.
</event>
<event>
 4    0  0.2182372E-002  0.1511325E+03  0.7546771E-02  0.1199088E+00
         21   -1    0    0  502  501  0.00000000000E+00  0.00000000000E+00  0.11381810422E+03  0.11381810422E+03  0.00000000000E+00 0.  1.
         21   -1    0    0  501  502 -0.00000000000E+00 -0.00000000000E+00 -0.20068018764E+03  0.20068018764E+03  0.00000000000E+00 0.  1.
         25    1    1    2    0    0  0.50555866160E+02  0.46866558718E+02  0.82131535933E+01  0.14298540422E+03  0.12500000000E+03 0.  0.
         25    1    1    2    0    0 -0.50555866160E+02 -0.46866558718E+02 -0.95075237012E+02  0.17151288763E+03  0.12500000000E+03 0.  0.
</event>
<event>
 4    0  0.2182372E-002  0.1758180E+03  0.7546771E-02  0.1171913E+00
         21   -1    0    0  502  501  0.00000000000E+00  0.00000000000E+00  0.14591222173E+03  0.14591222173E+03  0.00000000000E+00 0. -1.
         21   -1    0    0  501  502 -0.00000000000E+00 -0.00000000000E+00 -0.21185328572E+03  0.21185328572E+03  0.00000000000E+00 0. -1.
         25    1    1    2    0    0  0.29778747935E+02 -0.11486955118E+03  0.23505397205E+01  0.17237259833E+03  0.12500000000E+03 0.  0.
         25    1    1    2    0    0 -0.29778747935E+02  0.11486955118E+03 -0.68291603707E+02  0.18539290912E+03  0.12500000000E+03 0.  0.
</event>
<event>
 4    0  0.2182372E-002  0.2290026E+03  0.7546771E-02  0.1127344E+00
         21   -1    0    0  502  501  0.00000000000E+00  0.00000000000E+00  0.54047960120E+02  0.54047960120E+02  0.00000000000E+00 0.  1.
         21   -1    0    0  501  502 -0.00000000000E+00 -0.00000000000E+00 -0.97028995023E+03  0.97028995023E+03  0.00000000000E+00 0.  1.
         25    1    1    2    0    0  0.59739941813E+01 -0.14146388740E+03 -0.16849833982E+03  0.25310948336E+03  0.12500000000E+03 0.  0.
         25    1    1    2    0    0 -0.59739941813E+01  0.14146388740E+03 -0.74774365029E+03  0.77122842699E+03  0.12500000000E+03 0.  0.
</event>
<event>
 4    0  0.2182372E-002  0.1658920E+03  0.7546771E-02  0.1182201E+00
         21   -1    0    0  502  501  0.00000000000E+00  0.00000000000E+00  0.43368148754E+03  0.43368148754E+03  0.00000000000E+00 0.  1.
         21   -1    0    0  501  502 -0.00000000000E+00 -0.00000000000E+00 -0.63457084832E+02  0.63457084832E+02  0.00000000000E+00 0.  1.
         25    1    1    2    0    0  0.40674033332E+02 -0.17626301415E+02  0.35798808601E+02  0.13737400841E+03  0.12500000000E+03 0.  0.
         25    1    1    2    0    0 -0.40674033332E+02  0.17626301415E+02  0.33442559411E+03  0.35976456396E+03  0.12500000000E+03 0.  0.
</event>
<event>
 4    0  0.2182372E-002  0.2460431E+03  0.7546771E-02  0.1115831E+00
         21   -1    0    0  502  501  0.00000000000E+00  0.00000000000E+00  0.17173727631E+03  0.17173727631E+03  0.00000000000E+00 0. -1.
         21   -1    0    0  501  502 -0.00000000000E+00 -0.00000000000E+00 -0.35249889313E+03  0.35249889313E+03  0.00000000000E+00 0. -1.
         25    1    1    2    0    0  0.19038335826E+03 -0.92760465067E+02 -0.98760649773E+02  0.26500753371E+03  0.12500000000E+03 0.  0.
         25    1    1    2    0    0 -0.19038335826E+03  0.92760465067E+02 -0.82000967045E+02  0.25922863572E+03  0.12500000000E+03 0.  0.
</event>
<event>
 4    0  0.2182372E-002  0.2444934E+03  0.7546771E-02  0.1116835E+00
         21   -1    0    0  502  501  0.00000000000E+00  0.00000000000E+00  0.10990580026E+03  0.10990580026E+03  0.00000000000E+00 0. -1.
         21   -1    0    0  501  502 -0.00000000000E+00 -0.00000000000E+00 -0.54389322517E+03  0.54389322517E+03  0.00000000000E+00 0. -1.
         25    1    1    2    0    0 -0.14264080402E+03  0.44879895086E+02 -0.19619745446E+02  0.19588399211E+03  0.12500000000E+03 0.  0.
         25    1    1    2    0    0  0.14264080402E+03 -0.44879895086E+02 -0.41436767946E+03  0.45791503331E+03  0.12500000000E+03 0.  0.
</event>
<event>
 4    0  0.2182372E-002  0.2604400E+03  0.7546771E-02  0.1106879E+00
         21   -1    0    0  502  501  0.00000000000E+00  0.00000000000E+00  0.66302500791E+03  0.66302500791E+03  0.00000000000E+00 0.  1.
         21   -1    0    0  501  502 -0.00000000000E+00 -0.00000000000E+00 -0.10230233960E+03  0.10230233960E+03  0.00000000000E+00 0.  1.
         25    1    1    2    0    0 -0.17025826532E+03 -0.11208067969E+03  0.43201989932E+03  0.49377742869E+03  0.12500000000E+03 0.  0.
         25    1    1    2    0    0  0.17025826532E+03  0.11208067969E+03  0.12870276898E+03  0.27154991883E+03  0.12500000000E+03 0.  0.
</event>
<event>
 4    0  0.2182372E-002  0.2505145E+03  0.7546771E-02  0.1112980E+00
         21   -1    0    0  502  501  0.00000000000E+00  0.00000000000E+00  0.18762885107E+03  0.18762885107E+03  0.00000000000E+00 0.  1.
         21   -1    0    0  501  502 -0.00000000000E+00 -0.00000000000E+00 -0.33447696441E+03  0.33447696441E+03  0.00000000000E+00 0.  1.
         25    1    1    2    0    0 -0.36878553195E+02 -0.21033206054E+03 -0.11422367454E+03  0.27252825762E+03  0.12500000000E+03 0.  0.
         25    1    1    2    0    0  0.36878553195E+02  0.21033206054E+03 -0.32624438800E+02  0.24957755785E+03  0.12500000000E+03 0.  0.
</event>
<event>
 4    0  0.2182372E-002  0.2930509E+03  0.7546771E-02  0.1088767E+00
         21   -1    0    0  502  501  0.00000000000E+00  0.00000000000E+00  0.21572179140E+03  0.21572179140E+03  0.00000000000E+00 0. -1.
         21   -1    0    0  501  502 -0.00000000000E+00 -0.00000000000E+00 -0.39810003766E+03  0.39810003766E+03  0.00000000000E+00 0. -1.
         25    1    1    2    0    0 -0.20413148841E+02  0.26313135474E+03 -0.11682213192E+03  0.31452697341E+03  0.12500000000E+03 0.  0.
         25    1    1    2    0    0  0.20413148841E+02 -0.26313135474E+03 -0.65556114335E+02  0.29929485565E+03  0.12500000000E+03 0.  0.
</event>
<event>
 4    0  0.2182372E-002  0.2986777E+03  0.7546771E-02  0.1085903E+00
         21   -1    0    0  502  501  0.00000000000E+00  0.00000000000E+00  0.43254170226E+03  0.43254170226E+03  0.00000000000E+00 0. -1.
         21   -1    0    0  501  502 -0.00000000000E+00 -0.00000000000E+00 -0.20624226851E+03  0.20624226851E+03  0.00000000000E+00 0. -1.
         25    1    1    2    0    0  0.14782751421E+03 -0.61873095914E+02  0.34719429581E+03  0.40230601909E+03  0.12500000000E+03 0.  0.
         25    1    1    2    0    0 -0.14782751421E+03  0.61873095914E+02 -0.12089486206E+03  0.23647795167E+03  0.12500000000E+03 0.  0.
</event>
<event>
 4    0  0.2182372E-002  0.1906222E+03  0.7546771E-02  0.1157901E+00
         21   -1    0    0  502  501  0.00000000000E+00  0.00000000000E+00  0.86854299021E+03  0.86854299021E+03  0.00000000000E+00 0. -1.
         21   -1    0    0  501  502 -0.00000000000E+00 -0.00000000000E+00 -0.41836538814E+02  0.41836538814E+02  0.00000000000E+00 0. -1.
         25    1    1    2    0    0 -0.62151078818E+02 -0.40282351885E+02  0.70801085228E+03  0.72276537785E+03  0.12500000000E+03 0.  0.
         25    1    1    2    0    0  0.62151078818E+02  0.40282351885E+02  0.11869559912E+03  0.18761415118E+03  0.12500000000E+03 0.  0.
</event>
<event>
 4    0  0.2182372E-002  0.3040984E+03  0.7546771E-02  0.1083210E+00
         21   -1    0    0  502  501  0.00000000000E+00  0.00000000000E+00  0.80372714770E+02  0.80372714770E+02  0.00000000000E+00 0. -1.
         21   -1    0    0  501  502 -0.00000000000E+00 -0.00000000000E+00 -0.11505877851E+04  0.11505877851E+04  0.00000000000E+00 0. -1.
         25    1    1    2    0    0  0.11230354914E+02  0.16688568491E+03 -0.87663760014E+02  0.22646608470E+03  0.12500000000E+03 0.  0.
         25    1    1    2    0    0 -0.11230354914E+02 -0.16688568491E+03 -0.98255131028E+03  0.10044944151E+04  0.12500000000E+03 0.  0.
</event>
<event>
 4    0  0.2182372E-002  0.2055071E+03  0.7546771E-02  0.1145174E+00
         21   -1    0    0  502  501  0.00000000000E+00  0.00000000000E+00  0.27253982691E+04  0.27253982691E+04  0.00000000000E+00 0. -1.
         21   -1    0    0  501  502 -0.00000000000E+00 -0.00000000000E+00 -0.15496141562E+02  0.15496141562E+02  0.00000000000E+00 0. -1.
         25    1    1    2    0    0  0.64440914601E+02  0.12516003625E+03  0.19044743883E+04  0.19137568711E+04  0.12500000000E+03 0.  0.
         25    1    1    2    0    0 -0.64440914601E+02 -0.12516003625E+03  0.80542773920E+03  0.82713753948E+03  0.12500000000E+03 0.  0.
</event>
<event>
 4    0  0.2182372E-002  0.2023937E+03  0.7546771E-02  0.1147735E+00
         21   -1    0    0  502  501  0.00000000000E+00  0.00000000000E+00  0.19175777529E+02  0.19175777529E+02  0.00000000000E+00 0. -1.
         21   -1    0    0  501  502 -0.00000000000E+00 -0.00000000000E+00 -0.21361961176E+04  0.21361961176E+04  0.00000000000E+00 0. -1.
         25    1    1    2    0    0 -0.11192178092E+03  0.91028773029E+02 -0.70030784373E+03  0.72585728525E+03  0.12500000000E+03 0.  0.
         25    1    1    2    0    0  0.11192178092E+03 -0.91028773029E+02 -0.14167124963E+04  0.14295146098E+04  0.12500000000E+03 0.  0.
</event>
<event>
 4    0  0.2182372E-002  0.2107090E+03  0.7546771E-02  0.1141006E+00
         21   -1    0    0  502  501  0.00000000000E+00  0.00000000000E+00  0.24713678674E+04  0.24713678674E+04  0.00000000000E+00 0.  1.
         21   -1    0    0  501  502 -0.00000000000E+00 -0.00000000000E+00 -0.17965069096E+02  0.17965069096E+02  0.00000000000E+00 0.  1.
         25    1    1    2    0    0 -0.62757395675E+02  0.95728971269E+02  0.48724089204E+03  0.51587906870E+03  0.12500000000E+03 0.  0.
         25    1    1    2    0    0  0.62757395675E+02 -0.95728971269E+02  0.19661619063E+04  0.19734538678E+04  0.12500000000E+03 0.  0.
</event>
<event>
 4    0  0.2182372E-002  0.1866470E+03  0.7546771E-02  0.1161521E+00
         21   -1    0    0  502  501  0.00000000000E+00  0.00000000000E+00  0.62276631285E+02  0.62276631285E+02  0.00000000000E+00 0.  1.
         21   -1    0    0  501  502 -0.00000000000E+00 -0.00000000000E+00 -0.55939286281E+03  0.55939286281E+03  0.00000000000E+00 0.  1.
         25    1    1    2    0    0 -0.11092045395E+03  0.59042728004E+02 -0.15112788360E+03  0.23292494077E+03  0.12500000000E+03 0.  0.
         25    1    1    2    0    0  0.11092045395E+03 -0.59042728004E+02 -0.34598834793E+03  0.38874455333E+03  0.12500000000E+03 0.  0.
</event>
<event>
 4    0  0.2182372E-002  0.1819423E+03  0.7546771E-02  0.1165936E+00
         21   -1    0    0  502  501  0.00000000000E+00  0.00000000000E+00  0.15019651665E+03  0.15019651665E+03  0.00000000000E+00 0.  1.
         21   -1    0    0  501  502 -0.00000000000E+00 -0.00000000000E+00 -0.22039803805E+03  0.22039803805E+03  0.00000000000E+00 0.  1.
         25    1    1    2    0    0  0.57059143020E+02  0.10111597469E+03  0.29293548084E+02  0.17309909907E+03  0.12500000000E+03 0.  0.
         25    1    1    2    0    0 -0.57059143020E+02 -0.10111597469E+03 -0.99495069490E+02  0.19749545563E+03  0.12500000000E+03 0.  0.
</event>
<event>
 4    0  0.2182372E-002  0.1819669E+03  0.7546771E-02  0.1165913E+00
         21   -1    0    0  502  501  0.00000000000E+00  0.00000000000E+00  0.19459995262E+03  0.19459995262E+03  0.00000000000E+00 0. -1.
         21   -1    0    0  501  502 -0.00000000000E+00 -0.00000000000E+00 -0.17015390345E+03  0.17015390345E+03  0.00000000000E+00 0. -1.
         25    1    1    2    0    0  0.10202393231E+03 -0.56345297814E+02  0.74839938305E+02  0.18657355578E+03  0.12500000000E+03 0.  0.
         25    1    1    2    0    0 -0.10202393231E+03  0.56345297814E+02 -0.50393889132E+02  0.17818030029E+03  0.12500000000E+03 0.  0.
</event>
<event>
 4    0  0.2182372E-002  0.6427620E+03  0.7546771E-02  0.9820456E-01
         21   -1    0    0  502  501  0.00000000000E+00  0.00000000000E+00  0.88980812311E+03  0.88980812311E+03  0.00000000000E+00 0.  1.
         21   -1    0    0  501  502 -0.00000000000E+00 -0.00000000000E+00 -0.46430572599E+03  0.46430572599E+03  0.00000000000E+00 0.  1.
         25    1    1    2    0    0  0.54886555125E+03 -0.98330236069E+02  0.52272382297E+03  0.77445943972E+03  0.12500000000E+03 0.  0.
         25    1    1    2    0    0 -0.54886555125E+03  0.98330236069E+02 -0.97221425843E+02  0.57965440938E+03  0.12500000000E+03 0.  0.
</event>
<event>
 4    0  0.2182372E-002  0.2023168E+03  0.7546771E-02  0.1147799E+00
         21   -1    0    0  502  501  0.00000000000E+00  0.00000000000E+00  0.16731050518E+03  0.16731050518E+03  0.00000000000E+00 0.  1.
         21   -1    0    0  501  502 -0.00000000000E+00 -0.00000000000E+00 -0.24464736546E+03  0.24464736546E+03  0.00000000000E+00 0.  1.
         25    1    1    2    0    0  0.44752204669E+02 -0.33734996368E+00 -0.19408883567E+03  0.23515601153E+03  0.12500000000E+03 0.  0.
         25    1    1    2    0    0 -0.44752204669E+02  0.33734996368E+00  0.11675197539E+03  0.17680185911E+03  0.12500000000E+03 0.  0.
</event>
<event>
 4    0  0.2182372E-002  0.1618188E+03  0.7546771E-02  0.1186658E+00
         21   -1    0    0  502  501  0.00000000000E+00  0.00000000000E+00  0.93458212057E+02  0.93458212057E+02  0.00000000000E+00 0. -1.
         21   -1    0    0  501  502 -0.00000000000E+00 -0.00000000000E+00 -0.28018229085E+03  0.28018229085E+03  0.00000000000E+00 0. -1.
         25    1    1    2    0    0  0.32272230042E+02  0.84721437552E+02 -0.37501329638E+02  0.15890427476E+03  0.12500000000E+03 0.  0.
         25    1    1    2    0    0 -0.32272230042E+02 -0.84721437552E+02 -0.14922274915E+03  0.21473622814E+03  0.12500000000E+03 0.  0.
</event>
<event>
 4    0  0.2182372E-002  0.1979586E+03  0.7546771E-02  0.1151473E+00
         21   -1    0    0  502  501  0.00000000000E+00  0.00000000000E+00  0.58344982499E+02  0.58344982499E+02  0.00000000000E+00 0.  1.
         21   -1    0    0  501  502 -0.00000000000E+00 -0.00000000000E+00 -0.67165318476E+03  0.67165318476E+03  0.00000000000E+00 0.  1.
         25    1    1    2    0    0 -0.63750272240E+02  0.13213336561E+03 -0.22339057079E+03  0.29504520101E+03  0.12500000000E+03 0.  0.
         25    1    1    2    0    0  0.63750272240E+02 -0.13213336561E+03 -0.38991763147E+03  0.43495296625E+03  0.12500000000E+03 0.  0.
</event>
<event>
 4    0  0.2182372E-002  0.2841791E+03  0.7546771E-02  0.1093428E+00
         21   -1    0    0  502  501  0.00000000000E+00  0.00000000000E+00  0.27059601628E+02  0.27059601628E+02  0.00000000000E+00 0. -1.
         21   -1    0    0  501  502 -0.00000000000E+00 -0.00000000000E+00 -0.29844410115E+04  0.29844410115E+04  0.00000000000E+00 0. -1.
         25    1    1    2    0    0 -0.86592984147E+02 -0.23756502889E+03 -0.16620325965E+04  0.16857973898E+04  0.12500000000E+03 0.  0.
         25    1    1    2    0    0  0.86592984147E+02  0.23756502889E+03 -0.12953488134E+04  0.13257032233E+04  0.12500000000E+03 0.  0.
</event>
<event>
 4    0  0.2182372E-002  0.3391498E+03  0.7546771E-02  0.1067159E+00
         21   -1    0    0  502  501  0.00000000000E+00  0.00000000000E+00  0.11377114455E+04  0.11377114455E+04  0.00000000000E+00 0. -1.
         21   -1    0    0  501  502 -0.00000000000E+00 -0.00000000000E+00 -0.10109995115E+03  0.10109995115E+03  0.00000000000E+00 0. -1.
         25    1    1    2    0    0 -0.31334625922E+03  0.26795916774E+02  0.47772659079E+03  0.58544990808E+03  0.12500000000E+03 0.  0.
         25    1    1    2    0    0  0.31334625922E+03 -0.26795916774E+02  0.55888490353E+03  0.65336148854E+03  0.12500000000E+03 0.  0.
</event>
<event>
 4    0  0.2182372E-002  0.1890711E+03  0.7546771E-02  0.1159302E+00
         21   -1    0    0  502  501  0.00000000000E+00  0.00000000000E+00  0.62612807966E+02  0.62612807966E+02  0.00000000000E+00 0.  1.
         21   -1    0    0  501  502 -0.00000000000E+00 -0.00000000000E+00 -0.57093571952E+03  0.57093571952E+03  0.00000000000E+00 0.  1.
         25    1    1    2    0    0 -0.10722517245E+03 -0.87950683948E+02 -0.30415336762E+03  0.35688489944E+03  0.12500000000E+03 0.  0.
         25    1    1    2    0    0  0.10722517245E+03  0.87950683948E+02 -0.20416954394E+03  0.27666362805E+03  0.12500000000E+03 0.  0.
</event>
<event>
 4    0  0.2182372E-002  0.2103869E+03  0.7546771E-02  0.1141260E+00
         21   -1    0    0  502  501  0.00000000000E+00  0.00000000000E+00  0.22197716415E+03  0.22197716415E+03  0.00000000000E+00 0. -1.
         21   -1    0    0  501  502 -0.00000000000E+00 -0.00000000000E+00 -0.19940176524E+03  0.19940176524E+03  0.00000000000E+00 0. -1.
         25    1    1    2    0    0 -0.81001456375E+02  0.92185673587E+02 -0.10540544322E+03  0.20443762327E+03  0.12500000000E+03 0.  0.
         25    1    1    2    0    0  0.81001456375E+02 -0.92185673587E+02  0.12798084213E+03  0.21694130612E+03  0.12500000000E+03 0.  0.
</event>
<event>
 4    0  0.2182372E-002  0.2410384E+03  0.7546771E-02  0.1119103E+00
         21   -1    0    0  502  501  0.00000000000E+00  0.00000000000E+00  0.11158650450E+03  0.11158650450E+03  0.00000000000E+00 0.  1.
         21   -1    0    0  501  502 -0.00000000000E+00 -0.00000000000E+00 -0.52066788112E+03  0.52066788112E+03  0.00000000000E+00 0.  1.
         25    1    1    2    0    0  0.10938830209E+03  0.16825451500E+03 -0.26604431436E+03  0.35592128295E+03  0.12500000000E+03 0.  0.
         25    1    1    2    0    0 -0.10938830209E+03 -0.16825451500E+03 -0.14303706226E+03  0.27633310267E+03  0.12500000000E+03 0.  0.
</event>
<event>
 4    0  0.2182372E-002  0.2646447E+03  0.7546771E-02  0.1104384E+00
         21   -1    0    0  502  501  0.00000000000E+00  0.00000000000E+00  0.93053212314E+03  0.93053212314E+03  0.00000000000E+00 0.  1.
         21   -1    0    0  501  502 -0.00000000000E+00 -0.00000000000E+00 -0.75265327090E+02  0.75265327090E+02  0.00000000000E+00 0.  1.
         25    1    1    2    0    0  0.70394526946E+02  0.19254036990E+03  0.63910825303E+03  0.68272362092E+03  0.12500000000E+03 0.  0.
         25    1    1    2    0    0 -0.70394526946E+02 -0.19254036990E+03  0.21615854301E+03  0.32307382931E+03  0.12500000000E+03 0.  0.
</event>
<event>
 4    0  0.2182372E-002  0.1708526E+03  0.7546771E-02  0.1176962E+00
         21   -1    0    0  502  501  0.00000000000E+00  0.00000000000E+00  0.31844803542E+02  0.31844803542E+02  0.00000000000E+00 0. -1.
         21   -1    0    0  501  502 -0.00000000000E+00 -0.00000000000E+00 -0.91665184759E+03  0.91665184759E+03  0.00000000000E+00 0. -1.
         25    1    1    2    0    0  0.22544007581E+02 -0.28086772503E+02 -0.74985743516E+03  0.76105733826E+03  0.12500000000E+03 0.  0.
         25    1    1    2    0    0 -0.22544007581E+02  0.28086772503E+02 -0.13494960889E+03  0.18743931286E+03  0.12500000000E+03 0.  0.
</event>
<event>
 4    0  0.2182372E-002  0.1658809E+03  0.7546771E-02  0.1182213E+00
         21   -1    0    0  502  501  0.00000000000E+00  0.00000000000E+00  0.14538900092E+03  0.14538900092E+03  0.00000000000E+00 0. -1.
         21   -1    0    0  501  502 -0.00000000000E+00 -0.00000000000E+00 -0.18926094840E+03  0.18926094840E+03  0.00000000000E+00 0. -1.
         25    1    1    2    0    0 -0.10537339156E+03  0.45773879254E+01 -0.49871041591E+02  0.17098720689E+03  0.12500000000E+03 0.  0.
         25    1    1    2    0    0  0.10537339156E+03 -0.45773879254E+01  0.59990941160E+01  0.16366274243E+03  0.12500000000E+03 0.  0.
</event>
<event>
 4    0  0.2182372E-002  0.2675193E+03  0.7546771E-02  0.1102708E+00
         21   -1    0    0  502  501  0.00000000000E+00  0.00000000000E+00  0.11021830829E+04  0.11021830829E+04  0.00000000000E+00 0. -1.
         21   -1    0    0  501  502 -0.00000000000E+00 -0.00000000000E+00 -0.64931672763E+02  0.64931672763E+02  0.00000000000E+00 0. -1.
         25    1    1    2    0    0  0.12411198737E+03  0.10518160169E+02  0.95722213351E+03  0.97335175038E+03  0.12500000000E+03 0.  0.
         25    1    1    2    0    0 -0.12411198737E+03 -0.10518160169E+02  0.80029276648E+02  0.19376300530E+03  0.12500000000E+03 0.  0.
</event>
<event>
 4    0  0.2182372E-002  0.1855415E+03  0.7546771E-02  0.1162545E+00
         21   -1    0    0  502  501  0.00000000000E+00  0.00000000000E+00  0.15204174860E+03  0.15204174860E+03  0.00000000000E+00 0.  1.
         21   -1    0    0  501  502 -0.00000000000E+00 -0.00000000000E+00 -0.22642236829E+03  0.22642236829E+03  0.00000000000E+00 0.  1.
         25    1    1    2    0    0  0.84850046257E+02  0.93314198572E+02  0.17671682856E+02  0.17844987638E+03  0.12500000000E+03 0.  0.
         25    1    1    2    0    0 -0.84850046257E+02 -0.93314198572E+02 -0.92052302538E+02  0.20001424051E+03  0.12500000000E+03 0.  0.
</event>
<event>
 4    0  0.2182372E-002  0.2161571E+03  0.7546771E-02  0.1136781E+00
         21   -1    0    0  502  501  0.00000000000E+00  0.00000000000E+00  0.21996441880E+04  0.21996441880E+04  0.00000000000E+00 0.  1.
         21   -1    0    0  501  502 -0.00000000000E+00 -0.00000000000E+00 -0.21241569216E+02  0.21241569216E+02  0.00000000000E+00 0.  1.
         25    1    1    2    0    0 -0.62391482082E+02  0.62737872557E+02  0.30554369132E+03  0.34177578176E+03  0.12500000000E+03 0.  0.
         25    1    1    2    0    0  0.62391482082E+02 -0.62737872557E+02  0.18728589275E+04  0.18791099755E+04  0.12500000000E+03 0.  0.
</event>
<event>
 4    0  0.2182372E-002  0.3433430E+03  0.7546771E-02  0.1065381E+00
         21   -1    0    0  502  501  0.00000000000E+00  0.00000000000E+00  0.86396091199E+02  0.86396091199E+02  0.00000000000E+00 0.  1.
         21   -1    0    0  501  502 -0.00000000000E+00 -0.00000000000E+00 -0.13644642927E+04  0.13644642927E+04  0.00000000000E+00 0.  1.
         25    1    1    2    0    0  0.41085718491E+02  0.25222396125E+03 -0.10451974007E+04  0.10832209236E+04  0.12500000000E+03 0.  0.
         25    1    1    2    0    0 -0.41085718491E+02 -0.25222396125E+03 -0.23287080076E+03  0.36763946026E+03  0.12500000000E+03 0.  0.
</event>
<event>
 4    0  0.2182372E-002  0.2239720E+03  0.7546771E-02  0.1130956E+00
         21   -1    0    0  502  501  0.00000000000E+00  0.00000000000E+00  0.10348491199E+04  0.10348491199E+04  0.00000000000E+00 0. -1.
         21   -1    0    0  501  502 -0.00000000000E+00 -0.00000000000E+00 -0.48474190433E+02  0.48474190433E+02  0.00000000000E+00 0. -1.
         25    1    1    2    0    0  0.17169324124E+03 -0.69078310090E+02  0.53423616015E+03  0.57903683547E+03  0.12500000000E+03 0.  0.
         25    1    1    2    0    0 -0.17169324124E+03  0.69078310090E+02  0.45213876931E+03  0.50428647486E+03  0.12500000000E+03 0.  0.
</event>
<event>
 4    0  0.2182372E-002  0.1888360E+03  0.7546771E-02  0.1159515E+00
         21   -1    0    0  502  501  0.00000000000E+00  0.00000000000E+00  0.22580491172E+04  0.22580491172E+04  0.00000000000E+00 0. -1.
         21   -1    0    0  501  502 -0.00000000000E+00 -0.00000000000E+00 -0.15791968215E+02  0.15791968215E+02  0.00000000000E+00 0. -1.
         25    1    1    2    0    0 -0.11042609606E+03  0.19814225927E+01  0.16540924848E+04  0.16624815178E+04  0.12500000000E+03 0.  0.
         25    1    1    2    0    0  0.11042609606E+03 -0.19814225927E+01  0.58816466416E+03  0.61135956760E+03  0.12500000000E+03 0.  0.
</event>
<event>
 4    0  0.2182372E-002  0.2044525E+03  0.7546771E-02  0.1146036E+00
         21   -1    0    0  502  501  0.00000000000E+00  0.00000000000E+00  0.16376698016E+03  0.16376698016E+03  0.00000000000E+00 0.  1.
         21   -1    0    0  501  502 -0.00000000000E+00 -0.00000000000E+00 -0.25524569121E+03  0.25524569121E+03  0.00000000000E+00 0.  1.
         25    1    1    2    0    0 -0.11432618365E+03  0.11265053167E+03 -0.66619434809E+02  0.21406486785E+03  0.12500000000E+03 0.  0.
         25    1    1    2    0    0  0.11432618365E+03 -0.11265053167E+03 -0.24859276244E+02  0.20494780352E+03  0.12500000000E+03 0.  0.
</event>
<event>
 4    0  0.2182372E-002  0.2100950E+03  0.7546771E-02  0.1141491E+00
         21   -1    0    0  502  501  0.00000000000E+00  0.00000000000E+00  0.80026245662E+03  0.80026245662E+03  0.00000000000E+00 0. -1.
         21   -1    0    0  501  502 -0.00000000000E+00 -0.00000000000E+00 -0.55156794185E+02  0.55156794185E+02  0.00000000000E+00 0. -1.
         25    1    1    2    0    0 -0.79726870673E+02  0.11562692012E+03  0.18169856750E+03  0.26146764235E+03  0.12500000000E+03 0.  0.
         25    1    1    2    0    0  0.79726870673E+02 -0.11562692012E+03  0.56340709494E+03  0.59395160846E+03  0.12500000000E+03 0.  0.
</event>
<event>
 4    0  0.2182372E-002  0.1642805E+03  0.7546771E-02  0.1183947E+00
         21   -1    0    0  502  501  0.00000000000E+00  0.00000000000E+00  0.71080309585E+03  0.71080309585E+03  0.00000000000E+00 0.  1.
         21   -1    0    0  501  502 -0.00000000000E+00 -0.00000000000E+00 -0.37968428798E+02  0.37968428798E+02  0.00000000000E+00 0.  1.
         25    1    1    2    0    0  0.10416419887E+03 -0.10234562252E+02  0.38245818350E+03  0.41575736760E+03  0.12500000000E+03 0.  0.
         25    1    1    2    0    0 -0.10416419887E+03  0.10234562252E+02  0.29037648356E+03  0.33301415705E+03  0.12500000000E+03 0.  0.
</event>
<event>
 4    0  0.2182372E-002  0.2387159E+03  0.7546771E-02  0.1120651E+00
         21   -1    0    0  502  501  0.00000000000E+00  0.00000000000E+00  0.53534560623E+03  0.53534560623E+03  0.00000000000E+00 0. -1.
         21   -1    0    0  501  502 -0.00000000000E+00 -0.00000000000E+00 -0.10644577929E+03  0.10644577929E+03  0.00000000000E+00 0. -1.
         25    1    1    2    0    0  0.99104059434E+01  0.16145928949E+03  0.48757063318E+02  0.21016557647E+03  0.12500000000E+03 0.  0.
         25    1    1    2    0    0 -0.99104059434E+01 -0.16145928949E+03  0.38014276362E+03  0.43162580906E+03  0.12500000000E+03 0.  0.
</event>
<event>
 4    0  0.2182372E-002  0.2250115E+03  0.7546771E-02  0.1130201E+00
         21   -1    0    0  502  501  0.00000000000E+00  0.00000000000E+00  0.13382203414E+03  0.13382203414E+03  0.00000000000E+00 0. -1.
         21   -1    0    0  501  502 -0.00000000000E+00 -0.00000000000E+00 -0.37833955586E+03  0.37833955586E+03  0.00000000000E+00 0. -1.
         25    1    1    2    0    0 -0.58666241802E+02  0.17183576300E+03 -0.17361010055E+03  0.28059708549E+03  0.12500000000E+03 0.  0.
         25    1    1    2    0    0  0.58666241802E+02 -0.17183576300E+03 -0.70907421174E+02  0.23156450451E+03  0.12500000000E+03 0.  0.
</event>
<event>
 4    0  0.2182372E-002  0.1680864E+03  0.7546771E-02  0.1179858E+00
         21   -1    0    0  502  501  0.00000000000E+00  0.00000000000E+00  0.79286466801E+02  0.79286466801E+02  0.00000000000E+00 0. -1.
         21   -1    0    0  501  502 -0.00000000000E+00 -0.00000000000E+00 -0.35634127077E+03  0.35634127077E+03  0.00000000000E+00 0. -1.
         25    1    1    2    0    0 -0.60905931165E+02 -0.89811502716E+02 -0.17636078085E+03  0.24187551239E+03  0.12500000000E+03 0.  0.
         25    1    1    2    0    0  0.60905931165E+02  0.89811502716E+02 -0.10069402312E+03  0.19375222518E+03  0.12500000000E+03 0.  0.
</event>
<event>
 4    0  0.2182372E-002  0.1548631E+03  0.7546771E-02  0.1194621E+00
         21   -1    0    0  502  501  0.00000000000E+00  0.00000000000E+00  0.32232288493E+03  0.32232288493E+03  0.00000000000E+00 0. -1.
         21   -1    0    0  501  502 -0.00000000000E+00 -0.00000000000E+00 -0.74405461947E+02  0.74405461947E+02  0.00000000000E+00 0. -1.
         25    1    1    2    0    0  0.61690156566E+02  0.78909866002E+01  0.20978513589E+03  0.25199751255E+03  0.12500000000E+03 0.  0.
         25    1    1    2    0    0 -0.61690156566E+02 -0.78909866002E+01  0.38132287084E+02  0.14473083433E+03  0.12500000000E+03 0.  0.
</event>
<event>
 4    0  0.2182372E-002  0.2364252E+03  0.7546771E-02  0.1122197E+00
         21   -1    0    0  502  501  0.00000000000E+00  0.00000000000E+00  0.25023547893E+03  0.25023547893E+03  0.00000000000E+00 0.  1.
         21   -1    0    0  501  502 -0.00000000000E+00 -0.00000000000E+00 -0.22337708703E+03  0.22337708703E+03  0.00000000000E+00 0.  1.
         25    1    1    2    0    0 -0.81326741384E+02  0.18344941643E+03  0.11389961243E+02  0.23669063874E+03  0.12500000000E+03 0.  0.
         25    1    1    2    0    0  0.81326741384E+02 -0.18344941643E+03  0.15468430655E+02  0.23692192722E+03  0.12500000000E+03 0.  0.
</event>
<event>
 4    0  0.2182372E-002  0.1797315E+03  0.7546771E-02  0.1168063E+00
         21   -1    0    0  502  501  0.00000000000E+00  0.00000000000E+00  0.27500876498E+03  0.27500876498E+03  0.00000000000E+00 0. -1.
         21   -1    0    0  501  502 -0.00000000000E+00 -0.00000000000E+00 -0.11746318904E+03  0.11746318904E+03  0.00000000000E+00 0. -1.
         25    1    1    2    0    0  0.64714219363E+02 -0.75736916603E+02  0.16850486577E+03  0.23225610974E+03  0.12500000000E+03 0.  0.
         25    1    1    2    0    0 -0.64714219363E+02  0.75736916603E+02 -0.10959289832E+02  0.16021584428E+03  0.12500000000E+03 0.  0.
</event>
<event>
 4    0  0.2182372E-002  0.2283734E+03  0.7546771E-02  0.1127790E+00
         21   -1    0    0  502  501  0.00000000000E+00  0.00000000000E+00  0.38978397219E+03  0.38978397219E+03  0.00000000000E+00 0.  1.
         21   -1    0    0  501  502 -0.00000000000E+00 -0.00000000000E+00 -0.13380339769E+03  0.13380339769E+03  0.00000000000E+00 0.  1.
         25    1    1    2    0    0 -0.15934733521E+02  0.41046805234E+02  0.34119316163E+03  0.36602804468E+03  0.12500000000E+03 0.  0.
         25    1    1    2    0    0  0.15934733521E+02 -0.41046805234E+02 -0.85212587127E+02  0.15755932520E+03  0.12500000000E+03 0.  0.
</event>
<event>
 4    0  0.2182372E-002  0.2961100E+03  0.7546771E-02  0.1087202E+00
         21   -1    0    0  502  501  0.00000000000E+00  0.00000000000E+00  0.91957665187E+03  0.91957665187E+03  0.00000000000E+00 0.  1.
         21   -1    0    0  501  502 -0.00000000000E+00 -0.00000000000E+00 -0.95349456661E+02  0.95349456661E+02  0.00000000000E+00 0.  1.
         25    1    1    2    0    0  0.12869216942E+03 -0.16591002761E+03  0.69871912262E+03  0.74021701145E+03  0.12500000000E+03 0.  0.
         25    1    1    2    0    0 -0.12869216942E+03  0.16591002761E+03  0.12550807259E+03  0.27470909708E+03  0.12500000000E+03 0.  0.
</event>
<event>
 4    0  0.2182372E-002  0.2093109E+03  0.7546771E-02  0.1142113E+00
         21   -1    0    0  502  501  0.00000000000E+00  0.00000000000E+00  0.34897702223E+02  0.34897702223E+02  0.00000000000E+00 0.  1.
         21   -1    0    0  501  502 -0.00000000000E+00 -0.00000000000E+00 -0.12554136801E+04  0.12554136801E+04  0.00000000000E+00 0.  1.
         25    1    1    2    0    0 -0.11698058184E+03 -0.23652563850E+02 -0.97420453481E+03  0.98941567400E+03  0.12500000000E+03 0.  0.
         25    1    1    2    0    0  0.11698058184E+03  0.23652563850E+02 -0.24631144308E+03  0.30089570834E+03  0.12500000000E+03 0.  0.
</event>
<event>
 4    0  0.2182372E-002  0.2427271E+03  0.7546771E-02  0.1117989E+00
         21   -1    0    0  502  501  0.00000000000E+00  0.00000000000E+00  0.11345855337E+03  0.11345855337E+03  0.00000000000E+00 0.  1.
         21   -1    0    0  501  502 -0.00000000000E+00 -0.00000000000E+00 -0.51927717508E+03  0.51927717508E+03  0.00000000000E+00 0.  1.
         25    1    1    2    0    0 -0.30032748828E+02  0.95963008019E+02  0.34510011095E+02  0.16409389317E+03  0.12500000000E+03 0.  0.
         25    1    1    2    0    0  0.30032748828E+02 -0.95963008019E+02 -0.44032863280E+03  0.46864183528E+03  0.12500000000E+03 0.  0.
</event>
<event>
 4    0  0.2182372E-002  0.1901289E+03  0.7546771E-02  0.1158345E+00
         21   -1    0    0  502  501  0.00000000000E+00  0.00000000000E+00  0.93594098633E+03  0.93594098633E+03  0.00000000000E+00 0.  1.
         21   -1    0    0  501  502 -0.00000000000E+00 -0.00000000000E+00 -0.38623159958E+02  0.38623159958E+02  0.00000000000E+00 0.  1.
         25    1    1    2    0    0 -0.29758262934E+02  0.51949557236E+02  0.78222738836E+03  0.79441110126E+03  0.12500000000E+03 0.  0.
         25    1    1    2    0    0  0.29758262934E+02 -0.51949557236E+02  0.11509043801E+03  0.18015304502E+03  0.12500000000E+03 0.  0.
</event>
<event>
 4    0  0.2182372E-002  0.1933460E+03  0.7546771E-02  0.1155478E+00
         21   -1    0    0  502  501  0.00000000000E+00  0.00000000000E+00  0.20638861529E+03  0.20638861529E+03  0.00000000000E+00 0. -1.
         21   -1    0    0  501  502 -0.00000000000E+00 -0.00000000000E+00 -0.18112754399E+03  0.18112754399E+03  0.00000000000E+00 0. -1.
         25    1    1    2    0    0 -0.11759917924E+03 -0.54726178322E+02  0.83016568447E+02  0.19834634402E+03  0.12500000000E+03 0.  0.
         25    1    1    2    0    0  0.11759917924E+03  0.54726178322E+02 -0.57755497145E+02  0.18916981525E+03  0.12500000000E+03 0.  0.
</event>
<event>
 4    0  0.2182372E-002  0.2310754E+03  0.7546771E-02  0.1125885E+00
         21   -1    0    0  502  501  0.00000000000E+00  0.00000000000E+00  0.66171836204E+03  0.66171836204E+03  0.00000000000E+00 0. -1.
         21   -1    0    0  501  502 -0.00000000000E+00 -0.00000000000E+00 -0.80692677595E+02  0.80692677595E+02  0.00000000000E+00 0. -1.
         25    1    1    2    0    0 -0.13182847072E+03 -0.17080169770E+02  0.51826503310E+03  0.54944892613E+03  0.12500000000E+03 0.  0.
         25    1    1    2    0    0  0.13182847072E+03  0.17080169770E+02  0.62760651344E+02  0.19296211350E+03  0.12500000000E+03 0.  0.
</event>
<event>
 4    0  0.2182372E-002  0.2216497E+03  0.7546771E-02  0.1132659E+00
         21   -1    0    0  502  501  0.00000000000E+00  0.00000000000E+00  0.76489457039E+03  0.76489457039E+03  0.00000000000E+00 0.  1.
         21   -1    0    0  501  502 -0.00000000000E+00 -0.00000000000E+00 -0.64229243652E+02  0.64229243652E+02  0.00000000000E+00 0.  1.
         25    1    1    2    0    0 -0.15737468007E+03  0.58020038588E+02  0.48739841479E+03  0.53039167560E+03  0.12500000000E+03 0.  0.
         25    1    1    2    0    0  0.15737468007E+03 -0.58020038588E+02  0.21326691194E+03  0.29873213844E+03  0.12500000000E+03 0.  0.
</event>
<event>
 4    0  0.2182372E-002  0.2265027E+03  0.7546771E-02  0.1129126E+00
         21   -1    0    0  502  501  0.00000000000E+00  0.00000000000E+00  0.11522750717E+03  0.11522750717E+03  0.00000000000E+00 0. -1.
         21   -1    0    0  501  502 -0.00000000000E+00 -0.00000000000E+00 -0.44523617149E+03  0.44523617149E+03  0.00000000000E+00 0. -1.
         25    1    1    2    0    0 -0.13804179641E+03  0.12039738802E+03 -0.10793966662E+03  0.24663138533E+03  0.12500000000E+03 0.  0.
         25    1    1    2    0    0  0.13804179641E+03 -0.12039738802E+03 -0.22206899770E+03  0.31383229333E+03  0.12500000000E+03 0.  0.
</event>
<event>
 4    0  0.2182372E-002  0.3584924E+03  0.7546771E-02  0.1059182E+00
         21   -1    0    0  502  501  0.00000000000E+00  0.00000000000E+00  0.36902886985E+03  0.36902886985E+03  0.00000000000E+00 0. -1.
         21   -1    0    0  501  502 -0.00000000000E+00 -0.00000000000E+00 -0.34825686122E+03  0.34825686122E+03  0.00000000000E+00 0. -1.
         25    1    1    2    0    0 -0.25069370659E+03  0.11649576703E+03  0.20144581441E+03  0.36417580151E+03  0.12500000000E+03 0.  0.
         25    1    1    2    0    0  0.25069370659E+03 -0.11649576703E+03 -0.18067380578E+03  0.35310992956E+03  0.12500000000E+03 0.  0.
</event>
<event>
 4    0  0.2182372E-002  0.2314876E+03  0.7546771E-02  0.1125597E+00
         21   -1    0    0  502  501  0.00000000000E+00  0.00000000000E+00  0.77554419310E+02  0.77554419310E+02  0.00000000000E+00 0.  1.
         21   -1    0    0  501  502 -0.00000000000E+00 -0.00000000000E+00 -0.69095376600E+03  0.69095376600E+03  0.00000000000E+00 0.  1.
         25    1    1    2    0    0 -0.18745626759E+02 -0.11833858818E+03 -0.56173646505E+03  0.58781653272E+03  0.12500000000E+03 0.  0.
         25    1    1    2    0    0  0.18745626759E+02  0.11833858818E+03 -0.51662881641E+02  0.18069165259E+03  0.12500000000E+03 0.  0.
</event>
<event>
 4    0  0.2182372E-002  0.2462673E+03  0.7546771E-02  0.1115687E+00
         21   -1    0    0  502  501  0.00000000000E+00  0.00000000000E+00  0.27118843332E+03  0.27118843332E+03  0.00000000000E+00 0.  1.
         21   -1    0    0  501  502 -0.00000000000E+00 -0.00000000000E+00 -0.22363627236E+03  0.22363627236E+03  0.00000000000E+00 0.  1.
         25    1    1    2    0    0  0.22130445043E+02 -0.78588260127E+02 -0.17298322856E+03  0.22850397937E+03  0.12500000000E+03 0.  0.
         25    1    1    2    0    0 -0.22130445043E+02  0.78588260127E+02  0.22053538952E+03  0.26632072630E+03  0.12500000000E+03 0.  0.
</event>
<event>
 4    0  0.2182372E-002  0.1709694E+03  0.7546771E-02  0.1176841E+00
         21   -1    0    0  502  501  0.00000000000E+00  0.00000000000E+00  0.29749770663E+02  0.29749770663E+02  0.00000000000E+00 0.  1.
         21   -1    0    0  501  502 -0.00000000000E+00 -0.00000000000E+00 -0.98254714338E+03  0.98254714338E+03  0.00000000000E+00 0.  1.
         25    1    1    2    0    0  0.54525557773E+02  0.67896173911E+02 -0.24665037418E+03  0.28990400819E+03  0.12500000000E+03 0.  0.
         25    1    1    2    0    0 -0.54525557773E+02 -0.67896173911E+02 -0.70614699854E+03  0.72239290585E+03  0.12500000000E+03 0.  0.
</event>
<event>
 4    0  0.2182372E-002  0.2111599E+03  0.7546771E-02  0.1140651E+00
         21   -1    0    0  502  501  0.00000000000E+00  0.00000000000E+00  0.18331339431E+04  0.18331339431E+04  0.00000000000E+00 0. -1.
         21   -1    0    0  501  502 -0.00000000000E+00 -0.00000000000E+00 -0.24323640700E+02  0.24323640700E+02  0.00000000000E+00 0. -1.
         25    1    1    2    0    0  0.38013361806E+02 -0.22180441517E+02  0.18134828648E+03  0.22460896837E+03  0.12500000000E+03 0.  0.
         25    1    1    2    0    0 -0.38013361806E+02  0.22180441517E+02  0.16274620160E+04  0.16328486155E+04  0.12500000000E+03 0.  0.
</event>
<event>
 4    0  0.2182372E-002  0.2397310E+03  0.7546771E-02  0.1119972E+00
         21   -1    0    0  502  501  0.00000000000E+00  0.00000000000E+00  0.10424376690E+04  0.10424376690E+04  0.00000000000E+00 0.  1.
         21   -1    0    0  501  502 -0.00000000000E+00 -0.00000000000E+00 -0.55131321402E+02  0.55131321402E+02  0.00000000000E+00 0.  1.
         25    1    1    2    0    0  0.67367435982E+02  0.22432842344E+02  0.93281767971E+03  0.94383018993E+03  0.12500000000E+03 0.  0.
         25    1    1    2    0    0 -0.67367435982E+02 -0.22432842344E+02  0.54488667912E+02  0.15373880049E+03  0.12500000000E+03 0.  0.
</event>
<event>
 4    0  0.2182372E-002  0.2064609E+03  0.7546771E-02  0.1144400E+00
         21   -1    0    0  502  501  0.00000000000E+00  0.00000000000E+00  0.11599152586E+04  0.11599152586E+04  0.00000000000E+00 0.  1.
         21   -1    0    0  501  502 -0.00000000000E+00 -0.00000000000E+00 -0.36749336057E+02  0.36749336057E+02  0.00000000000E+00 0.  1.
         25    1    1    2    0    0  0.85853956650E+02  0.13060852797E+03  0.41461979962E+03  0.46039555568E+03  0.12500000000E+03 0.  0.
         25    1    1    2    0    0 -0.85853956650E+02 -0.13060852797E+03  0.70854612296E+03  0.73626903902E+03  0.12500000000E+03 0.  0.
</event>
<event>
 4    0  0.2182372E-002  0.1846458E+03  0.7546771E-02  0.1163381E+00
         21   -1    0    0  502  501  0.00000000000E+00  0.00000000000E+00  0.55191324537E+03  0.55191324537E+03  0.00000000000E+00 0. -1.
         21   -1    0    0  501  502 -0.00000000000E+00 -0.00000000000E+00 -0.61774313977E+02  0.61774313977E+02  0.00000000000E+00 0. -1.
         25    1    1    2    0    0 -0.11830509334E+03 -0.51106355491E+02  0.31676030596E+03  0.36410169749E+03  0.12500000000E+03 0.  0.
         25    1    1    2    0    0  0.11830509334E+03  0.51106355491E+02  0.17337862544E+03  0.24958586186E+03  0.12500000000E+03 0.  0.
</event>
<event>
 4    0  0.2182372E-002  0.2138637E+03  0.7546771E-02  0.1138542E+00
         21   -1    0    0  502  501  0.00000000000E+00  0.00000000000E+00  0.34563316940E+03  0.34563316940E+03  0.00000000000E+00 0.  1.
         21   -1    0    0  501  502 -0.00000000000E+00 -0.00000000000E+00 -0.13233017185E+03  0.13233017185E+03  0.00000000000E+00 0.  1.
         25    1    1    2    0    0  0.97755659317E+02  0.41089518623E+01 -0.53497381568E+02  0.16751126006E+03  0.12500000000E+03 0.  0.
         25    1    1    2    0    0 -0.97755659317E+02 -0.41089518623E+01  0.26680037912E+03  0.31045208118E+03  0.12500000000E+03 0.  0.
</event>
<event>
 4    0  0.2182372E-002  0.2835655E+03  0.7546771E-02  0.1093757E+00
         21   -1    0    0  502  501  0.00000000000E+00  0.00000000000E+00  0.56968430223E+03  0.56968430223E+03  0.00000000000E+00 0.  1.
         21   -1    0    0  501  502 -0.00000000000E+00 -0.00000000000E+00 -0.14114726193E+03  0.14114726193E+03  0.00000000000E+00 0.  1.
         25    1    1    2    0    0 -0.17627830416E+03  0.42439006677E+02 -0.96251343553E+01  0.22043763975E+03  0.12500000000E+03 0.  0.
         25    1    1    2    0    0  0.17627830416E+03 -0.42439006677E+02  0.43816217465E+03  0.49039392441E+03  0.12500000000E+03 0.  0.
</event>
<event>
 4    0  0.2182372E-002  0.1783669E+03  0.7546771E-02  0.1169393E+00
         21   -1    0    0  502  501  0.00000000000E+00  0.00000000000E+00  0.27390259522E+03  0.27390259522E+03  0.00000000000E+00 0. -1.
         21   -1    0    0  501  502 -0.00000000000E+00 -0.00000000000E+00 -0.11615347780E+03  0.11615347780E+03  0.00000000000E+00 0. -1.
         25    1    1    2    0    0 -0.26099266673E+02 -0.31889391096E+02  0.21050051665E+03  0.24826109742E+03  0.12500000000E+03 0.  0.
         25    1    1    2    0    0  0.26099266673E+02  0.31889391096E+02 -0.52751399220E+02  0.14179497560E+03  0.12500000000E+03 0.  0.
</event>
<event>
 4    0  0.2182372E-002  0.2201656E+03  0.7546771E-02  0.1133760E+00
         21   -1    0    0  502  501  0.00000000000E+00  0.00000000000E+00  0.25640851614E+03  0.25640851614E+03  0.00000000000E+00 0. -1.
         21   -1    0    0  501  502 -0.00000000000E+00 -0.00000000000E+00 -0.18904562857E+03  0.18904562857E+03  0.00000000000E+00 0. -1.
         25    1    1    2    0    0  0.11663820809E+03  0.13846830933E+03  0.42143255460E+02  0.22400669243E+03  0.12500000000E+03 0.  0.
         25    1    1    2    0    0 -0.11663820809E+03 -0.13846830933E+03  0.25219632107E+02  0.22144745227E+03  0.12500000000E+03 0.  0.
</event>
<event>
 4    0  0.2182372E-002  0.1574668E+03  0.7546771E-02  0.1191587E+00
         21   -1    0    0  502  501  0.00000000000E+00  0.00000000000E+00  0.15796080434E+02  0.15796080434E+02  0.00000000000E+00 0. -1.
         21   -1    0    0  501  502 -0.00000000000E+00 -0.00000000000E+00 -0.15697430831E+04  0.15697430831E+04  0.00000000000E+00 0. -1.
         25    1    1    2    0    0  0.94399341278E+02 -0.71119028191E+01 -0.84975203879E+03  0.86409799341E+03  0.12500000000E+03 0.  0.
         25    1    1    2    0    0 -0.94399341278E+02  0.71119028191E+01 -0.70419496387E+03  0.72144117012E+03  0.12500000000E+03 0.  0.
</event>
<event>
 4    0  0.2182372E-002  0.2474241E+03  0.7546771E-02  0.1114944E+00
         21   -1    0    0  502  501  0.00000000000E+00  0.00000000000E+00  0.25003645689E+04  0.25003645689E+04  0.00000000000E+00 0. -1.
         21   -1    0    0  501  502 -0.00000000000E+00 -0.00000000000E+00 -0.24483906766E+02  0.24483906766E+02  0.00000000000E+00 0. -1.
         25    1    1    2    0    0  0.20593700051E+03 -0.53636151280E+02  0.13273113473E+04  0.13500619606E+04  0.12500000000E+03 0.  0.
         25    1    1    2    0    0 -0.20593700051E+03  0.53636151280E+02  0.11485693149E+04  0.11747865150E+04  0.12500000000E+03 0.  0.
</event>
<event>
 4    0  0.2182372E-002  0.2091237E+03  0.7546771E-02  0.1142262E+00
         21   -1    0    0  502  501  0.00000000000E+00  0.00000000000E+00  0.21857326899E+03  0.21857326899E+03  0.00000000000E+00 0.  1.
         21   -1    0    0  501  502 -0.00000000000E+00 -0.00000000000E+00 -0.20008267890E+03  0.20008267890E+03  0.00000000000E+00 0.  1.
         25    1    1    2    0    0 -0.54899820815E+02  0.13783359208E+03 -0.68905518538E+02  0.20587632190E+03  0.12500000000E+03 0.  0.
         25    1    1    2    0    0  0.54899820815E+02 -0.13783359208E+03  0.87396108630E+02  0.21277962599E+03  0.12500000000E+03 0.  0.
</event>
<event>
 4    0  0.2182372E-002  0.3097770E+03  0.7546771E-02  0.1080453E+00
         21   -1    0    0  502  501  0.00000000000E+00  0.00000000000E+00  0.18269349177E+03  0.18269349177E+03  0.00000000000E+00 0. -1.
         21   -1    0    0  501  502 -0.00000000000E+00 -0.00000000000E+00 -0.52526102926E+03  0.52526102926E+03  0.00000000000E+00 0. -1.
         25    1    1    2    0    0 -0.74107178454E+02  0.10372357709E+03 -0.46055743038E+03  0.49395202299E+03  0.12500000000E+03 0.  0.
         25    1    1    2    0    0  0.74107178454E+02 -0.10372357709E+03  0.11798989289E+03  0.21400249804E+03  0.12500000000E+03 0.  0.
</event>
<event>
 4    0  0.2182372E-002  0.6793463E+03  0.7546771E-02  0.9753220E-01
         21   -1    0    0  502  501  0.00000000000E+00  0.00000000000E+00  0.42462603290E+03  0.42462603290E+03  0.00000000000E+00 0. -1.
         21   -1    0    0  501  502 -0.00000000000E+00 -0.00000000000E+00 -0.10868654549E+04  0.10868654549E+04  0.00000000000E+00 0. -1.
         25    1    1    2    0    0  0.46337216631E+03 -0.21655166261E+03 -0.80867232865E+03  0.96497892320E+03  0.12500000000E+03 0.  0.
         25    1    1    2    0    0 -0.46337216631E+03  0.21655166261E+03  0.14643290668E+03  0.54651256458E+03  0.12500000000E+03 0.  0.
</event>
<event>
 4    0  0.2182372E-002  0.1906582E+03  0.7546771E-02  0.1157869E+00
         21   -1    0    0  502  501  0.00000000000E+00  0.00000000000E+00  0.11897144851E+03  0.11897144851E+03  0.00000000000E+00 0.  1.
         21   -1    0    0  501  502 -0.00000000000E+00 -0.00000000000E+00 -0.30554003436E+03  0.30554003436E+03  0.00000000000E+00 0.  1.
         25    1    1    2    0    0 -0.73150148038E+02 -0.12271497692E+03 -0.11306280710E+03  0.22094820222E+03  0.12500000000E+03 0.  0.
         25    1    1    2    0    0  0.73150148038E+02  0.12271497692E+03 -0.73505778747E+02  0.20356328064E+03  0.12500000000E+03 0.  0.
</event>
<event>
 4    0  0.2182372E-002  0.1607781E+03  0.7546771E-02  0.1187821E+00
         21   -1    0    0  502  501  0.00000000000E+00  0.00000000000E+00  0.19179441945E+02  0.19179441945E+02  0.00000000000E+00 0.  1.
         21   -1    0    0  501  502 -0.00000000000E+00 -0.00000000000E+00 -0.13477767989E+04  0.13477767989E+04  0.00000000000E+00 0.  1.
         25    1    1    2    0    0 -0.29757941094E+02 -0.78992749168E+02 -0.90095802740E+03  0.91349644587E+03  0.12500000000E+03 0.  0.
         25    1    1    2    0    0  0.29757941094E+02  0.78992749168E+02 -0.42763932960E+03  0.45345979502E+03  0.12500000000E+03 0.  0.
</event>
<event>
 4    0  0.2182372E-002  0.2790564E+03  0.7546771E-02  0.1096205E+00
         21   -1    0    0  502  501  0.00000000000E+00  0.00000000000E+00  0.29559810154E+02  0.29559810154E+02  0.00000000000E+00 0. -1.
         21   -1    0    0  501  502 -0.00000000000E+00 -0.00000000000E+00 -0.26344040430E+04  0.26344040430E+04  0.00000000000E+00 0. -1.
         25    1    1    2    0    0 -0.39074437356E+02  0.23226036012E+03 -0.16953261684E+04  0.17161665140E+04  0.12500000000E+03 0.  0.
         25    1    1    2    0    0  0.39074437356E+02 -0.23226036012E+03 -0.90951806439E+03  0.94779733910E+03  0.12500000000E+03 0.  0.
</event>
<event>
 4    0  0.2182372E-002  0.3125590E+03  0.7546771E-02  0.1079126E+00
         21   -1    0    0  502  501  0.00000000000E+00  0.00000000000E+00  0.17190411415E+03  0.17190411415E+03  0.00000000000E+00 0. -1.
         21   -1    0    0  501  502 -0.00000000000E+00 -0.00000000000E+00 -0.56830012434E+03  0.56830012434E+03  0.00000000000E+00 0. -1.
         25    1    1    2    0    0  0.55310174288E+00  0.22940826469E+03 -0.40136634957E+03  0.47890333512E+03  0.12500000000E+03 0.  0.
         25    1    1    2    0    0 -0.55310174288E+00 -0.22940826469E+03  0.49703393721E+01  0.26130090337E+03  0.12500000000E+03 0.  0.
</event>
<event>
 4    0  0.2182372E-002  0.2526890E+03  0.7546771E-02  0.1111617E+00
         21   -1    0    0  502  501  0.00000000000E+00  0.00000000000E+00  0.18950818992E+04  0.18950818992E+04  0.00000000000E+00 0.  1.
         21   -1    0    0  501  502 -0.00000000000E+00 -0.00000000000E+00 -0.33693397391E+02  0.33693397391E+02  0.00000000000E+00 0.  1.
         25    1    1    2    0    0 -0.36223400637E+02  0.20410227613E+03  0.12074069015E+04  0.12314326209E+04  0.12500000000E+03 0.  0.
         25    1    1    2    0    0  0.36223400637E+02 -0.20410227613E+03  0.65398160023E+03  0.69734267567E+03  0.12500000000E+03 0.  0.
</event>
<event>
 4    0  0.2182372E-002  0.2076281E+03  0.7546771E-02  0.1143458E+00
         21   -1    0    0  502  501  0.00000000000E+00  0.00000000000E+00  0.73836476030E+02  0.73836476030E+02  0.00000000000E+00 0.  1.
         21   -1    0    0  501  502 -0.00000000000E+00 -0.00000000000E+00 -0.58385003932E+03  0.58385003932E+03  0.00000000000E+00 0.  1.
         25    1    1    2    0    0 -0.15493347109E+03  0.43791936180E+02 -0.31760862865E+03  0.37738886461E+03  0.12500000000E+03 0.  0.
         25    1    1    2    0    0  0.15493347109E+03 -0.43791936180E+02 -0.19240493465E+03  0.28029765075E+03  0.12500000000E+03 0.  0.
</event>
<event>
 4    0  0.2182372E-002  0.2173885E+03  0.7546771E-02  0.1135845E+00
         21   -1    0    0  502  501  0.00000000000E+00  0.00000000000E+00  0.42658168756E+02  0.42658168756E+02  0.00000000000E+00 0.  1.
         21   -1    0    0  501  502 -0.00000000000E+00 -0.00000000000E+00 -0.11078246686E+04  0.11078246686E+04  0.00000000000E+00 0.  1.
         25    1    1    2    0    0  0.16243859062E+02  0.16704400181E+03 -0.68835127686E+03  0.71945815852E+03  0.12500000000E+03 0.  0.
         25    1    1    2    0    0 -0.16243859062E+02 -0.16704400181E+03 -0.37681522297E+03  0.43102467883E+03  0.12500000000E+03 0.  0.
</event>
<event>
 4    0  0.2182372E-002  0.2794603E+03  0.7546771E-02  0.1095984E+00
         21   -1    0    0  502  501  0.00000000000E+00  0.00000000000E+00  0.81415116642E+02  0.81415116642E+02  0.00000000000E+00 0.  1.
         21   -1    0    0  501  502 -0.00000000000E+00 -0.00000000000E+00 -0.95925756666E+03  0.95925756666E+03  0.00000000000E+00 0.  1.
         25    1    1    2    0    0  0.56313479755E+02  0.40265613162E+02  0.82549666479E+01  0.14312816662E+03  0.12500000000E+03 0.  0.
         25    1    1    2    0    0 -0.56313479755E+02 -0.40265613162E+02 -0.88609741666E+03  0.89754451668E+03  0.12500000000E+03 0.  0.
</event>
<event>
 4    0  0.2182372E-002  0.1898922E+03  0.7546771E-02  0.1158559E+00
         21   -1    0    0  502  501  0.00000000000E+00  0.00000000000E+00  0.99165758825E+02  0.99165758825E+02  0.00000000000E+00 0.  1.
         21   -1    0    0  501  502 -0.00000000000E+00 -0.00000000000E+00 -0.36362378752E+03  0.36362378752E+03  0.00000000000E+00 0.  1.
         25    1    1    2    0    0  0.34454624783E+02 -0.11296496392E+03 -0.23036519027E+03  0.28747404254E+03  0.12500000000E+03 0.  0.
         25    1    1    2    0    0 -0.34454624783E+02  0.11296496392E+03 -0.34092838421E+02  0.17531550381E+03  0.12500000000E+03 0.  0.
</event>
<event>
 4    0  0.2182372E-002  0.1895287E+03  0.7546771E-02  0.1158887E+00
         21   -1    0    0  502  501  0.00000000000E+00  0.00000000000E+00  0.76388771204E+03  0.76388771204E+03  0.00000000000E+00 0. -1.
         21   -1    0    0  501  502 -0.00000000000E+00 -0.00000000000E+00 -0.47024093917E+02  0.47024093917E+02  0.00000000000E+00 0. -1.
         25    1    1    2    0    0 -0.31912981141E+02  0.13536163920E+03  0.42453937746E+03  0.46389642675E+03  0.12500000000E+03 0.  0.
         25    1    1    2    0    0  0.31912981141E+02 -0.13536163920E+03  0.29232424066E+03  0.34701537921E+03  0.12500000000E+03 0.  0.
</event>
<event>
 4    0  0.2182372E-002  0.2669493E+03  0.7546771E-02  0.1103038E+00
         21   -1    0    0  502  501  0.00000000000E+00  0.00000000000E+00  0.29794640548E+03  0.29794640548E+03  0.00000000000E+00 0. -1.
         21   -1    0    0  501  502 -0.00000000000E+00 -0.00000000000E+00 -0.23917709351E+03  0.23917709351E+03  0.00000000000E+00 0. -1.
         25    1    1    2    0    0 -0.17360445020E+03 -0.63187382100E+02 -0.11814969176E+03  0.25241929413E+03  0.12500000000E+03 0.  0.
         25    1    1    2    0    0  0.17360445020E+03  0.63187382100E+02  0.17691900373E+03  0.28470420486E+03  0.12500000000E+03 0.  0.
</event>
<event>
 4    0  0.2182372E-002  0.2775201E+03  0.7546771E-02  0.1097051E+00
         21   -1    0    0  502  501  0.00000000000E+00  0.00000000000E+00  0.26710718206E+03  0.26710718206E+03  0.00000000000E+00 0. -1.
         21   -1    0    0  501  502 -0.00000000000E+00 -0.00000000000E+00 -0.28833898991E+03  0.28833898991E+03  0.00000000000E+00 0. -1.
         25    1    1    2    0    0 -0.10813796219E+03  0.21630025412E+03  0.43393895967E+02  0.27565857325E+03  0.12500000000E+03 0.  0.
         25    1    1    2    0    0  0.10813796219E+03 -0.21630025412E+03 -0.64625703820E+02  0.27978759871E+03  0.12500000000E+03 0.  0.
</event>
<event>
 4    0  0.2182372E-002  0.1386536E+03  0.7546771E-02  0.1215152E+00
         21   -1    0    0  502  501  0.00000000000E+00  0.00000000000E+00  0.28893011491E+03  0.28893011491E+03  0.00000000000E+00 0. -1.
         21   -1    0    0  501  502 -0.00000000000E+00 -0.00000000000E+00 -0.66537942660E+02  0.66537942660E+02  0.00000000000E+00 0. -1.
         25    1    1    2    0    0 -0.18341540121E+02 -0.54770866496E+02  0.90385920130E+02  0.16471452416E+03  0.12500000000E+03 0.  0.
         25    1    1    2    0    0  0.18341540121E+02  0.54770866496E+02  0.13200625212E+03  0.19075353341E+03  0.12500000000E+03 0.  0.
</event>
<event>
 4    0  0.2182372E-002  0.1598044E+03  0.7546771E-02  0.1188918E+00
         21   -1    0    0  502  501  0.00000000000E+00  0.00000000000E+00  0.30421285619E+02  0.30421285619E+02  0.00000000000E+00 0.  1.
         21   -1    0    0  501  502 -0.00000000000E+00 -0.00000000000E+00 -0.83945996124E+03  0.83945996124E+03  0.00000000000E+00 0.  1.
         25    1    1    2    0    0 -0.72194594979E+02 -0.67089127418E+02 -0.36608246247E+03  0.39919215910E+03  0.12500000000E+03 0.  0.
         25    1    1    2    0    0  0.72194594979E+02  0.67089127418E+02 -0.44295621315E+03  0.47068908776E+03  0.12500000000E+03 0.  0.
</event>
<event>
 4    0  0.2182372E-002  0.2548577E+03  0.7546771E-02  0.1110273E+00
         21   -1    0    0  502  501  0.00000000000E+00  0.00000000000E+00  0.48506681895E+03  0.48506681895E+03  0.00000000000E+00 0.  1.
         21   -1    0    0  501  502 -0.00000000000E+00 -0.00000000000E+00 -0.13390416345E+03  0.13390416345E+03  0.00000000000E+00 0.  1.
         25    1    1    2    0    0  0.19494625855E+03 -0.10487375751E+03  0.15369215886E+03  0.29706704366E+03  0.12500000000E+03 0.  0.
         25    1    1    2    0    0 -0.19494625855E+03  0.10487375751E+03  0.19747049664E+03  0.32190393874E+03  0.12500000000E+03 0.  0.
</event>
<event>
 4    0  0.2182372E-002  0.2920029E+03  0.7546771E-02  0.1089308E+00
         21   -1    0    0  502  501  0.00000000000E+00  0.00000000000E+00  0.40399420642E+03  0.40399420642E+03  0.00000000000E+00 0. -1.
         21   -1    0    0  501  502 -0.00000000000E+00 -0.00000000000E+00 -0.21105676276E+03  0.21105676276E+03  0.00000000000E+00 0.  1.
         25    1    1    2    0    0 -0.18914540680E+03 -0.16723768811E+03  0.17733788730E+03  0.33289360990E+03  0.12500000000E+03 0.  0.
         25    1    1    2    0    0  0.18914540680E+03  0.16723768811E+03  0.15599556362E+02  0.28215735928E+03  0.12500000000E+03 0.  0.
</event>
<event>
 4    0  0.2182372E-002  0.2152368E+03  0.7546771E-02  0.1137485E+00
         21   -1    0    0  502  501  0.00000000000E+00  0.00000000000E+00  0.13594793657E+03  0.13594793657E+03  0.00000000000E+00 0.  1.
         21   -1    0    0  501  502 -0.00000000000E+00 -0.00000000000E+00 -0.34076930171E+03  0.34076930171E+03  0.00000000000E+00 0.  1.
         25    1    1    2    0    0 -0.15049353869E+03 -0.89711879735E+02 -0.99847559070E+02  0.23725737419E+03  0.12500000000E+03 0.  0.
         25    1    1    2    0    0  0.15049353869E+03  0.89711879735E+02 -0.10497380607E+03  0.23945986410E+03  0.12500000000E+03 0.  0.
</event>
<event>
 4    0  0.2182372E-002  0.1579766E+03  0.7546771E-02  0.1191000E+00
         21   -1    0    0  502  501  0.00000000000E+00  0.00000000000E+00  0.27330102042E+02  0.27330102042E+02  0.00000000000E+00 0. -1.
         21   -1    0    0  501  502 -0.00000000000E+00 -0.00000000000E+00 -0.91315508309E+03  0.91315508309E+03  0.00000000000E+00 0. -1.
         25    1    1    2    0    0  0.93227307320E+02  0.24938834549E+02 -0.45566194195E+03  0.48225105665E+03  0.12500000000E+03 0.  0.
         25    1    1    2    0    0 -0.93227307320E+02 -0.24938834549E+02 -0.43016303909E+03  0.45823412848E+03  0.12500000000E+03 0.  0.
</event>
<event>
 4    0  0.2182372E-002  0.2064210E+03  0.7546771E-02  0.1144432E+00
         21   -1    0    0  502  501  0.00000000000E+00  0.00000000000E+00  0.39377528122E+02  0.39377528122E+02  0.00000000000E+00 0. -1.
         21   -1    0    0  501  502 -0.00000000000E+00 -0.00000000000E+00 -0.10820795223E+04  0.10820795223E+04  0.00000000000E+00 0. -1.
         25    1    1    2    0    0  0.13671510137E+03 -0.90992080857E+02 -0.53152913795E+03  0.57019189946E+03  0.12500000000E+03 0.  0.
         25    1    1    2    0    0 -0.13671510137E+03  0.90992080857E+02 -0.51117285624E+03  0.55126515097E+03  0.12500000000E+03 0.  0.
</event>
<event>
 4    0  0.2182372E-002  0.3164390E+03  0.7546771E-02  0.1077300E+00
         21   -1    0    0  502  501  0.00000000000E+00  0.00000000000E+00  0.17940675212E+03  0.17940675212E+03  0.00000000000E+00 0.  1.
         21   -1    0    0  501  502 -0.00000000000E+00 -0.00000000000E+00 -0.55813756488E+03  0.55813756488E+03  0.00000000000E+00 0.  1.
         25    1    1    2    0    0 -0.28074522377E+03 -0.45362690959E+02 -0.25960797885E+03  0.40484189146E+03  0.12500000000E+03 0.  0.
         25    1    1    2    0    0  0.28074522377E+03  0.45362690959E+02 -0.11912283390E+03  0.33270242554E+03  0.12500000000E+03 0.  0.
</event>
<event>
 4    0  0.2182372E-002  0.2066296E+03  0.7546771E-02  0.1144263E+00
         21   -1    0    0  502  501  0.00000000000E+00  0.00000000000E+00  0.12835731226E+04  0.12835731226E+04  0.00000000000E+00 0.  1.
         21   -1    0    0  501  502 -0.00000000000E+00 -0.00000000000E+00 -0.33263232672E+02  0.33263232672E+02  0.00000000000E+00 0.  1.
         25    1    1    2    0    0 -0.54585620012E+02 -0.55904734353E+02  0.10865422509E+04  0.10964962345E+04  0.12500000000E+03 0.  0.
         25    1    1    2    0    0  0.54585620012E+02  0.55904734353E+02  0.16376763900E+03  0.22034012076E+03  0.12500000000E+03 0.  0.
</event>
<event>
 4    0  0.2182372E-002  0.2414143E+03  0.7546771E-02  0.1118854E+00
         21   -1    0    0  502  501  0.00000000000E+00  0.00000000000E+00  0.14141890566E+03  0.14141890566E+03  0.00000000000E+00 0. -1.
         21   -1    0    0  501  502 -0.00000000000E+00 -0.00000000000E+00 -0.41211503466E+03  0.41211503466E+03  0.00000000000E+00 0. -1.
         25    1    1    2    0    0  0.68484403161E+02  0.73163739450E+02  0.71687717261E+02  0.17551972839E+03  0.12500000000E+03 0.  0.
         25    1    1    2    0    0 -0.68484403161E+02 -0.73163739450E+02 -0.34238384626E+03  0.37801421194E+03  0.12500000000E+03 0.  0.
</event>
<event>
 4    0  0.2182372E-002  0.1991385E+03  0.7546771E-02  0.1150468E+00
         21   -1    0    0  502  501  0.00000000000E+00  0.00000000000E+00  0.45490092315E+03  0.45490092315E+03  0.00000000000E+00 0. -1.
         21   -1    0    0  501  502 -0.00000000000E+00 -0.00000000000E+00 -0.87175326671E+02  0.87175326671E+02  0.00000000000E+00 0. -1.
         25    1    1    2    0    0 -0.13555655473E+03  0.11612619639E+01  0.81519102992E+02  0.20161173629E+03  0.12500000000E+03 0.  0.
         25    1    1    2    0    0  0.13555655473E+03 -0.11612619639E+01  0.28620649349E+03  0.34046451353E+03  0.12500000000E+03 0.  0.
</event>
<event>
 4    0  0.2182372E-002  0.1771109E+03  0.7546771E-02  0.1170629E+00
         21   -1    0    0  502  501  0.00000000000E+00  0.00000000000E+00  0.20014753618E+04  0.20014753618E+04  0.00000000000E+00 0. -1.
         21   -1    0    0  501  502 -0.00000000000E+00 -0.00000000000E+00 -0.15672577177E+02  0.15672577177E+02  0.00000000000E+00 0. -1.
         25    1    1    2    0    0  0.79534165264E+02 -0.69234213269E+02  0.60566020629E+03  0.62735025720E+03  0.12500000000E+03 0.  0.
         25    1    1    2    0    0 -0.79534165264E+02  0.69234213269E+02  0.13801425783E+04  0.13897976818E+04  0.12500000000E+03 0.  0.
</event>
<event>
 4    0  0.2182372E-002  0.2008789E+03  0.7546771E-02  0.1149000E+00
         21   -1    0    0  502  501  0.00000000000E+00  0.00000000000E+00  0.38339185231E+03  0.38339185231E+03  0.00000000000E+00 0.  1.
         21   -1    0    0  501  502 -0.00000000000E+00 -0.00000000000E+00 -0.10525084541E+03  0.10525084541E+03  0.00000000000E+00 0.  1.
         25    1    1    2    0    0 -0.15320474507E+03 -0.19527435717E+02  0.17503366781E+03  0.26479199294E+03  0.12500000000E+03 0.  0.
         25    1    1    2    0    0  0.15320474507E+03  0.19527435717E+02  0.10310733909E+03  0.22385070478E+03  0.12500000000E+03 0.  0.
</event>
<event>
 4    0  0.2182372E-002  0.2322023E+03  0.7546771E-02  0.1125099E+00
         21   -1    0    0  502  501  0.00000000000E+00  0.00000000000E+00  0.20030179824E+03  0.20030179824E+03  0.00000000000E+00 0. -1.
         21   -1    0    0  501  502 -0.00000000000E+00 -0.00000000000E+00 -0.26918345844E+03  0.26918345844E+03  0.00000000000E+00 0. -1.
         25    1    1    2    0    0 -0.55204656364E+02 -0.26162563891E+02 -0.22238023920E+03  0.26231661141E+03  0.12500000000E+03 0.  0.
         25    1    1    2    0    0  0.55204656364E+02  0.26162563891E+02  0.15349857900E+03  0.20716864528E+03  0.12500000000E+03 0.  0.
</event>
<event>
 4    0  0.2182372E-002  0.2317926E+03  0.7546771E-02  0.1125384E+00
         21   -1    0    0  502  501  0.00000000000E+00  0.00000000000E+00  0.17387831855E+03  0.17387831855E+03  0.00000000000E+00 0. -1.
         21   -1    0    0  501  502 -0.00000000000E+00 -0.00000000000E+00 -0.30899664769E+03  0.30899664769E+03  0.00000000000E+00 0. -1.
         25    1    1    2    0    0 -0.16612328712E+03 -0.79708902231E+02 -0.13467928007E+03  0.26021906944E+03  0.12500000000E+03 0.  0.
         25    1    1    2    0    0  0.16612328712E+03  0.79708902231E+02 -0.43904906588E+00  0.22265589681E+03  0.12500000000E+03 0.  0.
</event>
<event>
 4    0  0.2182372E-002  0.3077591E+03  0.7546771E-02  0.1081425E+00
         21   -1    0    0  502  501  0.00000000000E+00  0.00000000000E+00  0.58832284848E+03  0.58832284848E+03  0.00000000000E+00 0. -1.
         21   -1    0    0  501  502 -0.00000000000E+00 -0.00000000000E+00 -0.16099264153E+03  0.16099264153E+03  0.00000000000E+00 0. -1.
         25    1    1    2    0    0  0.20581108956E+03 -0.17157182510E+03  0.31764586008E+03  0.43395735756E+03  0.12500000000E+03 0.  0.
         25    1    1    2    0    0 -0.20581108956E+03  0.17157182510E+03  0.10968434686E+03  0.31535813245E+03  0.12500000000E+03 0.  0.
</event>
<event>
 4    0  0.2182372E-002  0.2029199E+03  0.7546771E-02  0.1147299E+00
         21   -1    0    0  502  501  0.00000000000E+00  0.00000000000E+00  0.35182540625E+03  0.35182540625E+03  0.00000000000E+00 0. -1.
         21   -1    0    0  501  502 -0.00000000000E+00 -0.00000000000E+00 -0.11703671860E+03  0.11703671860E+03  0.00000000000E+00 0. -1.
         25    1    1    2    0    0  0.12872827440E+03  0.75766878452E+02  0.18315353510E+03  0.26736081598E+03  0.12500000000E+03 0.  0.
         25    1    1    2    0    0 -0.12872827440E+03 -0.75766878452E+02  0.51635152546E+02  0.20150130887E+03  0.12500000000E+03 0.  0.
</event>
<event>
 4    0  0.2182372E-002  0.2328897E+03  0.7546771E-02  0.1124622E+00
         21   -1    0    0  502  501  0.00000000000E+00  0.00000000000E+00  0.20659778136E+03  0.20659778136E+03  0.00000000000E+00 0.  1.
         21   -1    0    0  501  502 -0.00000000000E+00 -0.00000000000E+00 -0.26252747464E+03  0.26252747464E+03  0.00000000000E+00 0.  1.
         25    1    1    2    0    0 -0.11272018383E+03  0.14029766329E+03 -0.10741956004E+03  0.24403531721E+03  0.12500000000E+03 0.  0.
         25    1    1    2    0    0  0.11272018383E+03 -0.14029766329E+03  0.51489866753E+02  0.22508993879E+03  0.12500000000E+03 0.  0.
</event>
<event>
 4    0  0.2182372E-002  0.1986123E+03  0.7546771E-02  0.1150915E+00
         21   -1    0    0  502  501  0.00000000000E+00  0.00000000000E+00  0.28817147249E+03  0.28817147249E+03  0.00000000000E+00 0. -1.
         21   -1    0    0  501  502 -0.00000000000E+00 -0.00000000000E+00 -0.13688673439E+03  0.13688673439E+03  0.00000000000E+00 0. -1.
         25    1    1    2    0    0 -0.89406058750E+02 -0.32383969007E+02  0.20573265088E+03  0.25883023090E+03  0.12500000000E+03 0.  0.
         25    1    1    2    0    0  0.89406058750E+02  0.32383969007E+02 -0.54447912787E+02  0.16622797598E+03  0.12500000000E+03 0.  0.
</event>
<event>
 4    0  0.2182372E-002  0.2377615E+03  0.7546771E-02  0.1121293E+00
         21   -1    0    0  502  501  0.00000000000E+00  0.00000000000E+00  0.54095050377E+02  0.54095050377E+02  0.00000000000E+00 0. -1.
         21   -1    0    0  501  502 -0.00000000000E+00 -0.00000000000E+00 -0.10450218913E+04  0.10450218913E+04  0.00000000000E+00 0. -1.
         25    1    1    2    0    0 -0.13809017946E+03 -0.14304429264E+03 -0.58117017245E+03  0.62682879374E+03  0.12500000000E+03 0.  0.
         25    1    1    2    0    0  0.13809017946E+03  0.14304429264E+03 -0.40975666847E+03  0.47228814793E+03  0.12500000000E+03 0.  0.
</event>
<event>
 4    0  0.2182372E-002  0.2326670E+03  0.7546771E-02  0.1124777E+00
         21   -1    0    0  502  501  0.00000000000E+00  0.00000000000E+00  0.56150994958E+02  0.56150994958E+02  0.00000000000E+00 0. -1.
         21   -1    0    0  501  502 -0.00000000000E+00 -0.00000000000E+00 -0.96407794290E+03  0.96407794290E+03  0.00000000000E+00 0. -1.
         25    1    1    2    0    0 -0.63539211371E+02  0.18387129864E+03 -0.39750801576E+03  0.45987336130E+03  0.12500000000E+03 0.  0.
         25    1    1    2    0    0  0.63539211371E+02 -0.18387129864E+03 -0.51041893218E+03  0.56035557655E+03  0.12500000000E+03 0.  0.
</event>
<event>
 4    0  0.2182372E-002  0.1807608E+03  0.7546771E-02  0.1167069E+00
         21   -1    0    0  502  501  0.00000000000E+00  0.00000000000E+00  0.16780251337E+03  0.16780251337E+03  0.00000000000E+00 0.  1.
         21   -1    0    0  501  502 -0.00000000000E+00 -0.00000000000E+00 -0.19471976531E+03  0.19471976531E+03  0.00000000000E+00 0.  1.
         25    1    1    2    0    0  0.62717078642E+02 -0.83525405031E+02  0.65113481188E+02  0.17542716629E+03  0.12500000000E+03 0.  0.
         25    1    1    2    0    0 -0.62717078642E+02  0.83525405031E+02 -0.92030733135E+02  0.18709511239E+03  0.12500000000E+03 0.  0.
</event>
<event>
 4    0  0.2182372E-002  0.2012825E+03  0.7546771E-02  0.1148661E+00
         21   -1    0    0  502  501  0.00000000000E+00  0.00000000000E+00  0.81311518616E+02  0.81311518616E+02  0.00000000000E+00 0.  1.
         21   -1    0    0  501  502 -0.00000000000E+00 -0.00000000000E+00 -0.49826470922E+03  0.49826470922E+03  0.00000000000E+00 0.  1.
         25    1    1    2    0    0 -0.12872822934E+03  0.27082446839E+02 -0.33386554142E+03  0.37999423115E+03  0.12500000000E+03 0.  0.
         25    1    1    2    0    0  0.12872822934E+03 -0.27082446839E+02 -0.83087649188E+02  0.19958199669E+03  0.12500000000E+03 0.  0.
</event>
<event>
 4    0  0.2182372E-002  0.2633351E+03  0.7546771E-02  0.1105156E+00
         21   -1    0    0  502  501  0.00000000000E+00  0.00000000000E+00  0.27114352443E+03  0.27114352443E+03  0.00000000000E+00 0.  1.
         21   -1    0    0  501  502 -0.00000000000E+00 -0.00000000000E+00 -0.25575148093E+03  0.25575148093E+03  0.00000000000E+00 0.  1.
         25    1    1    2    0    0  0.48290276059E+02  0.14257777239E+03 -0.16861766095E+03  0.25829689801E+03  0.12500000000E+03 0.  0.
         25    1    1    2    0    0 -0.48290276059E+02 -0.14257777239E+03  0.18400970444E+03  0.26859810734E+03  0.12500000000E+03 0.  0.
</event>
<event>
 4    0  0.2182372E-002  0.1886863E+03  0.7546771E-02  0.1159652E+00
         21   -1    0    0  502  501  0.00000000000E+00  0.00000000000E+00  0.58591088155E+03  0.58591088155E+03  0.00000000000E+00 0. -1.
         21   -1    0    0  501  502 -0.00000000000E+00 -0.00000000000E+00 -0.60764413118E+02  0.60764413118E+02  0.00000000000E+00 0. -1.
         25    1    1    2    0    0  0.12406707678E+03 -0.27074756662E+02  0.36892640874E+03  0.40970401152E+03  0.12500000000E+03 0.  0.
         25    1    1    2    0    0 -0.12406707678E+03  0.27074756662E+02  0.15622005970E+03  0.23697128315E+03  0.12500000000E+03 0.  0.
</event>
<event>
 4    0  0.2182372E-002  0.1586535E+03  0.7546771E-02  0.1190225E+00
         21   -1    0    0  502  501  0.00000000000E+00  0.00000000000E+00  0.88741201966E+03  0.88741201966E+03  0.00000000000E+00 0. -1.
         21   -1    0    0  501  502 -0.00000000000E+00 -0.00000000000E+00 -0.28364410322E+02  0.28364410322E+02  0.00000000000E+00 0. -1.
         25    1    1    2    0    0  0.77562487350E+02  0.61767075299E+01  0.25897985261E+03  0.29790880353E+03  0.12500000000E+03 0.  0.
         25    1    1    2    0    0 -0.77562487350E+02 -0.61767075299E+01  0.60006775672E+03  0.61786762645E+03  0.12500000000E+03 0.  0.
</event>
<event>
 4    0  0.2182372E-002  0.1827943E+03  0.7546771E-02  0.1165126E+00
         21   -1    0    0  502  501  0.00000000000E+00  0.00000000000E+00  0.79761761307E+02  0.79761761307E+02  0.00000000000E+00 0.  1.
         21   -1    0    0  501  502 -0.00000000000E+00 -0.00000000000E+00 -0.41891947106E+03  0.41891947106E+03  0.00000000000E+00 0.  1.
         25    1    1    2    0    0  0.90355430239E+02 -0.49410939670E+02 -0.53970379798E+02  0.17071422503E+03  0.12500000000E+03 0.  0.
         25    1    1    2    0    0 -0.90355430239E+02  0.49410939670E+02 -0.28518732995E+03  0.32796700733E+03  0.12500000000E+03 0.  0.
</event>
<event>
 4    0  0.2182372E-002  0.1884674E+03  0.7546771E-02  0.1159851E+00
         21   -1    0    0  502  501  0.00000000000E+00  0.00000000000E+00  0.31674504707E+02  0.31674504707E+02  0.00000000000E+00 0.  1.
         21   -1    0    0  501  502 -0.00000000000E+00 -0.00000000000E+00 -0.11214057201E+04  0.11214057201E+04  0.00000000000E+00 0.  1.
         25    1    1    2    0    0 -0.10523379392E+03 -0.51743485859E+02 -0.78463774959E+03  0.80313942612E+03  0.12500000000E+03 0.  0.
         25    1    1    2    0    0  0.10523379392E+03  0.51743485859E+02 -0.30509346585E+03  0.34994079873E+03  0.12500000000E+03 0.  0.
</event>
<event>
 4    0  0.2182372E-002  0.1749562E+03  0.7546771E-02  0.1172776E+00
         21   -1    0    0  502  501  0.00000000000E+00  0.00000000000E+00  0.90968116260E+02  0.90968116260E+02  0.00000000000E+00 0.  1.
         21   -1    0    0  501  502 -0.00000000000E+00 -0.00000000000E+00 -0.33648808353E+03  0.33648808353E+03  0.00000000000E+00 0.  1.
         25    1    1    2    0    0  0.25971582127E+02  0.21091526571E+02 -0.26660572061E+03  0.29634943198E+03  0.12500000000E+03 0.  0.
         25    1    1    2    0    0 -0.25971582127E+02 -0.21091526571E+02  0.21085753343E+02  0.13110676781E+03  0.12500000000E+03 0.  0.
</event>
<event>
 4    0  0.2182372E-002  0.2969105E+03  0.7546771E-02  0.1086795E+00
         21   -1    0    0  502  501  0.00000000000E+00  0.00000000000E+00  0.35380178649E+03  0.35380178649E+03  0.00000000000E+00 0.  1.
         21   -1    0    0  501  502 -0.00000000000E+00 -0.00000000000E+00 -0.24916738533E+03  0.24916738533E+03  0.00000000000E+00 0.  1.
         25    1    1    2    0    0  0.10401843105E+03 -0.15691778632E+03  0.24786605552E+03  0.33541855516E+03  0.12500000000E+03 0.  0.
         25    1    1    2    0    0 -0.10401843105E+03  0.15691778632E+03 -0.14323165436E+03  0.26755061666E+03  0.12500000000E+03 0.  0.
</event>
<event>
 4    0  0.2182372E-002  0.3706517E+03  0.7546771E-02  0.1054444E+00
         21   -1    0    0  502  501  0.00000000000E+00  0.00000000000E+00  0.35854820667E+03  0.35854820667E+03  0.00000000000E+00 0. -1.
         21   -1    0    0  501  502 -0.00000000000E+00 -0.00000000000E+00 -0.38316385749E+03  0.38316385749E+03  0.00000000000E+00 0. -1.
         25    1    1    2    0    0  0.35206359809E+02 -0.30490426738E+03 -0.17838609976E+03  0.37636777310E+03  0.12500000000E+03 0.  0.
         25    1    1    2    0    0 -0.35206359809E+02  0.30490426738E+03  0.15377044894E+03  0.36534429105E+03  0.12500000000E+03 0.  0.
</event>
<event>
 4    0  0.2182372E-002  0.1713170E+03  0.7546771E-02  0.1176481E+00
         21   -1    0    0  502  501  0.00000000000E+00  0.00000000000E+00  0.20706434740E+03  0.20706434740E+03  0.00000000000E+00 0. -1.
         21   -1    0    0  501  502 -0.00000000000E+00 -0.00000000000E+00 -0.14174102324E+03  0.14174102324E+03  0.00000000000E+00 0. -1.
         25    1    1    2    0    0 -0.10338591717E+03  0.45672877657E+02  0.64036456447E+02  0.18027847175E+03  0.12500000000E+03 0.  0.
         25    1    1    2    0    0  0.10338591717E+03 -0.45672877657E+02  0.12868677079E+01  0.16852689889E+03  0.12500000000E+03 0.  0.
</event>
<event>
 4    0  0.2182372E-002  0.2100117E+03  0.7546771E-02  0.1141557E+00
         21   -1    0    0  502  501  0.00000000000E+00  0.00000000000E+00  0.74030724736E+02  0.74030724736E+02  0.00000000000E+00 0. -1.
         21   -1    0    0  501  502 -0.00000000000E+00 -0.00000000000E+00 -0.59576499753E+03  0.59576499753E+03  0.00000000000E+00 0. -1.
         25    1    1    2    0    0 -0.14193384126E+03  0.57780151835E+02 -0.37358344544E+03  0.42269770752E+03  0.12500000000E+03 0.  0.
         25    1    1    2    0    0  0.14193384126E+03 -0.57780151835E+02 -0.14815082736E+03  0.24709801474E+03  0.12500000000E+03 0.  0.
</event>
<event>
 4    0  0.2182372E-002  0.1854626E+03  0.7546771E-02  0.1162619E+00
         21   -1    0    0  502  501  0.00000000000E+00  0.00000000000E+00  0.81998785451E+02  0.81998785451E+02  0.00000000000E+00 0. -1.
         21   -1    0    0  501  502 -0.00000000000E+00 -0.00000000000E+00 -0.41947435171E+03  0.41947435171E+03  0.00000000000E+00 0. -1.
         25    1    1    2    0    0  0.98848417165E+02 -0.94147967341E+02 -0.18453527319E+03  0.26136777992E+03  0.12500000000E+03 0.  0.
         25    1    1    2    0    0 -0.98848417165E+02  0.94147967341E+02 -0.15294029307E+03  0.24010535724E+03  0.12500000000E+03 0.  0.
</event>
<event>
 4    0  0.2182372E-002  0.2402516E+03  0.7546771E-02  0.1119625E+00
         21   -1    0    0  502  501  0.00000000000E+00  0.00000000000E+00  0.38287418980E+03  0.38287418980E+03  0.00000000000E+00 0.  1.
         21   -1    0    0  501  502 -0.00000000000E+00 -0.00000000000E+00 -0.15075665825E+03  0.15075665825E+03  0.00000000000E+00 0.  1.
         25    1    1    2    0    0  0.92317908894E+02  0.18315688444E+03  0.12180725049E+03  0.26931588682E+03  0.12500000000E+03 0.  0.
         25    1    1    2    0    0 -0.92317908894E+02 -0.18315688444E+03  0.11031028106E+03  0.26431496123E+03  0.12500000000E+03 0.  0.
</event>
<event>
 4    0  0.2182372E-002  0.1590402E+03  0.7546771E-02  0.1189785E+00
         21   -1    0    0  502  501  0.00000000000E+00  0.00000000000E+00  0.13004162103E+04  0.13004162103E+04  0.00000000000E+00 0.  1.
         21   -1    0    0  501  502 -0.00000000000E+00 -0.00000000000E+00 -0.19450530915E+02  0.19450530915E+02  0.00000000000E+00 0.  1.
         25    1    1    2    0    0 -0.86687849907E+02 -0.33570424087E+01  0.83256063651E+03  0.84634996693E+03  0.12500000000E+03 0.  0.
         25    1    1    2    0    0  0.86687849907E+02  0.33570424087E+01  0.44840504288E+03  0.47351677429E+03  0.12500000000E+03 0.  0.
</event>
<event>
 4    0  0.2251844E-002  0.1985493E+03  0.7546771E-02  0.1150969E+00
         21   -1    0    0  502  501  0.00000000000E+00  0.00000000000E+00  0.19484639134E+03  0.19484639134E+03  0.00000000000E+00 0. -1.
         21   -1    0    0  501  502 -0.00000000000E+00 -0.00000000000E+00 -0.20232263866E+03  0.20232263866E+03  0.00000000000E+00 0. -1.
         25    1    1    2    0    0 -0.59026026860E+01  0.11685642268E+02  0.14999481170E+03  0.19569067042E+03  0.12500000000E+03 0.  0.
         25    1    1    2    0    0  0.59026026860E+01 -0.11685642268E+02 -0.15747105901E+03  0.20147835958E+03  0.12500000000E+03 0.  0.
</event>
<event>
 4    0  0.2182372E-002  0.2209825E+03  0.7546771E-02  0.1133153E+00
         21   -1    0    0  502  501  0.00000000000E+00  0.00000000000E+00  0.91102330613E+03  0.91102330613E+03  0.00000000000E+00 0. -1.
         21   -1    0    0  501  502 -0.00000000000E+00 -0.00000000000E+00 -0.53602630786E+02  0.53602630786E+02  0.00000000000E+00 0. -1.
         25    1    1    2    0    0 -0.43613234573E+02  0.14557478220E+03  0.20921005920E+03  0.28720720797E+03  0.12500000000E+03 0.  0.
         25    1    1    2    0    0  0.43613234573E+02 -0.14557478220E+03  0.64821061615E+03  0.67741872895E+03  0.12500000000E+03 0.  0.
</event>
<event>
 4    0  0.2182372E-002  0.3526934E+03  0.7546771E-02  0.1061515E+00
         21   -1    0    0  502  501  0.00000000000E+00  0.00000000000E+00  0.42945485279E+03  0.42945485279E+03  0.00000000000E+00 0. -1.
         21   -1    0    0  501  502 -0.00000000000E+00 -0.00000000000E+00 -0.28965240691E+03  0.28965240691E+03  0.00000000000E+00 0. -1.
         25    1    1    2    0    0  0.27225493554E+01 -0.16910806830E+03 -0.21873608507E+03  0.30343932828E+03  0.12500000000E+03 0.  0.
         25    1    1    2    0    0 -0.27225493554E+01  0.16910806830E+03  0.35853853094E+03  0.41566793142E+03  0.12500000000E+03 0.  0.
</event>
<event>
 4    0  0.2182372E-002  0.1937210E+03  0.7546771E-02  0.1155147E+00
         21   -1    0    0  502  501  0.00000000000E+00  0.00000000000E+00  0.14152527526E+03  0.14152527526E+03  0.00000000000E+00 0.  1.
         21   -1    0    0  501  502 -0.00000000000E+00 -0.00000000000E+00 -0.26516689876E+03  0.26516689876E+03  0.00000000000E+00 0.  1.
         25    1    1    2    0    0  0.41560037831E+02 -0.14202243277E+03 -0.64216805073E+02  0.20407451141E+03  0.12500000000E+03 0.  0.
         25    1    1    2    0    0 -0.41560037831E+02  0.14202243277E+03 -0.59424818422E+02  0.20261766260E+03  0.12500000000E+03 0.  0.
</event>
<event>
 4    0  0.2182372E-002  0.1811832E+03  0.7546771E-02  0.1166663E+00
         21   -1    0    0  502  501  0.00000000000E+00  0.00000000000E+00  0.38025657725E+03  0.38025657725E+03  0.00000000000E+00 0. -1.
         21   -1    0    0  501  502 -0.00000000000E+00 -0.00000000000E+00 -0.86329431332E+02  0.86329431332E+02  0.00000000000E+00 0. -1.
         25    1    1    2    0    0 -0.66505929966E+02 -0.82791290321E+02  0.47852008172E+02  0.17085740007E+03  0.12500000000E+03 0.  0.
         25    1    1    2    0    0  0.66505929966E+02  0.82791290321E+02  0.24607513774E+03  0.29572860851E+03  0.12500000000E+03 0.  0.
</event>
<event>
 4    0  0.2182372E-002  0.3007403E+03  0.7546771E-02  0.1084871E+00
         21   -1    0    0  502  501  0.00000000000E+00  0.00000000000E+00  0.77052297763E+03  0.77052297763E+03  0.00000000000E+00 0.  1.
         21   -1    0    0  501  502 -0.00000000000E+00 -0.00000000000E+00 -0.11738095809E+03  0.11738095809E+03  0.00000000000E+00 0.  1.
         25    1    1    2    0    0  0.27221975165E+03  0.19678716636E+02  0.29980009107E+03  0.42425928355E+03  0.12500000000E+03 0.  0.
         25    1    1    2    0    0 -0.27221975165E+03 -0.19678716636E+02  0.35334192847E+03  0.46364465217E+03  0.12500000000E+03 0.  0.
</event>
<event>
 4    0  0.2182372E-002  0.4118282E+03  0.7546771E-02  0.1039759E+00
         21   -1    0    0  502  501  0.00000000000E+00  0.00000000000E+00  0.18141014245E+04  0.18141014245E+04  0.00000000000E+00 0.  1.
         21   -1    0    0  501  502 -0.00000000000E+00 -0.00000000000E+00 -0.93491153849E+02  0.93491153849E+02  0.00000000000E+00 0.  1.
         25    1    1    2    0    0  0.40103820971E+02 -0.13350839542E+03  0.17098234893E+04  0.17200448171E+04  0.12500000000E+03 0.  0.
         25    1    1    2    0    0 -0.40103820971E+02  0.13350839542E+03  0.10786781314E+02  0.18754776126E+03  0.12500000000E+03 0.  0.
</event>
<event>
 4    0  0.2182372E-002  0.2216487E+03  0.7546771E-02  0.1132660E+00
         21   -1    0    0  502  501  0.00000000000E+00  0.00000000000E+00  0.42390163268E+03  0.42390163268E+03  0.00000000000E+00 0.  1.
         21   -1    0    0  501  502 -0.00000000000E+00 -0.00000000000E+00 -0.11589516621E+03  0.11589516621E+03  0.00000000000E+00 0.  1.
         25    1    1    2    0    0 -0.98784296798E+02 -0.15070041224E+03  0.19316272825E+03  0.29224269217E+03  0.12500000000E+03 0.  0.
         25    1    1    2    0    0  0.98784296798E+02  0.15070041224E+03  0.11484373823E+03  0.24755410672E+03  0.12500000000E+03 0.  0.
</event>
<event>
 4    0  0.2182372E-002  0.2168833E+03  0.7546771E-02  0.1136228E+00
         21   -1    0    0  502  501  0.00000000000E+00  0.00000000000E+00  0.16943577926E+03  0.16943577926E+03  0.00000000000E+00 0. -1.
         21   -1    0    0  501  502 -0.00000000000E+00 -0.00000000000E+00 -0.27761757742E+03  0.27761757742E+03  0.00000000000E+00 0. -1.
         25    1    1    2    0    0  0.63674331156E+02 -0.26475045568E+00  0.11638081224E+03  0.18227447435E+03  0.12500000000E+03 0.  0.
         25    1    1    2    0    0 -0.63674331156E+02  0.26475045568E+00 -0.22456261040E+03  0.26477888233E+03  0.12500000000E+03 0.  0.
</event>
<event>
 4    0  0.2182372E-002  0.2644135E+03  0.7546771E-02  0.1104520E+00
         21   -1    0    0  502  501  0.00000000000E+00  0.00000000000E+00  0.59563244971E+03  0.59563244971E+03  0.00000000000E+00 0. -1.
         21   -1    0    0  501  502 -0.00000000000E+00 -0.00000000000E+00 -0.11737862841E+03  0.11737862841E+03  0.00000000000E+00 0. -1.
         25    1    1    2    0    0 -0.17092999353E+03 -0.14780998469E+03  0.16256285289E+03  0.30515002114E+03  0.12500000000E+03 0.  0.
         25    1    1    2    0    0  0.17092999353E+03  0.14780998469E+03  0.31569096841E+03  0.40786105698E+03  0.12500000000E+03 0.  0.
</event>
<event>
 4    0  0.2182372E-002  0.2073704E+03  0.7546771E-02  0.1143665E+00
         21   -1    0    0  502  501  0.00000000000E+00  0.00000000000E+00  0.57937554353E+03  0.57937554353E+03  0.00000000000E+00 0. -1.
         21   -1    0    0  501  502 -0.00000000000E+00 -0.00000000000E+00 -0.74222091444E+02  0.74222091444E+02  0.00000000000E+00 0. -1.
         25    1    1    2    0    0 -0.10653816745E+03  0.63868159057E+02  0.80318349237E+02  0.19366352287E+03  0.12500000000E+03 0.  0.
         25    1    1    2    0    0  0.10653816745E+03 -0.63868159057E+02  0.42483510285E+03  0.45993411211E+03  0.12500000000E+03 0.  0.
</event>
<event>
 4    0  0.2182372E-002  0.1773090E+03  0.7546771E-02  0.1170433E+00
         21   -1    0    0  502  501  0.00000000000E+00  0.00000000000E+00  0.45017801110E+03  0.45017801110E+03  0.00000000000E+00 0. -1.
         21   -1    0    0  501  502 -0.00000000000E+00 -0.00000000000E+00 -0.69835682245E+02  0.69835682245E+02  0.00000000000E+00 0. -1.
         25    1    1    2    0    0  0.72631195643E+02  0.99254938619E+02  0.15174533194E+03  0.23190187405E+03  0.12500000000E+03 0.  0.
         25    1    1    2    0    0 -0.72631195643E+02 -0.99254938619E+02  0.22859699691E+03  0.28811181929E+03  0.12500000000E+03 0.  0.
</event>
<event>
 4    0  0.2182372E-002  0.2274985E+03  0.7546771E-02  0.1128413E+00
         21   -1    0    0  502  501  0.00000000000E+00  0.00000000000E+00  0.73089105206E+03  0.73089105206E+03  0.00000000000E+00 0.  1.
         21   -1    0    0  501  502 -0.00000000000E+00 -0.00000000000E+00 -0.70811583934E+02  0.70811583934E+02  0.00000000000E+00 0.  1.
         25    1    1    2    0    0 -0.11911674256E+03 -0.10801973527E+03  0.50863250361E+03  0.54789514079E+03  0.12500000000E+03 0.  0.
         25    1    1    2    0    0  0.11911674256E+03  0.10801973527E+03  0.15144696451E+03  0.25380749521E+03  0.12500000000E+03 0.  0.
</event>
<event>
 4    0  0.2182372E-002  0.2161247E+03  0.7546771E-02  0.1136806E+00
         21   -1    0    0  502  501  0.00000000000E+00  0.00000000000E+00  0.16876446977E+03  0.16876446977E+03  0.00000000000E+00 0. -1.
         21   -1    0    0  501  502 -0.00000000000E+00 -0.00000000000E+00 -0.27677556834E+03  0.27677556834E+03  0.00000000000E+00 0.  1.
         25    1    1    2    0    0 -0.84671251854E+02  0.14534431558E+03 -0.10845684748E+03  0.23597050394E+03  0.12500000000E+03 0.  0.
         25    1    1    2    0    0  0.84671251854E+02 -0.14534431558E+03  0.44574891151E+00  0.20956953417E+03  0.12500000000E+03 0.  0.
</event>
<event>
 4    0  0.2182372E-002  0.2832267E+03  0.7546771E-02  0.1093940E+00
         21   -1    0    0  502  501  0.00000000000E+00  0.00000000000E+00  0.34152312408E+03  0.34152312408E+03  0.00000000000E+00 0. -1.
         21   -1    0    0  501  502 -0.00000000000E+00 -0.00000000000E+00 -0.23488127397E+03  0.23488127397E+03  0.00000000000E+00 0. -1.
         25    1    1    2    0    0  0.23977223960E+03 -0.30909910853E+02  0.13309608574E+03  0.30296157761E+03  0.12500000000E+03 0.  0.
         25    1    1    2    0    0 -0.23977223960E+03  0.30909910853E+02 -0.26454235623E+02  0.27344282044E+03  0.12500000000E+03 0.  0.
</event>
<event>
 4    0  0.2182372E-002  0.2408102E+03  0.7546771E-02  0.1119254E+00
         21   -1    0    0  502  501  0.00000000000E+00  0.00000000000E+00  0.12210343738E+03  0.12210343738E+03  0.00000000000E+00 0. -1.
         21   -1    0    0  501  502 -0.00000000000E+00 -0.00000000000E+00 -0.47492165370E+03  0.47492165370E+03  0.00000000000E+00 0.  1.
         25    1    1    2    0    0 -0.18513401505E+03 -0.28243352015E+02 -0.70552200216E+02  0.23595529962E+03  0.12500000000E+03 0.  0.
         25    1    1    2    0    0  0.18513401505E+03  0.28243352015E+02 -0.28226601610E+03  0.36106979146E+03  0.12500000000E+03 0.  0.
</event>
<event>
 4    0  0.2182372E-002  0.2494002E+03  0.7546771E-02  0.1113684E+00
         21   -1    0    0  502  501  0.00000000000E+00  0.00000000000E+00  0.43653604603E+02  0.43653604603E+02  0.00000000000E+00 0. -1.
         21   -1    0    0  501  502 -0.00000000000E+00 -0.00000000000E+00 -0.14248642376E+04  0.14248642376E+04  0.00000000000E+00 0. -1.
         25    1    1    2    0    0  0.12093791122E+03 -0.83851305742E+02 -0.22586231317E+03  0.29714609934E+03  0.12500000000E+03 0.  0.
         25    1    1    2    0    0 -0.12093791122E+03  0.83851305742E+02 -0.11553483198E+04  0.11713717429E+04  0.12500000000E+03 0.  0.
</event>
<event>
 4    0  0.2182372E-002  0.1926368E+03  0.7546771E-02  0.1156104E+00
         21   -1    0    0  502  501  0.00000000000E+00  0.00000000000E+00  0.11433807834E+04  0.11433807834E+04  0.00000000000E+00 0.  1.
         21   -1    0    0  501  502 -0.00000000000E+00 -0.00000000000E+00 -0.32455433261E+02  0.32455433261E+02  0.00000000000E+00 0.  1.
         25    1    1    2    0    0 -0.83188436602E+02 -0.21825315939E+02  0.91769810506E+03  0.93015669241E+03  0.12500000000E+03 0.  0.
         25    1    1    2    0    0  0.83188436602E+02  0.21825315939E+02  0.19322724511E+03  0.24567952429E+03  0.12500000000E+03 0.  0.
</event>
<event>
 4    0  0.2182372E-002  0.2274238E+03  0.7546771E-02  0.1128466E+00
         21   -1    0    0  502  501  0.00000000000E+00  0.00000000000E+00  0.12534232945E+04  0.12534232945E+04  0.00000000000E+00 0. -1.
         21   -1    0    0  501  502 -0.00000000000E+00 -0.00000000000E+00 -0.41264266191E+02  0.41264266191E+02  0.00000000000E+00 0. -1.
         25    1    1    2    0    0 -0.10989834818E+03 -0.21197974711E+02  0.10430731002E+04  0.10564816578E+04  0.12500000000E+03 0.  0.
         25    1    1    2    0    0  0.10989834818E+03  0.21197974711E+02  0.16908592820E+03  0.23820590291E+03  0.12500000000E+03 0.  0.
</event>
<event>
 4    0  0.2182372E-002  0.1797742E+03  0.7546771E-02  0.1168022E+00
         21   -1    0    0  502  501  0.00000000000E+00  0.00000000000E+00  0.83491971704E+02  0.83491971704E+02  0.00000000000E+00 0.  1.
         21   -1    0    0  501  502 -0.00000000000E+00 -0.00000000000E+00 -0.38708819397E+03  0.38708819397E+03  0.00000000000E+00 0.  1.
         25    1    1    2    0    0  0.90553741636E+02  0.42498729369E+02 -0.25882984557E+03  0.30434193119E+03  0.12500000000E+03 0.  0.
         25    1    1    2    0    0 -0.90553741636E+02 -0.42498729369E+02 -0.44766376696E+02  0.16623823449E+03  0.12500000000E+03 0.  0.
</event>
<event>
 4    0  0.2182372E-002  0.2730305E+03  0.7546771E-02  0.1099558E+00
         21   -1    0    0  502  501  0.00000000000E+00  0.00000000000E+00  0.15076303880E+03  0.15076303880E+03  0.00000000000E+00 0.  1.
         21   -1    0    0  501  502 -0.00000000000E+00 -0.00000000000E+00 -0.49445579529E+03  0.49445579529E+03  0.00000000000E+00 0.  1.
         25    1    1    2    0    0  0.36901771186E+02 -0.17101723390E+03 -0.37066237117E+03  0.42851397691E+03  0.12500000000E+03 0.  0.
         25    1    1    2    0    0 -0.36901771186E+02  0.17101723390E+03  0.26969614692E+02  0.21670485717E+03  0.12500000000E+03 0.  0.
</event>
<event>
 4    0  0.2182372E-002  0.2185807E+03  0.7546771E-02  0.1134946E+00
         21   -1    0    0  502  501  0.00000000000E+00  0.00000000000E+00  0.77262754857E+02  0.77262754857E+02  0.00000000000E+00 0.  1.
         21   -1    0    0  501  502 -0.00000000000E+00 -0.00000000000E+00 -0.61837737243E+03  0.61837737243E+03  0.00000000000E+00 0.  1.
         25    1    1    2    0    0 -0.32019188316E+02 -0.27781495320E+02  0.66862290737E+01  0.13216181582E+03  0.12500000000E+03 0.  0.
         25    1    1    2    0    0  0.32019188316E+02  0.27781495320E+02 -0.54780084664E+03  0.56347831146E+03  0.12500000000E+03 0.  0.
</event>
<event>
 4    0  0.2182372E-002  0.2766112E+03  0.7546771E-02  0.1097554E+00
         21   -1    0    0  502  501  0.00000000000E+00  0.00000000000E+00  0.12221297744E+04  0.12221297744E+04  0.00000000000E+00 0.  1.
         21   -1    0    0  501  502 -0.00000000000E+00 -0.00000000000E+00 -0.62606900245E+02  0.62606900245E+02  0.00000000000E+00 0.  1.
         25    1    1    2    0    0  0.15415291653E+03 -0.68905330781E+02  0.99762768843E+03  0.10195082496E+04  0.12500000000E+03 0.  0.
         25    1    1    2    0    0 -0.15415291653E+03  0.68905330781E+02  0.16189518570E+03  0.26522842501E+03  0.12500000000E+03 0.  0.
</event>
<event>
 4    0  0.2182372E-002  0.2152589E+03  0.7546771E-02  0.1137468E+00
         21   -1    0    0  502  501  0.00000000000E+00  0.00000000000E+00  0.10224185757E+03  0.10224185757E+03  0.00000000000E+00 0. -1.
         21   -1    0    0  501  502 -0.00000000000E+00 -0.00000000000E+00 -0.45320394675E+03  0.45320394675E+03  0.00000000000E+00 0.  1.
         25    1    1    2    0    0  0.79701821237E+02  0.15229304437E+03 -0.13142819505E+03  0.24988781908E+03  0.12500000000E+03 0.  0.
         25    1    1    2    0    0 -0.79701821237E+02 -0.15229304437E+03 -0.21953389413E+03  0.30555798524E+03  0.12500000000E+03 0.  0.
</event>
<event>
 4    0  0.2182372E-002  0.1883297E+03  0.7546771E-02  0.1159977E+00
         21   -1    0    0  502  501  0.00000000000E+00  0.00000000000E+00  0.13051986311E+04  0.13051986311E+04  0.00000000000E+00 0.  1.
         21   -1    0    0  501  502 -0.00000000000E+00 -0.00000000000E+00 -0.27174461216E+02  0.27174461216E+02  0.00000000000E+00 0.  1.
         25    1    1    2    0    0 -0.55274562091E+02  0.62573241637E+02  0.23767754482E+03  0.28122287086E+03  0.12500000000E+03 0.  0.
         25    1    1    2    0    0  0.55274562091E+02 -0.62573241637E+02  0.10403466250E+04  0.10511502214E+04  0.12500000000E+03 0.  0.
</event>
<event>
 4    0  0.2182372E-002  0.2790699E+03  0.7546771E-02  0.1096198E+00
         21   -1    0    0  502  501  0.00000000000E+00  0.00000000000E+00  0.41815468397E+02  0.41815468397E+02  0.00000000000E+00 0. -1.
         21   -1    0    0  501  502 -0.00000000000E+00 -0.00000000000E+00 -0.18624685473E+04  0.18624685473E+04  0.00000000000E+00 0. -1.
         25    1    1    2    0    0  0.15535549708E+03 -0.12995030046E+03 -0.14074796846E+04  0.14274615489E+04  0.12500000000E+03 0.  0.
         25    1    1    2    0    0 -0.15535549708E+03  0.12995030046E+03 -0.41317339425E+03  0.47682246673E+03  0.12500000000E+03 0.  0.
</event>
<event>
 4    0  0.2182372E-002  0.2038082E+03  0.7546771E-02  0.1146565E+00
         21   -1    0    0  502  501  0.00000000000E+00  0.00000000000E+00  0.61645068056E+03  0.61645068056E+03  0.00000000000E+00 0.  1.
         21   -1    0    0  501  502 -0.00000000000E+00 -0.00000000000E+00 -0.67382151811E+02  0.67382151811E+02  0.00000000000E+00 0.  1.
         25    1    1    2    0    0 -0.56174590898E+02 -0.14815665314E+03  0.32218612847E+03  0.38017743215E+03  0.12500000000E+03 0.  0.
         25    1    1    2    0    0  0.56174590898E+02  0.14815665314E+03  0.22688240027E+03  0.30365540022E+03  0.12500000000E+03 0.  0.
</event>
<event>
 4    0  0.2182372E-002  0.3906611E+03  0.7546771E-02  0.1047062E+00
         21   -1    0    0  502  501  0.00000000000E+00  0.00000000000E+00  0.61886977901E+03  0.61886977901E+03  0.00000000000E+00 0.  1.
         21   -1    0    0  501  502 -0.00000000000E+00 -0.00000000000E+00 -0.24660458553E+03  0.24660458553E+03  0.00000000000E+00 0.  1.
         25    1    1    2    0    0 -0.33055695403E+02  0.10150684428E+03 -0.20643083585E+03  0.26388446037E+03  0.12500000000E+03 0.  0.
         25    1    1    2    0    0  0.33055695403E+02 -0.10150684428E+03  0.57869602933E+03  0.60158990417E+03  0.12500000000E+03 0.  0.
</event>
<event>
 4    0  0.2182372E-002  0.2283735E+03  0.7546771E-02  0.1127790E+00
         21   -1    0    0  502  501  0.00000000000E+00  0.00000000000E+00  0.41537230602E+03  0.41537230602E+03  0.00000000000E+00 0. -1.
         21   -1    0    0  501  502 -0.00000000000E+00 -0.00000000000E+00 -0.12556069024E+03  0.12556069024E+03  0.00000000000E+00 0. -1.
         25    1    1    2    0    0  0.16644266411E+02 -0.12972341121E+03  0.30996505590E+03  0.35889905391E+03  0.12500000000E+03 0.  0.
         25    1    1    2    0    0 -0.16644266411E+02  0.12972341121E+03 -0.20153440118E+02  0.18203394236E+03  0.12500000000E+03 0.  0.
</event>
<event>
 4    0  0.2182372E-002  0.3047901E+03  0.7546771E-02  0.1082870E+00
         21   -1    0    0  502  501  0.00000000000E+00  0.00000000000E+00  0.11481496991E+03  0.11481496991E+03  0.00000000000E+00 0. -1.
         21   -1    0    0  501  502 -0.00000000000E+00 -0.00000000000E+00 -0.80910199883E+03  0.80910199883E+03  0.00000000000E+00 0. -1.
         25    1    1    2    0    0 -0.21159323841E+03  0.98160905417E+02 -0.11795894511E+03  0.28973535274E+03  0.12500000000E+03 0.  0.
         25    1    1    2    0    0  0.21159323841E+03 -0.98160905417E+02 -0.57632808381E+03  0.63418161601E+03  0.12500000000E+03 0.  0.
</event>
<event>
 4    0  0.2182372E-002  0.2799601E+03  0.7546771E-02  0.1095711E+00
         21   -1    0    0  502  501  0.00000000000E+00  0.00000000000E+00  0.23881702736E+03  0.23881702736E+03  0.00000000000E+00 0. -1.
         21   -1    0    0  501  502 -0.00000000000E+00 -0.00000000000E+00 -0.32819121822E+03  0.32819121822E+03  0.00000000000E+00 0. -1.
         25    1    1    2    0    0 -0.12238426592E+03 -0.21698830687E+03 -0.71303222035E+02  0.28769946704E+03  0.12500000000E+03 0.  0.
         25    1    1    2    0    0  0.12238426592E+03  0.21698830687E+03 -0.18070968823E+02  0.27930877855E+03  0.12500000000E+03 0.  0.
</event>
<event>
 4    0  0.2182372E-002  0.1800169E+03  0.7546771E-02  0.1167787E+00
         21   -1    0    0  502  501  0.00000000000E+00  0.00000000000E+00  0.18098722440E+03  0.18098722440E+03  0.00000000000E+00 0.  1.
         21   -1    0    0  501  502 -0.00000000000E+00 -0.00000000000E+00 -0.17905182088E+03  0.17905182088E+03  0.00000000000E+00 0.  1.
         25    1    1    2    0    0  0.77314925306E+02  0.21621377342E+01  0.10488657217E+03  0.18057814246E+03  0.12500000000E+03 0.  0.
         25    1    1    2    0    0 -0.77314925306E+02 -0.21621377342E+01 -0.10295116865E+03  0.17946090282E+03  0.12500000000E+03 0.  0.
</event>
<event>
 4    0  0.2182372E-002  0.2168138E+03  0.7546771E-02  0.1136281E+00
         21   -1    0    0  502  501  0.00000000000E+00  0.00000000000E+00  0.16413332128E+03  0.16413332128E+03  0.00000000000E+00 0.  1.
         21   -1    0    0  501  502 -0.00000000000E+00 -0.00000000000E+00 -0.28640263132E+03  0.28640263132E+03  0.00000000000E+00 0.  1.
         25    1    1    2    0    0  0.15869190556E+03 -0.29191599084E+02  0.14846524819E+02  0.20464772085E+03  0.12500000000E+03 0.  0.
         25    1    1    2    0    0 -0.15869190556E+03  0.29191599084E+02 -0.13711583485E+03  0.24588823176E+03  0.12500000000E+03 0.  0.
</event>
<event>
 4    0  0.2182372E-002  0.2563057E+03  0.7546771E-02  0.1109383E+00
         21   -1    0    0  502  501  0.00000000000E+00  0.00000000000E+00  0.11298213841E+04  0.11298213841E+04  0.00000000000E+00 0.  1.
         21   -1    0    0  501  502 -0.00000000000E+00 -0.00000000000E+00 -0.58144236672E+02  0.58144236672E+02  0.00000000000E+00 0.  1.
         25    1    1    2    0    0 -0.20817147438E+03 -0.80980800578E+02  0.56643886463E+03  0.62158767698E+03  0.12500000000E+03 0.  0.
         25    1    1    2    0    0  0.20817147438E+03  0.80980800578E+02  0.50523828277E+03  0.56637794377E+03  0.12500000000E+03 0.  0.
</event>
<event>
 4    0  0.2182372E-002  0.2082816E+03  0.7546771E-02  0.1142934E+00
         21   -1    0    0  502  501  0.00000000000E+00  0.00000000000E+00  0.18877958505E+03  0.18877958505E+03  0.00000000000E+00 0. -1.
         21   -1    0    0  501  502 -0.00000000000E+00 -0.00000000000E+00 -0.22979822084E+03  0.22979822084E+03  0.00000000000E+00 0. -1.
         25    1    1    2    0    0 -0.91022691690E+02  0.10642533958E+03 -0.11119394859E+03  0.21817556579E+03  0.12500000000E+03 0.  0.
         25    1    1    2    0    0  0.91022691690E+02 -0.10642533958E+03  0.70175312800E+02  0.20040224009E+03  0.12500000000E+03 0.  0.
</event>
<event>
 4    0  0.2182372E-002  0.1788519E+03  0.7546771E-02  0.1168919E+00
         21   -1    0    0  502  501  0.00000000000E+00  0.00000000000E+00  0.26250823468E+03  0.26250823468E+03  0.00000000000E+00 0.  1.
         21   -1    0    0  501  502 -0.00000000000E+00 -0.00000000000E+00 -0.12185528051E+03  0.12185528051E+03  0.00000000000E+00 0.  1.
         25    1    1    2    0    0  0.10143475897E+03  0.66761677535E+02  0.27119113264E+02  0.17637057073E+03  0.12500000000E+03 0.  0.
         25    1    1    2    0    0 -0.10143475897E+03 -0.66761677535E+02  0.11353384090E+03  0.20799294446E+03  0.12500000000E+03 0.  0.
</event>
<event>
 4    0  0.2182372E-002  0.1980235E+03  0.7546771E-02  0.1151417E+00
         21   -1    0    0  502  501  0.00000000000E+00  0.00000000000E+00  0.13996011681E+03  0.13996011681E+03  0.00000000000E+00 0.  1.
         21   -1    0    0  501  502 -0.00000000000E+00 -0.00000000000E+00 -0.28017498482E+03  0.28017498482E+03  0.00000000000E+00 0.  1.
         25    1    1    2    0    0  0.45531825503E+02  0.13828847258E+03 -0.18230410294E+02  0.19275423897E+03  0.12500000000E+03 0.  0.
         25    1    1    2    0    0 -0.45531825503E+02 -0.13828847258E+03 -0.12198445771E+03  0.22738086266E+03  0.12500000000E+03 0.  0.
</event>
<event>
 4    0  0.2182372E-002  0.5199733E+03  0.7546771E-02  0.1008693E+00
         21   -1    0    0  502  501  0.00000000000E+00  0.00000000000E+00  0.26467245527E+03  0.26467245527E+03  0.00000000000E+00 0. -1.
         21   -1    0    0  501  502 -0.00000000000E+00 -0.00000000000E+00 -0.10215352886E+04  0.10215352886E+04  0.00000000000E+00 0. -1.
         25    1    1    2    0    0 -0.24497975560E+02 -0.46030594329E+03 -0.12416249620E+03  0.49348053426E+03  0.12500000000E+03 0.  0.
         25    1    1    2    0    0  0.24497975560E+02  0.46030594329E+03 -0.63270033712E+03  0.79272720959E+03  0.12500000000E+03 0.  0.
</event>
<event>
 4    0  0.2182372E-002  0.2434120E+03  0.7546771E-02  0.1117540E+00
         21   -1    0    0  502  501  0.00000000000E+00  0.00000000000E+00  0.18992952210E+03  0.18992952210E+03  0.00000000000E+00 0. -1.
         21   -1    0    0  501  502 -0.00000000000E+00 -0.00000000000E+00 -0.31195468898E+03  0.31195468898E+03  0.00000000000E+00 0. -1.
         25    1    1    2    0    0  0.49102650524E+01  0.20115452604E+03 -0.32695960857E+01  0.23690281617E+03  0.12500000000E+03 0.  0.
         25    1    1    2    0    0 -0.49102650524E+01 -0.20115452604E+03 -0.11875557080E+03  0.26498139491E+03  0.12500000000E+03 0.  0.
</event>
<event>
 4    0  0.2182372E-002  0.2050837E+03  0.7546771E-02  0.1145519E+00
         21   -1    0    0  502  501  0.00000000000E+00  0.00000000000E+00  0.26002869638E+02  0.26002869638E+02  0.00000000000E+00 0. -1.
         21   -1    0    0  501  502 -0.00000000000E+00 -0.00000000000E+00 -0.16174882319E+04  0.16174882319E+04  0.00000000000E+00 0. -1.
         25    1    1    2    0    0  0.16428737984E+02  0.73392136587E+02 -0.21816778993E+03  0.26244712555E+03  0.12500000000E+03 0.  0.
         25    1    1    2    0    0 -0.16428737984E+02 -0.73392136587E+02 -0.13733175724E+04  0.13810439760E+04  0.12500000000E+03 0.  0.
</event>
<event>
 4    0  0.2182372E-002  0.2081508E+03  0.7546771E-02  0.1143039E+00
         21   -1    0    0  502  501  0.00000000000E+00  0.00000000000E+00  0.68674144085E+02  0.68674144085E+02  0.00000000000E+00 0.  1.
         21   -1    0    0  501  502 -0.00000000000E+00 -0.00000000000E+00 -0.63090327186E+03  0.63090327186E+03  0.00000000000E+00 0.  1.
         25    1    1    2    0    0  0.48712007057E+02  0.42348240053E+02 -0.53891851351E+03  0.55697791453E+03  0.12500000000E+03 0.  0.
         25    1    1    2    0    0 -0.48712007057E+02 -0.42348240053E+02 -0.23310614263E+02  0.14259950142E+03  0.12500000000E+03 0.  0.
</event>
<event>
 4    0  0.2182372E-002  0.2438683E+03  0.7546771E-02  0.1117242E+00
         21   -1    0    0  502  501  0.00000000000E+00  0.00000000000E+00  0.10434161965E+03  0.10434161965E+03  0.00000000000E+00 0. -1.
         21   -1    0    0  501  502 -0.00000000000E+00 -0.00000000000E+00 -0.56997131547E+03  0.56997131547E+03  0.00000000000E+00 0. -1.
         25    1    1    2    0    0  0.39037911376E+02 -0.16361742727E+03 -0.60401511357E+02  0.21810081065E+03  0.12500000000E+03 0.  0.
         25    1    1    2    0    0 -0.39037911376E+02  0.16361742727E+03 -0.40522818446E+03  0.45621212447E+03  0.12500000000E+03 0.  0.
</event>
<event>
 4    0  0.2182372E-002  0.2214325E+03  0.7546771E-02  0.1132820E+00
         21   -1    0    0  502  501  0.00000000000E+00  0.00000000000E+00  0.75628675707E+02  0.75628675707E+02  0.00000000000E+00 0.  1.
         21   -1    0    0  501  502 -0.00000000000E+00 -0.00000000000E+00 -0.64832991222E+03  0.64832991222E+03  0.00000000000E+00 0.  1.
         25    1    1    2    0    0 -0.96957455001E+01 -0.16628995349E+03 -0.40934580884E+03  0.45927698324E+03  0.12500000000E+03 0.  0.
         25    1    1    2    0    0  0.96957455001E+01  0.16628995349E+03 -0.16335542767E+03  0.26468160469E+03  0.12500000000E+03 0.  0.
</event>
<event>
 4    0  0.2182372E-002  0.1741639E+03  0.7546771E-02  0.1173574E+00
         21   -1    0    0  502  501  0.00000000000E+00  0.00000000000E+00  0.17665492191E+03  0.17665492191E+03  0.00000000000E+00 0.  1.
         21   -1    0    0  501  502 -0.00000000000E+00 -0.00000000000E+00 -0.17170803666E+03  0.17170803666E+03  0.00000000000E+00 0.  1.
         25    1    1    2    0    0  0.82101487610E+02 -0.69595055332E+02  0.58371330652E+02  0.17497525035E+03  0.12500000000E+03 0.  0.
         25    1    1    2    0    0 -0.82101487610E+02  0.69595055332E+02 -0.53424445404E+02  0.17338770822E+03  0.12500000000E+03 0.  0.
</event>
<event>
 4    0  0.2182372E-002  0.1850041E+03  0.7546771E-02  0.1163046E+00
         21   -1    0    0  502  501  0.00000000000E+00  0.00000000000E+00  0.14997159691E+04  0.14997159691E+04  0.00000000000E+00 0.  1.
         21   -1    0    0  501  502 -0.00000000000E+00 -0.00000000000E+00 -0.22822010758E+02  0.22822010758E+02  0.00000000000E+00 0.  1.
         25    1    1    2    0    0 -0.86232120600E+01 -0.38700552365E+02  0.20146850040E+03  0.24038853798E+03  0.12500000000E+03 0.  0.
         25    1    1    2    0    0  0.86232120600E+01  0.38700552365E+02  0.12754254580E+04  0.12821494419E+04  0.12500000000E+03 0.  0.
</event>
<event>
 4    0  0.2182372E-002  0.1850434E+03  0.7546771E-02  0.1163009E+00
         21   -1    0    0  502  501  0.00000000000E+00  0.00000000000E+00  0.66975938315E+02  0.66975938315E+02  0.00000000000E+00 0.  1.
         21   -1    0    0  501  502 -0.00000000000E+00 -0.00000000000E+00 -0.51124396459E+03  0.51124396459E+03  0.00000000000E+00 0.  1.
         25    1    1    2    0    0  0.12523155462E+03  0.25785875731E+02 -0.14772435465E+03  0.23193822155E+03  0.12500000000E+03 0.  0.
         25    1    1    2    0    0 -0.12523155462E+03 -0.25785875731E+02 -0.29654367162E+03  0.34628168135E+03  0.12500000000E+03 0.  0.
</event>
<event>
 4    0  0.2182372E-002  0.2073634E+03  0.7546771E-02  0.1143671E+00
         21   -1    0    0  502  501  0.00000000000E+00  0.00000000000E+00  0.84101416618E+03  0.84101416618E+03  0.00000000000E+00 0.  1.
         21   -1    0    0  501  502 -0.00000000000E+00 -0.00000000000E+00 -0.51128226983E+02  0.51128226983E+02  0.00000000000E+00 0.  1.
         25    1    1    2    0    0 -0.99732250850E+02 -0.90239054936E+02  0.18766075295E+03  0.26254745684E+03  0.12500000000E+03 0.  0.
         25    1    1    2    0    0  0.99732250850E+02  0.90239054936E+02  0.60222518624E+03  0.62959493632E+03  0.12500000000E+03 0.  0.
</event>
<event>
 4    0  0.2182372E-002  0.4334384E+03  0.7546771E-02  0.1032779E+00
         21   -1    0    0  502  501  0.00000000000E+00  0.00000000000E+00  0.19826131489E+03  0.19826131489E+03  0.00000000000E+00 0.  1.
         21   -1    0    0  501  502 -0.00000000000E+00 -0.00000000000E+00 -0.94758212144E+03  0.94758212144E+03  0.00000000000E+00 0.  1.
         25    1    1    2    0    0 -0.23022073914E+03 -0.64871317172E+02  0.73652230651E+02  0.27974904397E+03  0.12500000000E+03 0.  0.
         25    1    1    2    0    0  0.23022073914E+03  0.64871317172E+02 -0.82297303720E+03  0.86609439236E+03  0.12500000000E+03 0.  0.
</event>
<event>
 4    0  0.2182372E-002  0.1548865E+03  0.7546771E-02  0.1194594E+00
         21   -1    0    0  502  501  0.00000000000E+00  0.00000000000E+00  0.74841345432E+02  0.74841345432E+02  0.00000000000E+00 0. -1.
         21   -1    0    0  501  502 -0.00000000000E+00 -0.00000000000E+00 -0.32054231550E+03  0.32054231550E+03  0.00000000000E+00 0. -1.
         25    1    1    2    0    0 -0.33991079224E+02 -0.54138735430E+02 -0.39363831164E+02  0.14581120446E+03  0.12500000000E+03 0.  0.
         25    1    1    2    0    0  0.33991079224E+02  0.54138735430E+02 -0.20633713891E+03  0.24957245648E+03  0.12500000000E+03 0.  0.
</event>
<event>
 4    0  0.2182372E-002  0.2062381E+03  0.7546771E-02  0.1144580E+00
         21   -1    0    0  502  501  0.00000000000E+00  0.00000000000E+00  0.68812521543E+02  0.68812521543E+02  0.00000000000E+00 0. -1.
         21   -1    0    0  501  502 -0.00000000000E+00 -0.00000000000E+00 -0.61811624390E+03  0.61811624390E+03  0.00000000000E+00 0. -1.
         25    1    1    2    0    0  0.16041353568E+03 -0.94446813656E+01 -0.32956978744E+03  0.38737959320E+03  0.12500000000E+03 0.  0.
         25    1    1    2    0    0 -0.16041353568E+03  0.94446813656E+01 -0.21973393492E+03  0.29954917224E+03  0.12500000000E+03 0.  0.
</event>
<event>
 4    0  0.2182372E-002  0.1831981E+03  0.7546771E-02  0.1164743E+00
         21   -1    0    0  502  501  0.00000000000E+00  0.00000000000E+00  0.25732286816E+02  0.25732286816E+02  0.00000000000E+00 0.  1.
         21   -1    0    0  501  502 -0.00000000000E+00 -0.00000000000E+00 -0.13042580716E+04  0.13042580716E+04  0.00000000000E+00 0.  1.
         25    1    1    2    0    0  0.28872654593E+02  0.67159292960E+02 -0.10466002503E+04  0.10565704353E+04  0.12500000000E+03 0.  0.
         25    1    1    2    0    0 -0.28872654593E+02 -0.67159292960E+02 -0.23192553450E+03  0.27341992314E+03  0.12500000000E+03 0.  0.
</event>
<event>
 4    0  0.2182372E-002  0.2027911E+03  0.7546771E-02  0.1147405E+00
         21   -1    0    0  502  501  0.00000000000E+00  0.00000000000E+00  0.17752000755E+03  0.17752000755E+03  0.00000000000E+00 0.  1.
         21   -1    0    0  501  502 -0.00000000000E+00 -0.00000000000E+00 -0.23165971248E+03  0.23165971248E+03  0.00000000000E+00 0.  1.
         25    1    1    2    0    0 -0.31065044437E+02  0.10678892841E+03  0.88534151986E+02  0.18929397319E+03  0.12500000000E+03 0.  0.
         25    1    1    2    0    0  0.31065044437E+02 -0.10678892841E+03 -0.14267385692E+03  0.21988574685E+03  0.12500000000E+03 0.  0.
</event>
<event>
 4    0  0.2182372E-002  0.1838854E+03  0.7546771E-02  0.1164095E+00
         21   -1    0    0  502  501  0.00000000000E+00  0.00000000000E+00  0.61640178610E+02  0.61640178610E+02  0.00000000000E+00 0.  1.
         21   -1    0    0  501  502 -0.00000000000E+00 -0.00000000000E+00 -0.54856794640E+03  0.54856794640E+03  0.00000000000E+00 0.  1.
         25    1    1    2    0    0  0.48215877256E+02 -0.29580076833E+01 -0.45238779171E+03  0.47181906989E+03  0.12500000000E+03 0.  0.
         25    1    1    2    0    0 -0.48215877256E+02  0.29580076833E+01 -0.34539976085E+02  0.13838905512E+03  0.12500000000E+03 0.  0.
</event>
<event>
 4    0  0.2182372E-002  0.2929871E+03  0.7546771E-02  0.1088800E+00
         21   -1    0    0  502  501  0.00000000000E+00  0.00000000000E+00  0.24737288086E+03  0.24737288086E+03  0.00000000000E+00 0.  1.
         21   -1    0    0  501  502 -0.00000000000E+00 -0.00000000000E+00 -0.34701231079E+03  0.34701231079E+03  0.00000000000E+00 0.  1.
         25    1    1    2    0    0 -0.11362578290E+03 -0.96185826872E+02  0.17253883604E+03  0.25991764421E+03  0.12500000000E+03 0.  0.
         25    1    1    2    0    0  0.11362578290E+03  0.96185826872E+02 -0.27217826596E+03  0.33446754744E+03  0.12500000000E+03 0.  0.
</event>
<event>
 4    0  0.2182372E-002  0.2951997E+03  0.7546771E-02  0.1087665E+00
         21   -1    0    0  502  501  0.00000000000E+00  0.00000000000E+00  0.25856341058E+04  0.25856341058E+04  0.00000000000E+00 0. -1.
         21   -1    0    0  501  502 -0.00000000000E+00 -0.00000000000E+00 -0.33702693423E+02  0.33702693423E+02  0.00000000000E+00 0.  1.
         25    1    1    2    0    0  0.24772240857E+03  0.33806900708E+02  0.16970534520E+04  0.17199199741E+04  0.12500000000E+03 0.  0.
         25    1    1    2    0    0 -0.24772240857E+03 -0.33806900708E+02  0.85487796040E+03  0.89941682518E+03  0.12500000000E+03 0.  0.
</event>
<event>
 4    0  0.2182372E-002  0.3134466E+03  0.7546771E-02  0.1078705E+00
         21   -1    0    0  502  501  0.00000000000E+00  0.00000000000E+00  0.97126160899E+02  0.97126160899E+02  0.00000000000E+00 0.  1.
         21   -1    0    0  501  502 -0.00000000000E+00 -0.00000000000E+00 -0.10115584821E+04  0.10115584821E+04  0.00000000000E+00 0.  1.
         25    1    1    2    0    0 -0.27403613124E+03  0.24951256398E+02 -0.60417971525E+03  0.67555643342E+03  0.12500000000E+03 0.  0.
         25    1    1    2    0    0  0.27403613124E+03 -0.24951256398E+02 -0.31025260592E+03  0.43312820955E+03  0.12500000000E+03 0.  0.
</event>
<event>
 4    0  0.2182372E-002  0.1988550E+03  0.7546771E-02  0.1150709E+00
         21   -1    0    0  502  501  0.00000000000E+00  0.00000000000E+00  0.12484453879E+03  0.12484453879E+03  0.00000000000E+00 0.  1.
         21   -1    0    0  501  502 -0.00000000000E+00 -0.00000000000E+00 -0.31674039727E+03  0.31674039727E+03  0.00000000000E+00 0.  1.
         25    1    1    2    0    0  0.11197391988E+03  0.69876719071E+02 -0.18544675957E+03  0.25968522337E+03  0.12500000000E+03 0.  0.
         25    1    1    2    0    0 -0.11197391988E+03 -0.69876719071E+02 -0.64490989094E+01  0.18189971269E+03  0.12500000000E+03 0.  0.
</event>
<event>
 4    0  0.2182372E-002  0.2101032E+03  0.7546771E-02  0.1141484E+00
         21   -1    0    0  502  501  0.00000000000E+00  0.00000000000E+00  0.15713779183E+03  0.15713779183E+03  0.00000000000E+00 0.  1.
         21   -1    0    0  501  502 -0.00000000000E+00 -0.00000000000E+00 -0.28092138116E+03  0.28092138116E+03  0.00000000000E+00 0.  1.
         25    1    1    2    0    0  0.30487875438E+02  0.16568499124E+03 -0.49674742217E+02  0.21557738027E+03  0.12500000000E+03 0.  0.
         25    1    1    2    0    0 -0.30487875438E+02 -0.16568499124E+03 -0.74108847116E+02  0.22248179272E+03  0.12500000000E+03 0.  0.
</event>
<event>
 4    0  0.2182372E-002  0.2347695E+03  0.7546771E-02  0.1123327E+00
         21   -1    0    0  502  501  0.00000000000E+00  0.00000000000E+00  0.47012351852E+03  0.47012351852E+03  0.00000000000E+00 0. -1.
         21   -1    0    0  501  502 -0.00000000000E+00 -0.00000000000E+00 -0.11723879613E+03  0.11723879613E+03  0.00000000000E+00 0. -1.
         25    1    1    2    0    0  0.17591682438E+03  0.85604830372E+02  0.22007825615E+03  0.31989741311E+03  0.12500000000E+03 0.  0.
         25    1    1    2    0    0 -0.17591682438E+03 -0.85604830372E+02  0.13280646624E+03  0.26746490154E+03  0.12500000000E+03 0.  0.
</event>
<event>
 4    0  0.2182372E-002  0.2296954E+03  0.7546771E-02  0.1126854E+00
         21   -1    0    0  502  501  0.00000000000E+00  0.00000000000E+00  0.26405622247E+03  0.26405622247E+03  0.00000000000E+00 0. -1.
         21   -1    0    0  501  502 -0.00000000000E+00 -0.00000000000E+00 -0.19980585890E+03  0.19980585890E+03  0.00000000000E+00 0. -1.
         25    1    1    2    0    0 -0.12628120519E+03 -0.13534410425E+03 -0.21968724481E+02  0.22443839732E+03  0.12500000000E+03 0.  0.
         25    1    1    2    0    0  0.12628120519E+03  0.13534410425E+03  0.86219088051E+02  0.23942368405E+03  0.12500000000E+03 0.  0.
</event>
<event>
 4    0  0.2182372E-002  0.2807970E+03  0.7546771E-02  0.1095254E+00
         21   -1    0    0  502  501  0.00000000000E+00  0.00000000000E+00  0.18458366129E+03  0.18458366129E+03  0.00000000000E+00 0. -1.
         21   -1    0    0  501  502 -0.00000000000E+00 -0.00000000000E+00 -0.42716107264E+03  0.42716107264E+03  0.00000000000E+00 0. -1.
         25    1    1    2    0    0 -0.17779989540E+03 -0.17559122666E+03 -0.15165017698E+03  0.31791171394E+03  0.12500000000E+03 0.  0.
         25    1    1    2    0    0  0.17779989540E+03  0.17559122666E+03 -0.90927234374E+02  0.29383301999E+03  0.12500000000E+03 0.  0.
</event>
<event>
 4    0  0.2182372E-002  0.2424215E+03  0.7546771E-02  0.1118190E+00
         21   -1    0    0  502  501  0.00000000000E+00  0.00000000000E+00  0.46713303982E+03  0.46713303982E+03  0.00000000000E+00 0. -1.
         21   -1    0    0  501  502 -0.00000000000E+00 -0.00000000000E+00 -0.12580606079E+03  0.12580606079E+03  0.00000000000E+00 0. -1.
         25    1    1    2    0    0  0.24846511037E+02 -0.17242489690E+03  0.32326857061E+02  0.21683569787E+03  0.12500000000E+03 0.  0.
         25    1    1    2    0    0 -0.24846511037E+02  0.17242489690E+03  0.30900012196E+03  0.37610340274E+03  0.12500000000E+03 0.  0.
</event>
<event>
 4    0  0.2182372E-002  0.3150305E+03  0.7546771E-02  0.1077959E+00
         21   -1    0    0  502  501  0.00000000000E+00  0.00000000000E+00  0.46251673811E+02  0.46251673811E+02  0.00000000000E+00 0. -1.
         21   -1    0    0  501  502 -0.00000000000E+00 -0.00000000000E+00 -0.21457431738E+04  0.21457431738E+04  0.00000000000E+00 0.  1.
         25    1    1    2    0    0 -0.16811816484E+03 -0.23112850502E+03 -0.89670404887E+03  0.94941416381E+03  0.12500000000E+03 0.  0.
         25    1    1    2    0    0  0.16811816484E+03  0.23112850502E+03 -0.12027874511E+04  0.12425806838E+04  0.12500000000E+03 0.  0.
</event>
<event>
 4    0  0.2182372E-002  0.1973928E+03  0.7546771E-02  0.1151957E+00
         21   -1    0    0  502  501  0.00000000000E+00  0.00000000000E+00  0.42809598917E+02  0.42809598917E+02  0.00000000000E+00 0.  1.
         21   -1    0    0  501  502 -0.00000000000E+00 -0.00000000000E+00 -0.91016818939E+03  0.91016818939E+03  0.00000000000E+00 0.  1.
         25    1    1    2    0    0 -0.11554221130E+03  0.66115392291E+02 -0.25275363627E+03  0.31181829378E+03  0.12500000000E+03 0.  0.
         25    1    1    2    0    0  0.11554221130E+03 -0.66115392291E+02 -0.61460495421E+03  0.64115949453E+03  0.12500000000E+03 0.  0.
</event>
<event>
 4    0  0.2182372E-002  0.2200906E+03  0.7546771E-02  0.1133816E+00
         21   -1    0    0  502  501  0.00000000000E+00  0.00000000000E+00  0.11362730702E+04  0.11362730702E+04  0.00000000000E+00 0.  1.
         21   -1    0    0  501  502 -0.00000000000E+00 -0.00000000000E+00 -0.42630467577E+02  0.42630467577E+02  0.00000000000E+00 0.  1.
         25    1    1    2    0    0 -0.15544908082E+03 -0.43439690623E+01  0.79564495053E+03  0.82027993642E+03  0.12500000000E+03 0.  0.
         25    1    1    2    0    0  0.15544908082E+03  0.43439690623E+01  0.29799765209E+03  0.35862360136E+03  0.12500000000E+03 0.  0.
</event>
<event>
 4    0  0.2182372E-002  0.2608773E+03  0.7546771E-02  0.1106617E+00
         21   -1    0    0  502  501  0.00000000000E+00  0.00000000000E+00  0.35685607872E+03  0.35685607872E+03  0.00000000000E+00 0.  1.
         21   -1    0    0  501  502 -0.00000000000E+00 -0.00000000000E+00 -0.19071266416E+03  0.19071266416E+03  0.00000000000E+00 0.  1.
         25    1    1    2    0    0  0.14062602766E+03  0.73215678733E+02  0.25646005928E+03  0.32639389896E+03  0.12500000000E+03 0.  0.
         25    1    1    2    0    0 -0.14062602766E+03 -0.73215678733E+02 -0.90316644723E+02  0.22117484392E+03  0.12500000000E+03 0.  0.
</event>
<event>
 4    0  0.2182372E-002  0.2294631E+03  0.7546771E-02  0.1127018E+00
         21   -1    0    0  502  501  0.00000000000E+00  0.00000000000E+00  0.10991526802E+03  0.10991526802E+03  0.00000000000E+00 0. -1.
         21   -1    0    0  501  502 -0.00000000000E+00 -0.00000000000E+00 -0.47903565784E+03  0.47903565784E+03  0.00000000000E+00 0. -1.
         25    1    1    2    0    0 -0.15836474943E+02  0.16025539820E+03 -0.31974081563E+03  0.37919886046E+03  0.12500000000E+03 0.  0.
         25    1    1    2    0    0  0.15836474943E+02 -0.16025539820E+03 -0.49379574188E+02  0.20975206540E+03  0.12500000000E+03 0.  0.
</event>
<event>
 4    0  0.2182372E-002  0.2572591E+03  0.7546771E-02  0.1108801E+00
         21   -1    0    0  502  501  0.00000000000E+00  0.00000000000E+00  0.33958535394E+02  0.33958535394E+02  0.00000000000E+00 0. -1.
         21   -1    0    0  501  502 -0.00000000000E+00 -0.00000000000E+00 -0.19489141416E+04  0.19489141416E+04  0.00000000000E+00 0. -1.
         25    1    1    2    0    0  0.21279796792E+03 -0.40646572214E+02 -0.11894186678E+04  0.12154327979E+04  0.12500000000E+03 0.  0.
         25    1    1    2    0    0 -0.21279796792E+03  0.40646572214E+02 -0.72553693842E+03  0.76743987907E+03  0.12500000000E+03 0.  0.
</event>
<event>
 4    0  0.2182372E-002  0.3709851E+03  0.7546771E-02  0.1054317E+00
         21   -1    0    0  502  501  0.00000000000E+00  0.00000000000E+00  0.70988457942E+02  0.70988457942E+02  0.00000000000E+00 0. -1.
         21   -1    0    0  501  502 -0.00000000000E+00 -0.00000000000E+00 -0.19387649846E+04  0.19387649846E+04  0.00000000000E+00 0. -1.
         25    1    1    2    0    0  0.18606949411E+03 -0.29480240798E+03 -0.99289878169E+03  0.10597185037E+04  0.12500000000E+03 0.  0.
         25    1    1    2    0    0 -0.18606949411E+03  0.29480240798E+03 -0.87487774495E+03  0.95003493883E+03  0.12500000000E+03 0.  0.
</event>
<event>
 4    0  0.2182372E-002  0.4200978E+03  0.7546771E-02  0.1037034E+00
         21   -1    0    0  502  501  0.00000000000E+00  0.00000000000E+00  0.56522569402E+03  0.56522569402E+03  0.00000000000E+00 0.  1.
         21   -1    0    0  501  502 -0.00000000000E+00 -0.00000000000E+00 -0.31223312830E+03  0.31223312830E+03  0.00000000000E+00 0.  1.
         25    1    1    2    0    0 -0.34073572765E+03 -0.21050230456E+03  0.10446245770E+03  0.43237652733E+03  0.12500000000E+03 0.  0.
         25    1    1    2    0    0  0.34073572765E+03  0.21050230456E+03  0.14853010802E+03  0.44508229498E+03  0.12500000000E+03 0.  0.
</event>
<event>
 4    0  0.2182372E-002  0.1886900E+03  0.7546771E-02  0.1159648E+00
         21   -1    0    0  502  501  0.00000000000E+00  0.00000000000E+00  0.10146186985E+03  0.10146186985E+03  0.00000000000E+00 0. -1.
         21   -1    0    0  501  502 -0.00000000000E+00 -0.00000000000E+00 -0.35090949749E+03  0.35090949749E+03  0.00000000000E+00 0. -1.
         25    1    1    2    0    0 -0.29372007462E+01  0.13909846808E+03 -0.94829791308E+02  0.20970145515E+03  0.12500000000E+03 0.  0.
         25    1    1    2    0    0  0.29372007462E+01 -0.13909846808E+03 -0.15461783633E+03  0.24266991219E+03  0.12500000000E+03 0.  0.
</event>
<event>
 4    0  0.2182372E-002  0.3026179E+03  0.7546771E-02  0.1083939E+00
         21   -1    0    0  502  501  0.00000000000E+00  0.00000000000E+00  0.12549606634E+04  0.12549606634E+04  0.00000000000E+00 0.  1.
         21   -1    0    0  501  502 -0.00000000000E+00 -0.00000000000E+00 -0.72972490449E+02  0.72972490449E+02  0.00000000000E+00 0.  1.
         25    1    1    2    0    0  0.12186484062E+03  0.10359571231E+03  0.98574440436E+02  0.22566575127E+03  0.12500000000E+03 0.  0.
         25    1    1    2    0    0 -0.12186484062E+03 -0.10359571231E+03  0.10834137326E+04  0.11022674026E+04  0.12500000000E+03 0.  0.
</event>
<event>
 4    0  0.2182372E-002  0.1962863E+03  0.7546771E-02  0.1152911E+00
         21   -1    0    0  502  501  0.00000000000E+00  0.00000000000E+00  0.79647768028E+02  0.79647768028E+02  0.00000000000E+00 0.  1.
         21   -1    0    0  501  502 -0.00000000000E+00 -0.00000000000E+00 -0.48373361243E+03  0.48373361243E+03  0.00000000000E+00 0.  1.
         25    1    1    2    0    0  0.24581898932E+02  0.11511862217E+03 -0.65544225207E+02  0.18378686673E+03  0.12500000000E+03 0.  0.
         25    1    1    2    0    0 -0.24581898932E+02 -0.11511862217E+03 -0.33854161920E+03  0.37959451373E+03  0.12500000000E+03 0.  0.
</event>
<event>
 4    0  0.2182372E-002  0.2925039E+03  0.7546771E-02  0.1089049E+00
         21   -1    0    0  502  501  0.00000000000E+00  0.00000000000E+00  0.63488320189E+02  0.63488320189E+02  0.00000000000E+00 0.  1.
         21   -1    0    0  501  502 -0.00000000000E+00 -0.00000000000E+00 -0.13476265266E+04  0.13476265266E+04  0.00000000000E+00 0.  1.
         25    1    1    2    0    0  0.90191977072E+02  0.11079660515E+03 -0.10527909275E+03  0.21706949996E+03  0.12500000000E+03 0.  0.
         25    1    1    2    0    0 -0.90191977072E+02 -0.11079660515E+03 -0.11788591136E+04  0.11940453468E+04  0.12500000000E+03 0.  0.
</event>
<event>
 4    0  0.2182372E-002  0.3170669E+03  0.7546771E-02  0.1077007E+00
         21   -1    0    0  502  501  0.00000000000E+00  0.00000000000E+00  0.68609342726E+02  0.68609342726E+02  0.00000000000E+00 0.  1.
         21   -1    0    0  501  502 -0.00000000000E+00 -0.00000000000E+00 -0.14652734010E+04  0.14652734010E+04  0.00000000000E+00 0.  1.
         25    1    1    2    0    0 -0.12857540727E+03 -0.24856333979E+03 -0.89470845601E+03  0.94575027915E+03  0.12500000000E+03 0.  0.
         25    1    1    2    0    0  0.12857540727E+03  0.24856333979E+03 -0.50195560224E+03  0.58813246455E+03  0.12500000000E+03 0.  0.
</event>
<event>
 4    0  0.2182372E-002  0.1817692E+03  0.7546771E-02  0.1166102E+00
         21   -1    0    0  502  501  0.00000000000E+00  0.00000000000E+00  0.22829291633E+04  0.22829291633E+04  0.00000000000E+00 0. -1.
         21   -1    0    0  501  502 -0.00000000000E+00 -0.00000000000E+00 -0.14472654609E+02  0.14472654609E+02  0.00000000000E+00 0. -1.
         25    1    1    2    0    0 -0.82148706860E+02  0.79577698317E+02  0.71819086511E+03  0.73790523703E+03  0.12500000000E+03 0.  0.
         25    1    1    2    0    0  0.82148706860E+02 -0.79577698317E+02  0.15502656436E+04  0.15594965809E+04  0.12500000000E+03 0.  0.
</event>
<event>
 4    0  0.2182372E-002  0.1386248E+03  0.7546771E-02  0.1215191E+00
         21   -1    0    0  502  501  0.00000000000E+00  0.00000000000E+00  0.15035551349E+03  0.15035551349E+03  0.00000000000E+00 0.  1.
         21   -1    0    0  501  502 -0.00000000000E+00 -0.00000000000E+00 -0.12780929522E+03  0.12780929522E+03  0.00000000000E+00 0.  1.
         25    1    1    2    0    0  0.39896792831E+02  0.25680579159E+02  0.48007989385E+02  0.14205989325E+03  0.12500000000E+03 0.  0.
         25    1    1    2    0    0 -0.39896792831E+02 -0.25680579159E+02 -0.25461771112E+02  0.13610491546E+03  0.12500000000E+03 0.  0.
</event>
<event>
 4    0  0.2182372E-002  0.2240666E+03  0.7546771E-02  0.1130887E+00
         21   -1    0    0  502  501  0.00000000000E+00  0.00000000000E+00  0.14391024190E+03  0.14391024190E+03  0.00000000000E+00 0. -1.
         21   -1    0    0  501  502 -0.00000000000E+00 -0.00000000000E+00 -0.34886924290E+03  0.34886924290E+03  0.00000000000E+00 0. -1.
         25    1    1    2    0    0  0.12835989644E+03 -0.10866901243E+03 -0.15229513922E+02  0.21010034595E+03  0.12500000000E+03 0.  0.
         25    1    1    2    0    0 -0.12835989644E+03  0.10866901243E+03 -0.18972948707E+03  0.28267913885E+03  0.12500000000E+03 0.  0.
</event>
<event>
 4    0  0.2182372E-002  0.2773632E+03  0.7546771E-02  0.1097138E+00
         21   -1    0    0  502  501  0.00000000000E+00  0.00000000000E+00  0.21470857035E+03  0.21470857035E+03  0.00000000000E+00 0.  1.
         21   -1    0    0  501  502 -0.00000000000E+00 -0.00000000000E+00 -0.35830126371E+03  0.35830126371E+03  0.00000000000E+00 0.  1.
         25    1    1    2    0    0 -0.16928907602E+03 -0.69774223791E+02 -0.24395728977E+03  0.32964737645E+03  0.12500000000E+03 0.  0.
         25    1    1    2    0    0  0.16928907602E+03  0.69774223791E+02  0.10036459641E+03  0.24336245762E+03  0.12500000000E+03 0.  0.
</event>
<event>
 4    0  0.2182372E-002  0.2131649E+03  0.7546771E-02  0.1139084E+00
         21   -1    0    0  502  501  0.00000000000E+00  0.00000000000E+00  0.58029883698E+03  0.58029883698E+03  0.00000000000E+00 0. -1.
         21   -1    0    0  501  502 -0.00000000000E+00 -0.00000000000E+00 -0.78303196116E+02  0.78303196116E+02  0.00000000000E+00 0. -1.
         25    1    1    2    0    0 -0.18900424471E+02 -0.14573857035E+03  0.11096109044E+03  0.22256307089E+03  0.12500000000E+03 0.  0.
         25    1    1    2    0    0  0.18900424471E+02  0.14573857035E+03  0.39103455043E+03  0.43603896220E+03  0.12500000000E+03 0.  0.
</event>
<event>
 4    0  0.2182372E-002  0.2155060E+03  0.7546771E-02  0.1137279E+00
         21   -1    0    0  502  501  0.00000000000E+00  0.00000000000E+00  0.36604857513E+03  0.36604857513E+03  0.00000000000E+00 0. -1.
         21   -1    0    0  501  502 -0.00000000000E+00 -0.00000000000E+00 -0.12687620186E+03  0.12687620186E+03  0.00000000000E+00 0. -1.
         25    1    1    2    0    0  0.85245777259E+02  0.95445450885E+02  0.25701965051E+03  0.31314657492E+03  0.12500000000E+03 0.  0.
         25    1    1    2    0    0 -0.85245777259E+02 -0.95445450885E+02 -0.17847277231E+02  0.17977820207E+03  0.12500000000E+03 0.  0.
</event>
<event>
 4    0  0.2182372E-002  0.2002157E+03  0.7546771E-02  0.1149557E+00
         21   -1    0    0  502  501  0.00000000000E+00  0.00000000000E+00  0.10944118203E+04  0.10944118203E+04  0.00000000000E+00 0. -1.
         21   -1    0    0  501  502 -0.00000000000E+00 -0.00000000000E+00 -0.36628202949E+02  0.36628202949E+02  0.00000000000E+00 0. -1.
         25    1    1    2    0    0 -0.96687417420E+02  0.11800717711E+03  0.43157015428E+03  0.47450178989E+03  0.12500000000E+03 0.  0.
         25    1    1    2    0    0  0.96687417420E+02 -0.11800717711E+03  0.62621346303E+03  0.65653823333E+03  0.12500000000E+03 0.  0.
</event>
<event>
 4    0  0.2182372E-002  0.2806279E+03  0.7546771E-02  0.1095346E+00
         21   -1    0    0  502  501  0.00000000000E+00  0.00000000000E+00  0.89047608724E+02  0.89047608724E+02  0.00000000000E+00 0. -1.
         21   -1    0    0  501  502 -0.00000000000E+00 -0.00000000000E+00 -0.88438127906E+03  0.88438127906E+03  0.00000000000E+00 0. -1.
         25    1    1    2    0    0  0.28370549020E+01  0.47489922081E+01  0.37991220652E+02  0.13076289479E+03  0.12500000000E+03 0.  0.
         25    1    1    2    0    0 -0.28370549020E+01 -0.47489922081E+01 -0.83332489099E+03  0.84266599300E+03  0.12500000000E+03 0.  0.
</event>
<event>
 4    0  0.2182372E-002  0.1631575E+03  0.7546771E-02  0.1185177E+00
         21   -1    0    0  502  501  0.00000000000E+00  0.00000000000E+00  0.10688542599E+02  0.10688542599E+02  0.00000000000E+00 0. -1.
         21   -1    0    0  501  502 -0.00000000000E+00 -0.00000000000E+00 -0.24905520088E+04  0.24905520088E+04  0.00000000000E+00 0. -1.
         25    1    1    2    0    0  0.63507997857E+02  0.31510086097E+02 -0.64771973555E+03  0.66346967311E+03  0.12500000000E+03 0.  0.
         25    1    1    2    0    0 -0.63507997857E+02 -0.31510086097E+02 -0.18321437307E+04  0.18377708783E+04  0.12500000000E+03 0.  0.
</event>
<event>
 4    0  0.2182372E-002  0.2638669E+03  0.7546771E-02  0.1104842E+00
         21   -1    0    0  502  501  0.00000000000E+00  0.00000000000E+00  0.55800389636E+03  0.55800389636E+03  0.00000000000E+00 0.  1.
         21   -1    0    0  501  502 -0.00000000000E+00 -0.00000000000E+00 -0.12477646456E+03  0.12477646456E+03  0.00000000000E+00 0.  1.
         25    1    1    2    0    0 -0.87341390590E+02 -0.11141145047E+03 -0.21809282186E+02  0.19010963835E+03  0.12500000000E+03 0.  0.
         25    1    1    2    0    0  0.87341390590E+02  0.11141145047E+03  0.45503671398E+03  0.49267072257E+03  0.12500000000E+03 0.  0.
</event>
<event>
 4    0  0.2182372E-002  0.2325568E+03  0.7546771E-02  0.1124853E+00
         21   -1    0    0  502  501  0.00000000000E+00  0.00000000000E+00  0.13779865657E+03  0.13779865657E+03  0.00000000000E+00 0. -1.
         21   -1    0    0  501  502 -0.00000000000E+00 -0.00000000000E+00 -0.39247596464E+03  0.39247596464E+03  0.00000000000E+00 0. -1.
         25    1    1    2    0    0  0.74823724426E+02 -0.17916403185E+03 -0.15875490940E+03  0.28022573276E+03  0.12500000000E+03 0.  0.
         25    1    1    2    0    0 -0.74823724426E+02  0.17916403185E+03 -0.95922398673E+02  0.25004888844E+03  0.12500000000E+03 0.  0.
</event>
<event>
 4    0  0.2182372E-002  0.2341878E+03  0.7546771E-02  0.1123726E+00
         21   -1    0    0  502  501  0.00000000000E+00  0.00000000000E+00  0.10235644000E+03  0.10235644000E+03  0.00000000000E+00 0.  1.
         21   -1    0    0  501  502 -0.00000000000E+00 -0.00000000000E+00 -0.53581323699E+03  0.53581323699E+03  0.00000000000E+00 0.  1.
         25    1    1    2    0    0  0.64931368254E+02  0.17648270724E+03 -0.13211284863E+03  0.26161237224E+03  0.12500000000E+03 0.  0.
         25    1    1    2    0    0 -0.64931368254E+02 -0.17648270724E+03 -0.30134394837E+03  0.37655730474E+03  0.12500000000E+03 0.  0.
</event>
<event>
 4    0  0.2182372E-002  0.2011905E+03  0.7546771E-02  0.1148738E+00
         21   -1    0    0  502  501  0.00000000000E+00  0.00000000000E+00  0.81863451778E+02  0.81863451778E+02  0.00000000000E+00 0.  1.
         21   -1    0    0  501  502 -0.00000000000E+00 -0.00000000000E+00 -0.49445266349E+03  0.49445266349E+03  0.00000000000E+00 0.  1.
         25    1    1    2    0    0  0.12778617149E+03 -0.92255447290E+02 -0.21130315198E+03  0.29174371495E+03  0.12500000000E+03 0.  0.
         25    1    1    2    0    0 -0.12778617149E+03  0.92255447290E+02 -0.20128605973E+03  0.28457240031E+03  0.12500000000E+03 0.  0.
</event>
<event>
 4    0  0.2182372E-002  0.2687074E+03  0.7546771E-02  0.1102022E+00
         21   -1    0    0  502  501  0.00000000000E+00  0.00000000000E+00  0.18240248671E+03  0.18240248671E+03  0.00000000000E+00 0. -1.
         21   -1    0    0  501  502 -0.00000000000E+00 -0.00000000000E+00 -0.39584803389E+03  0.39584803389E+03  0.00000000000E+00 0. -1.
         25    1    1    2    0    0 -0.82289896711E+02  0.96037713760E+02 -0.32348457288E+03  0.36913701854E+03  0.12500000000E+03 0.  0.
         25    1    1    2    0    0  0.82289896711E+02 -0.96037713760E+02  0.11003902570E+03  0.20911350206E+03  0.12500000000E+03 0.  0.
</event>
<event>
 4    0  0.2182372E-002  0.3081301E+03  0.7546771E-02  0.1081246E+00
         21   -1    0    0  502  501  0.00000000000E+00  0.00000000000E+00  0.17090770593E+03  0.17090770593E+03  0.00000000000E+00 0.  1.
         21   -1    0    0  501  502 -0.00000000000E+00 -0.00000000000E+00 -0.55552884805E+03  0.55552884805E+03  0.00000000000E+00 0.  1.
         25    1    1    2    0    0  0.10912531442E+03 -0.25793973783E+03 -0.22723751913E+03  0.38171079720E+03  0.12500000000E+03 0.  0.
         25    1    1    2    0    0 -0.10912531442E+03  0.25793973783E+03 -0.15738362300E+03  0.34472575678E+03  0.12500000000E+03 0.  0.
</event>
<event>
 4    0  0.2182372E-002  0.2900189E+03  0.7546771E-02  0.1090339E+00
         21   -1    0    0  502  501  0.00000000000E+00  0.00000000000E+00  0.15573190889E+04  0.15573190889E+04  0.00000000000E+00 0. -1.
         21   -1    0    0  501  502 -0.00000000000E+00 -0.00000000000E+00 -0.54010098330E+02  0.54010098330E+02  0.00000000000E+00 0. -1.
         25    1    1    2    0    0 -0.25371013150E+03 -0.59621323083E+02  0.68577352852E+03  0.74420015145E+03  0.12500000000E+03 0.  0.
         25    1    1    2    0    0  0.25371013150E+03  0.59621323083E+02  0.81753546207E+03  0.86712903581E+03  0.12500000000E+03 0.  0.
</event>
<event>
 4    0  0.2182372E-002  0.1607470E+03  0.7546771E-02  0.1187856E+00
         21   -1    0    0  502  501  0.00000000000E+00  0.00000000000E+00  0.11064882869E+03  0.11064882869E+03  0.00000000000E+00 0. -1.
         21   -1    0    0  501  502 -0.00000000000E+00 -0.00000000000E+00 -0.23352789710E+03  0.23352789710E+03  0.00000000000E+00 0. -1.
         25    1    1    2    0    0  0.38749572967E+02 -0.49374984331E+02 -0.14624453240E+03  0.20236571285E+03  0.12500000000E+03 0.  0.
         25    1    1    2    0    0 -0.38749572967E+02  0.49374984331E+02  0.23365463988E+02  0.14181101294E+03  0.12500000000E+03 0.  0.
</event>
<event>
 4    0  0.2182372E-002  0.1773731E+03  0.7546771E-02  0.1170370E+00
         21   -1    0    0  502  501  0.00000000000E+00  0.00000000000E+00  0.20011771407E+03  0.20011771407E+03  0.00000000000E+00 0.  1.
         21   -1    0    0  501  502 -0.00000000000E+00 -0.00000000000E+00 -0.15721359383E+03  0.15721359383E+03  0.00000000000E+00 0.  1.
         25    1    1    2    0    0  0.42221281912E+02  0.10800347158E+03 -0.27779846330E+02  0.17275446849E+03  0.12500000000E+03 0.  0.
         25    1    1    2    0    0 -0.42221281912E+02 -0.10800347158E+03  0.70683966569E+02  0.18457683942E+03  0.12500000000E+03 0.  0.
</event>
<event>
 4    0  0.2182372E-002  0.2439700E+03  0.7546771E-02  0.1117176E+00
         21   -1    0    0  502  501  0.00000000000E+00  0.00000000000E+00  0.85825494079E+03  0.85825494079E+03  0.00000000000E+00 0. -1.
         21   -1    0    0  501  502 -0.00000000000E+00 -0.00000000000E+00 -0.69351616363E+02  0.69351616363E+02  0.00000000000E+00 0. -1.
         25    1    1    2    0    0  0.10082104227E+03 -0.18174040965E+03  0.34408565045E+03  0.42096840014E+03  0.12500000000E+03 0.  0.
         25    1    1    2    0    0 -0.10082104227E+03  0.18174040965E+03  0.44481767397E+03  0.50663815702E+03  0.12500000000E+03 0.  0.
</event>
<event>
 4    0  0.2182372E-002  0.2914207E+03  0.7546771E-02  0.1089610E+00
         21   -1    0    0  502  501  0.00000000000E+00  0.00000000000E+00  0.19821205609E+03  0.19821205609E+03  0.00000000000E+00 0.  1.
         21   -1    0    0  501  502 -0.00000000000E+00 -0.00000000000E+00 -0.42846035075E+03  0.42846035075E+03  0.00000000000E+00 0.  1.
         25    1    1    2    0    0 -0.40470291782E+02 -0.21994099881E+03 -0.26445392797E+03  0.36820207426E+03  0.12500000000E+03 0.  0.
         25    1    1    2    0    0  0.40470291782E+02  0.21994099881E+03  0.34205633302E+02  0.25847033258E+03  0.12500000000E+03 0.  0.
</event>
<event>
 4    0  0.2182372E-002  0.3204120E+03  0.7546771E-02  0.1075460E+00
         21   -1    0    0  502  501  0.00000000000E+00  0.00000000000E+00  0.70283586512E+02  0.70283586512E+02  0.00000000000E+00 0.  1.
         21   -1    0    0  501  502 -0.00000000000E+00 -0.00000000000E+00 -0.14607089449E+04  0.14607089449E+04  0.00000000000E+00 0. -1.
         25    1    1    2    0    0 -0.19809534742E+03  0.17611029810E+03 -0.10047118528E+04  0.10465789559E+04  0.12500000000E+03 0.  0.
         25    1    1    2    0    0  0.19809534742E+03 -0.17611029810E+03 -0.38571350566E+03  0.48441357559E+03  0.12500000000E+03 0.  0.
</event>
<event>
 4    0  0.2182372E-002  0.2057556E+03  0.7546771E-02  0.1144972E+00
         21   -1    0    0  502  501  0.00000000000E+00  0.00000000000E+00  0.37303858685E+03  0.37303858685E+03  0.00000000000E+00 0.  1.
         21   -1    0    0  501  502 -0.00000000000E+00 -0.00000000000E+00 -0.11348795261E+03  0.11348795261E+03  0.00000000000E+00 0.  1.
         25    1    1    2    0    0 -0.11546484770E+03 -0.11462780835E+03  0.14804239799E+03  0.25300833406E+03  0.12500000000E+03 0.  0.
         25    1    1    2    0    0  0.11546484770E+03  0.11462780835E+03  0.11150823625E+03  0.23351820540E+03  0.12500000000E+03 0.  0.
</event>
<event>
 4    0  0.2182372E-002  0.1478996E+03  0.7546771E-02  0.1203078E+00
         21   -1    0    0  502  501  0.00000000000E+00  0.00000000000E+00  0.24568631335E+03  0.24568631335E+03  0.00000000000E+00 0.  1.
         21   -1    0    0  501  502 -0.00000000000E+00 -0.00000000000E+00 -0.89033445629E+02  0.89033445629E+02  0.00000000000E+00 0.  1.
         25    1    1    2    0    0  0.28019383653E+01  0.74975232234E+02  0.10650618205E+03  0.18054834013E+03  0.12500000000E+03 0.  0.
         25    1    1    2    0    0 -0.28019383653E+01 -0.74975232234E+02  0.50146685668E+02  0.15417141885E+03  0.12500000000E+03 0.  0.
</event>
<event>
 4    0  0.2182372E-002  0.2076256E+03  0.7546771E-02  0.1143460E+00
         21   -1    0    0  502  501  0.00000000000E+00  0.00000000000E+00  0.13274092596E+03  0.13274092596E+03  0.00000000000E+00 0.  1.
         21   -1    0    0  501  502 -0.00000000000E+00 -0.00000000000E+00 -0.32475586475E+03  0.32475586475E+03  0.00000000000E+00 0.  1.
         25    1    1    2    0    0 -0.13274409519E+03 -0.84567389638E+02 -0.15336921346E+03  0.25282356266E+03  0.12500000000E+03 0.  0.
         25    1    1    2    0    0  0.13274409519E+03  0.84567389638E+02 -0.38645725338E+02  0.20467322806E+03  0.12500000000E+03 0.  0.
</event>
<event>
 4    0  0.2182372E-002  0.2551678E+03  0.7546771E-02  0.1110082E+00
         21   -1    0    0  502  501  0.00000000000E+00  0.00000000000E+00  0.31266958692E+03  0.31266958692E+03  0.00000000000E+00 0. -1.
         21   -1    0    0  501  502 -0.00000000000E+00 -0.00000000000E+00 -0.20824094946E+03  0.20824094946E+03  0.00000000000E+00 0. -1.
         25    1    1    2    0    0  0.66528642859E+02  0.10230521058E+03 -0.13763218242E+03  0.22239611973E+03  0.12500000000E+03 0.  0.
         25    1    1    2    0    0 -0.66528642859E+02 -0.10230521058E+03  0.24206081988E+03  0.29851441666E+03  0.12500000000E+03 0.  0.
</event>
<event>
 4    0  0.2182372E-002  0.2292264E+03  0.7546771E-02  0.1127185E+00
         21   -1    0    0  502  501  0.00000000000E+00  0.00000000000E+00  0.57585970990E+02  0.57585970990E+02  0.00000000000E+00 0. -1.
         21   -1    0    0  501  502 -0.00000000000E+00 -0.00000000000E+00 -0.91245729839E+03  0.91245729839E+03  0.00000000000E+00 0. -1.
         25    1    1    2    0    0 -0.68295147826E+02 -0.14965514971E+03 -0.63752769735E+03  0.67016972174E+03  0.12500000000E+03 0.  0.
         25    1    1    2    0    0  0.68295147826E+02  0.14965514971E+03 -0.21734363005E+03  0.29987354764E+03  0.12500000000E+03 0.  0.
</event>
<event>
 4    0  0.2182372E-002  0.2286720E+03  0.7546771E-02  0.1127578E+00
         21   -1    0    0  502  501  0.00000000000E+00  0.00000000000E+00  0.10147203669E+03  0.10147203669E+03  0.00000000000E+00 0.  1.
         21   -1    0    0  501  502 -0.00000000000E+00 -0.00000000000E+00 -0.51532323925E+03  0.51532323925E+03  0.00000000000E+00 0.  1.
         25    1    1    2    0    0 -0.15576703776E+02 -0.53041403176E+02  0.40321629290E+02  0.14250213311E+03  0.12500000000E+03 0.  0.
         25    1    1    2    0    0  0.15576703776E+02  0.53041403176E+02 -0.45417283185E+03  0.47429314284E+03  0.12500000000E+03 0.  0.
</event>
<event>
 4    0  0.2182372E-002  0.1818069E+03  0.7546771E-02  0.1166066E+00
         21   -1    0    0  502  501  0.00000000000E+00  0.00000000000E+00  0.32213929739E+03  0.32213929739E+03  0.00000000000E+00 0.  1.
         21   -1    0    0  501  502 -0.00000000000E+00 -0.00000000000E+00 -0.10260697247E+03  0.10260697247E+03  0.00000000000E+00 0.  1.
         25    1    1    2    0    0  0.11917772198E+03 -0.55900448426E+02  0.98052923054E+02  0.20631908605E+03  0.12500000000E+03 0.  0.
         25    1    1    2    0    0 -0.11917772198E+03  0.55900448426E+02  0.12147940186E+03  0.21842718381E+03  0.12500000000E+03 0.  0.
</event>
<event>
 4    0  0.2182372E-002  0.2599873E+03  0.7546771E-02  0.1107151E+00
         21   -1    0    0  502  501  0.00000000000E+00  0.00000000000E+00  0.49242330376E+03  0.49242330376E+03  0.00000000000E+00 0. -1.
         21   -1    0    0  501  502 -0.00000000000E+00 -0.00000000000E+00 -0.13726689875E+03  0.13726689875E+03  0.00000000000E+00 0. -1.
         25    1    1    2    0    0  0.96571728548E+02  0.14625229731E+03  0.35412125341E+03  0.41441850265E+03  0.12500000000E+03 0.  0.
         25    1    1    2    0    0 -0.96571728548E+02 -0.14625229731E+03  0.10351515913E+01  0.21527169986E+03  0.12500000000E+03 0.  0.
</event>
<event>
 4    0  0.2182372E-002  0.2369687E+03  0.7546771E-02  0.1121829E+00
         21   -1    0    0  502  501  0.00000000000E+00  0.00000000000E+00  0.10496145268E+03  0.10496145268E+03  0.00000000000E+00 0. -1.
         21   -1    0    0  501  502 -0.00000000000E+00 -0.00000000000E+00 -0.53499796377E+03  0.53499796377E+03  0.00000000000E+00 0. -1.
         25    1    1    2    0    0 -0.57834844340E+02 -0.54180067085E+02  0.34874824067E+02  0.15205789109E+03  0.12500000000E+03 0.  0.
         25    1    1    2    0    0  0.57834844340E+02  0.54180067085E+02 -0.46491133516E+03  0.48790152536E+03  0.12500000000E+03 0.  0.
</event>
<event>
 4    0  0.2182372E-002  0.2454970E+03  0.7546771E-02  0.1116184E+00
         21   -1    0    0  502  501  0.00000000000E+00  0.00000000000E+00  0.17389819415E+03  0.17389819415E+03  0.00000000000E+00 0. -1.
         21   -1    0    0  501  502 -0.00000000000E+00 -0.00000000000E+00 -0.34657495163E+03  0.34657495163E+03  0.00000000000E+00 0. -1.
         25    1    1    2    0    0  0.36610607492E+02  0.23251538190E+00 -0.30692696893E+03  0.33342098749E+03  0.12500000000E+03 0.  0.
         25    1    1    2    0    0 -0.36610607492E+02 -0.23251538190E+00  0.13425021145E+03  0.18705215829E+03  0.12500000000E+03 0.  0.
</event>
<event>
 4    0  0.2182372E-002  0.2655845E+03  0.7546771E-02  0.1103834E+00
         21   -1    0    0  502  501  0.00000000000E+00  0.00000000000E+00  0.45522217218E+03  0.45522217218E+03  0.00000000000E+00 0. -1.
         21   -1    0    0  501  502 -0.00000000000E+00 -0.00000000000E+00 -0.15494654593E+03  0.15494654593E+03  0.00000000000E+00 0. -1.
         25    1    1    2    0    0  0.95836916061E+02  0.80528362087E+02  0.37769206382E+03  0.41706813191E+03  0.12500000000E+03 0.  0.
         25    1    1    2    0    0 -0.95836916061E+02 -0.80528362087E+02 -0.77416437573E+02  0.19310058619E+03  0.12500000000E+03 0.  0.
</event>
<event>
 4    0  0.2182372E-002  0.2506400E+03  0.7546771E-02  0.1112901E+00
         21   -1    0    0  502  501  0.00000000000E+00  0.00000000000E+00  0.22725908049E+02  0.22725908049E+02  0.00000000000E+00 0. -1.
         21   -1    0    0  501  502 -0.00000000000E+00 -0.00000000000E+00 -0.27642631034E+04  0.27642631034E+04  0.00000000000E+00 0. -1.
         25    1    1    2    0    0  0.15298731902E+00 -0.18218620929E+03 -0.71284716248E+03  0.74630283084E+03  0.12500000000E+03 0.  0.
         25    1    1    2    0    0 -0.15298731902E+00  0.18218620929E+03 -0.20286900328E+04  0.20406861806E+04  0.12500000000E+03 0.  0.
</event>
<event>
 4    0  0.2182372E-002  0.2618609E+03  0.7546771E-02  0.1106030E+00
         21   -1    0    0  502  501  0.00000000000E+00  0.00000000000E+00  0.27796865112E+03  0.27796865112E+03  0.00000000000E+00 0.  1.
         21   -1    0    0  501  502 -0.00000000000E+00 -0.00000000000E+00 -0.24668658779E+03  0.24668658779E+03  0.00000000000E+00 0.  1.
         25    1    1    2    0    0  0.63868921188E+01 -0.22984860558E+03  0.24314648447E+02  0.26284477550E+03  0.12500000000E+03 0.  0.
         25    1    1    2    0    0 -0.63868921188E+01  0.22984860558E+03  0.69674148776E+01  0.26181046341E+03  0.12500000000E+03 0.  0.
</event>
<event>
 4    0  0.2182372E-002  0.4196690E+03  0.7546771E-02  0.1037174E+00
         21   -1    0    0  502  501  0.00000000000E+00  0.00000000000E+00  0.17327466981E+04  0.17327466981E+04  0.00000000000E+00 0. -1.
         21   -1    0    0  501  502 -0.00000000000E+00 -0.00000000000E+00 -0.10164326266E+03  0.10164326266E+03  0.00000000000E+00 0. -1.
         25    1    1    2    0    0 -0.32213954108E+03  0.10606188966E+03  0.12816059992E+04  0.13316012713E+04  0.12500000000E+03 0.  0.
         25    1    1    2    0    0  0.32213954108E+03 -0.10606188966E+03  0.34949743619E+03  0.50278868948E+03  0.12500000000E+03 0.  0.
</event>
<event>
 4    0  0.2182372E-002  0.1751360E+03  0.7546771E-02  0.1172595E+00
         21   -1    0    0  502  501  0.00000000000E+00  0.00000000000E+00  0.18314576838E+02  0.18314576838E+02  0.00000000000E+00 0. -1.
         21   -1    0    0  501  502 -0.00000000000E+00 -0.00000000000E+00 -0.16747659773E+04  0.16747659773E+04  0.00000000000E+00 0. -1.
         25    1    1    2    0    0  0.12047605938E+03  0.11444924921E+02 -0.73129236292E+03  0.75170405564E+03  0.12500000000E+03 0.  0.
         25    1    1    2    0    0 -0.12047605938E+03 -0.11444924921E+02 -0.92515903749E+03  0.94137649846E+03  0.12500000000E+03 0.  0.
</event>
<event>
 4    0  0.2182372E-002  0.2332404E+03  0.7546771E-02  0.1124380E+00
         21   -1    0    0  502  501  0.00000000000E+00  0.00000000000E+00  0.14993325948E+03  0.14993325948E+03  0.00000000000E+00 0. -1.
         21   -1    0    0  501  502 -0.00000000000E+00 -0.00000000000E+00 -0.36283544187E+03  0.36283544187E+03  0.00000000000E+00 0. -1.
         25    1    1    2    0    0 -0.78772209185E+02  0.66413267394E+02  0.78010709337E+02  0.17979558893E+03  0.12500000000E+03 0.  0.
         25    1    1    2    0    0  0.78772209185E+02 -0.66413267394E+02 -0.29091289173E+03  0.33297311243E+03  0.12500000000E+03 0.  0.
</event>
<event>
 4    0  0.2182372E-002  0.1722436E+03  0.7546771E-02  0.1175528E+00
         21   -1    0    0  502  501  0.00000000000E+00  0.00000000000E+00  0.67130915971E+02  0.67130915971E+02  0.00000000000E+00 0.  1.
         21   -1    0    0  501  502 -0.00000000000E+00 -0.00000000000E+00 -0.44194034949E+03  0.44194034949E+03  0.00000000000E+00 0.  1.
         25    1    1    2    0    0 -0.11095482584E+03 -0.19175982630E+02 -0.13282396319E+03  0.21434994025E+03  0.12500000000E+03 0.  0.
         25    1    1    2    0    0  0.11095482584E+03  0.19175982630E+02 -0.24198547033E+03  0.29472132522E+03  0.12500000000E+03 0.  0.
</event>
<event>
 4    0  0.2182372E-002  0.1755309E+03  0.7546771E-02  0.1172200E+00
         21   -1    0    0  502  501  0.00000000000E+00  0.00000000000E+00  0.73332928105E+02  0.73332928105E+02  0.00000000000E+00 0. -1.
         21   -1    0    0  501  502 -0.00000000000E+00 -0.00000000000E+00 -0.42015343898E+03  0.42015343898E+03  0.00000000000E+00 0. -1.
         25    1    1    2    0    0  0.69565117886E+02 -0.83282230811E+01 -0.30904082003E+02  0.14659033805E+03  0.12500000000E+03 0.  0.
         25    1    1    2    0    0 -0.69565117886E+02  0.83282230811E+01 -0.31591642888E+03  0.34689602903E+03  0.12500000000E+03 0.  0.
</event>
<event>
 4    0  0.2182372E-002  0.2527613E+03  0.7546771E-02  0.1111572E+00
         21   -1    0    0  502  501  0.00000000000E+00  0.00000000000E+00  0.94701737041E+02  0.94701737041E+02  0.00000000000E+00 0.  1.
         21   -1    0    0  501  502 -0.00000000000E+00 -0.00000000000E+00 -0.67462610777E+03  0.67462610777E+03  0.00000000000E+00 0.  1.
         25    1    1    2    0    0  0.18013808063E+03 -0.16400936488E+01 -0.48132099864E+03  0.52891144980E+03  0.12500000000E+03 0.  0.
         25    1    1    2    0    0 -0.18013808063E+03  0.16400936488E+01 -0.98603372093E+02  0.24041639501E+03  0.12500000000E+03 0.  0.
</event>
<event>
 4    0  0.2182372E-002  0.2348910E+03  0.7546771E-02  0.1123244E+00
         21   -1    0    0  502  501  0.00000000000E+00  0.00000000000E+00  0.14129540713E+03  0.14129540713E+03  0.00000000000E+00 0. -1.
         21   -1    0    0  501  502 -0.00000000000E+00 -0.00000000000E+00 -0.39048529535E+03  0.39048529535E+03  0.00000000000E+00 0. -1.
         25    1    1    2    0    0  0.15188027675E+03  0.11822323645E+03 -0.18124369970E+03  0.29243568657E+03  0.12500000000E+03 0.  0.
         25    1    1    2    0    0 -0.15188027675E+03 -0.11822323645E+03 -0.67946188530E+02  0.23934501591E+03  0.12500000000E+03 0.  0.
</event>
<event>
 4    0  0.2182372E-002  0.2167440E+03  0.7546771E-02  0.1136334E+00
         21   -1    0    0  502  501  0.00000000000E+00  0.00000000000E+00  0.67105186556E+02  0.67105186556E+02  0.00000000000E+00 0.  1.
         21   -1    0    0  501  502 -0.00000000000E+00 -0.00000000000E+00 -0.70006436164E+03  0.70006436164E+03  0.00000000000E+00 0.  1.
         25    1    1    2    0    0  0.69544603227E+00  0.27054440452E+01 -0.62980778727E+03  0.64209863104E+03  0.12500000000E+03 0.  0.
         25    1    1    2    0    0 -0.69544603227E+00 -0.27054440452E+01 -0.31513878076E+01  0.12507091715E+03  0.12500000000E+03 0.  0.
</event>
<event>
 4    0  0.2182372E-002  0.4218207E+03  0.7546771E-02  0.1036475E+00
         21   -1    0    0  502  501  0.00000000000E+00  0.00000000000E+00  0.90781838162E+03  0.90781838162E+03  0.00000000000E+00 0.  1.
         21   -1    0    0  501  502 -0.00000000000E+00 -0.00000000000E+00 -0.19600030262E+03  0.19600030262E+03  0.00000000000E+00 0.  1.
         25    1    1    2    0    0 -0.35463485599E+03 -0.32487803309E+02  0.60238268427E+03  0.71085247186E+03  0.12500000000E+03 0.  0.
         25    1    1    2    0    0  0.35463485599E+03  0.32487803309E+02  0.10943539473E+03  0.39296621237E+03  0.12500000000E+03 0.  0.
</event>
<event>
 4    0  0.2182372E-002  0.2933939E+03  0.7546771E-02  0.1088590E+00
         21   -1    0    0  502  501  0.00000000000E+00  0.00000000000E+00  0.58000010210E+03  0.58000010210E+03  0.00000000000E+00 0. -1.
         21   -1    0    0  501  502 -0.00000000000E+00 -0.00000000000E+00 -0.14841369136E+03  0.14841369136E+03  0.00000000000E+00 0. -1.
         25    1    1    2    0    0  0.12607815586E+03 -0.47643037858E+02  0.49965304844E+03  0.53239433624E+03  0.12500000000E+03 0.  0.
         25    1    1    2    0    0 -0.12607815586E+03  0.47643037858E+02 -0.68066637706E+02  0.19601945722E+03  0.12500000000E+03 0.  0.
</event>
<event>
 4    0  0.2182372E-002  0.2587239E+03  0.7546771E-02  0.1107912E+00
         21   -1    0    0  502  501  0.00000000000E+00  0.00000000000E+00  0.33063431572E+03  0.33063431572E+03  0.00000000000E+00 0.  1.
         21   -1    0    0  501  502 -0.00000000000E+00 -0.00000000000E+00 -0.20245352350E+03  0.20245352350E+03  0.00000000000E+00 0.  1.
         25    1    1    2    0    0 -0.17385129271E+03 -0.13213303374E+03  0.12615811942E+03  0.28146808287E+03  0.12500000000E+03 0.  0.
         25    1    1    2    0    0  0.17385129271E+03  0.13213303374E+03  0.20226728078E+01  0.25161975635E+03  0.12500000000E+03 0.  0.
</event>
<event>
 4    0  0.2182372E-002  0.2317416E+03  0.7546771E-02  0.1125420E+00
         21   -1    0    0  502  501  0.00000000000E+00  0.00000000000E+00  0.22301641068E+03  0.22301641068E+03  0.00000000000E+00 0. -1.
         21   -1    0    0  501  502 -0.00000000000E+00 -0.00000000000E+00 -0.24080810642E+03  0.24080810642E+03  0.00000000000E+00 0.  1.
         25    1    1    2    0    0 -0.15440146430E+03  0.11932124931E+03 -0.10233560033E+02  0.23196357142E+03  0.12500000000E+03 0.  0.
         25    1    1    2    0    0  0.15440146430E+03 -0.11932124931E+03 -0.75581357143E+01  0.23186094568E+03  0.12500000000E+03 0.  0.
</event>
<event>
 4    0  0.2182372E-002  0.2389289E+03  0.7546771E-02  0.1120508E+00
         21   -1    0    0  502  501  0.00000000000E+00  0.00000000000E+00  0.14062586375E+04  0.14062586375E+04  0.00000000000E+00 0.  1.
         21   -1    0    0  501  502 -0.00000000000E+00 -0.00000000000E+00 -0.40594960356E+02  0.40594960356E+02  0.00000000000E+00 0.  1.
         25    1    1    2    0    0  0.19634836867E+03  0.16030586620E+02  0.83876608823E+03  0.87061082715E+03  0.12500000000E+03 0.  0.
         25    1    1    2    0    0 -0.19634836867E+03 -0.16030586620E+02  0.52689758890E+03  0.57624277069E+03  0.12500000000E+03 0.  0.
</event>
<event>
 4    0  0.2182372E-002  0.1722257E+03  0.7546771E-02  0.1175546E+00
         21   -1    0    0  502  501  0.00000000000E+00  0.00000000000E+00  0.11537208560E+03  0.11537208560E+03  0.00000000000E+00 0. -1.
         21   -1    0    0  501  502 -0.00000000000E+00 -0.00000000000E+00 -0.25709596717E+03  0.25709596717E+03  0.00000000000E+00 0. -1.
         25    1    1    2    0    0  0.17130629743E+02 -0.76457168311E+02 -0.16695830796E+03  0.22279863927E+03  0.12500000000E+03 0.  0.
         25    1    1    2    0    0 -0.17130629743E+02  0.76457168311E+02  0.25234426395E+02  0.14966941350E+03  0.12500000000E+03 0.  0.
</event>
<event>
 4    0  0.2182372E-002  0.2231679E+03  0.7546771E-02  0.1131543E+00
         21   -1    0    0  502  501  0.00000000000E+00  0.00000000000E+00  0.61859096377E+02  0.61859096377E+02  0.00000000000E+00 0. -1.
         21   -1    0    0  501  502 -0.00000000000E+00 -0.00000000000E+00 -0.80511830875E+03  0.80511830875E+03  0.00000000000E+00 0. -1.
         25    1    1    2    0    0 -0.17496233710E+03 -0.56002147544E+02 -0.41194767110E+03  0.46805335557E+03  0.12500000000E+03 0.  0.
         25    1    1    2    0    0  0.17496233710E+03  0.56002147544E+02 -0.33131154127E+03  0.39892404955E+03  0.12500000000E+03 0.  0.
</event>
<event>
 4    0  0.2182372E-002  0.2246953E+03  0.7546771E-02  0.1130430E+00
         21   -1    0    0  502  501  0.00000000000E+00  0.00000000000E+00  0.55216667395E+03  0.55216667395E+03  0.00000000000E+00 0.  1.
         21   -1    0    0  501  502 -0.00000000000E+00 -0.00000000000E+00 -0.91436130158E+02  0.91436130158E+02  0.00000000000E+00 0.  1.
         25    1    1    2    0    0 -0.15843976189E+03 -0.17037586223E+02  0.36973180781E+03  0.42156855575E+03  0.12500000000E+03 0.  0.
         25    1    1    2    0    0  0.15843976189E+03  0.17037586223E+02  0.90998735976E+02  0.22203424835E+03  0.12500000000E+03 0.  0.
</event>
<event>
 4    0  0.2182372E-002  0.2622329E+03  0.7546771E-02  0.1105809E+00
         21   -1    0    0  502  501  0.00000000000E+00  0.00000000000E+00  0.68843349252E+02  0.68843349252E+02  0.00000000000E+00 0.  1.
         21   -1    0    0  501  502 -0.00000000000E+00 -0.00000000000E+00 -0.99887774514E+03  0.99887774514E+03  0.00000000000E+00 0.  1.
         25    1    1    2    0    0  0.12060885866E+03  0.58076537136E+02 -0.84708977936E+03  0.86666341520E+03  0.12500000000E+03 0.  0.
         25    1    1    2    0    0 -0.12060885866E+03 -0.58076537136E+02 -0.82944616533E+02  0.20105767920E+03  0.12500000000E+03 0.  0.
</event>
<event>
 4    0  0.2182372E-002  0.2194811E+03  0.7546771E-02  0.1134270E+00
         21   -1    0    0  502  501  0.00000000000E+00  0.00000000000E+00  0.63770098200E+02  0.63770098200E+02  0.00000000000E+00 0. -1.
         21   -1    0    0  501  502 -0.00000000000E+00 -0.00000000000E+00 -0.75540042743E+03  0.75540042743E+03  0.00000000000E+00 0. -1.
         25    1    1    2    0    0 -0.16941254172E+03  0.43661873755E+02 -0.42801047033E+03  0.47898322646E+03  0.12500000000E+03 0.  0.
         25    1    1    2    0    0  0.16941254172E+03 -0.43661873755E+02 -0.26361985890E+03  0.34018729918E+03  0.12500000000E+03 0.  0.
</event>
<event>
 4    0  0.2182372E-002  0.3664011E+03  0.7546771E-02  0.1056078E+00
         21   -1    0    0  502  501  0.00000000000E+00  0.00000000000E+00  0.89750982616E+03  0.89750982616E+03  0.00000000000E+00 0. -1.
         21   -1    0    0  501  502 -0.00000000000E+00 -0.00000000000E+00 -0.14958029731E+03  0.14958029731E+03  0.00000000000E+00 0. -1.
         25    1    1    2    0    0 -0.47821125948E+02 -0.33876913331E+03  0.43064308293E+03  0.56403000864E+03  0.12500000000E+03 0.  0.
         25    1    1    2    0    0  0.47821125948E+02  0.33876913331E+03  0.31728644592E+03  0.48306011483E+03  0.12500000000E+03 0.  0.
</event>
<event>
 4    0  0.2182372E-002  0.1665854E+03  0.7546771E-02  0.1181456E+00
         21   -1    0    0  502  501  0.00000000000E+00  0.00000000000E+00  0.13844290762E+03  0.13844290762E+03  0.00000000000E+00 0. -1.
         21   -1    0    0  501  502 -0.00000000000E+00 -0.00000000000E+00 -0.20044870276E+03  0.20044870276E+03  0.00000000000E+00 0. -1.
         25    1    1    2    0    0  0.22882842666E+02  0.28453294510E+02  0.74667807122E+02  0.15011161140E+03  0.12500000000E+03 0.  0.
         25    1    1    2    0    0 -0.22882842666E+02 -0.28453294510E+02 -0.13667360226E+03  0.18877999897E+03  0.12500000000E+03 0.  0.
</event>
<event>
 4    0  0.2182372E-002  0.2378206E+03  0.7546771E-02  0.1121253E+00
         21   -1    0    0  502  501  0.00000000000E+00  0.00000000000E+00  0.26462204114E+02  0.26462204114E+02  0.00000000000E+00 0.  1.
         21   -1    0    0  501  502 -0.00000000000E+00 -0.00000000000E+00 -0.21373371180E+04  0.21373371180E+04  0.00000000000E+00 0.  1.
         25    1    1    2    0    0 -0.47675326469E+02  0.68463766491E+02 -0.18939453249E+04  0.18998984493E+04  0.12500000000E+03 0.  0.
         25    1    1    2    0    0  0.47675326469E+02 -0.68463766491E+02 -0.21692958899E+03  0.26390087278E+03  0.12500000000E+03 0.  0.
</event>
<event>
 4    0  0.2182372E-002  0.2556959E+03  0.7546771E-02  0.1109757E+00
         21   -1    0    0  502  501  0.00000000000E+00  0.00000000000E+00  0.22872920804E+04  0.22872920804E+04  0.00000000000E+00 0. -1.
         21   -1    0    0  501  502 -0.00000000000E+00 -0.00000000000E+00 -0.28584200664E+02  0.28584200664E+02  0.00000000000E+00 0. -1.
         25    1    1    2    0    0  0.16144342536E+03  0.15059327162E+03  0.12734951843E+04  0.12985211964E+04  0.12500000000E+03 0.  0.
         25    1    1    2    0    0 -0.16144342536E+03 -0.15059327162E+03  0.98521269540E+03  0.10173550846E+04  0.12500000000E+03 0.  0.
</event>
<event>
 4    0  0.2182372E-002  0.1817734E+03  0.7546771E-02  0.1166098E+00
         21   -1    0    0  502  501  0.00000000000E+00  0.00000000000E+00  0.83940068638E+02  0.83940068638E+02  0.00000000000E+00 0.  1.
         21   -1    0    0  501  502 -0.00000000000E+00 -0.00000000000E+00 -0.39363272015E+03  0.39363272015E+03  0.00000000000E+00 0.  1.
         25    1    1    2    0    0  0.27986516503E+02  0.46681007445E+02 -0.31278056461E+03  0.34120234929E+03  0.12500000000E+03 0.  0.
         25    1    1    2    0    0 -0.27986516503E+02 -0.46681007445E+02  0.30879130979E+01  0.13637043950E+03  0.12500000000E+03 0.  0.
</event>
<event>
 4    0  0.2182372E-002  0.2203816E+03  0.7546771E-02  0.1133599E+00
         21   -1    0    0  502  501  0.00000000000E+00  0.00000000000E+00  0.15271294847E+03  0.15271294847E+03  0.00000000000E+00 0. -1.
         21   -1    0    0  501  502 -0.00000000000E+00 -0.00000000000E+00 -0.31803486622E+03  0.31803486622E+03  0.00000000000E+00 0. -1.
         25    1    1    2    0    0 -0.53999382404E+02  0.17008989442E+03 -0.11802766348E+03  0.24779433978E+03  0.12500000000E+03 0.  0.
         25    1    1    2    0    0  0.53999382404E+02 -0.17008989442E+03 -0.47294254270E+02  0.22295347490E+03  0.12500000000E+03 0.  0.
</event>
<event>
 4    0  0.2182372E-002  0.2703654E+03  0.7546771E-02  0.1101071E+00
         21   -1    0    0  502  501  0.00000000000E+00  0.00000000000E+00  0.64923152855E+02  0.64923152855E+02  0.00000000000E+00 0.  1.
         21   -1    0    0  501  502 -0.00000000000E+00 -0.00000000000E+00 -0.11259072009E+04  0.11259072009E+04  0.00000000000E+00 0.  1.
         25    1    1    2    0    0  0.13112246578E+03  0.19246827651E+03 -0.40522794870E+03  0.48380970319E+03  0.12500000000E+03 0.  0.
         25    1    1    2    0    0 -0.13112246578E+03 -0.19246827651E+03 -0.65575609934E+03  0.70702065055E+03  0.12500000000E+03 0.  0.
</event>
<event>
 4    0  0.2182372E-002  0.2946629E+03  0.7546771E-02  0.1087939E+00
         21   -1    0    0  502  501  0.00000000000E+00  0.00000000000E+00  0.45561998970E+03  0.45561998970E+03  0.00000000000E+00 0. -1.
         21   -1    0    0  501  502 -0.00000000000E+00 -0.00000000000E+00 -0.19056721290E+03  0.19056721290E+03  0.00000000000E+00 0. -1.
         25    1    1    2    0    0 -0.14675633535E+03  0.74739463538E+02 -0.97677653894E+02  0.22866861054E+03  0.12500000000E+03 0.  0.
         25    1    1    2    0    0  0.14675633535E+03 -0.74739463538E+02  0.36273043069E+03  0.41751859206E+03  0.12500000000E+03 0.  0.
</event>
<event>
 4    0  0.2182372E-002  0.1973444E+03  0.7546771E-02  0.1151999E+00
         21   -1    0    0  502  501  0.00000000000E+00  0.00000000000E+00  0.23293034023E+03  0.23293034023E+03  0.00000000000E+00 0.  1.
         21   -1    0    0  501  502 -0.00000000000E+00 -0.00000000000E+00 -0.16719510421E+03  0.16719510421E+03  0.00000000000E+00 0.  1.
         25    1    1    2    0    0  0.56271647986E+02 -0.12930087252E+03  0.92280326810E+02  0.20982343224E+03  0.12500000000E+03 0.  0.
         25    1    1    2    0    0 -0.56271647986E+02  0.12930087252E+03 -0.26545090790E+02  0.19030201219E+03  0.12500000000E+03 0.  0.
</event>
<event>
 4    0  0.2182372E-002  0.1724404E+03  0.7546771E-02  0.1175326E+00
         21   -1    0    0  502  501  0.00000000000E+00  0.00000000000E+00  0.74272162683E+03  0.74272162683E+03  0.00000000000E+00 0.  1.
         21   -1    0    0  501  502 -0.00000000000E+00 -0.00000000000E+00 -0.40036138386E+02  0.40036138386E+02  0.00000000000E+00 0.  1.
         25    1    1    2    0    0  0.24857379981E+02 -0.72101187585E+02  0.14463990716E+03  0.20582073106E+03  0.12500000000E+03 0.  0.
         25    1    1    2    0    0 -0.24857379981E+02  0.72101187585E+02  0.55804558128E+03  0.57693703415E+03  0.12500000000E+03 0.  0.
</event>
<event>
 4    0  0.2182372E-002  0.3160836E+03  0.7546771E-02  0.1077466E+00
         21   -1    0    0  502  501  0.00000000000E+00  0.00000000000E+00  0.50805465625E+03  0.50805465625E+03  0.00000000000E+00 0. -1.
         21   -1    0    0  501  502 -0.00000000000E+00 -0.00000000000E+00 -0.19664980904E+03  0.19664980904E+03  0.00000000000E+00 0. -1.
         25    1    1    2    0    0 -0.11209666757E+03 -0.87580400881E+02 -0.12641334575E+03  0.22768689791E+03  0.12500000000E+03 0.  0.
         25    1    1    2    0    0  0.11209666757E+03  0.87580400881E+02  0.43781819296E+03  0.47701756738E+03  0.12500000000E+03 0.  0.
</event>
<event>
 4    0  0.2182372E-002  0.2001633E+03  0.7546771E-02  0.1149601E+00
         21   -1    0    0  502  501  0.00000000000E+00  0.00000000000E+00  0.89262472766E+02  0.89262472766E+02  0.00000000000E+00 0.  1.
         21   -1    0    0  501  502 -0.00000000000E+00 -0.00000000000E+00 -0.44884875042E+03  0.44884875042E+03  0.00000000000E+00 0.  1.
         25    1    1    2    0    0  0.10052069623E+03  0.10986092855E+03 -0.11579948300E+03  0.22629262970E+03  0.12500000000E+03 0.  0.
         25    1    1    2    0    0 -0.10052069623E+03 -0.10986092855E+03 -0.24378679465E+03  0.31181859348E+03  0.12500000000E+03 0.  0.
</event>
<event>
 4    0  0.2182372E-002  0.1861537E+03  0.7546771E-02  0.1161977E+00
         21   -1    0    0  502  501  0.00000000000E+00  0.00000000000E+00  0.19325625106E+03  0.19325625106E+03  0.00000000000E+00 0. -1.
         21   -1    0    0  501  502 -0.00000000000E+00 -0.00000000000E+00 -0.17931221327E+03  0.17931221327E+03  0.00000000000E+00 0. -1.
         25    1    1    2    0    0 -0.22858412135E+02  0.11003203754E+03 -0.73075625579E+02  0.18328830662E+03  0.12500000000E+03 0.  0.
         25    1    1    2    0    0  0.22858412135E+02 -0.11003203754E+03  0.87019663365E+02  0.18928015771E+03  0.12500000000E+03 0.  0.
</event>
<event>
 4    0  0.2182372E-002  0.2755201E+03  0.7546771E-02  0.1098161E+00
         21   -1    0    0  502  501  0.00000000000E+00  0.00000000000E+00  0.14570078078E+03  0.14570078078E+03  0.00000000000E+00 0. -1.
         21   -1    0    0  501  502 -0.00000000000E+00 -0.00000000000E+00 -0.52100832902E+03  0.52100832902E+03  0.00000000000E+00 0. -1.
         25    1    1    2    0    0  0.24407965573E+03 -0.70577612689E+01 -0.15653226030E+03  0.31583546167E+03  0.12500000000E+03 0.  0.
         25    1    1    2    0    0 -0.24407965573E+03  0.70577612689E+01 -0.21877528794E+03  0.35087364813E+03  0.12500000000E+03 0.  0.
</event>
<event>
 4    0  0.2182372E-002  0.2034779E+03  0.7546771E-02  0.1146837E+00
         21   -1    0    0  502  501  0.00000000000E+00  0.00000000000E+00  0.64225211351E+03  0.64225211351E+03  0.00000000000E+00 0. -1.
         21   -1    0    0  501  502 -0.00000000000E+00 -0.00000000000E+00 -0.64465761020E+02  0.64465761020E+02  0.00000000000E+00 0. -1.
         25    1    1    2    0    0  0.59822658776E+02  0.12244486450E+03  0.43631753977E+03  0.47388763526E+03  0.12500000000E+03 0.  0.
         25    1    1    2    0    0 -0.59822658776E+02 -0.12244486450E+03  0.14146881272E+03  0.23283023927E+03  0.12500000000E+03 0.  0.
</event>
<event>
 4    0  0.2182372E-002  0.1903360E+03  0.7546771E-02  0.1158159E+00
         21   -1    0    0  502  501  0.00000000000E+00  0.00000000000E+00  0.16624968630E+03  0.16624968630E+03  0.00000000000E+00 0. -1.
         21   -1    0    0  501  502 -0.00000000000E+00 -0.00000000000E+00 -0.21791198385E+03  0.21791198385E+03  0.00000000000E+00 0. -1.
         25    1    1    2    0    0 -0.75387614461E+02 -0.11795290916E+03 -0.57849233942E+02  0.19638664685E+03  0.12500000000E+03 0.  0.
         25    1    1    2    0    0  0.75387614461E+02  0.11795290916E+03  0.61869363912E+01  0.18777502330E+03  0.12500000000E+03 0.  0.
</event>
<event>
 4    0  0.2182372E-002  0.2276175E+03  0.7546771E-02  0.1128328E+00
         21   -1    0    0  502  501  0.00000000000E+00  0.00000000000E+00  0.11397783253E+03  0.11397783253E+03  0.00000000000E+00 0.  1.
         21   -1    0    0  501  502 -0.00000000000E+00 -0.00000000000E+00 -0.45455951089E+03  0.45455951089E+03  0.00000000000E+00 0.  1.
         25    1    1    2    0    0  0.15297273613E+03  0.71904647934E+02 -0.61316725432E+02  0.21898784717E+03  0.12500000000E+03 0.  0.
         25    1    1    2    0    0 -0.15297273613E+03 -0.71904647934E+02 -0.27926495293E+03  0.34954949625E+03  0.12500000000E+03 0.  0.
</event>
<event>
 4    0  0.2182372E-002  0.1951542E+03  0.7546771E-02  0.1153893E+00
         21   -1    0    0  502  501  0.00000000000E+00  0.00000000000E+00  0.15592073321E+04  0.15592073321E+04  0.00000000000E+00 0.  1.
         21   -1    0    0  501  502 -0.00000000000E+00 -0.00000000000E+00 -0.24425976829E+02  0.24425976829E+02  0.00000000000E+00 0.  1.
         25    1    1    2    0    0 -0.11902296208E+03  0.81173894385E+02  0.59987916456E+03  0.62947254007E+03  0.12500000000E+03 0.  0.
         25    1    1    2    0    0  0.11902296208E+03 -0.81173894385E+02  0.93490219073E+03  0.95416076887E+03  0.12500000000E+03 0.  0.
</event>
<event>
 4    0  0.2182372E-002  0.2206210E+03  0.7546771E-02  0.1133421E+00
         21   -1    0    0  502  501  0.00000000000E+00  0.00000000000E+00  0.50799881095E+03  0.50799881095E+03  0.00000000000E+00 0.  1.
         21   -1    0    0  501  502 -0.00000000000E+00 -0.00000000000E+00 -0.95814416499E+02  0.95814416499E+02  0.00000000000E+00 0.  1.
         25    1    1    2    0    0  0.15695335779E+03  0.55877992419E+02  0.10654436872E+03  0.23395172379E+03  0.12500000000E+03 0.  0.
         25    1    1    2    0    0 -0.15695335779E+03 -0.55877992419E+02  0.30564002573E+03  0.36986150366E+03  0.12500000000E+03 0.  0.
</event>
<event>
 4    0  0.2182372E-002  0.1805365E+03  0.7546771E-02  0.1167285E+00
         21   -1    0    0  502  501  0.00000000000E+00  0.00000000000E+00  0.88780107870E+02  0.88780107870E+02  0.00000000000E+00 0. -1.
         21   -1    0    0  501  502 -0.00000000000E+00 -0.00000000000E+00 -0.36712545427E+03  0.36712545427E+03  0.00000000000E+00 0. -1.
         25    1    1    2    0    0  0.10257411088E+03  0.24168396420E+02 -0.42492986496E+02  0.16892665127E+03  0.12500000000E+03 0.  0.
         25    1    1    2    0    0 -0.10257411088E+03 -0.24168396420E+02 -0.23585235990E+03  0.28697891087E+03  0.12500000000E+03 0.  0.
</event>
<event>
 4    0  0.2182372E-002  0.3038691E+03  0.7546771E-02  0.1083322E+00
         21   -1    0    0  502  501  0.00000000000E+00  0.00000000000E+00  0.60351778571E+03  0.60351778571E+03  0.00000000000E+00 0.  1.
         21   -1    0    0  501  502 -0.00000000000E+00 -0.00000000000E+00 -0.15299700688E+03  0.15299700688E+03  0.00000000000E+00 0.  1.
         25    1    1    2    0    0  0.37917756265E+02  0.12310998318E+03  0.53047246207E+03  0.56001772938E+03  0.12500000000E+03 0.  0.
         25    1    1    2    0    0 -0.37917756265E+02 -0.12310998318E+03 -0.79951683241E+02  0.19649706321E+03  0.12500000000E+03 0.  0.
</event>
<event>
 4    0  0.2182372E-002  0.5294255E+03  0.7546771E-02  0.1006372E+00
         21   -1    0    0  502  501  0.00000000000E+00  0.00000000000E+00  0.25547239963E+03  0.25547239963E+03  0.00000000000E+00 0.  1.
         21   -1    0    0  501  502 -0.00000000000E+00 -0.00000000000E+00 -0.10971493163E+04  0.10971493163E+04  0.00000000000E+00 0. -1.
         25    1    1    2    0    0 -0.48113292448E+03 -0.12372970248E+03 -0.25007898913E+03  0.57005476149E+03  0.12500000000E+03 0.  0.
         25    1    1    2    0    0  0.48113292448E+03  0.12372970248E+03 -0.59159792751E+03  0.78256695441E+03  0.12500000000E+03 0.  0.
</event>
<event>
 4    0  0.2182372E-002  0.2500312E+03  0.7546771E-02  0.1113285E+00
         21   -1    0    0  502  501  0.00000000000E+00  0.00000000000E+00  0.80157413638E+02  0.80157413638E+02  0.00000000000E+00 0.  1.
         21   -1    0    0  501  502 -0.00000000000E+00 -0.00000000000E+00 -0.77991019714E+03  0.77991019714E+03  0.00000000000E+00 0.  1.
         25    1    1    2    0    0  0.80820627805E+02 -0.26283412324E+02 -0.73236348416E+01  0.15133217526E+03  0.12500000000E+03 0.  0.
         25    1    1    2    0    0 -0.80820627805E+02  0.26283412324E+02 -0.69242914866E+03  0.70873543551E+03  0.12500000000E+03 0.  0.
</event>
<event>
 4    0  0.2182372E-002  0.2547523E+03  0.7546771E-02  0.1110338E+00
         21   -1    0    0  502  501  0.00000000000E+00  0.00000000000E+00  0.24245017207E+03  0.24245017207E+03  0.00000000000E+00 0. -1.
         21   -1    0    0  501  502 -0.00000000000E+00 -0.00000000000E+00 -0.26767857279E+03  0.26767857279E+03  0.00000000000E+00 0. -1.
         25    1    1    2    0    0  0.16036552456E+03  0.13509651927E+03  0.60314210642E+02  0.25145770020E+03  0.12500000000E+03 0.  0.
         25    1    1    2    0    0 -0.16036552456E+03 -0.13509651927E+03 -0.85542611371E+02  0.25867104466E+03  0.12500000000E+03 0.  0.
</event>
<event>
 4    0  0.2182372E-002  0.2402070E+03  0.7546771E-02  0.1119655E+00
         21   -1    0    0  502  501  0.00000000000E+00  0.00000000000E+00  0.36156881086E+03  0.36156881086E+03  0.00000000000E+00 0.  1.
         21   -1    0    0  501  502 -0.00000000000E+00 -0.00000000000E+00 -0.15958071072E+03  0.15958071072E+03  0.00000000000E+00 0.  1.
         25    1    1    2    0    0  0.17900869924E+03 -0.14725088653E+02 -0.64686782652E+01  0.21892415682E+03  0.12500000000E+03 0.  0.
         25    1    1    2    0    0 -0.17900869924E+03  0.14725088653E+02  0.20845677841E+03  0.30222536476E+03  0.12500000000E+03 0.  0.
</event>
<event>
 4    0  0.2182372E-002  0.2029357E+03  0.7546771E-02  0.1147286E+00
         21   -1    0    0  502  501  0.00000000000E+00  0.00000000000E+00  0.11896346972E+04  0.11896346972E+04  0.00000000000E+00 0.  1.
         21   -1    0    0  501  502 -0.00000000000E+00 -0.00000000000E+00 -0.34618095428E+02  0.34618095428E+02  0.00000000000E+00 0.  1.
         25    1    1    2    0    0 -0.61952004864E+02 -0.79692218905E+02  0.20356536791E+03  0.25933137040E+03  0.12500000000E+03 0.  0.
         25    1    1    2    0    0  0.61952004864E+02  0.79692218905E+02  0.95145123388E+03  0.96492142225E+03  0.12500000000E+03 0.  0.
</event>
<event>
 4    0  0.2182372E-002  0.5548837E+03  0.7546771E-02  0.1000370E+00
         21   -1    0    0  502  501  0.00000000000E+00  0.00000000000E+00  0.15379157794E+03  0.15379157794E+03  0.00000000000E+00 0.  1.
         21   -1    0    0  501  502 -0.00000000000E+00 -0.00000000000E+00 -0.20020335942E+04  0.20020335942E+04  0.00000000000E+00 0.  1.
         25    1    1    2    0    0 -0.99332143683E+02 -0.48842362449E+03 -0.51735137269E+03  0.72917895921E+03  0.12500000000E+03 0.  0.
         25    1    1    2    0    0  0.99332143683E+02  0.48842362449E+03 -0.13308906436E+04  0.14266462129E+04  0.12500000000E+03 0.  0.
</event>
<event>
 4    0  0.2182372E-002  0.2102269E+03  0.7546771E-02  0.1141386E+00
         21   -1    0    0  502  501  0.00000000000E+00  0.00000000000E+00  0.27731981549E+03  0.27731981549E+03  0.00000000000E+00 0.  1.
         21   -1    0    0  501  502 -0.00000000000E+00 -0.00000000000E+00 -0.15936601464E+03  0.15936601464E+03  0.00000000000E+00 0.  1.
         25    1    1    2    0    0  0.14013665398E+03 -0.88842101656E+02  0.92457292614E+02  0.22738634913E+03  0.12500000000E+03 0.  0.
         25    1    1    2    0    0 -0.14013665398E+03  0.88842101656E+02  0.25496508235E+02  0.20929948100E+03  0.12500000000E+03 0.  0.
</event>
<event>
 4    0  0.2182372E-002  0.1767058E+03  0.7546771E-02  0.1171030E+00
         21   -1    0    0  502  501  0.00000000000E+00  0.00000000000E+00  0.62577630210E+03  0.62577630210E+03  0.00000000000E+00 0.  1.
         21   -1    0    0  501  502 -0.00000000000E+00 -0.00000000000E+00 -0.49897940319E+02  0.49897940319E+02  0.00000000000E+00 0.  1.
         25    1    1    2    0    0  0.78035492462E+02 -0.96444611324E+02  0.31556855698E+03  0.36138568772E+03  0.12500000000E+03 0.  0.
         25    1    1    2    0    0 -0.78035492462E+02  0.96444611324E+02  0.26030980480E+03  0.31428855470E+03  0.12500000000E+03 0.  0.
</event>
<event>
 4    0  0.2182372E-002  0.3604512E+03  0.7546771E-02  0.1058405E+00
         21   -1    0    0  502  501  0.00000000000E+00  0.00000000000E+00  0.17033336780E+03  0.17033336780E+03  0.00000000000E+00 0.  1.
         21   -1    0    0  501  502 -0.00000000000E+00 -0.00000000000E+00 -0.76276935805E+03  0.76276935805E+03  0.00000000000E+00 0.  1.
         25    1    1    2    0    0 -0.16133927748E+03 -0.12765733544E+03 -0.64346517903E+03  0.68702197517E+03  0.12500000000E+03 0.  0.
         25    1    1    2    0    0  0.16133927748E+03  0.12765733544E+03  0.51029188769E+02  0.24608075068E+03  0.12500000000E+03 0.  0.
</event>
<event>
 4    0  0.2182372E-002  0.2625843E+03  0.7546771E-02  0.1105600E+00
         21   -1    0    0  502  501  0.00000000000E+00  0.00000000000E+00  0.14841600439E+04  0.14841600439E+04  0.00000000000E+00 0. -1.
         21   -1    0    0  501  502 -0.00000000000E+00 -0.00000000000E+00 -0.46457611035E+02  0.46457611035E+02  0.00000000000E+00 0. -1.
         25    1    1    2    0    0  0.66741802029E+02 -0.16543745370E+02  0.76349510063E+02  0.16180979988E+03  0.12500000000E+03 0.  0.
         25    1    1    2    0    0 -0.66741802029E+02  0.16543745370E+02  0.13613529228E+04  0.13688078550E+04  0.12500000000E+03 0.  0.
</event>
<event>
 4    0  0.2182372E-002  0.2139631E+03  0.7546771E-02  0.1138465E+00
         21   -1    0    0  502  501  0.00000000000E+00  0.00000000000E+00  0.98885281926E+02  0.98885281926E+02  0.00000000000E+00 0. -1.
         21   -1    0    0  501  502 -0.00000000000E+00 -0.00000000000E+00 -0.46296301922E+03  0.46296301922E+03  0.00000000000E+00 0. -1.
         25    1    1    2    0    0  0.60997097547E+02 -0.10986527760E+03 -0.24680127430E+02  0.17895567558E+03  0.12500000000E+03 0.  0.
         25    1    1    2    0    0 -0.60997097547E+02  0.10986527760E+03 -0.33939760986E+03  0.38289262557E+03  0.12500000000E+03 0.  0.
</event>
<event>
 4    0  0.2182372E-002  0.2884586E+03  0.7546771E-02  0.1091157E+00
         21   -1    0    0  502  501  0.00000000000E+00  0.00000000000E+00  0.26798682055E+03  0.26798682055E+03  0.00000000000E+00 0.  1.
         21   -1    0    0  501  502 -0.00000000000E+00 -0.00000000000E+00 -0.31049413606E+03  0.31049413606E+03  0.00000000000E+00 0.  1.
         25    1    1    2    0    0  0.72396407377E+01  0.72465598350E+02  0.22898175585E+03  0.27085294876E+03  0.12500000000E+03 0.  0.
         25    1    1    2    0    0 -0.72396407377E+01 -0.72465598350E+02 -0.27148907136E+03  0.30762800784E+03  0.12500000000E+03 0.  0.
</event>
<event>
 4    0  0.2182372E-002  0.2146872E+03  0.7546771E-02  0.1137907E+00
         21   -1    0    0  502  501  0.00000000000E+00  0.00000000000E+00  0.32878938756E+02  0.32878938756E+02  0.00000000000E+00 0.  1.
         21   -1    0    0  501  502 -0.00000000000E+00 -0.00000000000E+00 -0.14018271001E+04  0.14018271001E+04  0.00000000000E+00 0.  1.
         25    1    1    2    0    0  0.51884550811E+02 -0.12406160698E+03 -0.31265862146E+03  0.36257923618E+03  0.12500000000E+03 0.  0.
         25    1    1    2    0    0 -0.51884550811E+02  0.12406160698E+03 -0.10562895398E+04  0.10721268026E+04  0.12500000000E+03 0.  0.
</event>
<event>
 4    0  0.2182372E-002  0.4472555E+03  0.7546771E-02  0.1028544E+00
         21   -1    0    0  502  501  0.00000000000E+00  0.00000000000E+00  0.21994720916E+03  0.21994720916E+03  0.00000000000E+00 0. -1.
         21   -1    0    0  501  502 -0.00000000000E+00 -0.00000000000E+00 -0.90947940344E+03  0.90947940344E+03  0.00000000000E+00 0. -1.
         25    1    1    2    0    0  0.12043840036E+03  0.39462853472E+03 -0.49509397560E+03  0.65649077174E+03  0.12500000000E+03 0.  0.
         25    1    1    2    0    0 -0.12043840036E+03 -0.39462853472E+03 -0.19443821868E+03  0.47293584087E+03  0.12500000000E+03 0.  0.
</event>
<event>
 4    0  0.2182372E-002  0.1780472E+03  0.7546771E-02  0.1169707E+00
         21   -1    0    0  502  501  0.00000000000E+00  0.00000000000E+00  0.62356497208E+02  0.62356497208E+02  0.00000000000E+00 0.  1.
         21   -1    0    0  501  502 -0.00000000000E+00 -0.00000000000E+00 -0.50837990944E+03  0.50837990944E+03  0.00000000000E+00 0.  1.
         25    1    1    2    0    0  0.52672391316E+02 -0.84502988733E+02 -0.97210744154E+02  0.18705631422E+03  0.12500000000E+03 0.  0.
         25    1    1    2    0    0 -0.52672391316E+02  0.84502988733E+02 -0.34881266808E+03  0.38368009243E+03  0.12500000000E+03 0.  0.
</event>
<event>
 4    0  0.2182372E-002  0.3614384E+03  0.7546771E-02  0.1058016E+00
         21   -1    0    0  502  501  0.00000000000E+00  0.00000000000E+00  0.38662652002E+03  0.38662652002E+03  0.00000000000E+00 0. -1.
         21   -1    0    0  501  502 -0.00000000000E+00 -0.00000000000E+00 -0.33789129219E+03  0.33789129219E+03  0.00000000000E+00 0. -1.
         25    1    1    2    0    0  0.13712503957E+03  0.24724873201E+03  0.21208271307E+03  0.37488570143E+03  0.12500000000E+03 0.  0.
         25    1    1    2    0    0 -0.13712503957E+03 -0.24724873201E+03 -0.16334748523E+03  0.34963211078E+03  0.12500000000E+03 0.  0.
</event>
<event>
 4    0  0.2182372E-002  0.1667930E+03  0.7546771E-02  0.1181234E+00
         21   -1    0    0  502  501  0.00000000000E+00  0.00000000000E+00  0.18671432223E+04  0.18671432223E+04  0.00000000000E+00 0.  1.
         21   -1    0    0  501  502 -0.00000000000E+00 -0.00000000000E+00 -0.14899723029E+02  0.14899723029E+02  0.00000000000E+00 0.  1.
         25    1    1    2    0    0  0.10894555341E+03  0.69148853108E+01  0.10201847276E+04  0.10335950985E+04  0.12500000000E+03 0.  0.
         25    1    1    2    0    0 -0.10894555341E+03 -0.69148853108E+01  0.83205877162E+03  0.84844784676E+03  0.12500000000E+03 0.  0.
</event>
<event>
 4    0  0.2182372E-002  0.1711710E+03  0.7546771E-02  0.1176632E+00
         21   -1    0    0  502  501  0.00000000000E+00  0.00000000000E+00  0.23573302939E+03  0.23573302939E+03  0.00000000000E+00 0. -1.
         21   -1    0    0  501  502 -0.00000000000E+00 -0.00000000000E+00 -0.12429102183E+03  0.12429102183E+03  0.00000000000E+00 0. -1.
         25    1    1    2    0    0 -0.40014925078E+02  0.34826963350E+02  0.16531684677E+03  0.21393637239E+03  0.12500000000E+03 0.  0.
         25    1    1    2    0    0  0.40014925078E+02 -0.34826963350E+02 -0.53874839218E+02  0.14608767883E+03  0.12500000000E+03 0.  0.
</event>
<event>
 4    0  0.2182372E-002  0.2055434E+03  0.7546771E-02  0.1145145E+00
         21   -1    0    0  502  501  0.00000000000E+00  0.00000000000E+00  0.30773467737E+03  0.30773467737E+03  0.00000000000E+00 0. -1.
         21   -1    0    0  501  502 -0.00000000000E+00 -0.00000000000E+00 -0.13728742884E+03  0.13728742884E+03  0.00000000000E+00 0. -1.
         25    1    1    2    0    0 -0.10474649350E+03 -0.73904782203E+02 -0.24051521066E+02  0.18065774381E+03  0.12500000000E+03 0.  0.
         25    1    1    2    0    0  0.10474649350E+03  0.73904782203E+02  0.19449876960E+03  0.26436436240E+03  0.12500000000E+03 0.  0.
</event>
<event>
 4    0  0.2182372E-002  0.2924199E+03  0.7546771E-02  0.1089092E+00
         21   -1    0    0  502  501  0.00000000000E+00  0.00000000000E+00  0.20166462298E+03  0.20166462298E+03  0.00000000000E+00 0.  1.
         21   -1    0    0  501  502 -0.00000000000E+00 -0.00000000000E+00 -0.42401790011E+03  0.42401790011E+03  0.00000000000E+00 0.  1.
         25    1    1    2    0    0 -0.23327876729E+03 -0.55159183838E+02  0.80651312605E+01  0.27046546022E+03  0.12500000000E+03 0.  0.
         25    1    1    2    0    0  0.23327876729E+03  0.55159183838E+02 -0.23041840839E+03  0.35521706287E+03  0.12500000000E+03 0.  0.
</event>
<event>
 4    0  0.2182372E-002  0.2577676E+03  0.7546771E-02  0.1108492E+00
         21   -1    0    0  502  501  0.00000000000E+00  0.00000000000E+00  0.12020589439E+03  0.12020589439E+03  0.00000000000E+00 0.  1.
         21   -1    0    0  501  502 -0.00000000000E+00 -0.00000000000E+00 -0.55275288741E+03  0.55275288741E+03  0.00000000000E+00 0.  1.
         25    1    1    2    0    0  0.12703129866E+03 -0.18025865295E+03 -0.27734733000E+03  0.37573484568E+03  0.12500000000E+03 0.  0.
         25    1    1    2    0    0 -0.12703129866E+03  0.18025865295E+03 -0.15519966302E+03  0.29722393612E+03  0.12500000000E+03 0.  0.
</event>
<event>
 4    0  0.2182372E-002  0.4287194E+03  0.7546771E-02  0.1034265E+00
         21   -1    0    0  502  501  0.00000000000E+00  0.00000000000E+00  0.80570190066E+03  0.80570190066E+03  0.00000000000E+00 0. -1.
         21   -1    0    0  501  502 -0.00000000000E+00 -0.00000000000E+00 -0.22812451236E+03  0.22812451236E+03  0.00000000000E+00 0. -1.
         25    1    1    2    0    0  0.35468210158E+03  0.14542460554E+03  0.11311960226E+03  0.41877052605E+03  0.12500000000E+03 0.  0.
         25    1    1    2    0    0 -0.35468210158E+03 -0.14542460554E+03  0.46445778604E+03  0.61505588697E+03  0.12500000000E+03 0.  0.
</event>
<event>
 4    0  0.2182372E-002  0.3303131E+03  0.7546771E-02  0.1070998E+00
         21   -1    0    0  502  501  0.00000000000E+00  0.00000000000E+00  0.17043749494E+03  0.17043749494E+03  0.00000000000E+00 0. -1.
         21   -1    0    0  501  502 -0.00000000000E+00 -0.00000000000E+00 -0.64015681437E+03  0.64015681437E+03  0.00000000000E+00 0.  1.
         25    1    1    2    0    0 -0.12070937754E+03 -0.27353630411E+03 -0.31331977369E+03  0.45076284682E+03  0.12500000000E+03 0.  0.
         25    1    1    2    0    0  0.12070937754E+03  0.27353630411E+03 -0.15639954574E+03  0.35983146249E+03  0.12500000000E+03 0.  0.
</event>
<event>
 4    0  0.2182372E-002  0.3123241E+03  0.7546771E-02  0.1079237E+00
         21   -1    0    0  502  501  0.00000000000E+00  0.00000000000E+00  0.59449398496E+03  0.59449398496E+03  0.00000000000E+00 0.  1.
         21   -1    0    0  501  502 -0.00000000000E+00 -0.00000000000E+00 -0.16408302763E+03  0.16408302763E+03  0.00000000000E+00 0.  1.
         25    1    1    2    0    0  0.25986670852E+03 -0.11152966632E+03  0.16155398604E+03  0.34884704824E+03  0.12500000000E+03 0.  0.
         25    1    1    2    0    0 -0.25986670852E+03  0.11152966632E+03  0.26885697130E+03  0.40972996434E+03  0.12500000000E+03 0.  0.
</event>
<event>
 4    0  0.2182372E-002  0.2895687E+03  0.7546771E-02  0.1090575E+00
         21   -1    0    0  502  501  0.00000000000E+00  0.00000000000E+00  0.14775477710E+04  0.14775477710E+04  0.00000000000E+00 0. -1.
         21   -1    0    0  501  502 -0.00000000000E+00 -0.00000000000E+00 -0.56749446627E+02  0.56749446627E+02  0.00000000000E+00 0. -1.
         25    1    1    2    0    0  0.27767164913E+02 -0.25965365210E+03  0.69495499968E+03  0.75284692074E+03  0.12500000000E+03 0.  0.
         25    1    1    2    0    0 -0.27767164913E+02  0.25965365210E+03  0.72584332466E+03  0.78145029685E+03  0.12500000000E+03 0.  0.
</event>
<event>
 4    0  0.2182372E-002  0.2456929E+03  0.7546771E-02  0.1116057E+00
         21   -1    0    0  502  501  0.00000000000E+00  0.00000000000E+00  0.13681383007E+03  0.13681383007E+03  0.00000000000E+00 0.  1.
         21   -1    0    0  501  502 -0.00000000000E+00 -0.00000000000E+00 -0.44122001958E+03  0.44122001958E+03  0.00000000000E+00 0.  1.
         25    1    1    2    0    0 -0.19340143416E+03 -0.66638148950E+02 -0.21549864682E+03  0.32234984785E+03  0.12500000000E+03 0.  0.
         25    1    1    2    0    0  0.19340143416E+03  0.66638148950E+02 -0.88907542687E+02  0.25568400180E+03  0.12500000000E+03 0.  0.
</event>
<event>
 4    0  0.2182372E-002  0.1827864E+03  0.7546771E-02  0.1165133E+00
         21   -1    0    0  502  501  0.00000000000E+00  0.00000000000E+00  0.85220499911E+02  0.85220499911E+02  0.00000000000E+00 0. -1.
         21   -1    0    0  501  502 -0.00000000000E+00 -0.00000000000E+00 -0.39205213396E+03  0.39205213396E+03  0.00000000000E+00 0. -1.
         25    1    1    2    0    0 -0.76970851935E+01 -0.78332206160E+02 -0.12860459070E+02  0.14827532178E+03  0.12500000000E+03 0.  0.
         25    1    1    2    0    0  0.76970851935E+01  0.78332206160E+02 -0.29397117498E+03  0.32899731209E+03  0.12500000000E+03 0.  0.
</event>
<event>
 4    0  0.2182372E-002  0.2206364E+03  0.7546771E-02  0.1133410E+00
         21   -1    0    0  502  501  0.00000000000E+00  0.00000000000E+00  0.85006176133E+02  0.85006176133E+02  0.00000000000E+00 0.  1.
         21   -1    0    0  501  502 -0.00000000000E+00 -0.00000000000E+00 -0.57266902623E+03  0.57266902623E+03  0.00000000000E+00 0.  1.
         25    1    1    2    0    0 -0.59933597535E+02 -0.70913489035E+02 -0.47680539568E+03  0.50158662701E+03  0.12500000000E+03 0.  0.
         25    1    1    2    0    0  0.59933597535E+02  0.70913489035E+02 -0.10857454414E+02  0.15608857536E+03  0.12500000000E+03 0.  0.
</event>
<event>
 4    0  0.2182372E-002  0.3191090E+03  0.7546771E-02  0.1076060E+00
         21   -1    0    0  502  501  0.00000000000E+00  0.00000000000E+00  0.66150878501E+02  0.66150878501E+02  0.00000000000E+00 0.  1.
         21   -1    0    0  501  502 -0.00000000000E+00 -0.00000000000E+00 -0.15393682044E+04  0.15393682044E+04  0.00000000000E+00 0.  1.
         25    1    1    2    0    0  0.22266013287E+03 -0.13656907199E+03 -0.10738990540E+04  0.11122557369E+04  0.12500000000E+03 0.  0.
         25    1    1    2    0    0 -0.22266013287E+03  0.13656907199E+03 -0.39931827193E+03  0.49326334599E+03  0.12500000000E+03 0.  0.
</event>
