<event>
 5    0  0.5778875E-005  0.2210333E+03  0.7546771E-02  0.1133115E+00
         21   -1    0    0  502  501  0.00000000000E+00  0.00000000000E+00  0.50384765396E+03  0.50384765396E+03  0.00000000000E+00 0.  1.
         21   -1    0    0  501  502 -0.00000000000E+00 -0.00000000000E+00 -0.96965275097E+02  0.96965275097E+02  0.00000000000E+00 0.  1.
         25    1    1    2    0    0  0.26915933894E+02 -0.34963664060E+01  0.11649873763E+03  0.17301343285E+03  0.12500000000E+03 0.  0.
         25    1    1    2    0    0  0.67335959297E+02  0.23689710505E+02  0.19835796864E+03  0.24508410296E+03  0.12500000000E+03 0.  0.
         25    1    1    2    0    0 -0.94251893191E+02 -0.20193344099E+02  0.92025672585E+02  0.18271539325E+03  0.12500000000E+03 0.  0.
</event>
<event>
 5    0  0.5778875E-005  0.2604317E+03  0.7546771E-02  0.1106884E+00
         21   -1    0    0  502  501  0.00000000000E+00  0.00000000000E+00  0.10564710494E+03  0.10564710494E+03  0.00000000000E+00 0.  1.
         21   -1    0    0  501  502 -0.00000000000E+00 -0.00000000000E+00 -0.64199282786E+03  0.64199282786E+03  0.00000000000E+00 0.  1.
         25    1    1    2    0    0 -0.36407588451E+02  0.10144372806E+03 -0.11078340960E+03  0.19878205729E+03  0.12500000000E+03 0.  0.
         25    1    1    2    0    0 -0.47627239501E+01 -0.34911660610E+02 -0.36853436670E+03  0.39074811199E+03  0.12500000000E+03 0.  0.
         25    1    1    2    0    0  0.41170312401E+02 -0.66532067450E+02 -0.57027946623E+02  0.15810976351E+03  0.12500000000E+03 0.  0.
</event>
<event>
 5    0  0.5778875E-005  0.4702300E+03  0.7546771E-02  0.1021855E+00
         21   -1    0    0  502  501  0.00000000000E+00  0.00000000000E+00  0.28671530621E+03  0.28671530621E+03  0.00000000000E+00 0. -1.
         21   -1    0    0  501  502 -0.00000000000E+00 -0.00000000000E+00 -0.77120492530E+03  0.77120492530E+03  0.00000000000E+00 0. -1.
         25    1    1    2    0    0 -0.17421603306E+03 -0.18194668553E+03 -0.61340356274E+02  0.28782540169E+03  0.12500000000E+03 0.  0.
         25    1    1    2    0    0  0.21585170735E+03  0.68055807708E+02 -0.51274604499E+03  0.57424477288E+03  0.12500000000E+03 0.  0.
         25    1    1    2    0    0 -0.41635674293E+02  0.11389087782E+03  0.89596782174E+02  0.19585005693E+03  0.12500000000E+03 0.  0.
</event>
<event>
 5    0  0.5778875E-005  0.4138379E+03  0.7546771E-02  0.1039091E+00
         21   -1    0    0  502  501  0.00000000000E+00  0.00000000000E+00  0.68962174669E+03  0.68962174669E+03  0.00000000000E+00 0.  1.
         21   -1    0    0  501  502 -0.00000000000E+00 -0.00000000000E+00 -0.24834163620E+03  0.24834163620E+03  0.00000000000E+00 0.  1.
         25    1    1    2    0    0 -0.15338908243E+03 -0.72237705813E+02  0.42508010380E+03  0.47440972945E+03  0.12500000000E+03 0.  0.
         25    1    1    2    0    0  0.21016533322E+03 -0.30689381899E+02 -0.89299252001E+02  0.26212718641E+03  0.12500000000E+03 0.  0.
         25    1    1    2    0    0 -0.56776250784E+02  0.10292708771E+03  0.10549925869E+03  0.20142646704E+03  0.12500000000E+03 0.  0.
</event>
<event>
 5    0  0.5778875E-005  0.5581532E+03  0.7546771E-02  0.9996242E-01
         21   -1    0    0  502  501  0.00000000000E+00  0.00000000000E+00  0.15978741927E+04  0.15978741927E+04  0.00000000000E+00 0. -1.
         21   -1    0    0  501  502 -0.00000000000E+00 -0.00000000000E+00 -0.19496842523E+03  0.19496842523E+03  0.00000000000E+00 0.  1.
         25    1    1    2    0    0  0.41057617939E+02 -0.25060712904E+03  0.61539922954E+03  0.67737055799E+03  0.12500000000E+03 0.  0.
         25    1    1    2    0    0 -0.66046193385E+02 -0.27694516019E+02 -0.10085089992E+03  0.17585502521E+03  0.12500000000E+03 0.  0.
         25    1    1    2    0    0  0.24988575446E+02  0.27830164506E+03  0.88835743782E+03  0.93961703469E+03  0.12500000000E+03 0.  0.
</event>
<event>
 5    0  0.5778875E-005  0.2407550E+03  0.7546771E-02  0.1119291E+00
         21   -1    0    0  502  501  0.00000000000E+00  0.00000000000E+00  0.20376730115E+03  0.20376730115E+03  0.00000000000E+00 0. -1.
         21   -1    0    0  501  502 -0.00000000000E+00 -0.00000000000E+00 -0.28445665006E+03  0.28445665006E+03  0.00000000000E+00 0. -1.
         25    1    1    2    0    0 -0.66402825027E+02  0.18967777784E+02  0.22739578096E+02  0.14460705438E+03  0.12500000000E+03 0.  0.
         25    1    1    2    0    0  0.12706377505E+03  0.26454571936E+02 -0.41802556610E+02  0.18497973144E+03  0.12500000000E+03 0.  0.
         25    1    1    2    0    0 -0.60660950020E+02 -0.45422349720E+02 -0.61626370402E+02  0.15863716538E+03  0.12500000000E+03 0.  0.
</event>
<event>
 5    0  0.5778875E-005  0.2787754E+03  0.7546771E-02  0.1096360E+00
         21   -1    0    0  502  501  0.00000000000E+00  0.00000000000E+00  0.57964133213E+03  0.57964133213E+03  0.00000000000E+00 0.  1.
         21   -1    0    0  501  502 -0.00000000000E+00 -0.00000000000E+00 -0.13407554305E+03  0.13407554305E+03  0.00000000000E+00 0.  1.
         25    1    1    2    0    0  0.20867549849E+02 -0.91763074100E+02  0.11200457231E+03  0.19242125824E+03  0.12500000000E+03 0.  0.
         25    1    1    2    0    0  0.84651161270E+02  0.50337394403E+02  0.31321963042E+03  0.35132778037E+03  0.12500000000E+03 0.  0.
         25    1    1    2    0    0 -0.10551871112E+03  0.41425679696E+02  0.20341586352E+02  0.16996783657E+03  0.12500000000E+03 0.  0.
</event>
<event>
 5    0  0.5778875E-005  0.2946958E+03  0.7546771E-02  0.1087923E+00
         21   -1    0    0  502  501  0.00000000000E+00  0.00000000000E+00  0.10997011132E+03  0.10997011132E+03  0.00000000000E+00 0.  1.
         21   -1    0    0  501  502 -0.00000000000E+00 -0.00000000000E+00 -0.78972028035E+03  0.78972028035E+03  0.00000000000E+00 0.  1.
         25    1    1    2    0    0  0.13289029377E+03 -0.30219039815E+01 -0.11371351881E+03  0.21499936382E+03  0.12500000000E+03 0.  0.
         25    1    1    2    0    0  0.10796810046E+02 -0.79919907997E+02 -0.37116812443E+03  0.39986815251E+03  0.12500000000E+03 0.  0.
         25    1    1    2    0    0 -0.14368710382E+03  0.82941811978E+02 -0.19486852579E+03  0.28482287535E+03  0.12500000000E+03 0.  0.
</event>
<event>
 5    0  0.5778875E-005  0.2546025E+03  0.7546771E-02  0.1110430E+00
         21   -1    0    0  502  501  0.00000000000E+00  0.00000000000E+00  0.84071649173E+02  0.84071649173E+02  0.00000000000E+00 0.  1.
         21   -1    0    0  501  502 -0.00000000000E+00 -0.00000000000E+00 -0.77103807271E+03  0.77103807271E+03  0.00000000000E+00 0.  1.
         25    1    1    2    0    0 -0.55979186460E+02 -0.43391325555E+02 -0.33477162905E+02  0.14752015756E+03  0.12500000000E+03 0.  0.
         25    1    1    2    0    0  0.66741016540E+02  0.26281254247E+02 -0.37152462339E+03  0.39849794654E+03  0.12500000000E+03 0.  0.
         25    1    1    2    0    0 -0.10761830080E+02  0.17110071308E+02 -0.28196463724E+03  0.30909161778E+03  0.12500000000E+03 0.  0.
</event>
<event>
 5    0  0.5778875E-005  0.3210994E+03  0.7546771E-02  0.1075144E+00
         21   -1    0    0  502  501  0.00000000000E+00  0.00000000000E+00  0.26803582493E+03  0.26803582493E+03  0.00000000000E+00 0.  1.
         21   -1    0    0  501  502 -0.00000000000E+00 -0.00000000000E+00 -0.38466795556E+03  0.38466795556E+03  0.00000000000E+00 0.  1.
         25    1    1    2    0    0  0.80990715932E+02  0.24471357563E+02 -0.23013064999E+03  0.27521529658E+03  0.12500000000E+03 0.  0.
         25    1    1    2    0    0 -0.27480356287E+02  0.99771068189E+02  0.22145130577E+01  0.16229399280E+03  0.12500000000E+03 0.  0.
         25    1    1    2    0    0 -0.53510359645E+02 -0.12424242575E+03  0.11128400631E+03  0.21519449111E+03  0.12500000000E+03 0.  0.
</event>
<event>
 5    0  0.5778875E-005  0.2632951E+03  0.7546771E-02  0.1105179E+00
         21   -1    0    0  502  501  0.00000000000E+00  0.00000000000E+00  0.16164155266E+04  0.16164155266E+04  0.00000000000E+00 0.  1.
         21   -1    0    0  501  502 -0.00000000000E+00 -0.00000000000E+00 -0.42887686018E+02  0.42887686018E+02  0.00000000000E+00 0.  1.
         25    1    1    2    0    0  0.46062189103E+02 -0.13393883752E+03  0.40379418930E+03  0.44579825569E+03  0.12500000000E+03 0.  0.
         25    1    1    2    0    0  0.10498169823E+02  0.12940825944E+03  0.77162852070E+03  0.79239654412E+03  0.12500000000E+03 0.  0.
         25    1    1    2    0    0 -0.56560358926E+02  0.45305780864E+01  0.39810513055E+03  0.42110841277E+03  0.12500000000E+03 0.  0.
</event>
<event>
 5    0  0.5778875E-005  0.3243849E+03  0.7546771E-02  0.1073649E+00
         21   -1    0    0  502  501  0.00000000000E+00  0.00000000000E+00  0.74695699775E+03  0.74695699775E+03  0.00000000000E+00 0. -1.
         21   -1    0    0  501  502 -0.00000000000E+00 -0.00000000000E+00 -0.14087232664E+03  0.14087232664E+03  0.00000000000E+00 0. -1.
         25    1    1    2    0    0  0.43558801098E+02  0.43402372898E+02  0.68725405475E+02  0.15533614030E+03  0.12500000000E+03 0.  0.
         25    1    1    2    0    0  0.35275400124E+02 -0.21376085359E+03  0.38923448745E+03  0.46267325684E+03  0.12500000000E+03 0.  0.
         25    1    1    2    0    0 -0.78834201223E+02  0.17035848069E+03  0.14812477819E+03  0.26981992725E+03  0.12500000000E+03 0.  0.
</event>
<event>
 5    0  0.5778875E-005  0.3445258E+03  0.7546771E-02  0.1064885E+00
         21   -1    0    0  502  501  0.00000000000E+00  0.00000000000E+00  0.20625065162E+03  0.20625065162E+03  0.00000000000E+00 0.  1.
         21   -1    0    0  501  502 -0.00000000000E+00 -0.00000000000E+00 -0.57550375067E+03  0.57550375067E+03  0.00000000000E+00 0.  1.
         25    1    1    2    0    0 -0.50845535081E+02  0.78535828832E+02 -0.17858384763E+03  0.23721369160E+03  0.12500000000E+03 0.  0.
         25    1    1    2    0    0  0.23695191074E+03 -0.30242385569E+02 -0.15909846673E+03  0.31304653329E+03  0.12500000000E+03 0.  0.
         25    1    1    2    0    0 -0.18610637566E+03 -0.48293443263E+02 -0.31570784688E+02  0.23149417740E+03  0.12500000000E+03 0.  0.
</event>
<event>
 5    0  0.5778875E-005  0.3220277E+03  0.7546771E-02  0.1074720E+00
         21   -1    0    0  502  501  0.00000000000E+00  0.00000000000E+00  0.89453522273E+03  0.89453522273E+03  0.00000000000E+00 0.  1.
         21   -1    0    0  501  502 -0.00000000000E+00 -0.00000000000E+00 -0.11592817680E+03  0.11592817680E+03  0.00000000000E+00 0.  1.
         25    1    1    2    0    0  0.13874207296E+03  0.47121912498E+02  0.68752087106E+02  0.20450351324E+03  0.12500000000E+03 0.  0.
         25    1    1    2    0    0  0.40270422584E+02  0.52042112898E+02  0.24135915483E+03  0.27965931072E+03  0.12500000000E+03 0.  0.
         25    1    1    2    0    0 -0.17901249554E+03 -0.99164025396E+02  0.46849580399E+03  0.52630057558E+03  0.12500000000E+03 0.  0.
</event>
<event>
 5    0  0.5778875E-005  0.3356423E+03  0.7546771E-02  0.1068667E+00
         21   -1    0    0  502  501  0.00000000000E+00  0.00000000000E+00  0.40634263956E+03  0.40634263956E+03  0.00000000000E+00 0.  1.
         21   -1    0    0  501  502 -0.00000000000E+00 -0.00000000000E+00 -0.27724316683E+03  0.27724316683E+03  0.00000000000E+00 0.  1.
         25    1    1    2    0    0 -0.66545092603E+02  0.68908851715E+02  0.23244834916E+03  0.28077377766E+03  0.12500000000E+03 0.  0.
         25    1    1    2    0    0  0.46158464576E+02 -0.12424041262E+03 -0.17016863696E+03  0.24929630761E+03  0.12500000000E+03 0.  0.
         25    1    1    2    0    0  0.20386628027E+02  0.55331560906E+02  0.66819760541E+02  0.15351572113E+03  0.12500000000E+03 0.  0.
</event>
<event>
 5    0  0.5778875E-005  0.4336919E+03  0.7546771E-02  0.1032700E+00
         21   -1    0    0  502  501  0.00000000000E+00  0.00000000000E+00  0.16523570152E+04  0.16523570152E+04  0.00000000000E+00 0. -1.
         21   -1    0    0  501  502 -0.00000000000E+00 -0.00000000000E+00 -0.11383050478E+03  0.11383050478E+03  0.00000000000E+00 0. -1.
         25    1    1    2    0    0  0.23428812102E+03  0.27857119850E+01  0.31044848489E+03  0.40853634552E+03  0.12500000000E+03 0.  0.
         25    1    1    2    0    0  0.51092339252E+01 -0.10477949126E+03  0.92424614179E+03  0.93854183534E+03  0.12500000000E+03 0.  0.
         25    1    1    2    0    0 -0.23939735495E+03  0.10199377928E+03  0.30383188377E+03  0.41910933915E+03  0.12500000000E+03 0.  0.
</event>
<event>
 5    0  0.5778875E-005  0.1947102E+03  0.7546771E-02  0.1154280E+00
         21   -1    0    0  502  501  0.00000000000E+00  0.00000000000E+00  0.11686635360E+04  0.11686635360E+04  0.00000000000E+00 0. -1.
         21   -1    0    0  501  502 -0.00000000000E+00 -0.00000000000E+00 -0.32440543490E+02  0.32440543490E+02  0.00000000000E+00 0. -1.
         25    1    1    2    0    0 -0.75932679561E+01 -0.30742476665E+02  0.42405516033E+03  0.44322740957E+03  0.12500000000E+03 0.  0.
         25    1    1    2    0    0 -0.42774552260E+01  0.88030402124E+01  0.43678689658E+03  0.45442665322E+03  0.12500000000E+03 0.  0.
         25    1    1    2    0    0  0.11870723182E+02  0.21939436452E+02  0.27538093563E+03  0.30345001672E+03  0.12500000000E+03 0.  0.
</event>
<event>
 5    0  0.5778875E-005  0.3112925E+03  0.7546771E-02  0.1079728E+00
         21   -1    0    0  502  501  0.00000000000E+00  0.00000000000E+00  0.78033450185E+02  0.78033450185E+02  0.00000000000E+00 0.  1.
         21   -1    0    0  501  502 -0.00000000000E+00 -0.00000000000E+00 -0.12418139689E+04  0.12418139689E+04  0.00000000000E+00 0.  1.
         25    1    1    2    0    0 -0.72429713816E+02  0.92922104915E+02 -0.30736983131E+03  0.35211048582E+03  0.12500000000E+03 0.  0.
         25    1    1    2    0    0  0.13500984752E+03 -0.86396296042E+02 -0.16357521601E+03  0.26090962073E+03  0.12500000000E+03 0.  0.
         25    1    1    2    0    0 -0.62580133704E+02 -0.65258088735E+01 -0.69283547138E+03  0.70682731252E+03  0.12500000000E+03 0.  0.
</event>
<event>
 5    0  0.6263342E-005  0.2989955E+03  0.7546771E-02  0.1085744E+00
         21   -1    0    0  502  501  0.00000000000E+00  0.00000000000E+00  0.17730861319E+03  0.17730861319E+03  0.00000000000E+00 0.  1.
         21   -1    0    0  501  502 -0.00000000000E+00 -0.00000000000E+00 -0.50419609567E+03  0.50419609567E+03  0.00000000000E+00 0.  1.
         25    1    1    2    0    0  0.35717249338E+02 -0.52560891212E+02 -0.22861198090E+03  0.26819173551E+03  0.12500000000E+03 0.  0.
         25    1    1    2    0    0  0.99789271255E+02  0.37621114892E+02 -0.14869469074E+03  0.22160405682E+03  0.12500000000E+03 0.  0.
         25    1    1    2    0    0 -0.13550652059E+03  0.14939776320E+02  0.50419189173E+02  0.19170891653E+03  0.12500000000E+03 0.  0.
</event>
<event>
 5    0  0.5778875E-005  0.3760813E+03  0.7546771E-02  0.1052392E+00
         21   -1    0    0  502  501  0.00000000000E+00  0.00000000000E+00  0.28675553393E+03  0.28675553393E+03  0.00000000000E+00 0.  1.
         21   -1    0    0  501  502 -0.00000000000E+00 -0.00000000000E+00 -0.49323242575E+03  0.49323242575E+03  0.00000000000E+00 0.  1.
         25    1    1    2    0    0  0.85224738850E+02 -0.72444756681E+02 -0.27487780413E+03  0.32201600284E+03  0.12500000000E+03 0.  0.
         25    1    1    2    0    0 -0.14759874286E+03 -0.31224907029E+02  0.16750039920E+03  0.25776300636E+03  0.12500000000E+03 0.  0.
         25    1    1    2    0    0  0.62374004007E+02  0.10366966371E+03 -0.99099486897E+02  0.20020895048E+03  0.12500000000E+03 0.  0.
</event>
<event>
 5    0  0.5778875E-005  0.3232955E+03  0.7546771E-02  0.1074143E+00
         21   -1    0    0  502  501  0.00000000000E+00  0.00000000000E+00  0.27567511026E+03  0.27567511026E+03  0.00000000000E+00 0.  1.
         21   -1    0    0  501  502 -0.00000000000E+00 -0.00000000000E+00 -0.37914184871E+03  0.37914184871E+03  0.00000000000E+00 0.  1.
         25    1    1    2    0    0 -0.17152249894E+03 -0.12409645338E+03 -0.45008354592E+02  0.24994129184E+03  0.12500000000E+03 0.  0.
         25    1    1    2    0    0  0.58735071663E+02  0.75459340509E+02 -0.14086959926E+03  0.21121828687E+03  0.12500000000E+03 0.  0.
         25    1    1    2    0    0  0.11278742727E+03  0.48637112875E+02  0.82411215405E+02  0.19365738025E+03  0.12500000000E+03 0.  0.
</event>
<event>
 5    0  0.5778875E-005  0.2931360E+03  0.7546771E-02  0.1088723E+00
         21   -1    0    0  502  501  0.00000000000E+00  0.00000000000E+00  0.11231674983E+03  0.11231674983E+03  0.00000000000E+00 0. -1.
         21   -1    0    0  501  502 -0.00000000000E+00 -0.00000000000E+00 -0.76505675864E+03  0.76505675864E+03  0.00000000000E+00 0. -1.
         25    1    1    2    0    0 -0.10916602401E+03 -0.15945037656E+00 -0.10345288997E+03  0.19556264128E+03  0.12500000000E+03 0.  0.
         25    1    1    2    0    0 -0.72156599390E+02 -0.28061252325E+02 -0.91932054418E+02  0.17340851002E+03  0.12500000000E+03 0.  0.
         25    1    1    2    0    0  0.18132262340E+03  0.28220702702E+02 -0.45735506442E+03  0.50840235716E+03  0.12500000000E+03 0.  0.
</event>
<event>
 5    0  0.5778875E-005  0.2637278E+03  0.7546771E-02  0.1104924E+00
         21   -1    0    0  502  501  0.00000000000E+00  0.00000000000E+00  0.23604245032E+03  0.23604245032E+03  0.00000000000E+00 0. -1.
         21   -1    0    0  501  502 -0.00000000000E+00 -0.00000000000E+00 -0.29466044305E+03  0.29466044305E+03  0.00000000000E+00 0. -1.
         25    1    1    2    0    0 -0.55221144734E+02  0.98425809247E+02  0.10502764611E+03  0.19847624845E+03  0.12500000000E+03 0.  0.
         25    1    1    2    0    0  0.52254698983E+02 -0.10817938193E+02 -0.66950209469E+02  0.15150878490E+03  0.12500000000E+03 0.  0.
         25    1    1    2    0    0  0.29664457514E+01 -0.87607871053E+02 -0.96695429364E+02  0.18071786002E+03  0.12500000000E+03 0.  0.
</event>
<event>
 5    0  0.5778875E-005  0.2949763E+03  0.7546771E-02  0.1087779E+00
         21   -1    0    0  502  501  0.00000000000E+00  0.00000000000E+00  0.13829105506E+03  0.13829105506E+03  0.00000000000E+00 0.  1.
         21   -1    0    0  501  502 -0.00000000000E+00 -0.00000000000E+00 -0.62918768062E+03  0.62918768062E+03  0.00000000000E+00 0.  1.
         25    1    1    2    0    0  0.62410721786E+02 -0.19423287232E+01 -0.13784372030E+03  0.19627725813E+03  0.12500000000E+03 0.  0.
         25    1    1    2    0    0 -0.20619019935E+03  0.34446442743E+02 -0.13009614447E+03  0.27613576830E+03  0.12500000000E+03 0.  0.
         25    1    1    2    0    0  0.14377947757E+03 -0.32504114020E+02 -0.22295676080E+03  0.29506570926E+03  0.12500000000E+03 0.  0.
</event>
<event>
 5    0  0.5778875E-005  0.3375269E+03  0.7546771E-02  0.1067854E+00
         21   -1    0    0  502  501  0.00000000000E+00  0.00000000000E+00  0.29260362307E+03  0.29260362307E+03  0.00000000000E+00 0. -1.
         21   -1    0    0  501  502 -0.00000000000E+00 -0.00000000000E+00 -0.38934732158E+03  0.38934732158E+03  0.00000000000E+00 0.  1.
         25    1    1    2    0    0  0.36509069124E+02 -0.89828147681E+01  0.34354000050E+02  0.13497703660E+03  0.12500000000E+03 0.  0.
         25    1    1    2    0    0  0.77986927429E+02  0.13868245244E+03  0.10561621861E+03  0.22824234729E+03  0.12500000000E+03 0.  0.
         25    1    1    2    0    0 -0.11449599655E+03 -0.12969963767E+03 -0.23671391717E+03  0.31873156075E+03  0.12500000000E+03 0.  0.
</event>
<event>
 5    0  0.5778875E-005  0.4461136E+03  0.7546771E-02  0.1028887E+00
         21   -1    0    0  502  501  0.00000000000E+00  0.00000000000E+00  0.63396893757E+03  0.63396893757E+03  0.00000000000E+00 0. -1.
         21   -1    0    0  501  502 -0.00000000000E+00 -0.00000000000E+00 -0.31392281676E+03  0.31392281676E+03  0.00000000000E+00 0. -1.
         25    1    1    2    0    0 -0.16592570981E+02 -0.30624211000E+03  0.18786346654E+03  0.38075874962E+03  0.12500000000E+03 0.  0.
         25    1    1    2    0    0  0.18893380884E+02  0.38359175520E+03  0.85016300663E+02  0.41273764776E+03  0.12500000000E+03 0.  0.
         25    1    1    2    0    0 -0.23008099030E+01 -0.77349645195E+02  0.47166353614E+02  0.15439535696E+03  0.12500000000E+03 0.  0.
</event>
<event>
 5    0  0.5778875E-005  0.4329043E+03  0.7546771E-02  0.1032946E+00
         21   -1    0    0  502  501  0.00000000000E+00  0.00000000000E+00  0.13708784441E+03  0.13708784441E+03  0.00000000000E+00 0.  1.
         21   -1    0    0  501  502 -0.00000000000E+00 -0.00000000000E+00 -0.13670516629E+04  0.13670516629E+04  0.00000000000E+00 0.  1.
         25    1    1    2    0    0  0.28713052411E+00  0.17309887963E+03 -0.96182278657E+03  0.98523671132E+03  0.12500000000E+03 0.  0.
         25    1    1    2    0    0 -0.14704191058E+03 -0.14941962981E+02 -0.97371337506E+02  0.21668124767E+03  0.12500000000E+03 0.  0.
         25    1    1    2    0    0  0.14675478005E+03 -0.15815691665E+03 -0.17076969445E+03  0.30222154836E+03  0.12500000000E+03 0.  0.
</event>
<event>
 5    0  0.5778875E-005  0.4161787E+03  0.7546771E-02  0.1038317E+00
         21   -1    0    0  502  501  0.00000000000E+00  0.00000000000E+00  0.63406988039E+03  0.63406988039E+03  0.00000000000E+00 0. -1.
         21   -1    0    0  501  502 -0.00000000000E+00 -0.00000000000E+00 -0.27316340214E+03  0.27316340214E+03  0.00000000000E+00 0.  1.
         25    1    1    2    0    0  0.76540733327E+02 -0.10411440476E+03  0.38468369980E+02  0.18385621726E+03  0.12500000000E+03 0.  0.
         25    1    1    2    0    0 -0.22443505126E+03 -0.40568348467E+02 -0.63746880122E+02  0.26777891600E+03  0.12500000000E+03 0.  0.
         25    1    1    2    0    0  0.14789431793E+03  0.14468275323E+03  0.38618498838E+03  0.45559814926E+03  0.12500000000E+03 0.  0.
</event>
<event>
 5    0  0.5778875E-005  0.3708913E+03  0.7546771E-02  0.1054353E+00
         21   -1    0    0  502  501  0.00000000000E+00  0.00000000000E+00  0.10756034179E+04  0.10756034179E+04  0.00000000000E+00 0. -1.
         21   -1    0    0  501  502 -0.00000000000E+00 -0.00000000000E+00 -0.12789134032E+03  0.12789134032E+03  0.00000000000E+00 0. -1.
         25    1    1    2    0    0 -0.85985203830E+02 -0.12763153611E+03  0.72418871941E+02  0.21107524085E+03  0.12500000000E+03 0.  0.
         25    1    1    2    0    0 -0.11457277119E+03 -0.36143272523E+02  0.41425313867E+03  0.44907006017E+03  0.12500000000E+03 0.  0.
         25    1    1    2    0    0  0.20055797502E+03  0.16377480863E+03  0.46104006700E+03  0.54334945722E+03  0.12500000000E+03 0.  0.
</event>
<event>
 5    0  0.5778875E-005  0.3027700E+03  0.7546771E-02  0.1083864E+00
         21   -1    0    0  502  501  0.00000000000E+00  0.00000000000E+00  0.42933304619E+03  0.42933304619E+03  0.00000000000E+00 0. -1.
         21   -1    0    0  501  502 -0.00000000000E+00 -0.00000000000E+00 -0.21351648549E+03  0.21351648549E+03  0.00000000000E+00 0. -1.
         25    1    1    2    0    0  0.77785791398E+02 -0.96875029992E+02  0.11282717802E+03  0.20926149402E+03  0.12500000000E+03 0.  0.
         25    1    1    2    0    0  0.41012215261E+02  0.18077510115E+03  0.91167836312E+02  0.24145022960E+03  0.12500000000E+03 0.  0.
         25    1    1    2    0    0 -0.11879800666E+03 -0.83900071161E+02  0.11821546368E+02  0.19213780806E+03  0.12500000000E+03 0.  0.
</event>
<event>
 5    0  0.5778875E-005  0.2727063E+03  0.7546771E-02  0.1099741E+00
         21   -1    0    0  502  501  0.00000000000E+00  0.00000000000E+00  0.70781960117E+03  0.70781960117E+03  0.00000000000E+00 0. -1.
         21   -1    0    0  501  502 -0.00000000000E+00 -0.00000000000E+00 -0.10506734662E+03  0.10506734662E+03  0.00000000000E+00 0. -1.
         25    1    1    2    0    0  0.51436716870E+02 -0.19821856104E+02  0.31147493056E+03  0.34011802979E+03  0.12500000000E+03 0.  0.
         25    1    1    2    0    0  0.39914312416E+02  0.12799065893E+03  0.13547529784E+03  0.22793270374E+03  0.12500000000E+03 0.  0.
         25    1    1    2    0    0 -0.91351029285E+02 -0.10816880283E+03  0.15580202616E+03  0.24483621426E+03  0.12500000000E+03 0.  0.
</event>
<event>
 5    0  0.5778875E-005  0.4184318E+03  0.7546771E-02  0.1037578E+00
         21   -1    0    0  502  501  0.00000000000E+00  0.00000000000E+00  0.12873556282E+03  0.12873556282E+03  0.00000000000E+00 0.  1.
         21   -1    0    0  501  502 -0.00000000000E+00 -0.00000000000E+00 -0.13600371971E+04  0.13600371971E+04  0.00000000000E+00 0.  1.
         25    1    1    2    0    0 -0.18987451032E+02 -0.93433674005E+02 -0.25859639737E+03  0.30263422059E+03  0.12500000000E+03 0.  0.
         25    1    1    2    0    0  0.19016748693E+03  0.12511957849E+03 -0.93262299383E+03  0.96810600175E+03  0.12500000000E+03 0.  0.
         25    1    1    2    0    0 -0.17118003589E+03 -0.31685904481E+02 -0.40082243072E+02  0.21803253757E+03  0.12500000000E+03 0.  0.
</event>
<event>
 5    0  0.5778875E-005  0.3727640E+03  0.7546771E-02  0.1053641E+00
         21   -1    0    0  502  501  0.00000000000E+00  0.00000000000E+00  0.40323710283E+03  0.40323710283E+03  0.00000000000E+00 0. -1.
         21   -1    0    0  501  502 -0.00000000000E+00 -0.00000000000E+00 -0.34459381449E+03  0.34459381449E+03  0.00000000000E+00 0. -1.
         25    1    1    2    0    0  0.13546114012E+03 -0.74490624514E+02  0.80065727603E+02  0.21432240751E+03  0.12500000000E+03 0.  0.
         25    1    1    2    0    0 -0.73719822144E+02  0.25806701784E+03 -0.53200838135E+02  0.30081310984E+03  0.12500000000E+03 0.  0.
         25    1    1    2    0    0 -0.61741317980E+02 -0.18357639333E+03  0.31778398873E+02  0.23269539997E+03  0.12500000000E+03 0.  0.
</event>
<event>
 5    0  0.5778875E-005  0.2416387E+03  0.7546771E-02  0.1118706E+00
         21   -1    0    0  502  501  0.00000000000E+00  0.00000000000E+00  0.25278265658E+03  0.25278265658E+03  0.00000000000E+00 0.  1.
         21   -1    0    0  501  502 -0.00000000000E+00 -0.00000000000E+00 -0.23098608552E+03  0.23098608552E+03  0.00000000000E+00 0.  1.
         25    1    1    2    0    0 -0.31372840927E+02 -0.97069835817E+02  0.21450305586E+02  0.16276339817E+03  0.12500000000E+03 0.  0.
         25    1    1    2    0    0  0.90025773566E+02  0.44197578135E+02  0.45175935656E+02  0.16650504792E+03  0.12500000000E+03 0.  0.
         25    1    1    2    0    0 -0.58652932639E+02  0.52872257682E+02 -0.44829670178E+02  0.15450029601E+03  0.12500000000E+03 0.  0.
</event>
<event>
 5    0  0.5778875E-005  0.2501960E+03  0.7546771E-02  0.1113181E+00
         21   -1    0    0  502  501  0.00000000000E+00  0.00000000000E+00  0.37408651728E+03  0.37408651728E+03  0.00000000000E+00 0. -1.
         21   -1    0    0  501  502 -0.00000000000E+00 -0.00000000000E+00 -0.16733571386E+03  0.16733571386E+03  0.00000000000E+00 0. -1.
         25    1    1    2    0    0  0.29105127959E+02  0.95014446618E+02  0.11258563324E+03  0.19538520505E+03  0.12500000000E+03 0.  0.
         25    1    1    2    0    0 -0.92197167630E+02 -0.99347705594E+02  0.14657339655E+02  0.18495978463E+03  0.12500000000E+03 0.  0.
         25    1    1    2    0    0  0.63092039671E+02  0.43332589758E+01  0.79507830520E+02  0.16107724146E+03  0.12500000000E+03 0.  0.
</event>
<event>
 5    0  0.5778875E-005  0.2517301E+03  0.7546771E-02  0.1112216E+00
         21   -1    0    0  502  501  0.00000000000E+00  0.00000000000E+00  0.68704955901E+02  0.68704955901E+02  0.00000000000E+00 0.  1.
         21   -1    0    0  501  502 -0.00000000000E+00 -0.00000000000E+00 -0.92232131710E+03  0.92232131710E+03  0.00000000000E+00 0.  1.
         25    1    1    2    0    0 -0.50719744859E+02 -0.72761907140E+01 -0.33911714474E+03  0.36503544119E+03  0.12500000000E+03 0.  0.
         25    1    1    2    0    0  0.74154313544E+02 -0.10287414590E+03 -0.33869770680E+03  0.38265269985E+03  0.12500000000E+03 0.  0.
         25    1    1    2    0    0 -0.23434568685E+02  0.11015033662E+03 -0.17580150967E+03  0.24333813196E+03  0.12500000000E+03 0.  0.
</event>
<event>
 5    0  0.5778875E-005  0.4212501E+03  0.7546771E-02  0.1036660E+00
         21   -1    0    0  502  501  0.00000000000E+00  0.00000000000E+00  0.18582097698E+03  0.18582097698E+03  0.00000000000E+00 0.  1.
         21   -1    0    0  501  502 -0.00000000000E+00 -0.00000000000E+00 -0.95496034354E+03  0.95496034354E+03  0.00000000000E+00 0.  1.
         25    1    1    2    0    0 -0.73646612175E+02  0.29911880277E+03 -0.60403603927E+03  0.68947836688E+03  0.12500000000E+03 0.  0.
         25    1    1    2    0    0 -0.21158621488E+02 -0.19149671793E+03 -0.85225519597E+02  0.24496340427E+03  0.12500000000E+03 0.  0.
         25    1    1    2    0    0  0.94805233662E+02 -0.10762208484E+03 -0.79877807691E+02  0.20633954937E+03  0.12500000000E+03 0.  0.
</event>
<event>
 5    0  0.5778875E-005  0.2473108E+03  0.7546771E-02  0.1115016E+00
         21   -1    0    0  502  501  0.00000000000E+00  0.00000000000E+00  0.31867686078E+02  0.31867686078E+02  0.00000000000E+00 0.  1.
         21   -1    0    0  501  502 -0.00000000000E+00 -0.00000000000E+00 -0.19192673267E+04  0.19192673267E+04  0.00000000000E+00 0.  1.
         25    1    1    2    0    0 -0.48091794131E+02  0.31225880654E+02 -0.91853173718E+03  0.92876984689E+03  0.12500000000E+03 0.  0.
         25    1    1    2    0    0 -0.14200376096E+02 -0.10442391401E+03 -0.58384491360E+03  0.60630511101E+03  0.12500000000E+03 0.  0.
         25    1    1    2    0    0  0.62292170228E+02  0.73198033356E+02 -0.38502298983E+03  0.41606005487E+03  0.12500000000E+03 0.  0.
</event>
<event>
 5    0  0.5778875E-005  0.3116566E+03  0.7546771E-02  0.1079555E+00
         21   -1    0    0  502  501  0.00000000000E+00  0.00000000000E+00  0.89458789049E+02  0.89458789049E+02  0.00000000000E+00 0.  1.
         21   -1    0    0  501  502 -0.00000000000E+00 -0.00000000000E+00 -0.10857492145E+04  0.10857492145E+04  0.00000000000E+00 0.  1.
         25    1    1    2    0    0 -0.58200085926E+02 -0.13047569681E+03 -0.97805523833E+02  0.21354643043E+03  0.12500000000E+03 0.  0.
         25    1    1    2    0    0 -0.69267515853E+01  0.10550339656E+03 -0.68733676799E+03  0.70656618884E+03  0.12500000000E+03 0.  0.
         25    1    1    2    0    0  0.65126837511E+02  0.24972300243E+02 -0.21114813360E+03  0.25509538425E+03  0.12500000000E+03 0.  0.
</event>
<event>
 5    0  0.5778875E-005  0.2726320E+03  0.7546771E-02  0.1099783E+00
         21   -1    0    0  502  501  0.00000000000E+00  0.00000000000E+00  0.21969973548E+03  0.21969973548E+03  0.00000000000E+00 0. -1.
         21   -1    0    0  501  502 -0.00000000000E+00 -0.00000000000E+00 -0.33831728338E+03  0.33831728338E+03  0.00000000000E+00 0. -1.
         25    1    1    2    0    0 -0.61726340745E+02 -0.14101131654E+03  0.66746557386E+02  0.20922341040E+03  0.12500000000E+03 0.  0.
         25    1    1    2    0    0  0.28180328790E+02  0.63382766105E+02 -0.72160744024E+02  0.16013643854E+03  0.12500000000E+03 0.  0.
         25    1    1    2    0    0  0.33546011955E+02  0.77628550436E+02 -0.11320336127E+03  0.18865716992E+03  0.12500000000E+03 0.  0.
</event>
<event>
 5    0  0.5778875E-005  0.4476047E+03  0.7546771E-02  0.1028439E+00
         21   -1    0    0  502  501  0.00000000000E+00  0.00000000000E+00  0.12301071421E+04  0.12301071421E+04  0.00000000000E+00 0.  1.
         21   -1    0    0  501  502 -0.00000000000E+00 -0.00000000000E+00 -0.16287193562E+03  0.16287193562E+03  0.00000000000E+00 0.  1.
         25    1    1    2    0    0  0.15548660031E+02 -0.76896567344E+02 -0.55839348333E+02  0.15779060720E+03  0.12500000000E+03 0.  0.
         25    1    1    2    0    0 -0.73186789344E+02  0.25016172706E+03  0.56038610946E+03  0.63055117754E+03  0.12500000000E+03 0.  0.
         25    1    1    2    0    0  0.57638129313E+02 -0.17326515971E+03  0.56268844534E+03  0.60463729296E+03  0.12500000000E+03 0.  0.
</event>
<event>
 5    0  0.5778875E-005  0.2504706E+03  0.7546771E-02  0.1113008E+00
         21   -1    0    0  502  501  0.00000000000E+00  0.00000000000E+00  0.32085667241E+03  0.32085667241E+03  0.00000000000E+00 0. -1.
         21   -1    0    0  501  502 -0.00000000000E+00 -0.00000000000E+00 -0.19552509947E+03  0.19552509947E+03  0.00000000000E+00 0. -1.
         25    1    1    2    0    0  0.62852625763E+02  0.95953967970E+02  0.60218288255E+00  0.16965547194E+03  0.12500000000E+03 0.  0.
         25    1    1    2    0    0  0.32940853442E+02 -0.58900572873E+00  0.96890100280E+01  0.12963149181E+03  0.12500000000E+03 0.  0.
         25    1    1    2    0    0 -0.95793479205E+02 -0.95364962241E+02  0.11504038004E+03  0.21709480814E+03  0.12500000000E+03 0.  0.
</event>
<event>
 5    0  0.5778875E-005  0.5126503E+03  0.7546771E-02  0.1010529E+00
         21   -1    0    0  502  501  0.00000000000E+00  0.00000000000E+00  0.45899932195E+03  0.45899932195E+03  0.00000000000E+00 0.  1.
         21   -1    0    0  501  502 -0.00000000000E+00 -0.00000000000E+00 -0.57257231865E+03  0.57257231865E+03  0.00000000000E+00 0.  1.
         25    1    1    2    0    0 -0.98812811137E+02  0.25482190213E+03  0.13201366557E+03  0.32825414140E+03  0.12500000000E+03 0.  0.
         25    1    1    2    0    0 -0.21232410740E+03 -0.12417881094E+03 -0.19958318897E+03  0.34052951853E+03  0.12500000000E+03 0.  0.
         25    1    1    2    0    0  0.31113691854E+03 -0.13064309120E+03 -0.46003473293E+02  0.36278798066E+03  0.12500000000E+03 0.  0.
</event>
<event>
 5    0  0.5778875E-005  0.3752022E+03  0.7546771E-02  0.1052721E+00
         21   -1    0    0  502  501  0.00000000000E+00  0.00000000000E+00  0.79516661855E+02  0.79516661855E+02  0.00000000000E+00 0.  1.
         21   -1    0    0  501  502 -0.00000000000E+00 -0.00000000000E+00 -0.17704051199E+04  0.17704051199E+04  0.00000000000E+00 0.  1.
         25    1    1    2    0    0 -0.11188711034E+02  0.46652424602E+02 -0.39725594118E+02  0.13965943865E+03  0.12500000000E+03 0.  0.
         25    1    1    2    0    0  0.47180951926E+02  0.82664908881E+02 -0.23759302259E+03  0.28484201546E+03  0.12500000000E+03 0.  0.
         25    1    1    2    0    0 -0.35992240891E+02 -0.12931733348E+03 -0.14135698413E+04  0.14254203276E+04  0.12500000000E+03 0.  0.
</event>
<event>
 5    0  0.5778875E-005  0.3185951E+03  0.7546771E-02  0.1076298E+00
         21   -1    0    0  502  501  0.00000000000E+00  0.00000000000E+00  0.76021869992E+02  0.76021869992E+02  0.00000000000E+00 0.  1.
         21   -1    0    0  501  502 -0.00000000000E+00 -0.00000000000E+00 -0.13351793177E+04  0.13351793177E+04  0.00000000000E+00 0.  1.
         25    1    1    2    0    0 -0.13273367125E+03  0.10810773107E+01 -0.79003868589E+03  0.81080547692E+03  0.12500000000E+03 0.  0.
         25    1    1    2    0    0  0.16967654402E+03  0.43286997290E+02 -0.37908427464E+03  0.43588276062E+03  0.12500000000E+03 0.  0.
         25    1    1    2    0    0 -0.36942872769E+02 -0.44368074601E+02 -0.90034487226E+02  0.16451295020E+03  0.12500000000E+03 0.  0.
</event>
<event>
 5    0  0.5778875E-005  0.2577450E+03  0.7546771E-02  0.1108506E+00
         21   -1    0    0  502  501  0.00000000000E+00  0.00000000000E+00  0.33589962394E+03  0.33589962394E+03  0.00000000000E+00 0. -1.
         21   -1    0    0  501  502 -0.00000000000E+00 -0.00000000000E+00 -0.19777475035E+03  0.19777475035E+03  0.00000000000E+00 0. -1.
         25    1    1    2    0    0  0.27276061653E+02  0.14501866873E+02 -0.17479754397E+02  0.12994163881E+03  0.12500000000E+03 0.  0.
         25    1    1    2    0    0 -0.11139514969E+03 -0.51668263565E+02  0.17463163027E+03  0.24738572134E+03  0.12500000000E+03 0.  0.
         25    1    1    2    0    0  0.84119088036E+02  0.37166396692E+02 -0.19027002283E+02  0.15634701414E+03  0.12500000000E+03 0.  0.
</event>
<event>
 5    0  0.5778875E-005  0.2502014E+03  0.7546771E-02  0.1113178E+00
         21   -1    0    0  502  501  0.00000000000E+00  0.00000000000E+00  0.18237730562E+03  0.18237730562E+03  0.00000000000E+00 0.  1.
         21   -1    0    0  501  502 -0.00000000000E+00 -0.00000000000E+00 -0.34324850938E+03  0.34324850938E+03  0.00000000000E+00 0.  1.
         25    1    1    2    0    0  0.46995668643E+02 -0.48592700936E+02 -0.20516709274E+03  0.24957639992E+03  0.12500000000E+03 0.  0.
         25    1    1    2    0    0 -0.30104552237E+02  0.28182072756E+01  0.58170568713E+02  0.14114900433E+03  0.12500000000E+03 0.  0.
         25    1    1    2    0    0 -0.16891116406E+02  0.45774493660E+02 -0.13874679723E+02  0.13490041075E+03  0.12500000000E+03 0.  0.
</event>
<event>
 5    0  0.5778875E-005  0.2792079E+03  0.7546771E-02  0.1096122E+00
         21   -1    0    0  502  501  0.00000000000E+00  0.00000000000E+00  0.15319089700E+03  0.15319089700E+03  0.00000000000E+00 0. -1.
         21   -1    0    0  501  502 -0.00000000000E+00 -0.00000000000E+00 -0.50888818145E+03  0.50888818145E+03  0.00000000000E+00 0. -1.
         25    1    1    2    0    0  0.29472052493E+02  0.12335122938E+03 -0.10885913040E+03  0.20870897906E+03  0.12500000000E+03 0.  0.
         25    1    1    2    0    0  0.78557689162E+02  0.34267477003E+02 -0.10848744810E+03  0.18638695475E+03  0.12500000000E+03 0.  0.
         25    1    1    2    0    0 -0.10802974165E+03 -0.15761870638E+03 -0.13835070596E+03  0.26698314464E+03  0.12500000000E+03 0.  0.
</event>
<event>
 5    0  0.5778875E-005  0.5421676E+03  0.7546771E-02  0.1003323E+00
         21   -1    0    0  502  501  0.00000000000E+00  0.00000000000E+00  0.98568371491E+03  0.98568371491E+03  0.00000000000E+00 0. -1.
         21   -1    0    0  501  502 -0.00000000000E+00 -0.00000000000E+00 -0.29821498954E+03  0.29821498954E+03  0.00000000000E+00 0. -1.
         25    1    1    2    0    0  0.76763586465E+02 -0.38817464002E+03  0.38030308700E+03  0.56287444190E+03  0.12500000000E+03 0.  0.
         25    1    1    2    0    0 -0.73919466595E+02  0.11205016595E+03  0.36862872582E+03  0.41174198806E+03  0.12500000000E+03 0.  0.
         25    1    1    2    0    0 -0.28441198699E+01  0.27612447407E+03 -0.61463087445E+02  0.30928227449E+03  0.12500000000E+03 0.  0.
</event>
<event>
 5    0  0.5778875E-005  0.5508935E+03  0.7546771E-02  0.1001287E+00
         21   -1    0    0  502  501  0.00000000000E+00  0.00000000000E+00  0.45315755865E+03  0.45315755865E+03  0.00000000000E+00 0. -1.
         21   -1    0    0  501  502 -0.00000000000E+00 -0.00000000000E+00 -0.66970890570E+03  0.66970890570E+03  0.00000000000E+00 0. -1.
         25    1    1    2    0    0 -0.14155830962E+03 -0.24508081132E+03  0.26192210162E+03  0.40537827571E+03  0.12500000000E+03 0.  0.
         25    1    1    2    0    0  0.13057091466E+03  0.30749396720E+03 -0.45044384560E+03  0.57456588974E+03  0.12500000000E+03 0.  0.
         25    1    1    2    0    0  0.10987394957E+02 -0.62413155880E+02 -0.28029603067E+02  0.14292229890E+03  0.12500000000E+03 0.  0.
</event>
<event>
 5    0  0.5778875E-005  0.2513213E+03  0.7546771E-02  0.1112473E+00
         21   -1    0    0  502  501  0.00000000000E+00  0.00000000000E+00  0.37528963938E+02  0.37528963938E+02  0.00000000000E+00 0. -1.
         21   -1    0    0  501  502 -0.00000000000E+00 -0.00000000000E+00 -0.16830312725E+04  0.16830312725E+04  0.00000000000E+00 0. -1.
         25    1    1    2    0    0  0.10367140550E+03 -0.27929339932E+02 -0.31769641457E+03  0.35788799949E+03  0.12500000000E+03 0.  0.
         25    1    1    2    0    0 -0.54995054374E+01  0.26001722950E+02 -0.36249689708E+03  0.38436354477E+03  0.12500000000E+03 0.  0.
         25    1    1    2    0    0 -0.98171900067E+02  0.19276169818E+01 -0.96530899694E+03  0.97830869220E+03  0.12500000000E+03 0.  0.
</event>
<event>
 5    0  0.5778875E-005  0.3106574E+03  0.7546771E-02  0.1080031E+00
         21   -1    0    0  502  501  0.00000000000E+00  0.00000000000E+00  0.12756297451E+04  0.12756297451E+04  0.00000000000E+00 0. -1.
         21   -1    0    0  501  502 -0.00000000000E+00 -0.00000000000E+00 -0.75655218543E+02  0.75655218543E+02  0.00000000000E+00 0. -1.
         25    1    1    2    0    0  0.33844651551E+01 -0.15742996599E+03  0.34558375473E+03  0.39981093073E+03  0.12500000000E+03 0.  0.
         25    1    1    2    0    0  0.22885567268E+02  0.19880052456E+03  0.30331980487E+03  0.38428284086E+03  0.12500000000E+03 0.  0.
         25    1    1    2    0    0 -0.26270032423E+02 -0.41370558573E+02  0.55107096693E+03  0.56719119203E+03  0.12500000000E+03 0.  0.
</event>
<event>
 5    0  0.5778875E-005  0.2734321E+03  0.7546771E-02  0.1099331E+00
         21   -1    0    0  502  501  0.00000000000E+00  0.00000000000E+00  0.17814278411E+03  0.17814278411E+03  0.00000000000E+00 0.  1.
         21   -1    0    0  501  502 -0.00000000000E+00 -0.00000000000E+00 -0.41969215220E+03  0.41969215220E+03  0.00000000000E+00 0.  1.
         25    1    1    2    0    0  0.15570039708E+03 -0.37520401142E+02 -0.17106189901E+02  0.20388235795E+03  0.12500000000E+03 0.  0.
         25    1    1    2    0    0 -0.50942293814E+02  0.72830081903E+02 -0.13652602705E+03  0.20533799987E+03  0.12500000000E+03 0.  0.
         25    1    1    2    0    0 -0.10475810326E+03 -0.35309680761E+02 -0.87917151130E+02  0.18861457849E+03  0.12500000000E+03 0.  0.
</event>
<event>
 5    0  0.5778875E-005  0.3029449E+03  0.7546771E-02  0.1083778E+00
         21   -1    0    0  502  501  0.00000000000E+00  0.00000000000E+00  0.50193337236E+03  0.50193337236E+03  0.00000000000E+00 0.  1.
         21   -1    0    0  501  502 -0.00000000000E+00 -0.00000000000E+00 -0.18284422760E+03  0.18284422760E+03  0.00000000000E+00 0.  1.
         25    1    1    2    0    0 -0.53973249965E+02  0.16764037845E+03  0.75716316977E+02  0.22885447091E+03  0.12500000000E+03 0.  0.
         25    1    1    2    0    0 -0.37097573654E+02 -0.41429713520E+02 -0.54529581235E+01  0.13692109365E+03  0.12500000000E+03 0.  0.
         25    1    1    2    0    0  0.91070823620E+02 -0.12621066493E+03  0.24882578591E+03  0.31900203540E+03  0.12500000000E+03 0.  0.
</event>
<event>
 5    0  0.5778875E-005  0.2841651E+03  0.7546771E-02  0.1093436E+00
         21   -1    0    0  502  501  0.00000000000E+00  0.00000000000E+00  0.69444965725E+02  0.69444965725E+02  0.00000000000E+00 0. -1.
         21   -1    0    0  501  502 -0.00000000000E+00 -0.00000000000E+00 -0.11627885869E+04  0.11627885869E+04  0.00000000000E+00 0. -1.
         25    1    1    2    0    0  0.36456725395E+02 -0.59283767298E+02 -0.16574651761E+03  0.21895334204E+03  0.12500000000E+03 0.  0.
         25    1    1    2    0    0  0.63151517907E+02 -0.92332464632E+01 -0.11259973345E+03  0.17993628602E+03  0.12500000000E+03 0.  0.
         25    1    1    2    0    0 -0.99608243302E+02  0.68517013762E+02 -0.81499737007E+03  0.83334392452E+03  0.12500000000E+03 0.  0.
</event>
<event>
 5    0  0.5778875E-005  0.2245211E+03  0.7546771E-02  0.1130557E+00
         21   -1    0    0  502  501  0.00000000000E+00  0.00000000000E+00  0.32337321363E+02  0.32337321363E+02  0.00000000000E+00 0. -1.
         21   -1    0    0  501  502 -0.00000000000E+00 -0.00000000000E+00 -0.15588715571E+04  0.15588715571E+04  0.00000000000E+00 0. -1.
         25    1    1    2    0    0  0.65377700405E+02 -0.49855205900E+02 -0.52773834636E+03  0.54853673303E+03  0.12500000000E+03 0.  0.
         25    1    1    2    0    0  0.21481529298E+02  0.50320273121E+02 -0.33656998783E+03  0.36317756359E+03  0.12500000000E+03 0.  0.
         25    1    1    2    0    0 -0.86859229702E+02 -0.46506722188E+00 -0.66222590153E+03  0.67949458183E+03  0.12500000000E+03 0.  0.
</event>
<event>
 5    0  0.5778875E-005  0.2468196E+03  0.7546771E-02  0.1115331E+00
         21   -1    0    0  502  501  0.00000000000E+00  0.00000000000E+00  0.20716251740E+03  0.20716251740E+03  0.00000000000E+00 0.  1.
         21   -1    0    0  501  502 -0.00000000000E+00 -0.00000000000E+00 -0.29406818554E+03  0.29406818554E+03  0.00000000000E+00 0.  1.
         25    1    1    2    0    0  0.53503406658E+01  0.52022505662E+02  0.85801787508E+01  0.13577034547E+03  0.12500000000E+03 0.  0.
         25    1    1    2    0    0  0.66777943241E+01  0.27398094861E+02 -0.15871078720E+03  0.20398373100E+03  0.12500000000E+03 0.  0.
         25    1    1    2    0    0 -0.12028134990E+02 -0.79420600524E+02  0.63224940315E+02  0.16147662647E+03  0.12500000000E+03 0.  0.
</event>
<event>
 5    0  0.5778875E-005  0.3405245E+03  0.7546771E-02  0.1066573E+00
         21   -1    0    0  502  501  0.00000000000E+00  0.00000000000E+00  0.88250111965E+02  0.88250111965E+02  0.00000000000E+00 0.  1.
         21   -1    0    0  501  502 -0.00000000000E+00 -0.00000000000E+00 -0.13139578701E+04  0.13139578701E+04  0.00000000000E+00 0.  1.
         25    1    1    2    0    0 -0.68746427218E+02 -0.21639322517E+03 -0.64557624318E+03  0.69566211979E+03  0.12500000000E+03 0.  0.
         25    1    1    2    0    0  0.86900605826E+02  0.11946830211E+03 -0.48230325543E+03  0.51967857441E+03  0.12500000000E+03 0.  0.
         25    1    1    2    0    0 -0.18154178608E+02  0.96924923058E+02 -0.97828259518E+02  0.18686728786E+03  0.12500000000E+03 0.  0.
</event>
<event>
 5    0  0.5778875E-005  0.3501333E+03  0.7546771E-02  0.1062560E+00
         21   -1    0    0  502  501  0.00000000000E+00  0.00000000000E+00  0.48916660175E+03  0.48916660175E+03  0.00000000000E+00 0. -1.
         21   -1    0    0  501  502 -0.00000000000E+00 -0.00000000000E+00 -0.25061673347E+03  0.25061673347E+03  0.00000000000E+00 0. -1.
         25    1    1    2    0    0 -0.29363032198E+02 -0.39745252451E+02  0.66808474531E+02  0.15010078288E+03  0.12500000000E+03 0.  0.
         25    1    1    2    0    0  0.33997213538E+02  0.25817541374E+03  0.71583207717E+01  0.28894047197E+03  0.12500000000E+03 0.  0.
         25    1    1    2    0    0 -0.46341813400E+01 -0.21843016128E+03  0.16458307297E+03  0.30074208037E+03  0.12500000000E+03 0.  0.
</event>
<event>
 5    0  0.5778875E-005  0.2654969E+03  0.7546771E-02  0.1103885E+00
         21   -1    0    0  502  501  0.00000000000E+00  0.00000000000E+00  0.34774377528E+03  0.34774377528E+03  0.00000000000E+00 0. -1.
         21   -1    0    0  501  502 -0.00000000000E+00 -0.00000000000E+00 -0.20270270046E+03  0.20270270046E+03  0.00000000000E+00 0. -1.
         25    1    1    2    0    0 -0.68140798494E+02 -0.46720654368E+02  0.13427364773E+03  0.20119741658E+03  0.12500000000E+03 0.  0.
         25    1    1    2    0    0  0.71862817050E+02 -0.52774598365E+02  0.82251432232E+02  0.17418300954E+03  0.12500000000E+03 0.  0.
         25    1    1    2    0    0 -0.37220185562E+01  0.99495252732E+02 -0.71484005139E+02  0.17506604962E+03  0.12500000000E+03 0.  0.
</event>
<event>
 5    0  0.6201479E-005  0.2525746E+03  0.7546771E-02  0.1111688E+00
         21   -1    0    0  502  501  0.00000000000E+00  0.00000000000E+00  0.19571976833E+03  0.19571976833E+03  0.00000000000E+00 0. -1.
         21   -1    0    0  501  502 -0.00000000000E+00 -0.00000000000E+00 -0.32594514718E+03  0.32594514718E+03  0.00000000000E+00 0. -1.
         25    1    1    2    0    0 -0.31201900685E+02 -0.12500374575E+03 -0.12636611482E+03  0.21952879090E+03  0.12500000000E+03 0.  0.
         25    1    1    2    0    0  0.65458141236E+02  0.55033310118E+02 -0.24445158088E+02  0.15341446878E+03  0.12500000000E+03 0.  0.
         25    1    1    2    0    0 -0.34256240551E+02  0.69970435630E+02  0.20585894070E+02  0.14872165583E+03  0.12500000000E+03 0.  0.
</event>
<event>
 5    0  0.5778875E-005  0.2530836E+03  0.7546771E-02  0.1111371E+00
         21   -1    0    0  502  501  0.00000000000E+00  0.00000000000E+00  0.29992412712E+02  0.29992412712E+02  0.00000000000E+00 0. -1.
         21   -1    0    0  501  502 -0.00000000000E+00 -0.00000000000E+00 -0.21355838602E+04  0.21355838602E+04  0.00000000000E+00 0. -1.
         25    1    1    2    0    0  0.10375174342E+03 -0.10108799059E+03 -0.65657866579E+03  0.68388869743E+03  0.12500000000E+03 0.  0.
         25    1    1    2    0    0 -0.94382174587E+02  0.27054065118E+02 -0.62383828033E+03  0.64376945976E+03  0.12500000000E+03 0.  0.
         25    1    1    2    0    0 -0.93695688301E+01  0.74033925472E+02 -0.82517450141E+03  0.83791811576E+03  0.12500000000E+03 0.  0.
</event>
<event>
 5    0  0.5778875E-005  0.2666378E+03  0.7546771E-02  0.1103219E+00
         21   -1    0    0  502  501  0.00000000000E+00  0.00000000000E+00  0.12180201690E+04  0.12180201690E+04  0.00000000000E+00 0.  1.
         21   -1    0    0  501  502 -0.00000000000E+00 -0.00000000000E+00 -0.58369891527E+02  0.58369891527E+02  0.00000000000E+00 0.  1.
         25    1    1    2    0    0  0.80535707870E+02 -0.57104712130E+02  0.23127339151E+03  0.28081903427E+03  0.12500000000E+03 0.  0.
         25    1    1    2    0    0 -0.26024647002E+02  0.96002120001E+02  0.75437095129E+03  0.77109935900E+03  0.12500000000E+03 0.  0.
         25    1    1    2    0    0 -0.54511060868E+02 -0.38897407871E+02  0.17400593464E+03  0.22447166722E+03  0.12500000000E+03 0.  0.
</event>
<event>
 5    0  0.5778875E-005  0.2696044E+03  0.7546771E-02  0.1101506E+00
         21   -1    0    0  502  501  0.00000000000E+00  0.00000000000E+00  0.95632417688E+02  0.95632417688E+02  0.00000000000E+00 0.  1.
         21   -1    0    0  501  502 -0.00000000000E+00 -0.00000000000E+00 -0.76006161778E+03  0.76006161778E+03  0.00000000000E+00 0.  1.
         25    1    1    2    0    0 -0.54556280427E+02 -0.33492315147E+02 -0.50644913840E+03  0.52556051287E+03  0.12500000000E+03 0.  0.
         25    1    1    2    0    0 -0.22621303925E+02  0.26290528495E+02 -0.25545182615E+02  0.13221373467E+03  0.12500000000E+03 0.  0.
         25    1    1    2    0    0  0.77177584352E+02  0.72017866520E+01 -0.13243487908E+03  0.19791978793E+03  0.12500000000E+03 0.  0.
</event>
<event>
 5    0  0.5778875E-005  0.4542352E+03  0.7546771E-02  0.1026467E+00
         21   -1    0    0  502  501  0.00000000000E+00  0.00000000000E+00  0.10705028123E+03  0.10705028123E+03  0.00000000000E+00 0. -1.
         21   -1    0    0  501  502 -0.00000000000E+00 -0.00000000000E+00 -0.19274087070E+04  0.19274087070E+04  0.00000000000E+00 0. -1.
         25    1    1    2    0    0  0.50305759113E+01 -0.11986523683E+02 -0.68812938172E+03  0.69951127899E+03  0.12500000000E+03 0.  0.
         25    1    1    2    0    0 -0.16471551020E+03 -0.26607275192E+03 -0.38099029467E+03  0.50863003573E+03  0.12500000000E+03 0.  0.
         25    1    1    2    0    0  0.15968493429E+03  0.27805927561E+03 -0.75123874934E+03  0.82631767347E+03  0.12500000000E+03 0.  0.
</event>
<event>
 5    0  0.5778875E-005  0.3944774E+03  0.7546771E-02  0.1045709E+00
         21   -1    0    0  502  501  0.00000000000E+00  0.00000000000E+00  0.26992262646E+03  0.26992262646E+03  0.00000000000E+00 0. -1.
         21   -1    0    0  501  502 -0.00000000000E+00 -0.00000000000E+00 -0.57650755638E+03  0.57650755638E+03  0.00000000000E+00 0. -1.
         25    1    1    2    0    0 -0.25901647431E+03  0.90731743243E+02 -0.29143216279E+03  0.41937988591E+03  0.12500000000E+03 0.  0.
         25    1    1    2    0    0  0.16058758680E+03 -0.83923121037E+02  0.88269707951E+02  0.23716661784E+03  0.12500000000E+03 0.  0.
         25    1    1    2    0    0  0.98428887518E+02 -0.68086222059E+01 -0.10342247508E+03  0.18988367909E+03  0.12500000000E+03 0.  0.
</event>
<event>
 5    0  0.5778875E-005  0.2180327E+03  0.7546771E-02  0.1135358E+00
         21   -1    0    0  502  501  0.00000000000E+00  0.00000000000E+00  0.77238532888E+03  0.77238532888E+03  0.00000000000E+00 0.  1.
         21   -1    0    0  501  502 -0.00000000000E+00 -0.00000000000E+00 -0.61547354773E+02  0.61547354773E+02  0.00000000000E+00 0.  1.
         25    1    1    2    0    0 -0.32700549795E+02  0.67753022607E+01  0.18777574834E+03  0.22803500245E+03  0.12500000000E+03 0.  0.
         25    1    1    2    0    0  0.50607403600E+02 -0.75396639340E+02  0.33755341915E+03  0.37123183228E+03  0.12500000000E+03 0.  0.
         25    1    1    2    0    0 -0.17906853804E+02  0.68621337079E+02  0.18550880662E+03  0.23466584892E+03  0.12500000000E+03 0.  0.
</event>
<event>
 5    0  0.5778875E-005  0.3484639E+03  0.7546771E-02  0.1063247E+00
         21   -1    0    0  502  501  0.00000000000E+00  0.00000000000E+00  0.14318348810E+03  0.14318348810E+03  0.00000000000E+00 0. -1.
         21   -1    0    0  501  502 -0.00000000000E+00 -0.00000000000E+00 -0.84805230412E+03  0.84805230412E+03  0.00000000000E+00 0. -1.
         25    1    1    2    0    0  0.82113866018E+00  0.20531506704E+03 -0.45510721986E+03  0.51468682963E+03  0.12500000000E+03 0.  0.
         25    1    1    2    0    0  0.68126429604E+02 -0.17809101383E+03 -0.56768794236E+02  0.23495811460E+03  0.12500000000E+03 0.  0.
         25    1    1    2    0    0 -0.68947568264E+02 -0.27224053215E+02 -0.19299280192E+03  0.24159084800E+03  0.12500000000E+03 0.  0.
</event>
<event>
 5    0  0.5778875E-005  0.2516856E+03  0.7546771E-02  0.1112244E+00
         21   -1    0    0  502  501  0.00000000000E+00  0.00000000000E+00  0.28732435767E+03  0.28732435767E+03  0.00000000000E+00 0.  1.
         21   -1    0    0  501  502 -0.00000000000E+00 -0.00000000000E+00 -0.22046739026E+03  0.22046739026E+03  0.00000000000E+00 0.  1.
         25    1    1    2    0    0 -0.26751809963E+02 -0.69455483341E+02 -0.56560380095E+02  0.15608907745E+03  0.12500000000E+03 0.  0.
         25    1    1    2    0    0 -0.20028617520E+02  0.80368931637E+02  0.15335653523E+03  0.21448435278E+03  0.12500000000E+03 0.  0.
         25    1    1    2    0    0  0.46780427483E+02 -0.10913448296E+02 -0.29939187723E+02  0.13721831769E+03  0.12500000000E+03 0.  0.
</event>
<event>
 5    0  0.5778875E-005  0.2750638E+03  0.7546771E-02  0.1098416E+00
         21   -1    0    0  502  501  0.00000000000E+00  0.00000000000E+00  0.18294179346E+04  0.18294179346E+04  0.00000000000E+00 0. -1.
         21   -1    0    0  501  502 -0.00000000000E+00 -0.00000000000E+00 -0.41357463969E+02  0.41357463969E+02  0.00000000000E+00 0. -1.
         25    1    1    2    0    0  0.50631246142E+02 -0.68524677647E+02  0.11474573682E+04  0.11573860922E+04  0.12500000000E+03 0.  0.
         25    1    1    2    0    0 -0.10083344590E+03  0.78690789376E+02  0.36490462195E+03  0.40637422072E+03  0.12500000000E+03 0.  0.
         25    1    1    2    0    0  0.50202199757E+02 -0.10166111729E+02  0.27569848045E+03  0.30701508564E+03  0.12500000000E+03 0.  0.
</event>
<event>
 5    0  0.5778875E-005  0.3842196E+03  0.7546771E-02  0.1049385E+00
         21   -1    0    0  502  501  0.00000000000E+00  0.00000000000E+00  0.87030131194E+03  0.87030131194E+03  0.00000000000E+00 0.  1.
         21   -1    0    0  501  502 -0.00000000000E+00 -0.00000000000E+00 -0.16962479263E+03  0.16962479263E+03  0.00000000000E+00 0.  1.
         25    1    1    2    0    0  0.10512089673E+02 -0.26835768965E+03  0.26154737455E+03  0.39516880287E+03  0.12500000000E+03 0.  0.
         25    1    1    2    0    0 -0.39341222419E+02  0.16482526767E+03  0.43102329013E+03  0.47970947175E+03  0.12500000000E+03 0.  0.
         25    1    1    2    0    0  0.28829132746E+02  0.10353242197E+03  0.81058546301E+01  0.16504782996E+03  0.12500000000E+03 0.  0.
</event>
<event>
 5    0  0.5778875E-005  0.3415699E+03  0.7546771E-02  0.1066129E+00
         21   -1    0    0  502  501  0.00000000000E+00  0.00000000000E+00  0.43593055881E+03  0.43593055881E+03  0.00000000000E+00 0. -1.
         21   -1    0    0  501  502 -0.00000000000E+00 -0.00000000000E+00 -0.26763433687E+03  0.26763433687E+03  0.00000000000E+00 0. -1.
         25    1    1    2    0    0 -0.25574358739E+03  0.57716531346E+02  0.27128791712E+02  0.29171381836E+03  0.12500000000E+03 0.  0.
         25    1    1    2    0    0  0.11611196367E+03 -0.91316777720E+02  0.96723437791E+02  0.21633577009E+03  0.12500000000E+03 0.  0.
         25    1    1    2    0    0  0.13963162372E+03  0.33600246374E+02  0.44443992436E+02  0.19551530723E+03  0.12500000000E+03 0.  0.
</event>
<event>
 5    0  0.5778875E-005  0.2949626E+03  0.7546771E-02  0.1087786E+00
         21   -1    0    0  502  501  0.00000000000E+00  0.00000000000E+00  0.50627493628E+03  0.50627493628E+03  0.00000000000E+00 0.  1.
         21   -1    0    0  501  502 -0.00000000000E+00 -0.00000000000E+00 -0.17184913383E+03  0.17184913383E+03  0.00000000000E+00 0.  1.
         25    1    1    2    0    0  0.15167764946E+03 -0.20537121113E+02  0.25579596771E+03  0.32324056024E+03  0.12500000000E+03 0.  0.
         25    1    1    2    0    0 -0.14009765564E+01 -0.17836568770E+02 -0.27414514772E+02  0.12921556230E+03  0.12500000000E+03 0.  0.
         25    1    1    2    0    0 -0.15027667290E+03  0.38373689883E+02  0.10604434951E+03  0.22566794756E+03  0.12500000000E+03 0.  0.
</event>
<event>
 5    0  0.5778875E-005  0.2940557E+03  0.7546771E-02  0.1088250E+00
         21   -1    0    0  502  501  0.00000000000E+00  0.00000000000E+00  0.56573599713E+03  0.56573599713E+03  0.00000000000E+00 0.  1.
         21   -1    0    0  501  502 -0.00000000000E+00 -0.00000000000E+00 -0.15284293447E+03  0.15284293447E+03  0.00000000000E+00 0.  1.
         25    1    1    2    0    0  0.15776955717E+03 -0.59853688060E+02  0.10002681673E+03  0.23260279707E+03  0.12500000000E+03 0.  0.
         25    1    1    2    0    0 -0.18602262744E+03  0.86055070221E+02  0.18531048081E+03  0.30327358495E+03  0.12500000000E+03 0.  0.
         25    1    1    2    0    0  0.28253070271E+02 -0.26201382161E+02  0.12755576512E+03  0.18270254958E+03  0.12500000000E+03 0.  0.
</event>
<event>
 5    0  0.5778875E-005  0.3929414E+03  0.7546771E-02  0.1046252E+00
         21   -1    0    0  502  501  0.00000000000E+00  0.00000000000E+00  0.24916495224E+03  0.24916495224E+03  0.00000000000E+00 0. -1.
         21   -1    0    0  501  502 -0.00000000000E+00 -0.00000000000E+00 -0.61968176054E+03  0.61968176054E+03  0.00000000000E+00 0. -1.
         25    1    1    2    0    0 -0.15817643213E+03 -0.10983565001E+03 -0.38839011841E+03  0.45117129538E+03  0.12500000000E+03 0.  0.
         25    1    1    2    0    0  0.15036510583E+03 -0.42503094218E+02 -0.54844351626E+02  0.20748272452E+03  0.12500000000E+03 0.  0.
         25    1    1    2    0    0  0.78113262938E+01  0.15233874423E+03  0.72717661738E+02  0.21019269288E+03  0.12500000000E+03 0.  0.
</event>
<event>
 5    0  0.5778875E-005  0.2977734E+03  0.7546771E-02  0.1086359E+00
         21   -1    0    0  502  501  0.00000000000E+00  0.00000000000E+00  0.26149715066E+03  0.26149715066E+03  0.00000000000E+00 0. -1.
         21   -1    0    0  501  502 -0.00000000000E+00 -0.00000000000E+00 -0.33908217775E+03  0.33908217775E+03  0.00000000000E+00 0. -1.
         25    1    1    2    0    0 -0.90194273740E+02 -0.66381722236E+02 -0.31696712212E+02  0.17079584781E+03  0.12500000000E+03 0.  0.
         25    1    1    2    0    0  0.44989238029E+01  0.19242622011E+03 -0.12407708406E+02  0.22984134034E+03  0.12500000000E+03 0.  0.
         25    1    1    2    0    0  0.85695349937E+02 -0.12604449787E+03 -0.33480606475E+02  0.19994214027E+03  0.12500000000E+03 0.  0.
</event>
<event>
 5    0  0.5778875E-005  0.3461104E+03  0.7546771E-02  0.1064223E+00
         21   -1    0    0  502  501  0.00000000000E+00  0.00000000000E+00  0.86322297871E+03  0.86322297871E+03  0.00000000000E+00 0. -1.
         21   -1    0    0  501  502 -0.00000000000E+00 -0.00000000000E+00 -0.13877339608E+03  0.13877339608E+03  0.00000000000E+00 0. -1.
         25    1    1    2    0    0  0.20935521165E+03  0.56380896575E+02  0.48023674602E+03  0.54153554119E+03  0.12500000000E+03 0.  0.
         25    1    1    2    0    0 -0.13182664916E+03  0.38069859862E+02  0.21362788888E+03  0.28300080312E+03  0.12500000000E+03 0.  0.
         25    1    1    2    0    0 -0.77528562491E+02 -0.94450756436E+02  0.30584947736E+02  0.17746003049E+03  0.12500000000E+03 0.  0.
</event>
<event>
 5    0  0.5778875E-005  0.6828916E+03  0.7546771E-02  0.9746946E-01
         21   -1    0    0  502  501  0.00000000000E+00  0.00000000000E+00  0.97988210864E+03  0.97988210864E+03  0.00000000000E+00 0.  1.
         21   -1    0    0  501  502 -0.00000000000E+00 -0.00000000000E+00 -0.47591532979E+03  0.47591532979E+03  0.00000000000E+00 0.  1.
         25    1    1    2    0    0 -0.47153712316E+02 -0.98689365598E+02  0.54551266153E+03  0.57023865825E+03  0.12500000000E+03 0.  0.
         25    1    1    2    0    0 -0.55741799423E+02  0.38533654273E+03 -0.26535827046E+03  0.48747452350E+03  0.12500000000E+03 0.  0.
         25    1    1    2    0    0  0.10289551174E+03 -0.28664717713E+03  0.22381238778E+03  0.39808425668E+03  0.12500000000E+03 0.  0.
</event>
<event>
 5    0  0.5778875E-005  0.2635270E+03  0.7546771E-02  0.1105042E+00
         21   -1    0    0  502  501  0.00000000000E+00  0.00000000000E+00  0.25691928378E+03  0.25691928378E+03  0.00000000000E+00 0.  1.
         21   -1    0    0  501  502 -0.00000000000E+00 -0.00000000000E+00 -0.27030470309E+03  0.27030470309E+03  0.00000000000E+00 0.  1.
         25    1    1    2    0    0  0.44033586144E+02 -0.47512514233E+02  0.84913487957E+02  0.16441318729E+03  0.12500000000E+03 0.  0.
         25    1    1    2    0    0 -0.69476935994E+02  0.16459938185E+02 -0.16214009073E+03  0.21682339178E+03  0.12500000000E+03 0.  0.
         25    1    1    2    0    0  0.25443349850E+02  0.31052576048E+02  0.63841183462E+02  0.14598740780E+03  0.12500000000E+03 0.  0.
</event>
<event>
 5    0  0.5778875E-005  0.3312486E+03  0.7546771E-02  0.1070586E+00
         21   -1    0    0  502  501  0.00000000000E+00  0.00000000000E+00  0.23813891053E+04  0.23813891053E+04  0.00000000000E+00 0.  1.
         21   -1    0    0  501  502 -0.00000000000E+00 -0.00000000000E+00 -0.46076308821E+02  0.46076308821E+02  0.00000000000E+00 0.  1.
         25    1    1    2    0    0  0.86724061754E+02 -0.12950714826E+03  0.16236689404E+04  0.16359153378E+04  0.12500000000E+03 0.  0.
         25    1    1    2    0    0 -0.19718763820E+01  0.37337221799E+02  0.49465495455E+03  0.51157255643E+03  0.12500000000E+03 0.  0.
         25    1    1    2    0    0 -0.84752185372E+02  0.92169926463E+02  0.21698890148E+03  0.27997751988E+03  0.12500000000E+03 0.  0.
</event>
<event>
 5    0  0.5778875E-005  0.3701713E+03  0.7546771E-02  0.1054627E+00
         21   -1    0    0  502  501  0.00000000000E+00  0.00000000000E+00  0.15246255015E+03  0.15246255015E+03  0.00000000000E+00 0.  1.
         21   -1    0    0  501  502 -0.00000000000E+00 -0.00000000000E+00 -0.89875707577E+03  0.89875707577E+03  0.00000000000E+00 0.  1.
         25    1    1    2    0    0 -0.12705687402E+03  0.85286553583E+02 -0.10771760397E+03  0.22504516805E+03  0.12500000000E+03 0.  0.
         25    1    1    2    0    0  0.20370355621E+03 -0.21066156870E+03 -0.30627476176E+03  0.44193061110E+03  0.12500000000E+03 0.  0.
         25    1    1    2    0    0 -0.76646682196E+02  0.12537501511E+03 -0.33230215990E+03  0.38424384677E+03  0.12500000000E+03 0.  0.
</event>
<event>
 5    0  0.5778875E-005  0.3255561E+03  0.7546771E-02  0.1073120E+00
         21   -1    0    0  502  501  0.00000000000E+00  0.00000000000E+00  0.19714150438E+03  0.19714150438E+03  0.00000000000E+00 0.  1.
         21   -1    0    0  501  502 -0.00000000000E+00 -0.00000000000E+00 -0.53761778253E+03  0.53761778253E+03  0.00000000000E+00 0.  1.
         25    1    1    2    0    0  0.13863817444E+03 -0.82055542194E+02 -0.23891549488E+03  0.31410073084E+03  0.12500000000E+03 0.  0.
         25    1    1    2    0    0  0.58035469424E+02  0.10238127528E+02 -0.11004910937E+03  0.17665995992E+03  0.12500000000E+03 0.  0.
         25    1    1    2    0    0 -0.19667364387E+03  0.71817414666E+02  0.84883260983E+01  0.24399859615E+03  0.12500000000E+03 0.  0.
</event>
<event>
 5    0  0.5778875E-005  0.3734227E+03  0.7546771E-02  0.1053392E+00
         21   -1    0    0  502  501  0.00000000000E+00  0.00000000000E+00  0.45651933112E+03  0.45651933112E+03  0.00000000000E+00 0.  1.
         21   -1    0    0  501  502 -0.00000000000E+00 -0.00000000000E+00 -0.30545155511E+03  0.30545155511E+03  0.00000000000E+00 0.  1.
         25    1    1    2    0    0  0.16763984800E+03  0.10655990156E+03 -0.52066639768E+02  0.24040396468E+03  0.12500000000E+03 0.  0.
         25    1    1    2    0    0  0.57152062611E+02 -0.13529693607E+03  0.49481363840E+00  0.19286488538E+03  0.12500000000E+03 0.  0.
         25    1    1    2    0    0 -0.22479191061E+03  0.28737034513E+02  0.20263960214E+03  0.32870203617E+03  0.12500000000E+03 0.  0.
</event>
<event>
 5    0  0.5778875E-005  0.3703146E+03  0.7546771E-02  0.1054573E+00
         21   -1    0    0  502  501  0.00000000000E+00  0.00000000000E+00  0.68258906022E+03  0.68258906022E+03  0.00000000000E+00 0. -1.
         21   -1    0    0  501  502 -0.00000000000E+00 -0.00000000000E+00 -0.20090114247E+03  0.20090114247E+03  0.00000000000E+00 0. -1.
         25    1    1    2    0    0 -0.84783477985E+02  0.13242416270E+03  0.10064443781E+03  0.22467465337E+03  0.12500000000E+03 0.  0.
         25    1    1    2    0    0  0.74086721016E+02 -0.26653303152E+03  0.36460740179E+03  0.47443888601E+03  0.12500000000E+03 0.  0.
         25    1    1    2    0    0  0.10696756969E+02  0.13410886882E+03  0.16436078156E+02  0.18437666330E+03  0.12500000000E+03 0.  0.
</event>
<event>
 5    0  0.5778875E-005  0.3281477E+03  0.7546771E-02  0.1071959E+00
         21   -1    0    0  502  501  0.00000000000E+00  0.00000000000E+00  0.25421831176E+03  0.25421831176E+03  0.00000000000E+00 0.  1.
         21   -1    0    0  501  502 -0.00000000000E+00 -0.00000000000E+00 -0.42357653730E+03  0.42357653730E+03  0.00000000000E+00 0.  1.
         25    1    1    2    0    0  0.93262159287E+02 -0.34027240760E+02 -0.11556148787E+03  0.19706633642E+03  0.12500000000E+03 0.  0.
         25    1    1    2    0    0  0.13809783245E+03 -0.49270397219E+02  0.23894139743E+02  0.19415074886E+03  0.12500000000E+03 0.  0.
         25    1    1    2    0    0 -0.23135999173E+03  0.83297637980E+02 -0.77690877409E+02  0.28657776379E+03  0.12500000000E+03 0.  0.
</event>
<event>
 5    0  0.5778875E-005  0.2689979E+03  0.7546771E-02  0.1101855E+00
         21   -1    0    0  502  501  0.00000000000E+00  0.00000000000E+00  0.58943421356E+02  0.58943421356E+02  0.00000000000E+00 0. -1.
         21   -1    0    0  501  502 -0.00000000000E+00 -0.00000000000E+00 -0.12276153455E+04  0.12276153455E+04  0.00000000000E+00 0. -1.
         25    1    1    2    0    0  0.50110141537E+02  0.86262735035E+01 -0.31898459675E+03  0.34635474855E+03  0.12500000000E+03 0.  0.
         25    1    1    2    0    0  0.97346255721E+02 -0.77975129247E+02 -0.54394023828E+03  0.57188495094E+03  0.12500000000E+03 0.  0.
         25    1    1    2    0    0 -0.14745639726E+03  0.69348855743E+02 -0.30574708909E+03  0.36831906735E+03  0.12500000000E+03 0.  0.
</event>
<event>
 5    0  0.5778875E-005  0.2775899E+03  0.7546771E-02  0.1097013E+00
         21   -1    0    0  502  501  0.00000000000E+00  0.00000000000E+00  0.15406767784E+03  0.15406767784E+03  0.00000000000E+00 0. -1.
         21   -1    0    0  501  502 -0.00000000000E+00 -0.00000000000E+00 -0.50014484982E+03  0.50014484982E+03  0.00000000000E+00 0. -1.
         25    1    1    2    0    0 -0.66480992337E+02 -0.54112688612E+02 -0.27664026889E+03  0.31544055507E+03  0.12500000000E+03 0.  0.
         25    1    1    2    0    0  0.11362985495E+03  0.88542057602E+02 -0.62232786398E+02  0.20062243046E+03  0.12500000000E+03 0.  0.
         25    1    1    2    0    0 -0.47148862612E+02 -0.34429368991E+02 -0.72041166899E+01  0.13814954213E+03  0.12500000000E+03 0.  0.
</event>
<event>
 5    0  0.5778875E-005  0.3202287E+03  0.7546771E-02  0.1075544E+00
         21   -1    0    0  502  501  0.00000000000E+00  0.00000000000E+00  0.26489718628E+03  0.26489718628E+03  0.00000000000E+00 0. -1.
         21   -1    0    0  501  502 -0.00000000000E+00 -0.00000000000E+00 -0.38711774156E+03  0.38711774156E+03  0.00000000000E+00 0. -1.
         25    1    1    2    0    0 -0.58994682620E+02 -0.19860301737E+03 -0.19396586006E+03  0.31011495603E+03  0.12500000000E+03 0.  0.
         25    1    1    2    0    0  0.16029334737E+02  0.13962731150E+03  0.24681076021E+02  0.18970208540E+03  0.12500000000E+03 0.  0.
         25    1    1    2    0    0  0.42965347882E+02  0.58975705865E+02  0.47064228758E+02  0.15219788642E+03  0.12500000000E+03 0.  0.
</event>
<event>
 5    0  0.5778875E-005  0.3167935E+03  0.7546771E-02  0.1077135E+00
         21   -1    0    0  502  501  0.00000000000E+00  0.00000000000E+00  0.37532509631E+02  0.37532509631E+02  0.00000000000E+00 0. -1.
         21   -1    0    0  501  502 -0.00000000000E+00 -0.00000000000E+00 -0.26738987759E+04  0.26738987759E+04  0.00000000000E+00 0. -1.
         25    1    1    2    0    0  0.38789185149E+02  0.52701247307E+02 -0.17964284689E+04  0.18019606728E+04  0.12500000000E+03 0.  0.
         25    1    1    2    0    0 -0.12553799022E+03 -0.11536480427E+02 -0.31739448521E+03  0.36367174293E+03  0.12500000000E+03 0.  0.
         25    1    1    2    0    0  0.86748805070E+02 -0.41164766880E+02 -0.52254331215E+03  0.54579886981E+03  0.12500000000E+03 0.  0.
</event>
<event>
 5    0  0.7153473E-005  0.2838279E+03  0.7546771E-02  0.1093616E+00
         21   -1    0    0  502  501  0.00000000000E+00  0.00000000000E+00  0.40458589557E+03  0.40458589557E+03  0.00000000000E+00 0.  1.
         21   -1    0    0  501  502 -0.00000000000E+00 -0.00000000000E+00 -0.19911298098E+03  0.19911298098E+03  0.00000000000E+00 0.  1.
         25    1    1    2    0    0 -0.81440620805E+02  0.53417772052E+02  0.37745662887E+02  0.16289802993E+03  0.12500000000E+03 0.  0.
         25    1    1    2    0    0  0.75471498431E+02 -0.10706701151E+03  0.22862965876E+03  0.29164329736E+03  0.12500000000E+03 0.  0.
         25    1    1    2    0    0  0.59691223746E+01  0.53649239458E+02 -0.60902407063E+02  0.14915754926E+03  0.12500000000E+03 0.  0.
</event>
<event>
 5    0  0.5778875E-005  0.2727337E+03  0.7546771E-02  0.1099725E+00
         21   -1    0    0  502  501  0.00000000000E+00  0.00000000000E+00  0.56762322477E+02  0.56762322477E+02  0.00000000000E+00 0. -1.
         21   -1    0    0  501  502 -0.00000000000E+00 -0.00000000000E+00 -0.13104406836E+04  0.13104406836E+04  0.00000000000E+00 0. -1.
         25    1    1    2    0    0  0.11787689124E+03  0.67449014805E+02 -0.83063650793E+03  0.85089737301E+03  0.12500000000E+03 0.  0.
         25    1    1    2    0    0 -0.20517446001E+02 -0.90725876945E+01 -0.17393825546E+03  0.21536665051E+03  0.12500000000E+03 0.  0.
         25    1    1    2    0    0 -0.97359445239E+02 -0.58376427111E+02 -0.24910359770E+03  0.30093898253E+03  0.12500000000E+03 0.  0.
</event>
<event>
 5    0  0.5778875E-005  0.4566091E+03  0.7546771E-02  0.1025769E+00
         21   -1    0    0  502  501  0.00000000000E+00  0.00000000000E+00  0.38917395644E+03  0.38917395644E+03  0.00000000000E+00 0. -1.
         21   -1    0    0  501  502 -0.00000000000E+00 -0.00000000000E+00 -0.53572915358E+03  0.53572915358E+03  0.00000000000E+00 0. -1.
         25    1    1    2    0    0 -0.20121372941E+03  0.28310896984E+03  0.42124822548E+02  0.37153351717E+03  0.12500000000E+03 0.  0.
         25    1    1    2    0    0  0.12276446471E+03 -0.20774050720E+03  0.36063029116E+02  0.27414006310E+03  0.12500000000E+03 0.  0.
         25    1    1    2    0    0  0.78449264694E+02 -0.75368462643E+02 -0.22474304881E+03  0.27922952975E+03  0.12500000000E+03 0.  0.
</event>
<event>
 5    0  0.5778875E-005  0.2789392E+03  0.7546771E-02  0.1096270E+00
         21   -1    0    0  502  501  0.00000000000E+00  0.00000000000E+00  0.12820686743E+03  0.12820686743E+03  0.00000000000E+00 0.  1.
         21   -1    0    0  501  502 -0.00000000000E+00 -0.00000000000E+00 -0.60688702118E+03  0.60688702118E+03  0.00000000000E+00 0.  1.
         25    1    1    2    0    0 -0.12156596454E+03  0.83225466101E+02 -0.22114366707E+03  0.29365674422E+03  0.12500000000E+03 0.  0.
         25    1    1    2    0    0  0.94194167531E+02 -0.44257905535E+02 -0.26110803756E+03  0.30762592654E+03  0.12500000000E+03 0.  0.
         25    1    1    2    0    0  0.27371797006E+02 -0.38967560566E+02  0.35715508749E+01  0.13381121785E+03  0.12500000000E+03 0.  0.
</event>
<event>
 5    0  0.5778875E-005  0.3289222E+03  0.7546771E-02  0.1071615E+00
         21   -1    0    0  502  501  0.00000000000E+00  0.00000000000E+00  0.37633768954E+03  0.37633768954E+03  0.00000000000E+00 0. -1.
         21   -1    0    0  501  502 -0.00000000000E+00 -0.00000000000E+00 -0.28748074083E+03  0.28748074083E+03  0.00000000000E+00 0. -1.
         25    1    1    2    0    0  0.95073625808E+02  0.41392279445E+02 -0.12902007723E+03  0.20742105836E+03  0.12500000000E+03 0.  0.
         25    1    1    2    0    0  0.79598400600E+02 -0.63896893719E+02  0.17153083518E+03  0.23551336655E+03  0.12500000000E+03 0.  0.
         25    1    1    2    0    0 -0.17467202641E+03  0.22504614274E+02  0.46346190759E+02  0.22088400547E+03  0.12500000000E+03 0.  0.
</event>
<event>
 5    0  0.5778875E-005  0.2992582E+03  0.7546771E-02  0.1085612E+00
         21   -1    0    0  502  501  0.00000000000E+00  0.00000000000E+00  0.33754447125E+03  0.33754447125E+03  0.00000000000E+00 0.  1.
         21   -1    0    0  501  502 -0.00000000000E+00 -0.00000000000E+00 -0.26531462041E+03  0.26531462041E+03  0.00000000000E+00 0.  1.
         25    1    1    2    0    0  0.56842821476E+02 -0.10021523032E+03  0.21906884030E+03  0.27729110251E+03  0.12500000000E+03 0.  0.
         25    1    1    2    0    0 -0.21312360714E+02  0.95700388843E+02 -0.98052126143E+02  0.18668690523E+03  0.12500000000E+03 0.  0.
         25    1    1    2    0    0 -0.35530460762E+02  0.45148414818E+01 -0.48786863317E+02  0.13888108391E+03  0.12500000000E+03 0.  0.
</event>
<event>
 5    0  0.5778875E-005  0.3300772E+03  0.7546771E-02  0.1071103E+00
         21   -1    0    0  502  501  0.00000000000E+00  0.00000000000E+00  0.18020823813E+03  0.18020823813E+03  0.00000000000E+00 0.  1.
         21   -1    0    0  501  502 -0.00000000000E+00 -0.00000000000E+00 -0.60458370935E+03  0.60458370935E+03  0.00000000000E+00 0.  1.
         25    1    1    2    0    0  0.13281962692E+02 -0.16145319514E+02 -0.29959694093E+03  0.32530049014E+03  0.12500000000E+03 0.  0.
         25    1    1    2    0    0  0.87811413356E+01 -0.74614644671E+02  0.10643521179E+03  0.18054890737E+03  0.12500000000E+03 0.  0.
         25    1    1    2    0    0 -0.22063104028E+02  0.90759964185E+02 -0.23121374208E+03  0.27894254997E+03  0.12500000000E+03 0.  0.
</event>
<event>
 5    0  0.5778875E-005  0.4788410E+03  0.7546771E-02  0.1019454E+00
         21   -1    0    0  502  501  0.00000000000E+00  0.00000000000E+00  0.12045851328E+04  0.12045851328E+04  0.00000000000E+00 0.  1.
         21   -1    0    0  501  502 -0.00000000000E+00 -0.00000000000E+00 -0.19034658516E+03  0.19034658516E+03  0.00000000000E+00 0.  1.
         25    1    1    2    0    0  0.15554883938E+03 -0.12051873456E+03  0.15999828985E+03  0.28274486657E+03  0.12500000000E+03 0.  0.
         25    1    1    2    0    0 -0.31293571090E+03  0.19866530334E+03  0.79893872912E+03  0.88956436237E+03  0.12500000000E+03 0.  0.
         25    1    1    2    0    0  0.15738687151E+03 -0.78146568777E+02  0.55301528638E+02  0.22262248899E+03  0.12500000000E+03 0.  0.
</event>
<event>
 5    0  0.5778875E-005  0.3029746E+03  0.7546771E-02  0.1083763E+00
         21   -1    0    0  502  501  0.00000000000E+00  0.00000000000E+00  0.22264273114E+03  0.22264273114E+03  0.00000000000E+00 0. -1.
         21   -1    0    0  501  502 -0.00000000000E+00 -0.00000000000E+00 -0.41229100762E+03  0.41229100762E+03  0.00000000000E+00 0. -1.
         25    1    1    2    0    0  0.23440620788E+02  0.12616492970E+03  0.12606176471E+02  0.17958554473E+03  0.12500000000E+03 0.  0.
         25    1    1    2    0    0 -0.93888124672E+02 -0.13812467044E+03 -0.18940652169E+01  0.20861925132E+03  0.12500000000E+03 0.  0.
         25    1    1    2    0    0  0.70447503884E+02  0.11959740740E+02 -0.20036038773E+03  0.24672894272E+03  0.12500000000E+03 0.  0.
</event>
<event>
 5    0  0.5778875E-005  0.4466670E+03  0.7546771E-02  0.1028721E+00
         21   -1    0    0  502  501  0.00000000000E+00  0.00000000000E+00  0.70920996936E+03  0.70920996936E+03  0.00000000000E+00 0.  1.
         21   -1    0    0  501  502 -0.00000000000E+00 -0.00000000000E+00 -0.28131507025E+03  0.28131507025E+03  0.00000000000E+00 0.  1.
         25    1    1    2    0    0  0.26089111983E+03 -0.19009602448E+03  0.87488526884E+02  0.35704329886E+03  0.12500000000E+03 0.  0.
         25    1    1    2    0    0 -0.17735527023E+03  0.11443742802E+03 -0.91907070301E+01  0.24547970569E+03  0.12500000000E+03 0.  0.
         25    1    1    2    0    0 -0.83535849597E+02  0.75658596454E+02  0.34959707926E+03  0.38800203506E+03  0.12500000000E+03 0.  0.
</event>
<event>
 5    0  0.5778875E-005  0.3786894E+03  0.7546771E-02  0.1051419E+00
         21   -1    0    0  502  501  0.00000000000E+00  0.00000000000E+00  0.10986676435E+04  0.10986676435E+04  0.00000000000E+00 0. -1.
         21   -1    0    0  501  502 -0.00000000000E+00 -0.00000000000E+00 -0.13052687749E+03  0.13052687749E+03  0.00000000000E+00 0. -1.
         25    1    1    2    0    0 -0.28935983646E+02 -0.14774917270E+03  0.27597281599E+03  0.33830918454E+03  0.12500000000E+03 0.  0.
         25    1    1    2    0    0  0.16445278099E+03  0.23571100481E+03  0.57637323373E+03  0.65607583367E+03  0.12500000000E+03 0.  0.
         25    1    1    2    0    0 -0.13551679734E+03 -0.87961832115E+02  0.11579471628E+03  0.23480950276E+03  0.12500000000E+03 0.  0.
</event>
<event>
 5    0  0.5778875E-005  0.3063759E+03  0.7546771E-02  0.1082096E+00
         21   -1    0    0  502  501  0.00000000000E+00  0.00000000000E+00  0.38304541780E+03  0.38304541780E+03  0.00000000000E+00 0. -1.
         21   -1    0    0  501  502 -0.00000000000E+00 -0.00000000000E+00 -0.24505241337E+03  0.24505241337E+03  0.00000000000E+00 0. -1.
         25    1    1    2    0    0  0.15804065883E+03 -0.88641940716E+02 -0.33753957782E+02  0.22270737115E+03  0.12500000000E+03 0.  0.
         25    1    1    2    0    0 -0.93754677780E+02  0.81722795366E+01 -0.16177469241E+02  0.15730046494E+03  0.12500000000E+03 0.  0.
         25    1    1    2    0    0 -0.64285981047E+02  0.80469661179E+02  0.18792443145E+03  0.24808999509E+03  0.12500000000E+03 0.  0.
</event>
<event>
 5    0  0.6327453E-005  0.5750351E+03  0.7546771E-02  0.9958598E-01
         21   -1    0    0  502  501  0.00000000000E+00  0.00000000000E+00  0.33503084411E+03  0.33503084411E+03  0.00000000000E+00 0. -1.
         21   -1    0    0  501  502 -0.00000000000E+00 -0.00000000000E+00 -0.98696990798E+03  0.98696990798E+03  0.00000000000E+00 0. -1.
         25    1    1    2    0    0  0.39520567226E+01  0.91281901324E+02 -0.63425316039E+03  0.65287830085E+03  0.12500000000E+03 0.  0.
         25    1    1    2    0    0 -0.23958143186E+03 -0.24105308137E+03 -0.26525913414E+02  0.36309017422E+03  0.12500000000E+03 0.  0.
         25    1    1    2    0    0  0.23562937514E+03  0.14977118004E+03  0.88400099355E+01  0.30603227702E+03  0.12500000000E+03 0.  0.
</event>
<event>
 5    0  0.5778875E-005  0.4078357E+03  0.7546771E-02  0.1041100E+00
         21   -1    0    0  502  501  0.00000000000E+00  0.00000000000E+00  0.13884394806E+04  0.13884394806E+04  0.00000000000E+00 0. -1.
         21   -1    0    0  501  502 -0.00000000000E+00 -0.00000000000E+00 -0.11979636014E+03  0.11979636014E+03  0.00000000000E+00 0. -1.
         25    1    1    2    0    0 -0.65052158521E+02 -0.15275570945E+03  0.39653919032E+03  0.44769902787E+03  0.12500000000E+03 0.  0.
         25    1    1    2    0    0 -0.21247305177E+02  0.19010572363E+03  0.87473888192E+03  0.90409332797E+03  0.12500000000E+03 0.  0.
         25    1    1    2    0    0  0.86299463698E+02 -0.37350014175E+02 -0.26349517863E+01  0.15644348489E+03  0.12500000000E+03 0.  0.
</event>
<event>
 5    0  0.5778875E-005  0.6611786E+03  0.7546771E-02  0.9786026E-01
         21   -1    0    0  502  501  0.00000000000E+00  0.00000000000E+00  0.29858086775E+03  0.29858086775E+03  0.00000000000E+00 0. -1.
         21   -1    0    0  501  502 -0.00000000000E+00 -0.00000000000E+00 -0.14641165950E+04  0.14641165950E+04  0.00000000000E+00 0. -1.
         25    1    1    2    0    0 -0.16196984550E+03  0.13996958028E+03 -0.24784154014E+03  0.35053693568E+03  0.12500000000E+03 0.  0.
         25    1    1    2    0    0 -0.40743699052E+03  0.10509249808E+03 -0.33391038448E+03  0.55151652673E+03  0.12500000000E+03 0.  0.
         25    1    1    2    0    0  0.56940683601E+03 -0.24506207835E+03 -0.58378380267E+03  0.86064400039E+03  0.12500000000E+03 0.  0.
</event>
<event>
 5    0  0.5778875E-005  0.3291440E+03  0.7546771E-02  0.1071516E+00
         21   -1    0    0  502  501  0.00000000000E+00  0.00000000000E+00  0.19843369560E+03  0.19843369560E+03  0.00000000000E+00 0. -1.
         21   -1    0    0  501  502 -0.00000000000E+00 -0.00000000000E+00 -0.54595454677E+03  0.54595454677E+03  0.00000000000E+00 0. -1.
         25    1    1    2    0    0 -0.31061270358E+01  0.14256230431E+01 -0.67450543708E+02  0.14207834554E+03  0.12500000000E+03 0.  0.
         25    1    1    2    0    0 -0.15099577894E+03  0.48020545177E+02 -0.33452688667E+03  0.39069033252E+03  0.12500000000E+03 0.  0.
         25    1    1    2    0    0  0.15410190598E+03 -0.49446168220E+02  0.54456579201E+02  0.21161956430E+03  0.12500000000E+03 0.  0.
</event>
<event>
 5    0  0.5778875E-005  0.2655030E+03  0.7546771E-02  0.1103881E+00
         21   -1    0    0  502  501  0.00000000000E+00  0.00000000000E+00  0.12157408581E+03  0.12157408581E+03  0.00000000000E+00 0.  1.
         21   -1    0    0  501  502 -0.00000000000E+00 -0.00000000000E+00 -0.57982601991E+03  0.57982601991E+03  0.00000000000E+00 0.  1.
         25    1    1    2    0    0  0.53269666455E+01 -0.37652743555E+01 -0.11726861144E+03  0.17152108061E+03  0.12500000000E+03 0.  0.
         25    1    1    2    0    0 -0.36343193473E+02  0.11613274593E+03 -0.31066136382E+03  0.35629078765E+03  0.12500000000E+03 0.  0.
         25    1    1    2    0    0  0.31016226828E+02 -0.11236747158E+03 -0.30321958836E+02  0.17358823746E+03  0.12500000000E+03 0.  0.
</event>
<event>
 5    0  0.5778875E-005  0.4904547E+03  0.7546771E-02  0.1016301E+00
         21   -1    0    0  502  501  0.00000000000E+00  0.00000000000E+00  0.35320569073E+03  0.35320569073E+03  0.00000000000E+00 0.  1.
         21   -1    0    0  501  502 -0.00000000000E+00 -0.00000000000E+00 -0.68103605588E+03  0.68103605588E+03  0.00000000000E+00 0.  1.
         25    1    1    2    0    0 -0.32405117393E+01 -0.30083128536E+03 -0.12048895314E+03  0.34735076075E+03  0.12500000000E+03 0.  0.
         25    1    1    2    0    0  0.18396587908E+03 -0.28480341754E+02  0.28558249915E+02  0.22604235924E+03  0.12500000000E+03 0.  0.
         25    1    1    2    0    0 -0.18072536734E+03  0.32931162711E+03 -0.23589966193E+03  0.46084862661E+03  0.12500000000E+03 0.  0.
</event>
<event>
 5    0  0.5778875E-005  0.3085679E+03  0.7546771E-02  0.1081034E+00
         21   -1    0    0  502  501  0.00000000000E+00  0.00000000000E+00  0.56073634633E+03  0.56073634633E+03  0.00000000000E+00 0. -1.
         21   -1    0    0  501  502 -0.00000000000E+00 -0.00000000000E+00 -0.16980195638E+03  0.16980195638E+03  0.00000000000E+00 0. -1.
         25    1    1    2    0    0 -0.47894335154E+02 -0.52583879036E+01 -0.37492942618E+02  0.13911232415E+03  0.12500000000E+03 0.  0.
         25    1    1    2    0    0 -0.11837166321E+02 -0.14958554360E+03  0.16322504115E+03  0.25452576965E+03  0.12500000000E+03 0.  0.
         25    1    1    2    0    0  0.59731501475E+02  0.15484393151E+03  0.26520229141E+03  0.33690020891E+03  0.12500000000E+03 0.  0.
</event>
<event>
 5    0  0.5778875E-005  0.3049663E+03  0.7546771E-02  0.1082784E+00
         21   -1    0    0  502  501  0.00000000000E+00  0.00000000000E+00  0.21619974655E+03  0.21619974655E+03  0.00000000000E+00 0.  1.
         21   -1    0    0  501  502 -0.00000000000E+00 -0.00000000000E+00 -0.43017820252E+03  0.43017820252E+03  0.00000000000E+00 0.  1.
         25    1    1    2    0    0 -0.48232842969E+02 -0.11734762212E+03  0.89895418241E+02  0.19950703692E+03  0.12500000000E+03 0.  0.
         25    1    1    2    0    0  0.63738111316E+02  0.97694486348E+02 -0.78926138521E+02  0.18831116493E+03  0.12500000000E+03 0.  0.
         25    1    1    2    0    0 -0.15505268347E+02  0.19653135774E+02 -0.22494773568E+03  0.25855974722E+03  0.12500000000E+03 0.  0.
</event>
<event>
 5    0  0.5778875E-005  0.3748141E+03  0.7546771E-02  0.1052867E+00
         21   -1    0    0  502  501  0.00000000000E+00  0.00000000000E+00  0.53433793254E+03  0.53433793254E+03  0.00000000000E+00 0.  1.
         21   -1    0    0  501  502 -0.00000000000E+00 -0.00000000000E+00 -0.26291534319E+03  0.26291534319E+03  0.00000000000E+00 0.  1.
         25    1    1    2    0    0  0.59179283789E+02  0.15312980053E+03 -0.79021726396E+02  0.22095329073E+03  0.12500000000E+03 0.  0.
         25    1    1    2    0    0 -0.12861843425E+03  0.63576871630E+02  0.20075121945E+03  0.27660580679E+03  0.12500000000E+03 0.  0.
         25    1    1    2    0    0  0.69439150461E+02 -0.21670667216E+03  0.14969309630E+03  0.29969417822E+03  0.12500000000E+03 0.  0.
</event>
<event>
 5    0  0.5778875E-005  0.4658267E+03  0.7546771E-02  0.1023105E+00
         21   -1    0    0  502  501  0.00000000000E+00  0.00000000000E+00  0.36389055082E+03  0.36389055082E+03  0.00000000000E+00 0.  1.
         21   -1    0    0  501  502 -0.00000000000E+00 -0.00000000000E+00 -0.59631800006E+03  0.59631800006E+03  0.00000000000E+00 0.  1.
         25    1    1    2    0    0 -0.17268089077E+03  0.11795220728E+03 -0.44050579990E+01  0.24367153665E+03  0.12500000000E+03 0.  0.
         25    1    1    2    0    0 -0.21057095898E+03 -0.13032988285E+02 -0.77858606055E+01  0.24534793086E+03  0.12500000000E+03 0.  0.
         25    1    1    2    0    0  0.38325184976E+03 -0.10491921899E+03 -0.22023653063E+03  0.47118908336E+03  0.12500000000E+03 0.  0.
</event>
<event>
 5    0  0.5778875E-005  0.4025760E+03  0.7546771E-02  0.1042891E+00
         21   -1    0    0  502  501  0.00000000000E+00  0.00000000000E+00  0.13667770165E+04  0.13667770165E+04  0.00000000000E+00 0.  1.
         21   -1    0    0  501  502 -0.00000000000E+00 -0.00000000000E+00 -0.11857637787E+03  0.11857637787E+03  0.00000000000E+00 0.  1.
         25    1    1    2    0    0  0.49336040160E+02  0.17494152386E+03  0.93331895237E+03  0.95903485259E+03  0.12500000000E+03 0.  0.
         25    1    1    2    0    0 -0.14828273996E+03 -0.17657148223E+03  0.19300839972E+03  0.32564167680E+03  0.12500000000E+03 0.  0.
         25    1    1    2    0    0  0.98946699801E+02  0.16299583641E+01  0.12187328653E+03  0.20067686497E+03  0.12500000000E+03 0.  0.
</event>
<event>
 5    0  0.6744774E-005  0.2690889E+03  0.7546771E-02  0.1101802E+00
         21   -1    0    0  502  501  0.00000000000E+00  0.00000000000E+00  0.15093690471E+03  0.15093690471E+03  0.00000000000E+00 0. -1.
         21   -1    0    0  501  502 -0.00000000000E+00 -0.00000000000E+00 -0.47972912172E+03  0.47972912172E+03  0.00000000000E+00 0. -1.
         25    1    1    2    0    0 -0.68951074783E+02 -0.69483134852E+01 -0.14705019468E+02  0.14367939091E+03  0.12500000000E+03 0.  0.
         25    1    1    2    0    0  0.59984157384E+02 -0.14105302318E+02  0.91538914612E+01  0.13966335389E+03  0.12500000000E+03 0.  0.
         25    1    1    2    0    0  0.89669173988E+01  0.21053615803E+02 -0.32324108900E+03  0.34732328164E+03  0.12500000000E+03 0.  0.
</event>
<event>
 5    0  0.5778875E-005  0.3499259E+03  0.7546771E-02  0.1062645E+00
         21   -1    0    0  502  501  0.00000000000E+00  0.00000000000E+00  0.73653980845E+03  0.73653980845E+03  0.00000000000E+00 0.  1.
         21   -1    0    0  501  502 -0.00000000000E+00 -0.00000000000E+00 -0.16624779303E+03  0.16624779303E+03  0.00000000000E+00 0.  1.
         25    1    1    2    0    0 -0.37686062751E+02  0.20815193929E+03  0.10649925887E+03  0.26779574548E+03  0.12500000000E+03 0.  0.
         25    1    1    2    0    0 -0.12137147084E+03 -0.65312700176E+02  0.19751288180E+03  0.27135423567E+03  0.12500000000E+03 0.  0.
         25    1    1    2    0    0  0.15905753359E+03 -0.14283923912E+03  0.26627987474E+03  0.36363762033E+03  0.12500000000E+03 0.  0.
</event>
<event>
 5    0  0.5778875E-005  0.4165885E+03  0.7546771E-02  0.1038182E+00
         21   -1    0    0  502  501  0.00000000000E+00  0.00000000000E+00  0.25151624061E+03  0.25151624061E+03  0.00000000000E+00 0. -1.
         21   -1    0    0  501  502 -0.00000000000E+00 -0.00000000000E+00 -0.68999925822E+03  0.68999925822E+03  0.00000000000E+00 0. -1.
         25    1    1    2    0    0  0.17472286856E+03 -0.45422816196E+00  0.69139755903E+02  0.22568472028E+03  0.12500000000E+03 0.  0.
         25    1    1    2    0    0  0.21563945700E+02 -0.17245893544E+03 -0.19698939080E+03  0.29092423112E+03  0.12500000000E+03 0.  0.
         25    1    1    2    0    0 -0.19628681426E+03  0.17291316360E+03 -0.31063338272E+03  0.42490654744E+03  0.12500000000E+03 0.  0.
</event>
<event>
 5    0  0.5778875E-005  0.3251275E+03  0.7546771E-02  0.1073313E+00
         21   -1    0    0  502  501  0.00000000000E+00  0.00000000000E+00  0.23858548766E+03  0.23858548766E+03  0.00000000000E+00 0. -1.
         21   -1    0    0  501  502 -0.00000000000E+00 -0.00000000000E+00 -0.44306098686E+03  0.44306098686E+03  0.00000000000E+00 0. -1.
         25    1    1    2    0    0 -0.75030488650E+02 -0.21462626860E+03 -0.20620519898E+03  0.33142056890E+03  0.12500000000E+03 0.  0.
         25    1    1    2    0    0  0.66743364272E+02  0.74888358494E+02  0.20668837571E+02  0.16160180617E+03  0.12500000000E+03 0.  0.
         25    1    1    2    0    0  0.82871243780E+01  0.13973791011E+03 -0.18939137787E+02  0.18862409944E+03  0.12500000000E+03 0.  0.
</event>
<event>
 5    0  0.5778875E-005  0.4271420E+03  0.7546771E-02  0.1034767E+00
         21   -1    0    0  502  501  0.00000000000E+00  0.00000000000E+00  0.75872866972E+03  0.75872866972E+03  0.00000000000E+00 0. -1.
         21   -1    0    0  501  502 -0.00000000000E+00 -0.00000000000E+00 -0.24046847037E+03  0.24046847037E+03  0.00000000000E+00 0. -1.
         25    1    1    2    0    0  0.57931370842E+02  0.22596791072E+03  0.62116004467E+02  0.27184727038E+03  0.12500000000E+03 0.  0.
         25    1    1    2    0    0  0.10070763570E+02  0.10355288274E+03  0.22112330625E+02  0.16412975040E+03  0.12500000000E+03 0.  0.
         25    1    1    2    0    0 -0.68002134411E+02 -0.32952079346E+03  0.43403186425E+03  0.56322011931E+03  0.12500000000E+03 0.  0.
</event>
<event>
 5    0  0.5778875E-005  0.3617970E+03  0.7546771E-02  0.1057875E+00
         21   -1    0    0  502  501  0.00000000000E+00  0.00000000000E+00  0.11507292276E+03  0.11507292276E+03  0.00000000000E+00 0.  1.
         21   -1    0    0  501  502 -0.00000000000E+00 -0.00000000000E+00 -0.11375141184E+04  0.11375141184E+04  0.00000000000E+00 0.  1.
         25    1    1    2    0    0 -0.54455390733E+02  0.17003154332E+03 -0.13816043427E+03  0.25804926061E+03  0.12500000000E+03 0.  0.
         25    1    1    2    0    0 -0.67243365855E+02  0.32354041921E+01 -0.10279131448E+03  0.17528032526E+03  0.12500000000E+03 0.  0.
         25    1    1    2    0    0  0.12169875659E+03 -0.17326694751E+03 -0.78148944693E+03  0.81925745533E+03  0.12500000000E+03 0.  0.
</event>
<event>
 5    0  0.5778875E-005  0.3837781E+03  0.7546771E-02  0.1049546E+00
         21   -1    0    0  502  501  0.00000000000E+00  0.00000000000E+00  0.11515189568E+03  0.11515189568E+03  0.00000000000E+00 0. -1.
         21   -1    0    0  501  502 -0.00000000000E+00 -0.00000000000E+00 -0.12790552366E+04  0.12790552366E+04  0.00000000000E+00 0. -1.
         25    1    1    2    0    0  0.15800183842E+03  0.25054150983E+03 -0.60743488496E+03  0.68726833810E+03  0.12500000000E+03 0.  0.
         25    1    1    2    0    0  0.15323665621E+02 -0.97205728025E+02 -0.30003014763E+03  0.33959808271E+03  0.12500000000E+03 0.  0.
         25    1    1    2    0    0 -0.17332550404E+03 -0.15333578181E+03 -0.25643830834E+03  0.36734071149E+03  0.12500000000E+03 0.  0.
</event>
<event>
 5    0  0.5778875E-005  0.2417921E+03  0.7546771E-02  0.1118605E+00
         21   -1    0    0  502  501  0.00000000000E+00  0.00000000000E+00  0.63231120067E+02  0.63231120067E+02  0.00000000000E+00 0. -1.
         21   -1    0    0  501  502 -0.00000000000E+00 -0.00000000000E+00 -0.92459872050E+03  0.92459872050E+03  0.00000000000E+00 0. -1.
         25    1    1    2    0    0  0.13562620243E+03  0.36506855585E+01 -0.31152894789E+03  0.36205397341E+03  0.12500000000E+03 0.  0.
         25    1    1    2    0    0 -0.85226777546E+02  0.34400824433E+02 -0.33693048473E+03  0.37093688395E+03  0.12500000000E+03 0.  0.
         25    1    1    2    0    0 -0.50399424879E+02 -0.38051509992E+02 -0.21290816780E+03  0.25483898320E+03  0.12500000000E+03 0.  0.
</event>
<event>
 5    0  0.5778875E-005  0.2946290E+03  0.7546771E-02  0.1087957E+00
         21   -1    0    0  502  501  0.00000000000E+00  0.00000000000E+00  0.58466197245E+03  0.58466197245E+03  0.00000000000E+00 0. -1.
         21   -1    0    0  501  502 -0.00000000000E+00 -0.00000000000E+00 -0.14847252128E+03  0.14847252128E+03  0.00000000000E+00 0. -1.
         25    1    1    2    0    0 -0.93567191742E+01 -0.37536293225E+02  0.35735467322E+02  0.13564123683E+03  0.12500000000E+03 0.  0.
         25    1    1    2    0    0  0.14428499279E+03  0.13616605998E+03  0.20202742104E+03  0.30951483630E+03  0.12500000000E+03 0.  0.
         25    1    1    2    0    0 -0.13492827361E+03 -0.98629766757E+02  0.19842656281E+03  0.28797842061E+03  0.12500000000E+03 0.  0.
</event>
<event>
 5    0  0.5778875E-005  0.3890222E+03  0.7546771E-02  0.1047649E+00
         21   -1    0    0  502  501  0.00000000000E+00  0.00000000000E+00  0.19361641808E+03  0.19361641808E+03  0.00000000000E+00 0.  1.
         21   -1    0    0  501  502 -0.00000000000E+00 -0.00000000000E+00 -0.78163964392E+03  0.78163964392E+03  0.00000000000E+00 0.  1.
         25    1    1    2    0    0  0.11654475079E+02 -0.11376234763E+03  0.35348659388E+02  0.17306711487E+03  0.12500000000E+03 0.  0.
         25    1    1    2    0    0  0.16073975105E+03  0.21034547290E+01 -0.48203625005E+03  0.52328351632E+03  0.12500000000E+03 0.  0.
         25    1    1    2    0    0 -0.17239422613E+03  0.11165889290E+03 -0.14133563518E+03  0.27890543081E+03  0.12500000000E+03 0.  0.
</event>
<event>
 5    0  0.5778875E-005  0.3803912E+03  0.7546771E-02  0.1050789E+00
         21   -1    0    0  502  501  0.00000000000E+00  0.00000000000E+00  0.19227921669E+04  0.19227921669E+04  0.00000000000E+00 0.  1.
         21   -1    0    0  501  502 -0.00000000000E+00 -0.00000000000E+00 -0.75253818423E+02  0.75253818423E+02  0.00000000000E+00 0.  1.
         25    1    1    2    0    0  0.17689506784E+03 -0.11620242757E+03  0.96451292230E+03  0.99534167324E+03  0.12500000000E+03 0.  0.
         25    1    1    2    0    0 -0.11612053622E+03  0.17900978551E+03  0.25030872913E+03  0.35186352770E+03  0.12500000000E+03 0.  0.
         25    1    1    2    0    0 -0.60774531621E+02 -0.62807357945E+02  0.63271669700E+03  0.65084078434E+03  0.12500000000E+03 0.  0.
</event>
<event>
 5    0  0.5778875E-005  0.2519120E+03  0.7546771E-02  0.1112102E+00
         21   -1    0    0  502  501  0.00000000000E+00  0.00000000000E+00  0.46016013155E+02  0.46016013155E+02  0.00000000000E+00 0.  1.
         21   -1    0    0  501  502 -0.00000000000E+00 -0.00000000000E+00 -0.13790778866E+04  0.13790778866E+04  0.00000000000E+00 0.  1.
         25    1    1    2    0    0 -0.49695962671E+02 -0.67666505904E+02 -0.70910066686E+03  0.72491185703E+03  0.12500000000E+03 0.  0.
         25    1    1    2    0    0  0.22763867521E+02 -0.53733816833E+02 -0.32556785954E+03  0.35358867049E+03  0.12500000000E+03 0.  0.
         25    1    1    2    0    0  0.26932095151E+02  0.12140032274E+03 -0.29839334703E+03  0.34659337221E+03  0.12500000000E+03 0.  0.
</event>
<event>
 5    0  0.5778875E-005  0.3903466E+03  0.7546771E-02  0.1047175E+00
         21   -1    0    0  502  501  0.00000000000E+00  0.00000000000E+00  0.76218796218E+03  0.76218796218E+03  0.00000000000E+00 0. -1.
         21   -1    0    0  501  502 -0.00000000000E+00 -0.00000000000E+00 -0.19991191830E+03  0.19991191830E+03  0.00000000000E+00 0. -1.
         25    1    1    2    0    0 -0.29464345569E+02  0.18402305804E+03  0.19282679892E+03  0.29587126919E+03  0.12500000000E+03 0.  0.
         25    1    1    2    0    0  0.17536416462E+03 -0.17871623363E+03  0.37091197159E+02  0.28229920174E+03  0.12500000000E+03 0.  0.
         25    1    1    2    0    0 -0.14589981905E+03 -0.53068244158E+01  0.33235804779E+03  0.38392940955E+03  0.12500000000E+03 0.  0.
</event>
<event>
 5    0  0.5778875E-005  0.2472271E+03  0.7546771E-02  0.1115070E+00
         21   -1    0    0  502  501  0.00000000000E+00  0.00000000000E+00  0.19547535100E+04  0.19547535100E+04  0.00000000000E+00 0. -1.
         21   -1    0    0  501  502 -0.00000000000E+00 -0.00000000000E+00 -0.31267992975E+02  0.31267992975E+02  0.00000000000E+00 0. -1.
         25    1    1    2    0    0 -0.55234969115E+02  0.66541148468E+02  0.63663007901E+03  0.65452386034E+03  0.12500000000E+03 0.  0.
         25    1    1    2    0    0  0.16568539862E+02 -0.14005398470E+03  0.80740398164E+03  0.82910543642E+03  0.12500000000E+03 0.  0.
         25    1    1    2    0    0  0.38666429253E+02  0.73512836230E+02  0.47945145640E+03  0.50239220623E+03  0.12500000000E+03 0.  0.
</event>
<event>
 5    0  0.5778875E-005  0.3626651E+03  0.7546771E-02  0.1057534E+00
         21   -1    0    0  502  501  0.00000000000E+00  0.00000000000E+00  0.46614325116E+03  0.46614325116E+03  0.00000000000E+00 0. -1.
         21   -1    0    0  501  502 -0.00000000000E+00 -0.00000000000E+00 -0.28215780227E+03  0.28215780227E+03  0.00000000000E+00 0. -1.
         25    1    1    2    0    0 -0.33053157673E+02 -0.21384176573E+03  0.27120385518E+03  0.36877817596E+03  0.12500000000E+03 0.  0.
         25    1    1    2    0    0  0.47309764107E+02  0.92754693281E+02  0.34970812927E+02  0.16640193708E+03  0.12500000000E+03 0.  0.
         25    1    1    2    0    0 -0.14256606434E+02  0.12108707245E+03 -0.12218921921E+03  0.21312094039E+03  0.12500000000E+03 0.  0.
</event>
<event>
 5    0  0.5778875E-005  0.3854400E+03  0.7546771E-02  0.1048941E+00
         21   -1    0    0  502  501  0.00000000000E+00  0.00000000000E+00  0.16719455845E+03  0.16719455845E+03  0.00000000000E+00 0. -1.
         21   -1    0    0  501  502 -0.00000000000E+00 -0.00000000000E+00 -0.88856954354E+03  0.88856954354E+03  0.00000000000E+00 0. -1.
         25    1    1    2    0    0 -0.11244844133E+03  0.12624400139E+03 -0.46293191871E+03  0.50844189560E+03  0.12500000000E+03 0.  0.
         25    1    1    2    0    0  0.25084116437E+01 -0.20438340749E+03 -0.12082353887E+02  0.23989550363E+03  0.12500000000E+03 0.  0.
         25    1    1    2    0    0  0.10994002968E+03  0.78139406098E+02 -0.24636071250E+03  0.30742670277E+03  0.12500000000E+03 0.  0.
</event>
<event>
 5    0  0.6046120E-005  0.2836366E+03  0.7546771E-02  0.1093719E+00
         21   -1    0    0  502  501  0.00000000000E+00  0.00000000000E+00  0.29041904905E+03  0.29041904905E+03  0.00000000000E+00 0.  1.
         21   -1    0    0  501  502 -0.00000000000E+00 -0.00000000000E+00 -0.27701261105E+03  0.27701261105E+03  0.00000000000E+00 0.  1.
         25    1    1    2    0    0 -0.93331757685E+02  0.89196761713E+02  0.57066448879E+02  0.18854298948E+03  0.12500000000E+03 0.  0.
         25    1    1    2    0    0  0.13916819000E+03 -0.39537095541E+02 -0.11160022419E+03  0.22138332609E+03  0.12500000000E+03 0.  0.
         25    1    1    2    0    0 -0.45836432312E+02 -0.49659666172E+02  0.67940213314E+02  0.15750534453E+03  0.12500000000E+03 0.  0.
</event>
<event>
 5    0  0.5778875E-005  0.3172911E+03  0.7546771E-02  0.1076903E+00
         21   -1    0    0  502  501  0.00000000000E+00  0.00000000000E+00  0.49204260227E+03  0.49204260227E+03  0.00000000000E+00 0.  1.
         21   -1    0    0  501  502 -0.00000000000E+00 -0.00000000000E+00 -0.20460347635E+03  0.20460347635E+03  0.00000000000E+00 0.  1.
         25    1    1    2    0    0  0.12322011757E+03  0.10898308203E+02 -0.46045916906E+02  0.18178888019E+03  0.12500000000E+03 0.  0.
         25    1    1    2    0    0 -0.16763930017E+02  0.19351968799E+02  0.32333090272E+03  0.34759660628E+03  0.12500000000E+03 0.  0.
         25    1    1    2    0    0 -0.10645618755E+03 -0.30250277002E+02  0.10154140102E+02  0.16726059216E+03  0.12500000000E+03 0.  0.
</event>
<event>
 5    0  0.7250004E-005  0.3253718E+03  0.7546771E-02  0.1073203E+00
         21   -1    0    0  502  501  0.00000000000E+00  0.00000000000E+00  0.63833058362E+03  0.63833058362E+03  0.00000000000E+00 0. -1.
         21   -1    0    0  501  502 -0.00000000000E+00 -0.00000000000E+00 -0.16584954763E+03  0.16584954763E+03  0.00000000000E+00 0. -1.
         25    1    1    2    0    0 -0.71616244478E+02  0.37278592710E+02 -0.58379032035E+01  0.14892166082E+03  0.12500000000E+03 0.  0.
         25    1    1    2    0    0  0.13135312256E+03 -0.17434848568E+03  0.29517516270E+03  0.38782007934E+03  0.12500000000E+03 0.  0.
         25    1    1    2    0    0 -0.59736878084E+02  0.13706989297E+03  0.18314377648E+03  0.26743839109E+03  0.12500000000E+03 0.  0.
</event>
<event>
 5    0  0.5778875E-005  0.2890471E+03  0.7546771E-02  0.1090848E+00
         21   -1    0    0  502  501  0.00000000000E+00  0.00000000000E+00  0.84685761695E+02  0.84685761695E+02  0.00000000000E+00 0.  1.
         21   -1    0    0  501  502 -0.00000000000E+00 -0.00000000000E+00 -0.98656757543E+03  0.98656757543E+03  0.00000000000E+00 0.  1.
         25    1    1    2    0    0  0.14412719001E+02  0.19122456089E+03 -0.28713245587E+03  0.36721193659E+03  0.12500000000E+03 0.  0.
         25    1    1    2    0    0 -0.52566204176E+02 -0.72064064101E+02 -0.19249150100E+03  0.24624055944E+03  0.12500000000E+03 0.  0.
         25    1    1    2    0    0  0.38153485175E+02 -0.11916049679E+03 -0.42225785685E+03  0.45780084109E+03  0.12500000000E+03 0.  0.
</event>
<event>
 5    0  0.5778875E-005  0.3350320E+03  0.7546771E-02  0.1068932E+00
         21   -1    0    0  502  501  0.00000000000E+00  0.00000000000E+00  0.83471896269E+02  0.83471896269E+02  0.00000000000E+00 0.  1.
         21   -1    0    0  501  502 -0.00000000000E+00 -0.00000000000E+00 -0.13447213199E+04  0.13447213199E+04  0.00000000000E+00 0.  1.
         25    1    1    2    0    0 -0.47454563472E+02 -0.10570932464E+03 -0.41527475823E+03  0.44889255032E+03  0.12500000000E+03 0.  0.
         25    1    1    2    0    0  0.14350378462E+03 -0.86563528564E+02 -0.20945678874E+03  0.29594547982E+03  0.12500000000E+03 0.  0.
         25    1    1    2    0    0 -0.96049221148E+02  0.19227285320E+03 -0.63651787667E+03  0.68335518604E+03  0.12500000000E+03 0.  0.
</event>
<event>
 5    0  0.5778875E-005  0.2257171E+03  0.7546771E-02  0.1129691E+00
         21   -1    0    0  502  501  0.00000000000E+00  0.00000000000E+00  0.38202714220E+03  0.38202714220E+03  0.00000000000E+00 0. -1.
         21   -1    0    0  501  502 -0.00000000000E+00 -0.00000000000E+00 -0.13336282538E+03  0.13336282538E+03  0.00000000000E+00 0. -1.
         25    1    1    2    0    0  0.36963776216E+02  0.13270983201E+02  0.16176236464E+03  0.20816940784E+03  0.12500000000E+03 0.  0.
         25    1    1    2    0    0 -0.48602221771E+02  0.47178727719E+02 -0.15484353957E+01  0.14218089169E+03  0.12500000000E+03 0.  0.
         25    1    1    2    0    0  0.11638445555E+02 -0.60449710920E+02  0.88450387577E+02  0.16503966804E+03  0.12500000000E+03 0.  0.
</event>
<event>
 5    0  0.5778875E-005  0.2721694E+03  0.7546771E-02  0.1100044E+00
         21   -1    0    0  502  501  0.00000000000E+00  0.00000000000E+00  0.51947206772E+03  0.51947206772E+03  0.00000000000E+00 0.  1.
         21   -1    0    0  501  502 -0.00000000000E+00 -0.00000000000E+00 -0.14259894429E+03  0.14259894429E+03  0.00000000000E+00 0.  1.
         25    1    1    2    0    0  0.48587858084E+02  0.61408350083E+02  0.72469173140E+02  0.16434277127E+03  0.12500000000E+03 0.  0.
         25    1    1    2    0    0 -0.15255274006E+03  0.31532922719E+02  0.20291714725E+03  0.28472272892E+03  0.12500000000E+03 0.  0.
         25    1    1    2    0    0  0.10396488197E+03 -0.92941272802E+02  0.10148680304E+03  0.21300551182E+03  0.12500000000E+03 0.  0.
</event>
<event>
 5    0  0.5778875E-005  0.2787109E+03  0.7546771E-02  0.1096395E+00
         21   -1    0    0  502  501  0.00000000000E+00  0.00000000000E+00  0.12941094467E+04  0.12941094467E+04  0.00000000000E+00 0.  1.
         21   -1    0    0  501  502 -0.00000000000E+00 -0.00000000000E+00 -0.60025655253E+02  0.60025655253E+02  0.00000000000E+00 0.  1.
         25    1    1    2    0    0  0.84851577519E+02 -0.10341064643E+03  0.63630416299E+03  0.66211897711E+03  0.12500000000E+03 0.  0.
         25    1    1    2    0    0  0.35540991795E+02  0.47920960789E+02  0.12982037201E+03  0.18983653381E+03  0.12500000000E+03 0.  0.
         25    1    1    2    0    0 -0.12039256931E+03  0.55489685643E+02  0.46795925641E+03  0.50217959100E+03  0.12500000000E+03 0.  0.
</event>
<event>
 5    0  0.5778875E-005  0.3043803E+03  0.7546771E-02  0.1083071E+00
         21   -1    0    0  502  501  0.00000000000E+00  0.00000000000E+00  0.40239666897E+03  0.40239666897E+03  0.00000000000E+00 0. -1.
         21   -1    0    0  501  502 -0.00000000000E+00 -0.00000000000E+00 -0.23023882586E+03  0.23023882586E+03  0.00000000000E+00 0. -1.
         25    1    1    2    0    0 -0.12813132583E+03 -0.62458585823E+02 -0.12336513220E+02  0.18998921328E+03  0.12500000000E+03 0.  0.
         25    1    1    2    0    0  0.16517383851E+02  0.67319790420E+02  0.22831458380E+03  0.26936467350E+03  0.12500000000E+03 0.  0.
         25    1    1    2    0    0  0.11161394198E+03 -0.48612045975E+01 -0.43820227469E+02  0.17328160806E+03  0.12500000000E+03 0.  0.
</event>
<event>
 5    0  0.5778875E-005  0.4587161E+03  0.7546771E-02  0.1025154E+00
         21   -1    0    0  502  501  0.00000000000E+00  0.00000000000E+00  0.88776612698E+03  0.88776612698E+03  0.00000000000E+00 0. -1.
         21   -1    0    0  501  502 -0.00000000000E+00 -0.00000000000E+00 -0.23702242522E+03  0.23702242522E+03  0.00000000000E+00 0. -1.
         25    1    1    2    0    0  0.19888165985E+03 -0.29004270066E+03  0.71235552815E+02  0.37997129736E+03  0.12500000000E+03 0.  0.
         25    1    1    2    0    0 -0.79024109167E+02  0.17491487206E+03  0.16903253910E+03  0.28467002226E+03  0.12500000000E+03 0.  0.
         25    1    1    2    0    0 -0.11985755069E+03  0.11512782860E+03  0.41047560984E+03  0.46014723257E+03  0.12500000000E+03 0.  0.
</event>
<event>
 5    0  0.5778875E-005  0.2213835E+03  0.7546771E-02  0.1132856E+00
         21   -1    0    0  502  501  0.00000000000E+00  0.00000000000E+00  0.18990973430E+03  0.18990973430E+03  0.00000000000E+00 0.  1.
         21   -1    0    0  501  502 -0.00000000000E+00 -0.00000000000E+00 -0.25807350619E+03  0.25807350619E+03  0.00000000000E+00 0.  1.
         25    1    1    2    0    0  0.59369852361E+02 -0.79087834167E+01 -0.65171121484E+01  0.13876166969E+03  0.12500000000E+03 0.  0.
         25    1    1    2    0    0  0.39965470603E+02  0.45612379764E+02 -0.30246290056E+02  0.14218848790E+03  0.12500000000E+03 0.  0.
         25    1    1    2    0    0 -0.99335322964E+02 -0.37703596348E+02 -0.31400369690E+02  0.16703308290E+03  0.12500000000E+03 0.  0.
</event>
<event>
 5    0  0.5778875E-005  0.4022487E+03  0.7546771E-02  0.1043004E+00
         21   -1    0    0  502  501  0.00000000000E+00  0.00000000000E+00  0.10404877423E+03  0.10404877423E+03  0.00000000000E+00 0.  1.
         21   -1    0    0  501  502 -0.00000000000E+00 -0.00000000000E+00 -0.15550782140E+04  0.15550782140E+04  0.00000000000E+00 0.  1.
         25    1    1    2    0    0 -0.16380957825E+03  0.41719210547E+02 -0.72001509538E+03  0.75008053436E+03  0.12500000000E+03 0.  0.
         25    1    1    2    0    0  0.10634411974E+03 -0.19274618666E+03 -0.15253811003E+03  0.29555547582E+03  0.12500000000E+03 0.  0.
         25    1    1    2    0    0  0.57465458510E+02  0.15102697611E+03 -0.57847623432E+03  0.61349097802E+03  0.12500000000E+03 0.  0.
</event>
<event>
 5    0  0.5778875E-005  0.5531247E+03  0.7546771E-02  0.1000773E+00
         21   -1    0    0  502  501  0.00000000000E+00  0.00000000000E+00  0.35637688123E+03  0.35637688123E+03  0.00000000000E+00 0.  1.
         21   -1    0    0  501  502 -0.00000000000E+00 -0.00000000000E+00 -0.85849259922E+03  0.85849259922E+03  0.00000000000E+00 0.  1.
         25    1    1    2    0    0 -0.30426196800E+03  0.20998643639E+03 -0.11912095244E+03  0.40802506044E+03  0.12500000000E+03 0.  0.
         25    1    1    2    0    0  0.31638873252E+03  0.36316776763E+02 -0.40421097224E+03  0.52955854107E+03  0.12500000000E+03 0.  0.
         25    1    1    2    0    0 -0.12126764521E+02 -0.24630321315E+03  0.21216206689E+02  0.27728587893E+03  0.12500000000E+03 0.  0.
</event>
<event>
 5    0  0.5778875E-005  0.3844080E+03  0.7546771E-02  0.1049316E+00
         21   -1    0    0  502  501  0.00000000000E+00  0.00000000000E+00  0.83428405991E+02  0.83428405991E+02  0.00000000000E+00 0. -1.
         21   -1    0    0  501  502 -0.00000000000E+00 -0.00000000000E+00 -0.17712134979E+04  0.17712134979E+04  0.00000000000E+00 0. -1.
         25    1    1    2    0    0  0.12987364606E+03 -0.35114658522E+02 -0.80217102895E+03  0.82292378923E+03  0.12500000000E+03 0.  0.
         25    1    1    2    0    0 -0.11730856482E+03 -0.93382826238E+02 -0.88030890287E+02  0.21414034944E+03  0.12500000000E+03 0.  0.
         25    1    1    2    0    0 -0.12565081249E+02  0.12849748476E+03 -0.79758317264E+03  0.81757776519E+03  0.12500000000E+03 0.  0.
</event>
<event>
 5    0  0.5778875E-005  0.2702027E+03  0.7546771E-02  0.1101164E+00
         21   -1    0    0  502  501  0.00000000000E+00  0.00000000000E+00  0.20297247126E+03  0.20297247126E+03  0.00000000000E+00 0.  1.
         21   -1    0    0  501  502 -0.00000000000E+00 -0.00000000000E+00 -0.35970147756E+03  0.35970147756E+03  0.00000000000E+00 0.  1.
         25    1    1    2    0    0 -0.45969482774E+02 -0.81883234611E+02  0.47918074889E+02  0.16352125048E+03  0.12500000000E+03 0.  0.
         25    1    1    2    0    0  0.88507682400E+02  0.12208953617E+03 -0.74846661575E+02  0.20968187197E+03  0.12500000000E+03 0.  0.
         25    1    1    2    0    0 -0.42538199626E+02 -0.40206301559E+02 -0.12980041961E+03  0.18947082636E+03  0.12500000000E+03 0.  0.
</event>
<event>
 5    0  0.5778875E-005  0.2729314E+03  0.7546771E-02  0.1099613E+00
         21   -1    0    0  502  501  0.00000000000E+00  0.00000000000E+00  0.11201430664E+04  0.11201430664E+04  0.00000000000E+00 0.  1.
         21   -1    0    0  501  502 -0.00000000000E+00 -0.00000000000E+00 -0.66501840862E+02  0.66501840862E+02  0.00000000000E+00 0.  1.
         25    1    1    2    0    0 -0.25957840378E+02  0.70104772130E+02  0.53944422771E+03  0.55876073893E+03  0.12500000000E+03 0.  0.
         25    1    1    2    0    0  0.42810550264E+02  0.75624064098E+02  0.13932474578E+03  0.20636891014E+03  0.12500000000E+03 0.  0.
         25    1    1    2    0    0 -0.16852709886E+02 -0.14572883623E+03  0.37487225203E+03  0.42151525818E+03  0.12500000000E+03 0.  0.
</event>
<event>
 5    0  0.5778875E-005  0.5215246E+03  0.7546771E-02  0.1008309E+00
         21   -1    0    0  502  501  0.00000000000E+00  0.00000000000E+00  0.38430508794E+03  0.38430508794E+03  0.00000000000E+00 0.  1.
         21   -1    0    0  501  502 -0.00000000000E+00 -0.00000000000E+00 -0.70773948822E+03  0.70773948822E+03  0.00000000000E+00 0.  1.
         25    1    1    2    0    0 -0.88952837014E+02  0.11750130194E+03 -0.12394306618E+03  0.22957797548E+03  0.12500000000E+03 0.  0.
         25    1    1    2    0    0 -0.18929198764E+03 -0.33142084374E+03  0.63256903123E+02  0.40656815916E+03  0.12500000000E+03 0.  0.
         25    1    1    2    0    0  0.27824482466E+03  0.21391954180E+03 -0.26274823723E+03  0.45589844152E+03  0.12500000000E+03 0.  0.
</event>
<event>
 5    0  0.6271785E-005  0.5539466E+03  0.7546771E-02  0.1000585E+00
         21   -1    0    0  502  501  0.00000000000E+00  0.00000000000E+00  0.37559413731E+03  0.37559413731E+03  0.00000000000E+00 0. -1.
         21   -1    0    0  501  502 -0.00000000000E+00 -0.00000000000E+00 -0.81699034840E+03  0.81699034840E+03  0.00000000000E+00 0. -1.
         25    1    1    2    0    0  0.45853015910E+02  0.19278319535E+03 -0.52791924391E+03  0.57757388062E+03  0.12500000000E+03 0.  0.
         25    1    1    2    0    0  0.21626578190E+02  0.16595899513E+03  0.94069626260E+02  0.22909428525E+03  0.12500000000E+03 0.  0.
         25    1    1    2    0    0 -0.67479594099E+02 -0.35874219048E+03 -0.75465934395E+01  0.38591631984E+03  0.12500000000E+03 0.  0.
</event>
<event>
 5    0  0.5778875E-005  0.2314215E+03  0.7546771E-02  0.1125643E+00
         21   -1    0    0  502  501  0.00000000000E+00  0.00000000000E+00  0.10491588125E+03  0.10491588125E+03  0.00000000000E+00 0.  1.
         21   -1    0    0  501  502 -0.00000000000E+00 -0.00000000000E+00 -0.51046514632E+03  0.51046514632E+03  0.00000000000E+00 0.  1.
         25    1    1    2    0    0 -0.18206415753E+02  0.73522118502E+02 -0.61648322869E+02  0.15862689304E+03  0.12500000000E+03 0.  0.
         25    1    1    2    0    0 -0.60901923377E+02 -0.38834243710E+02 -0.12927500025E+03  0.19378897916E+03  0.12500000000E+03 0.  0.
         25    1    1    2    0    0  0.79108339130E+02 -0.34687874792E+02 -0.21462594195E+03  0.26296515536E+03  0.12500000000E+03 0.  0.
</event>
<event>
 5    0  0.5778875E-005  0.4483938E+03  0.7546771E-02  0.1028202E+00
         21   -1    0    0  502  501  0.00000000000E+00  0.00000000000E+00  0.40479306934E+03  0.40479306934E+03  0.00000000000E+00 0.  1.
         21   -1    0    0  501  502 -0.00000000000E+00 -0.00000000000E+00 -0.49669086046E+03  0.49669086046E+03  0.00000000000E+00 0.  1.
         25    1    1    2    0    0  0.17172283601E+03 -0.85954999595E+02 -0.68130898942E+02  0.23904772276E+03  0.12500000000E+03 0.  0.
         25    1    1    2    0    0 -0.41335886261E+02  0.29682771256E+03  0.12438833170E+03  0.34772518387E+03  0.12500000000E+03 0.  0.
         25    1    1    2    0    0 -0.13038694975E+03 -0.21087271296E+03 -0.14815522388E+03  0.31471102316E+03  0.12500000000E+03 0.  0.
</event>
<event>
 5    0  0.5778875E-005  0.2602507E+03  0.7546771E-02  0.1106993E+00
         21   -1    0    0  502  501  0.00000000000E+00  0.00000000000E+00  0.49610800852E+03  0.49610800852E+03  0.00000000000E+00 0.  1.
         21   -1    0    0  501  502 -0.00000000000E+00 -0.00000000000E+00 -0.13652352467E+03  0.13652352467E+03  0.00000000000E+00 0.  1.
         25    1    1    2    0    0 -0.10897871172E+03  0.17024421550E+02  0.20267542021E+03  0.26242811681E+03  0.12500000000E+03 0.  0.
         25    1    1    2    0    0  0.32385313145E+02  0.85791568765E+02  0.88564211074E+02  0.17854305156E+03  0.12500000000E+03 0.  0.
         25    1    1    2    0    0  0.76593398578E+02 -0.10281599031E+03  0.68344852565E+02  0.19166036482E+03  0.12500000000E+03 0.  0.
</event>
<event>
 5    0  0.5778875E-005  0.2521003E+03  0.7546771E-02  0.1111985E+00
         21   -1    0    0  502  501  0.00000000000E+00  0.00000000000E+00  0.12387569667E+03  0.12387569667E+03  0.00000000000E+00 0. -1.
         21   -1    0    0  501  502 -0.00000000000E+00 -0.00000000000E+00 -0.51305125455E+03  0.51305125455E+03  0.00000000000E+00 0. -1.
         25    1    1    2    0    0  0.13198739990E+03  0.57778891129E+02 -0.19697298607E+03  0.27419414880E+03  0.12500000000E+03 0.  0.
         25    1    1    2    0    0 -0.68560190574E+02 -0.62365185120E+01 -0.37168066968E+02  0.14746477239E+03  0.12500000000E+03 0.  0.
         25    1    1    2    0    0 -0.63427209331E+02 -0.51542372617E+02 -0.15503450485E+03  0.21526803003E+03  0.12500000000E+03 0.  0.
</event>
<event>
 5    0  0.5778875E-005  0.3147451E+03  0.7546771E-02  0.1078094E+00
         21   -1    0    0  502  501  0.00000000000E+00  0.00000000000E+00  0.14227187788E+03  0.14227187788E+03  0.00000000000E+00 0.  1.
         21   -1    0    0  501  502 -0.00000000000E+00 -0.00000000000E+00 -0.69630385448E+03  0.69630385448E+03  0.00000000000E+00 0.  1.
         25    1    1    2    0    0 -0.55588807425E+02  0.17653954510E+02 -0.87386004225E+02  0.16328836871E+03  0.12500000000E+03 0.  0.
         25    1    1    2    0    0 -0.17941633407E+03 -0.98169217648E+01 -0.24755935683E+03  0.33045003864E+03  0.12500000000E+03 0.  0.
         25    1    1    2    0    0  0.23500514149E+03 -0.78370327454E+01 -0.21908661555E+03  0.34483732502E+03  0.12500000000E+03 0.  0.
</event>
<event>
 5    0  0.5778875E-005  0.2898147E+03  0.7546771E-02  0.1090446E+00
         21   -1    0    0  502  501  0.00000000000E+00  0.00000000000E+00  0.15061041855E+03  0.15061041855E+03  0.00000000000E+00 0.  1.
         21   -1    0    0  501  502 -0.00000000000E+00 -0.00000000000E+00 -0.55768098709E+03  0.55768098709E+03  0.00000000000E+00 0.  1.
         25    1    1    2    0    0 -0.14810649236E+03 -0.86067215569E+02 -0.22077576143E+03  0.30612094915E+03  0.12500000000E+03 0.  0.
         25    1    1    2    0    0  0.62176454622E+02 -0.49567486225E+02 -0.11133144302E+03  0.18531739639E+03  0.12500000000E+03 0.  0.
         25    1    1    2    0    0  0.85930037735E+02  0.13563470179E+03 -0.74963364087E+02  0.21685306009E+03  0.12500000000E+03 0.  0.
</event>
<event>
 5    0  0.5778875E-005  0.2766242E+03  0.7546771E-02  0.1097547E+00
         21   -1    0    0  502  501  0.00000000000E+00  0.00000000000E+00  0.16447072657E+03  0.16447072657E+03  0.00000000000E+00 0.  1.
         21   -1    0    0  501  502 -0.00000000000E+00 -0.00000000000E+00 -0.46525565580E+03  0.46525565580E+03  0.00000000000E+00 0.  1.
         25    1    1    2    0    0  0.71031980799E+02  0.22048049482E+02 -0.90187350845E+02  0.17114443326E+03  0.12500000000E+03 0.  0.
         25    1    1    2    0    0  0.55809663378E+01  0.12375026586E+03 -0.17609668707E+03  0.24895846779E+03  0.12500000000E+03 0.  0.
         25    1    1    2    0    0 -0.76612947136E+02 -0.14579831534E+03 -0.34500891312E+02  0.20962348133E+03  0.12500000000E+03 0.  0.
</event>
<event>
 5    0  0.5778875E-005  0.3060361E+03  0.7546771E-02  0.1082262E+00
         21   -1    0    0  502  501  0.00000000000E+00  0.00000000000E+00  0.73939000540E+03  0.73939000540E+03  0.00000000000E+00 0. -1.
         21   -1    0    0  501  502 -0.00000000000E+00 -0.00000000000E+00 -0.12666937450E+03  0.12666937450E+03  0.00000000000E+00 0. -1.
         25    1    1    2    0    0 -0.91629777175E+02 -0.51088739345E+02  0.40788841197E+03  0.43932224161E+03  0.12500000000E+03 0.  0.
         25    1    1    2    0    0  0.10678426490E+03 -0.36961560493E+02 -0.26890763241E+01  0.16852675549E+03  0.12500000000E+03 0.  0.
         25    1    1    2    0    0 -0.15154487727E+02  0.88050299839E+02  0.20752129525E+03  0.25821038279E+03  0.12500000000E+03 0.  0.
</event>
<event>
 5    0  0.5778875E-005  0.2755079E+03  0.7546771E-02  0.1098168E+00
         21   -1    0    0  502  501  0.00000000000E+00  0.00000000000E+00  0.10940665914E+03  0.10940665914E+03  0.00000000000E+00 0.  1.
         21   -1    0    0  501  502 -0.00000000000E+00 -0.00000000000E+00 -0.69378414379E+03  0.69378414379E+03  0.00000000000E+00 0.  1.
         25    1    1    2    0    0  0.13512571751E+03  0.59891173735E+02 -0.15953057676E+03  0.25084042167E+03  0.12500000000E+03 0.  0.
         25    1    1    2    0    0 -0.26963345400E+02  0.53222375339E+02 -0.10044732868E+03  0.17109736722E+03  0.12500000000E+03 0.  0.
         25    1    1    2    0    0 -0.10816237211E+03 -0.11311354907E+03 -0.32439957921E+03  0.38125301404E+03  0.12500000000E+03 0.  0.
</event>
<event>
 5    0  0.5778875E-005  0.2560232E+03  0.7546771E-02  0.1109556E+00
         21   -1    0    0  502  501  0.00000000000E+00  0.00000000000E+00  0.29684230982E+03  0.29684230982E+03  0.00000000000E+00 0.  1.
         21   -1    0    0  501  502 -0.00000000000E+00 -0.00000000000E+00 -0.22081715190E+03  0.22081715190E+03  0.00000000000E+00 0.  1.
         25    1    1    2    0    0  0.72062005623E+02 -0.95138726731E+02 -0.42231946575E+01  0.17287899049E+03  0.12500000000E+03 0.  0.
         25    1    1    2    0    0 -0.37775825342E+02 -0.38561393599E+02  0.81258494934E+02  0.15856209211E+03  0.12500000000E+03 0.  0.
         25    1    1    2    0    0 -0.34286180281E+02  0.13370012033E+03 -0.10101423534E+01  0.18621837912E+03  0.12500000000E+03 0.  0.
</event>
<event>
 5    0  0.5778875E-005  0.3068912E+03  0.7546771E-02  0.1081846E+00
         21   -1    0    0  502  501  0.00000000000E+00  0.00000000000E+00  0.26598662018E+03  0.26598662018E+03  0.00000000000E+00 0. -1.
         21   -1    0    0  501  502 -0.00000000000E+00 -0.00000000000E+00 -0.35408631310E+03  0.35408631310E+03  0.00000000000E+00 0. -1.
         25    1    1    2    0    0  0.41846809274E+02 -0.55106385288E+02  0.10010628511E+02  0.14322388708E+03  0.12500000000E+03 0.  0.
         25    1    1    2    0    0 -0.56290469391E+02  0.21567549799E+03 -0.95541401431E+02  0.27283272671E+03  0.12500000000E+03 0.  0.
         25    1    1    2    0    0  0.14443660117E+02 -0.16056911270E+03 -0.25689200035E+01  0.20401631950E+03  0.12500000000E+03 0.  0.
</event>
<event>
 5    0  0.5778875E-005  0.3174457E+03  0.7546771E-02  0.1076831E+00
         21   -1    0    0  502  501  0.00000000000E+00  0.00000000000E+00  0.13352189457E+03  0.13352189457E+03  0.00000000000E+00 0.  1.
         21   -1    0    0  501  502 -0.00000000000E+00 -0.00000000000E+00 -0.75472116541E+03  0.75472116541E+03  0.00000000000E+00 0.  1.
         25    1    1    2    0    0  0.46381914698E+02  0.85479514554E+02 -0.33698534804E+03  0.37234681979E+03  0.12500000000E+03 0.  0.
         25    1    1    2    0    0  0.14006495683E+03 -0.82648817347E+02 -0.15273663264E+03  0.25573912116E+03  0.12500000000E+03 0.  0.
         25    1    1    2    0    0 -0.18644687153E+03 -0.28306972067E+01 -0.13147729016E+03  0.26015711902E+03  0.12500000000E+03 0.  0.
</event>
<event>
 5    0  0.5778875E-005  0.2861253E+03  0.7546771E-02  0.1092390E+00
         21   -1    0    0  502  501  0.00000000000E+00  0.00000000000E+00  0.24592683603E+04  0.24592683603E+04  0.00000000000E+00 0. -1.
         21   -1    0    0  501  502 -0.00000000000E+00 -0.00000000000E+00 -0.33289447855E+02  0.33289447855E+02  0.00000000000E+00 0. -1.
         25    1    1    2    0    0  0.91985234902E+02  0.16433455281E+03  0.96535546525E+03  0.99146523034E+03  0.12500000000E+03 0.  0.
         25    1    1    2    0    0 -0.56865639995E+02 -0.84699043784E+00  0.56184797979E+03  0.57838790686E+03  0.12500000000E+03 0.  0.
         25    1    1    2    0    0 -0.35119594906E+02 -0.16348756237E+03  0.89877546744E+03  0.92270467099E+03  0.12500000000E+03 0.  0.
</event>
<event>
 5    0  0.6483783E-005  0.3766261E+03  0.7546771E-02  0.1052188E+00
         21   -1    0    0  502  501  0.00000000000E+00  0.00000000000E+00  0.90430252021E+03  0.90430252021E+03  0.00000000000E+00 0. -1.
         21   -1    0    0  501  502 -0.00000000000E+00 -0.00000000000E+00 -0.15685814689E+03  0.15685814689E+03  0.00000000000E+00 0. -1.
         25    1    1    2    0    0  0.16981350627E+03  0.34790412938E+02  0.10262038634E+03  0.23707159981E+03  0.12500000000E+03 0.  0.
         25    1    1    2    0    0 -0.96815798037E+01  0.84899712765E+02  0.54913882397E+03  0.56963158463E+03  0.12500000000E+03 0.  0.
         25    1    1    2    0    0 -0.16013192646E+03 -0.11969012570E+03  0.95685163004E+02  0.25445748266E+03  0.12500000000E+03 0.  0.
</event>
<event>
 5    0  0.5778875E-005  0.2756106E+03  0.7546771E-02  0.1098111E+00
         21   -1    0    0  502  501  0.00000000000E+00  0.00000000000E+00  0.82671813830E+02  0.82671813830E+02  0.00000000000E+00 0. -1.
         21   -1    0    0  501  502 -0.00000000000E+00 -0.00000000000E+00 -0.91882803274E+03  0.91882803274E+03  0.00000000000E+00 0. -1.
         25    1    1    2    0    0 -0.27495160872E+02  0.14687015965E+02 -0.27331218101E+03  0.30215267763E+03  0.12500000000E+03 0.  0.
         25    1    1    2    0    0  0.11615827941E+03  0.11215432716E+03 -0.20159082492E+03  0.28694110836E+03  0.12500000000E+03 0.  0.
         25    1    1    2    0    0 -0.88663118537E+02 -0.12684134312E+03 -0.36125321299E+03  0.41240606059E+03  0.12500000000E+03 0.  0.
</event>
<event>
 5    0  0.5778875E-005  0.2582054E+03  0.7546771E-02  0.1108226E+00
         21   -1    0    0  502  501  0.00000000000E+00  0.00000000000E+00  0.15953012484E+03  0.15953012484E+03  0.00000000000E+00 0.  1.
         21   -1    0    0  501  502 -0.00000000000E+00 -0.00000000000E+00 -0.41791500970E+03  0.41791500970E+03  0.00000000000E+00 0.  1.
         25    1    1    2    0    0  0.45233053088E+02 -0.23131309001E+02 -0.18252297917E+03  0.22698177124E+03  0.12500000000E+03 0.  0.
         25    1    1    2    0    0  0.20283828155E+02 -0.85464604446E+02 -0.79765491640E+02  0.17234606452E+03  0.12500000000E+03 0.  0.
         25    1    1    2    0    0 -0.65516881243E+02  0.10859591345E+03  0.39035859497E+01  0.17811729879E+03  0.12500000000E+03 0.  0.
</event>
<event>
 5    0  0.5778875E-005  0.2439584E+03  0.7546771E-02  0.1117184E+00
         21   -1    0    0  502  501  0.00000000000E+00  0.00000000000E+00  0.79222746550E+03  0.79222746550E+03  0.00000000000E+00 0. -1.
         21   -1    0    0  501  502 -0.00000000000E+00 -0.00000000000E+00 -0.75124530822E+02  0.75124530822E+02  0.00000000000E+00 0. -1.
         25    1    1    2    0    0  0.21869972406E+02 -0.10932098205E+03  0.23432690261E+03  0.28803380027E+03  0.12500000000E+03 0.  0.
         25    1    1    2    0    0  0.58657200727E+02  0.67925797293E+02  0.31955344751E+03  0.35467448027E+03  0.12500000000E+03 0.  0.
         25    1    1    2    0    0 -0.80527173133E+02  0.41395184759E+02  0.16322258456E+03  0.22464371579E+03  0.12500000000E+03 0.  0.
</event>
<event>
 5    0  0.5778875E-005  0.2737661E+03  0.7546771E-02  0.1099143E+00
         21   -1    0    0  502  501  0.00000000000E+00  0.00000000000E+00  0.13706417760E+03  0.13706417760E+03  0.00000000000E+00 0.  1.
         21   -1    0    0  501  502 -0.00000000000E+00 -0.00000000000E+00 -0.54680844997E+03  0.54680844997E+03  0.00000000000E+00 0.  1.
         25    1    1    2    0    0 -0.12225004677E+03  0.87674947764E+02 -0.19921382121E+03  0.27918294533E+03  0.12500000000E+03 0.  0.
         25    1    1    2    0    0  0.86275559713E+01 -0.12015451762E+03 -0.10592959159E+03  0.20336573261E+03  0.12500000000E+03 0.  0.
         25    1    1    2    0    0  0.11362249080E+03  0.32479569855E+02 -0.10460085957E+03  0.20132394963E+03  0.12500000000E+03 0.  0.
</event>
<event>
 5    0  0.5778875E-005  0.2663488E+03  0.7546771E-02  0.1103388E+00
         21   -1    0    0  502  501  0.00000000000E+00  0.00000000000E+00  0.21813242571E+04  0.21813242571E+04  0.00000000000E+00 0.  1.
         21   -1    0    0  501  502 -0.00000000000E+00 -0.00000000000E+00 -0.32522290486E+02  0.32522290486E+02  0.00000000000E+00 0.  1.
         25    1    1    2    0    0 -0.38389016291E+02  0.17004401674E+02  0.28859157663E+03  0.31729003191E+03  0.12500000000E+03 0.  0.
         25    1    1    2    0    0  0.32503508982E+02  0.12107725598E+03  0.73502961716E+03  0.75604875380E+03  0.12500000000E+03 0.  0.
         25    1    1    2    0    0  0.58855073088E+01 -0.13808165765E+03  0.11251807728E+04  0.11405077619E+04  0.12500000000E+03 0.  0.
</event>
<event>
 5    0  0.5778875E-005  0.4669921E+03  0.7546771E-02  0.1022773E+00
         21   -1    0    0  502  501  0.00000000000E+00  0.00000000000E+00  0.62526012679E+03  0.62526012679E+03  0.00000000000E+00 0.  1.
         21   -1    0    0  501  502 -0.00000000000E+00 -0.00000000000E+00 -0.34878541298E+03  0.34878541298E+03  0.00000000000E+00 0.  1.
         25    1    1    2    0    0  0.57302301695E+02  0.18400405493E+03 -0.15148039429E+03  0.27515878300E+03  0.12500000000E+03 0.  0.
         25    1    1    2    0    0  0.16897953431E+03 -0.17664407899E+03  0.31159204659E+03  0.41529726360E+03  0.12500000000E+03 0.  0.
         25    1    1    2    0    0 -0.22628183600E+03 -0.73599759384E+01  0.11636306152E+03  0.28358949317E+03  0.12500000000E+03 0.  0.
</event>
<event>
 5    0  0.5778875E-005  0.2617774E+03  0.7546771E-02  0.1106080E+00
         21   -1    0    0  502  501  0.00000000000E+00  0.00000000000E+00  0.31514751938E+03  0.31514751938E+03  0.00000000000E+00 0. -1.
         21   -1    0    0  501  502 -0.00000000000E+00 -0.00000000000E+00 -0.21744549678E+03  0.21744549678E+03  0.00000000000E+00 0. -1.
         25    1    1    2    0    0 -0.53278001751E+02  0.64145349972E+02 -0.73471340585E+02  0.16726090183E+03  0.12500000000E+03 0.  0.
         25    1    1    2    0    0  0.28861775883E+02  0.20391351557E+02 -0.75911058461E+01  0.13012084465E+03  0.12500000000E+03 0.  0.
         25    1    1    2    0    0  0.24416225868E+02 -0.84536701529E+02  0.17876446904E+03  0.23521126968E+03  0.12500000000E+03 0.  0.
</event>
<event>
 5    0  0.5778875E-005  0.2663239E+03  0.7546771E-02  0.1103402E+00
         21   -1    0    0  502  501  0.00000000000E+00  0.00000000000E+00  0.80548507748E+02  0.80548507748E+02  0.00000000000E+00 0.  1.
         21   -1    0    0  501  502 -0.00000000000E+00 -0.00000000000E+00 -0.88056765438E+03  0.88056765438E+03  0.00000000000E+00 0.  1.
         25    1    1    2    0    0 -0.46565643204E+02  0.57704246276E+01 -0.24598742081E+03  0.27988652723E+03  0.12500000000E+03 0.  0.
         25    1    1    2    0    0 -0.16319101564E+02 -0.70775678311E+01 -0.52283142777E+03  0.53786067611E+03  0.12500000000E+03 0.  0.
         25    1    1    2    0    0  0.62884744768E+02  0.13071432035E+01 -0.31200298063E+02  0.14336895880E+03  0.12500000000E+03 0.  0.
</event>
<event>
 5    0  0.5778875E-005  0.3213085E+03  0.7546771E-02  0.1075049E+00
         21   -1    0    0  502  501  0.00000000000E+00  0.00000000000E+00  0.85242195059E+02  0.85242195059E+02  0.00000000000E+00 0. -1.
         21   -1    0    0  501  502 -0.00000000000E+00 -0.00000000000E+00 -0.12111274045E+04  0.12111274045E+04  0.00000000000E+00 0. -1.
         25    1    1    2    0    0  0.18839797308E+02 -0.75402795868E+02 -0.17986046582E+03  0.23241193332E+03  0.12500000000E+03 0.  0.
         25    1    1    2    0    0 -0.79695305561E+02  0.20610698949E+03 -0.74371300054E+03  0.78585333239E+03  0.12500000000E+03 0.  0.
         25    1    1    2    0    0  0.60855508253E+02 -0.13070419362E+03 -0.20231174306E+03  0.27810433383E+03  0.12500000000E+03 0.  0.
</event>
<event>
 5    0  0.5778875E-005  0.2713327E+03  0.7546771E-02  0.1100519E+00
         21   -1    0    0  502  501  0.00000000000E+00  0.00000000000E+00  0.49332408695E+03  0.49332408695E+03  0.00000000000E+00 0. -1.
         21   -1    0    0  501  502 -0.00000000000E+00 -0.00000000000E+00 -0.14923544317E+03  0.14923544317E+03  0.00000000000E+00 0. -1.
         25    1    1    2    0    0  0.25764570594E+02  0.11680453294E+02 -0.35720708945E+02  0.13304591363E+03  0.12500000000E+03 0.  0.
         25    1    1    2    0    0 -0.88188905901E+02  0.24521284479E+02  0.74725189694E+02  0.17200997207E+03  0.12500000000E+03 0.  0.
         25    1    1    2    0    0  0.62424335306E+02 -0.36201737773E+02  0.30508416303E+03  0.33750364441E+03  0.12500000000E+03 0.  0.
</event>
<event>
 5    0  0.5778875E-005  0.4024563E+03  0.7546771E-02  0.1042932E+00
         21   -1    0    0  502  501  0.00000000000E+00  0.00000000000E+00  0.16349754592E+04  0.16349754592E+04  0.00000000000E+00 0.  1.
         21   -1    0    0  501  502 -0.00000000000E+00 -0.00000000000E+00 -0.99066354637E+02  0.99066354637E+02  0.00000000000E+00 0.  1.
         25    1    1    2    0    0  0.12420155475E+03 -0.10999769500E+03  0.18498301816E+03  0.27815326012E+03  0.12500000000E+03 0.  0.
         25    1    1    2    0    0  0.16614095620E+03  0.28630525510E+02  0.42252774866E+03  0.47178090541E+03  0.12500000000E+03 0.  0.
         25    1    1    2    0    0 -0.29034251095E+03  0.81367169494E+02  0.92839833776E+03  0.98410764833E+03  0.12500000000E+03 0.  0.
</event>
<event>
 5    0  0.6333682E-005  0.2561756E+03  0.7546771E-02  0.1109463E+00
         21   -1    0    0  502  501  0.00000000000E+00  0.00000000000E+00  0.61833122726E+03  0.61833122726E+03  0.00000000000E+00 0. -1.
         21   -1    0    0  501  502 -0.00000000000E+00 -0.00000000000E+00 -0.10613394905E+03  0.10613394905E+03  0.00000000000E+00 0. -1.
         25    1    1    2    0    0 -0.67428630521E+02  0.12151095638E+03  0.30392712756E+03  0.35680279091E+03  0.12500000000E+03 0.  0.
         25    1    1    2    0    0 -0.57283779822E+01 -0.90543778195E+02  0.11601195906E+03  0.19317029981E+03  0.12500000000E+03 0.  0.
         25    1    1    2    0    0  0.73157008503E+02 -0.30967178187E+02  0.92258191582E+02  0.17449208559E+03  0.12500000000E+03 0.  0.
</event>
<event>
 5    0  0.5778875E-005  0.3057504E+03  0.7546771E-02  0.1082401E+00
         21   -1    0    0  502  501  0.00000000000E+00  0.00000000000E+00  0.11075120280E+04  0.11075120280E+04  0.00000000000E+00 0. -1.
         21   -1    0    0  501  502 -0.00000000000E+00 -0.00000000000E+00 -0.84408366775E+02  0.84408366775E+02  0.00000000000E+00 0. -1.
         25    1    1    2    0    0  0.12711908730E+01  0.13247855633E+03  0.26236583826E+03  0.31939476655E+03  0.12500000000E+03 0.  0.
         25    1    1    2    0    0 -0.13599826824E+03 -0.12852662445E+02  0.49189585238E+03  0.52559228447E+03  0.12500000000E+03 0.  0.
         25    1    1    2    0    0  0.13472707737E+03 -0.11962589389E+03  0.26884197058E+03  0.34693334375E+03  0.12500000000E+03 0.  0.
</event>
<event>
 5    0  0.5778875E-005  0.2259517E+03  0.7546771E-02  0.1129522E+00
         21   -1    0    0  502  501  0.00000000000E+00  0.00000000000E+00  0.35395842856E+03  0.35395842856E+03  0.00000000000E+00 0.  1.
         21   -1    0    0  501  502 -0.00000000000E+00 -0.00000000000E+00 -0.14423781210E+03  0.14423781210E+03  0.00000000000E+00 0.  1.
         25    1    1    2    0    0 -0.65440898469E+02  0.52494536996E+01  0.14462343541E+02  0.14193036087E+03  0.12500000000E+03 0.  0.
         25    1    1    2    0    0  0.57110752644E+02  0.21441066648E+02  0.22030120113E+02  0.14082501056E+03  0.12500000000E+03 0.  0.
         25    1    1    2    0    0  0.83301458255E+01 -0.26690520347E+02  0.17322815281E+03  0.21544086922E+03  0.12500000000E+03 0.  0.
</event>
<event>
 5    0  0.5778875E-005  0.3480093E+03  0.7546771E-02  0.1063435E+00
         21   -1    0    0  502  501  0.00000000000E+00  0.00000000000E+00  0.86345745585E+02  0.86345745585E+02  0.00000000000E+00 0.  1.
         21   -1    0    0  501  502 -0.00000000000E+00 -0.00000000000E+00 -0.14026221966E+04  0.14026221966E+04  0.00000000000E+00 0.  1.
         25    1    1    2    0    0  0.23068069154E+03 -0.62068277661E+02 -0.34456055953E+03  0.43750775048E+03  0.12500000000E+03 0.  0.
         25    1    1    2    0    0 -0.21855500227E+03  0.95682637449E+01 -0.75107572694E+03  0.79221057067E+03  0.12500000000E+03 0.  0.
         25    1    1    2    0    0 -0.12125689274E+02  0.52500013916E+02 -0.22064016458E+03  0.25924962107E+03  0.12500000000E+03 0.  0.
</event>
<event>
 5    0  0.5778875E-005  0.3643137E+03  0.7546771E-02  0.1056889E+00
         21   -1    0    0  502  501  0.00000000000E+00  0.00000000000E+00  0.23822931954E+03  0.23822931954E+03  0.00000000000E+00 0.  1.
         21   -1    0    0  501  502 -0.00000000000E+00 -0.00000000000E+00 -0.55712915467E+03  0.55712915467E+03  0.00000000000E+00 0.  1.
         25    1    1    2    0    0  0.62351388885E+02 -0.15103873748E+03 -0.10547144040E+03  0.23119174002E+03  0.12500000000E+03 0.  0.
         25    1    1    2    0    0 -0.17615856439E+03  0.37706385312E+02 -0.27483147914E+03  0.35158349396E+03  0.12500000000E+03 0.  0.
         25    1    1    2    0    0  0.11380717551E+03  0.11333235217E+03  0.61403084411E+02  0.21258324022E+03  0.12500000000E+03 0.  0.
</event>
<event>
 5    0  0.5778875E-005  0.2964567E+03  0.7546771E-02  0.1087025E+00
         21   -1    0    0  502  501  0.00000000000E+00  0.00000000000E+00  0.86892360042E+03  0.86892360042E+03  0.00000000000E+00 0.  1.
         21   -1    0    0  501  502 -0.00000000000E+00 -0.00000000000E+00 -0.10114417716E+03  0.10114417716E+03  0.00000000000E+00 0.  1.
         25    1    1    2    0    0 -0.53687360205E+02  0.81939385718E+02  0.29405938670E+03  0.33420400729E+03  0.12500000000E+03 0.  0.
         25    1    1    2    0    0 -0.56415539262E+02 -0.21990276866E+02  0.97144401347E+01  0.13923238019E+03  0.12500000000E+03 0.  0.
         25    1    1    2    0    0  0.11010289947E+03 -0.59949108852E+02  0.46400559643E+03  0.49663139010E+03  0.12500000000E+03 0.  0.
</event>
<event>
 5    0  0.5778875E-005  0.2738756E+03  0.7546771E-02  0.1099082E+00
         21   -1    0    0  502  501  0.00000000000E+00  0.00000000000E+00  0.21861949541E+03  0.21861949541E+03  0.00000000000E+00 0. -1.
         21   -1    0    0  501  502 -0.00000000000E+00 -0.00000000000E+00 -0.34309761575E+03  0.34309761575E+03  0.00000000000E+00 0. -1.
         25    1    1    2    0    0  0.72903816491E+02  0.86532642289E+02 -0.10978643996E+03  0.20119872525E+03  0.12500000000E+03 0.  0.
         25    1    1    2    0    0  0.48799175665E+02  0.44573293689E+02 -0.15851916023E+02  0.14228289180E+03  0.12500000000E+03 0.  0.
         25    1    1    2    0    0 -0.12170299216E+03 -0.13110593598E+03  0.11602356470E+01  0.21823549412E+03  0.12500000000E+03 0.  0.
</event>
<event>
 5    0  0.5778875E-005  0.3676028E+03  0.7546771E-02  0.1055613E+00
         21   -1    0    0  502  501  0.00000000000E+00  0.00000000000E+00  0.28501342246E+03  0.28501342246E+03  0.00000000000E+00 0. -1.
         21   -1    0    0  501  502 -0.00000000000E+00 -0.00000000000E+00 -0.47412442965E+03  0.47412442965E+03  0.00000000000E+00 0. -1.
         25    1    1    2    0    0 -0.71227896475E-01 -0.10558681174E+02  0.51107825261E+02  0.13545663743E+03  0.12500000000E+03 0.  0.
         25    1    1    2    0    0  0.10473939683E+03 -0.77295508008E+00 -0.37687495310E+03  0.41064664735E+03  0.12500000000E+03 0.  0.
         25    1    1    2    0    0 -0.10466816893E+03  0.11331636254E+02  0.13665612065E+03  0.21303456733E+03  0.12500000000E+03 0.  0.
</event>
<event>
 5    0  0.5778875E-005  0.3137345E+03  0.7546771E-02  0.1078570E+00
         21   -1    0    0  502  501  0.00000000000E+00  0.00000000000E+00  0.12234278455E+03  0.12234278455E+03  0.00000000000E+00 0.  1.
         21   -1    0    0  501  502 -0.00000000000E+00 -0.00000000000E+00 -0.80453738885E+03  0.80453738885E+03  0.00000000000E+00 0.  1.
         25    1    1    2    0    0 -0.55378633800E+02  0.12905024184E+03 -0.21294755022E+03  0.28406410746E+03  0.12500000000E+03 0.  0.
         25    1    1    2    0    0  0.10897491630E+03 -0.33539822446E+01 -0.41943316893E+03  0.45103876195E+03  0.12500000000E+03 0.  0.
         25    1    1    2    0    0 -0.53596282496E+02 -0.12569625959E+03 -0.49813885140E+02  0.19177730399E+03  0.12500000000E+03 0.  0.
</event>
<event>
 5    0  0.5778875E-005  0.3198618E+03  0.7546771E-02  0.1075713E+00
         21   -1    0    0  502  501  0.00000000000E+00  0.00000000000E+00  0.15602452989E+03  0.15602452989E+03  0.00000000000E+00 0. -1.
         21   -1    0    0  501  502 -0.00000000000E+00 -0.00000000000E+00 -0.65574042742E+03  0.65574042742E+03  0.00000000000E+00 0. -1.
         25    1    1    2    0    0  0.25783221727E+02  0.86147468156E+02 -0.43880848300E+02  0.16011461407E+03  0.12500000000E+03 0.  0.
         25    1    1    2    0    0 -0.12787142604E+03 -0.14587795447E+03 -0.90632203141E+02  0.24793280429E+03  0.12500000000E+03 0.  0.
         25    1    1    2    0    0  0.10208820432E+03  0.59730486312E+02 -0.36520284609E+03  0.40371753894E+03  0.12500000000E+03 0.  0.
</event>
<event>
 5    0  0.5778875E-005  0.3169733E+03  0.7546771E-02  0.1077051E+00
         21   -1    0    0  502  501  0.00000000000E+00  0.00000000000E+00  0.51369746004E+02  0.51369746004E+02  0.00000000000E+00 0.  1.
         21   -1    0    0  501  502 -0.00000000000E+00 -0.00000000000E+00 -0.19558607055E+04  0.19558607055E+04  0.00000000000E+00 0.  1.
         25    1    1    2    0    0 -0.24980513078E+02  0.13838844607E+03 -0.20765067416E+03  0.28021275938E+03  0.12500000000E+03 0.  0.
         25    1    1    2    0    0  0.52826960542E+02 -0.84260610533E+02 -0.58133135381E+03  0.60287783271E+03  0.12500000000E+03 0.  0.
         25    1    1    2    0    0 -0.27846447464E+02 -0.54127835539E+02 -0.11155089315E+04  0.11241398594E+04  0.12500000000E+03 0.  0.
</event>
<event>
 5    0  0.5778875E-005  0.3861922E+03  0.7546771E-02  0.1048669E+00
         21   -1    0    0  502  501  0.00000000000E+00  0.00000000000E+00  0.76165381345E+02  0.76165381345E+02  0.00000000000E+00 0. -1.
         21   -1    0    0  501  502 -0.00000000000E+00 -0.00000000000E+00 -0.19581649873E+04  0.19581649873E+04  0.00000000000E+00 0. -1.
         25    1    1    2    0    0  0.11158230603E+03  0.11658960243E+03 -0.20315459172E+03  0.28799398353E+03  0.12500000000E+03 0.  0.
         25    1    1    2    0    0 -0.14381033408E+03 -0.27841637930E+02 -0.28646618233E+03  0.34517306182E+03  0.12500000000E+03 0.  0.
         25    1    1    2    0    0  0.32228028045E+02 -0.88747964499E+02 -0.13923788319E+04  0.14011633233E+04  0.12500000000E+03 0.  0.
</event>
<event>
 5    0  0.5778875E-005  0.6442000E+03  0.7546771E-02  0.9817724E-01
         21   -1    0    0  502  501  0.00000000000E+00  0.00000000000E+00  0.78782822812E+03  0.78782822812E+03  0.00000000000E+00 0. -1.
         21   -1    0    0  501  502 -0.00000000000E+00 -0.00000000000E+00 -0.52675656564E+03  0.52675656564E+03  0.00000000000E+00 0. -1.
         25    1    1    2    0    0  0.43742346211E+03 -0.29592392408E+03  0.25136843018E+03  0.59809810378E+03  0.12500000000E+03 0.  0.
         25    1    1    2    0    0 -0.30343480282E+03  0.21094387764E+03 -0.18869399286E+03  0.43335946052E+03  0.12500000000E+03 0.  0.
         25    1    1    2    0    0 -0.13398865929E+03  0.84980046439E+02  0.19839722516E+03  0.28312722946E+03  0.12500000000E+03 0.  0.
</event>
<event>
 5    0  0.5778875E-005  0.2785612E+03  0.7546771E-02  0.1096477E+00
         21   -1    0    0  502  501  0.00000000000E+00  0.00000000000E+00  0.15226565063E+03  0.15226565063E+03  0.00000000000E+00 0. -1.
         21   -1    0    0  501  502 -0.00000000000E+00 -0.00000000000E+00 -0.50961162462E+03  0.50961162462E+03  0.00000000000E+00 0. -1.
         25    1    1    2    0    0  0.65070287737E+01 -0.58749332107E+02 -0.40554801045E+02  0.14409551462E+03  0.12500000000E+03 0.  0.
         25    1    1    2    0    0 -0.16242939791E+02 -0.12958450174E+03 -0.11234895539E+03  0.21284563411E+03  0.12500000000E+03 0.  0.
         25    1    1    2    0    0  0.97359110172E+01  0.18833383385E+03 -0.20444221755E+03  0.30493612652E+03  0.12500000000E+03 0.  0.
</event>
<event>
 5    0  0.5778875E-005  0.2821852E+03  0.7546771E-02  0.1094501E+00
         21   -1    0    0  502  501  0.00000000000E+00  0.00000000000E+00  0.57350309039E+03  0.57350309039E+03  0.00000000000E+00 0.  1.
         21   -1    0    0  501  502 -0.00000000000E+00 -0.00000000000E+00 -0.13884579203E+03  0.13884579203E+03  0.00000000000E+00 0.  1.
         25    1    1    2    0    0  0.12593151158E+03  0.15335850601E+03  0.17995154409E+03  0.29560976844E+03  0.12500000000E+03 0.  0.
         25    1    1    2    0    0 -0.46409855668E+02 -0.34130980921E+02  0.13003092554E+03  0.18934582160E+03  0.12500000000E+03 0.  0.
         25    1    1    2    0    0 -0.79521655915E+02 -0.11922752509E+03  0.12467482873E+03  0.22739329238E+03  0.12500000000E+03 0.  0.
</event>
<event>
 5    0  0.5778875E-005  0.2456432E+03  0.7546771E-02  0.1116090E+00
         21   -1    0    0  502  501  0.00000000000E+00  0.00000000000E+00  0.31140468230E+03  0.31140468230E+03  0.00000000000E+00 0.  1.
         21   -1    0    0  501  502 -0.00000000000E+00 -0.00000000000E+00 -0.19376899631E+03  0.19376899631E+03  0.00000000000E+00 0.  1.
         25    1    1    2    0    0 -0.13412224911E+03 -0.21465749894E+02  0.30900025042E+02  0.18716134128E+03  0.12500000000E+03 0.  0.
         25    1    1    2    0    0  0.85856346614E+02  0.65099649496E+02  0.45700811988E+02  0.17123913348E+03  0.12500000000E+03 0.  0.
         25    1    1    2    0    0  0.48265902492E+02 -0.43633899602E+02  0.41034848955E+02  0.14677320384E+03  0.12500000000E+03 0.  0.
</event>
<event>
 5    0  0.5778875E-005  0.3614912E+03  0.7546771E-02  0.1057995E+00
         21   -1    0    0  502  501  0.00000000000E+00  0.00000000000E+00  0.36954037074E+03  0.36954037074E+03  0.00000000000E+00 0.  1.
         21   -1    0    0  501  502 -0.00000000000E+00 -0.00000000000E+00 -0.35361733788E+03  0.35361733788E+03  0.00000000000E+00 0.  1.
         25    1    1    2    0    0 -0.80596142365E+02  0.72726411247E+02 -0.82764087331E+02  0.18509393077E+03  0.12500000000E+03 0.  0.
         25    1    1    2    0    0  0.16213219663E+03 -0.58741030460E+02 -0.14095509540E+03  0.25540300853E+03  0.12500000000E+03 0.  0.
         25    1    1    2    0    0 -0.81536054270E+02 -0.13985380787E+02  0.23964221559E+03  0.28266076932E+03  0.12500000000E+03 0.  0.
</event>
<event>
 5    0  0.5778875E-005  0.2205691E+03  0.7546771E-02  0.1133460E+00
         21   -1    0    0  502  501  0.00000000000E+00  0.00000000000E+00  0.95066331173E+03  0.95066331173E+03  0.00000000000E+00 0. -1.
         21   -1    0    0  501  502 -0.00000000000E+00 -0.00000000000E+00 -0.51175543013E+02  0.51175543013E+02  0.00000000000E+00 0. -1.
         25    1    1    2    0    0  0.53967291025E+02 -0.36056355996E+02  0.41171586062E+03  0.43514075791E+03  0.12500000000E+03 0.  0.
         25    1    1    2    0    0 -0.39561159081E+02 -0.44926304137E+02  0.24653380854E+03  0.28282039684E+03  0.12500000000E+03 0.  0.
         25    1    1    2    0    0 -0.14406131944E+02  0.80982660134E+02  0.24123809955E+03  0.28387770000E+03  0.12500000000E+03 0.  0.
</event>
<event>
 5    0  0.5778875E-005  0.4014511E+03  0.7546771E-02  0.1043278E+00
         21   -1    0    0  502  501  0.00000000000E+00  0.00000000000E+00  0.53612529864E+03  0.53612529864E+03  0.00000000000E+00 0. -1.
         21   -1    0    0  501  502 -0.00000000000E+00 -0.00000000000E+00 -0.30060698172E+03  0.30060698172E+03  0.00000000000E+00 0. -1.
         25    1    1    2    0    0 -0.18189644006E+03  0.86306921174E+02 -0.16875115863E+02  0.23758149987E+03  0.12500000000E+03 0.  0.
         25    1    1    2    0    0 -0.52755152129E+02  0.13941958621E+03  0.85212137681E+02  0.21238416962E+03  0.12500000000E+03 0.  0.
         25    1    1    2    0    0  0.23465159218E+03 -0.22572650739E+03  0.16718129510E+03  0.38676661087E+03  0.12500000000E+03 0.  0.
</event>
<event>
 5    0  0.5778875E-005  0.3884831E+03  0.7546771E-02  0.1047842E+00
         21   -1    0    0  502  501  0.00000000000E+00  0.00000000000E+00  0.18932867444E+04  0.18932867444E+04  0.00000000000E+00 0. -1.
         21   -1    0    0  501  502 -0.00000000000E+00 -0.00000000000E+00 -0.79712758179E+02  0.79712758179E+02  0.00000000000E+00 0. -1.
         25    1    1    2    0    0 -0.10653108330E+03  0.18302499688E+03  0.10437804938E+04  0.10723570956E+04  0.12500000000E+03 0.  0.
         25    1    1    2    0    0 -0.79103583858E+02 -0.93843191053E+02  0.54002111894E+03  0.56772504823E+03  0.12500000000E+03 0.  0.
         25    1    1    2    0    0  0.18563466716E+03 -0.89181805824E+02  0.22977237339E+03  0.33291735868E+03  0.12500000000E+03 0.  0.
</event>
<event>
 5    0  0.5778875E-005  0.3675671E+03  0.7546771E-02  0.1055627E+00
         21   -1    0    0  502  501  0.00000000000E+00  0.00000000000E+00  0.11742264594E+03  0.11742264594E+03  0.00000000000E+00 0. -1.
         21   -1    0    0  501  502 -0.00000000000E+00 -0.00000000000E+00 -0.11505922971E+04  0.11505922971E+04  0.00000000000E+00 0. -1.
         25    1    1    2    0    0 -0.72192521450E+02  0.11778524444E+03 -0.81402814701E+03  0.83507601335E+03  0.12500000000E+03 0.  0.
         25    1    1    2    0    0  0.14579806341E+03 -0.37464531125E+02 -0.17209318178E+03  0.26057960319E+03  0.12500000000E+03 0.  0.
         25    1    1    2    0    0 -0.73605541956E+02 -0.80320713318E+02 -0.47048322382E+02  0.17235932651E+03  0.12500000000E+03 0.  0.
</event>
<event>
 5    0  0.5778875E-005  0.2386944E+03  0.7546771E-02  0.1120666E+00
         21   -1    0    0  502  501  0.00000000000E+00  0.00000000000E+00  0.51112613506E+03  0.51112613506E+03  0.00000000000E+00 0.  1.
         21   -1    0    0  501  502 -0.00000000000E+00 -0.00000000000E+00 -0.11146955988E+03  0.11146955988E+03  0.00000000000E+00 0.  1.
         25    1    1    2    0    0  0.30889419830E+00 -0.67701080607E+02  0.34098339849E+02  0.14618901638E+03  0.12500000000E+03 0.  0.
         25    1    1    2    0    0  0.33832887829E+02  0.98165435338E+02  0.13995516128E+03  0.21446110175E+03  0.12500000000E+03 0.  0.
         25    1    1    2    0    0 -0.34141782027E+02 -0.30464354731E+02  0.22560307405E+03  0.26194557681E+03  0.12500000000E+03 0.  0.
</event>
<event>
 5    0  0.6239972E-005  0.3157073E+03  0.7546771E-02  0.1077642E+00
         21   -1    0    0  502  501  0.00000000000E+00  0.00000000000E+00  0.65831431486E+03  0.65831431486E+03  0.00000000000E+00 0.  1.
         21   -1    0    0  501  502 -0.00000000000E+00 -0.00000000000E+00 -0.15140351634E+03  0.15140351634E+03  0.00000000000E+00 0.  1.
         25    1    1    2    0    0 -0.18444258730E+03 -0.99720992770E+01  0.11236139387E+03  0.24973704893E+03  0.12500000000E+03 0.  0.
         25    1    1    2    0    0  0.12779796210E+03  0.11534502859E+03  0.14958068624E+03  0.26006956076E+03  0.12500000000E+03 0.  0.
         25    1    1    2    0    0  0.56644625201E+02 -0.10537292931E+03  0.24496871840E+03  0.29991122152E+03  0.12500000000E+03 0.  0.
</event>
<event>
 5    0  0.5778875E-005  0.2533137E+03  0.7546771E-02  0.1111228E+00
         21   -1    0    0  502  501  0.00000000000E+00  0.00000000000E+00  0.14300850547E+03  0.14300850547E+03  0.00000000000E+00 0. -1.
         21   -1    0    0  501  502 -0.00000000000E+00 -0.00000000000E+00 -0.44869929533E+03  0.44869929533E+03  0.00000000000E+00 0. -1.
         25    1    1    2    0    0  0.79466110419E+02 -0.31011653225E+02 -0.57332554589E+02  0.16182894412E+03  0.12500000000E+03 0.  0.
         25    1    1    2    0    0  0.73602125101E+01  0.76854944127E+02 -0.15215531153E+02  0.14770703285E+03  0.12500000000E+03 0.  0.
         25    1    1    2    0    0 -0.86826322929E+02 -0.45843290902E+02 -0.23314270412E+03  0.28217182382E+03  0.12500000000E+03 0.  0.
</event>
<event>
 5    0  0.5778875E-005  0.3065694E+03  0.7546771E-02  0.1082002E+00
         21   -1    0    0  502  501  0.00000000000E+00  0.00000000000E+00  0.11525568074E+04  0.11525568074E+04  0.00000000000E+00 0.  1.
         21   -1    0    0  501  502 -0.00000000000E+00 -0.00000000000E+00 -0.81544620619E+02  0.81544620619E+02  0.00000000000E+00 0.  1.
         25    1    1    2    0    0 -0.65487790106E+02 -0.61591493272E+02  0.76696221271E+03  0.78226478792E+03  0.12500000000E+03 0.  0.
         25    1    1    2    0    0  0.11538634259E+03  0.93028991174E+02  0.20227342910E+03  0.28019268616E+03  0.12500000000E+03 0.  0.
         25    1    1    2    0    0 -0.49898552481E+02 -0.31437497901E+02  0.10177654493E+03  0.17164395391E+03  0.12500000000E+03 0.  0.
</event>
<event>
 5    0  0.5778875E-005  0.2628125E+03  0.7546771E-02  0.1105465E+00
         21   -1    0    0  502  501  0.00000000000E+00  0.00000000000E+00  0.96744435141E+03  0.96744435141E+03  0.00000000000E+00 0.  1.
         21   -1    0    0  501  502 -0.00000000000E+00 -0.00000000000E+00 -0.71394709469E+02  0.71394709469E+02  0.00000000000E+00 0.  1.
         25    1    1    2    0    0 -0.91716918546E+02 -0.39744293869E+01  0.27015142503E+03  0.31150374264E+03  0.12500000000E+03 0.  0.
         25    1    1    2    0    0  0.75738712864E+02 -0.76371916227E+02  0.13172727531E+03  0.21105946384E+03  0.12500000000E+03 0.  0.
         25    1    1    2    0    0  0.15978205682E+02  0.80346345614E+02  0.49417094160E+03  0.51627585440E+03  0.12500000000E+03 0.  0.
</event>
<event>
 5    0  0.5778875E-005  0.2473337E+03  0.7546771E-02  0.1115002E+00
         21   -1    0    0  502  501  0.00000000000E+00  0.00000000000E+00  0.61759316914E+03  0.61759316914E+03  0.00000000000E+00 0. -1.
         21   -1    0    0  501  502 -0.00000000000E+00 -0.00000000000E+00 -0.99052179219E+02  0.99052179219E+02  0.00000000000E+00 0. -1.
         25    1    1    2    0    0 -0.25251026561E+02 -0.48178708150E+02  0.13150253483E+03  0.18941150686E+03  0.12500000000E+03 0.  0.
         25    1    1    2    0    0  0.88680011734E+02 -0.28102686385E+02  0.31645727867E+03  0.35273802557E+03  0.12500000000E+03 0.  0.
         25    1    1    2    0    0 -0.63428985174E+02  0.76281394535E+02  0.70581176417E+02  0.17449581593E+03  0.12500000000E+03 0.  0.
</event>
<event>
 5    0  0.5778875E-005  0.3749341E+03  0.7546771E-02  0.1052822E+00
         21   -1    0    0  502  501  0.00000000000E+00  0.00000000000E+00  0.11854179431E+03  0.11854179431E+03  0.00000000000E+00 0. -1.
         21   -1    0    0  501  502 -0.00000000000E+00 -0.00000000000E+00 -0.11858735892E+04  0.11858735892E+04  0.00000000000E+00 0. -1.
         25    1    1    2    0    0  0.20379015894E+03  0.19638967397E+02 -0.57269063540E+03  0.62089909148E+03  0.12500000000E+03 0.  0.
         25    1    1    2    0    0 -0.14916925042E+03 -0.16887759407E+03 -0.35130707010E+03  0.43567506762E+03  0.12500000000E+03 0.  0.
         25    1    1    2    0    0 -0.54620908528E+02  0.14923862667E+03 -0.14333408940E+03  0.24784122442E+03  0.12500000000E+03 0.  0.
</event>
<event>
 5    0  0.5778875E-005  0.2779015E+03  0.7546771E-02  0.1096841E+00
         21   -1    0    0  502  501  0.00000000000E+00  0.00000000000E+00  0.14767482932E+03  0.14767482932E+03  0.00000000000E+00 0.  1.
         21   -1    0    0  501  502 -0.00000000000E+00 -0.00000000000E+00 -0.52296837143E+03  0.52296837143E+03  0.00000000000E+00 0.  1.
         25    1    1    2    0    0  0.13812998669E+03  0.41836796403E+02 -0.21919074371E+03  0.29068848082E+03  0.12500000000E+03 0.  0.
         25    1    1    2    0    0 -0.72933058962E+02 -0.11627523764E+03 -0.10055163274E+03  0.21112743266E+03  0.12500000000E+03 0.  0.
         25    1    1    2    0    0 -0.65196927724E+02  0.74438441234E+02 -0.55551165672E+02  0.16882728727E+03  0.12500000000E+03 0.  0.
</event>
<event>
 5    0  0.5778875E-005  0.3360492E+03  0.7546771E-02  0.1068491E+00
         21   -1    0    0  502  501  0.00000000000E+00  0.00000000000E+00  0.34746991824E+04  0.34746991824E+04  0.00000000000E+00 0.  1.
         21   -1    0    0  501  502 -0.00000000000E+00 -0.00000000000E+00 -0.32500384218E+02  0.32500384218E+02  0.00000000000E+00 0.  1.
         25    1    1    2    0    0  0.18727149155E+03 -0.70229378687E+00  0.12440459532E+04  0.12642572675E+04  0.12500000000E+03 0.  0.
         25    1    1    2    0    0 -0.25451196486E+02  0.14470175224E+02  0.22401575054E+03  0.25819606090E+03  0.12500000000E+03 0.  0.
         25    1    1    2    0    0 -0.16182029507E+03 -0.13767881437E+02  0.19741370944E+04  0.19847462382E+04  0.12500000000E+03 0.  0.
</event>
<event>
 5    0  0.7029661E-005  0.4817981E+03  0.7546771E-02  0.1018642E+00
         21   -1    0    0  502  501  0.00000000000E+00  0.00000000000E+00  0.33198703066E+03  0.33198703066E+03  0.00000000000E+00 0. -1.
         21   -1    0    0  501  502 -0.00000000000E+00 -0.00000000000E+00 -0.69921227214E+03  0.69921227214E+03  0.00000000000E+00 0. -1.
         25    1    1    2    0    0 -0.31788540463E+02 -0.39388005806E+02 -0.44498370468E+03  0.46497034716E+03  0.12500000000E+03 0.  0.
         25    1    1    2    0    0  0.22658669379E+03 -0.10558433895E+03 -0.91088415886E+01  0.27963825459E+03  0.12500000000E+03 0.  0.
         25    1    1    2    0    0 -0.19479815333E+03  0.14497234476E+03  0.86867304788E+02  0.28659070105E+03  0.12500000000E+03 0.  0.
</event>
<event>
 5    0  0.5778875E-005  0.2276103E+03  0.7546771E-02  0.1128333E+00
         21   -1    0    0  502  501  0.00000000000E+00  0.00000000000E+00  0.84695356838E+02  0.84695356838E+02  0.00000000000E+00 0.  1.
         21   -1    0    0  501  502 -0.00000000000E+00 -0.00000000000E+00 -0.61167988725E+03  0.61167988725E+03  0.00000000000E+00 0.  1.
         25    1    1    2    0    0 -0.56567920932E+01  0.86760316845E+02 -0.28127343532E+03  0.31984230067E+03  0.12500000000E+03 0.  0.
         25    1    1    2    0    0 -0.15735887981E+02 -0.51650888454E+02 -0.59682084835E+02  0.14866870450E+03  0.12500000000E+03 0.  0.
         25    1    1    2    0    0  0.21392680074E+02 -0.35109428391E+02 -0.18602901025E+03  0.22786423892E+03  0.12500000000E+03 0.  0.
</event>
<event>
 5    0  0.5778875E-005  0.2666725E+03  0.7546771E-02  0.1103199E+00
         21   -1    0    0  502  501  0.00000000000E+00  0.00000000000E+00  0.21865099356E+03  0.21865099356E+03  0.00000000000E+00 0.  1.
         21   -1    0    0  501  502 -0.00000000000E+00 -0.00000000000E+00 -0.32524080908E+03  0.32524080908E+03  0.00000000000E+00 0.  1.
         25    1    1    2    0    0 -0.24792255426E+02 -0.21792177200E+02 -0.75923792444E+02  0.14992990754E+03  0.12500000000E+03 0.  0.
         25    1    1    2    0    0  0.15223331880E+03  0.11213553820E+02  0.40652270903E+02  0.20144064702E+03  0.12500000000E+03 0.  0.
         25    1    1    2    0    0 -0.12744106337E+03  0.10578623380E+02 -0.71318293983E+02  0.19252124808E+03  0.12500000000E+03 0.  0.
</event>
<event>
 5    0  0.5778875E-005  0.3181411E+03  0.7546771E-02  0.1076508E+00
         21   -1    0    0  502  501  0.00000000000E+00  0.00000000000E+00  0.97178041361E+03  0.97178041361E+03  0.00000000000E+00 0.  1.
         21   -1    0    0  501  502 -0.00000000000E+00 -0.00000000000E+00 -0.10415291751E+03  0.10415291751E+03  0.00000000000E+00 0. -1.
         25    1    1    2    0    0  0.30893127607E+02 -0.91269669372E+01  0.41527402034E+03  0.43487377344E+03  0.12500000000E+03 0.  0.
         25    1    1    2    0    0 -0.12455302496E+03  0.13069021713E+03  0.36220769316E+03  0.42357148377E+03  0.12500000000E+03 0.  0.
         25    1    1    2    0    0  0.93659897353E+02 -0.12156325019E+03  0.90145782605E+02  0.21748807391E+03  0.12500000000E+03 0.  0.
</event>
<event>
 5    0  0.5778875E-005  0.2792562E+03  0.7546771E-02  0.1096096E+00
         21   -1    0    0  502  501  0.00000000000E+00  0.00000000000E+00  0.44347501623E+03  0.44347501623E+03  0.00000000000E+00 0.  1.
         21   -1    0    0  501  502 -0.00000000000E+00 -0.00000000000E+00 -0.17584761688E+03  0.17584761688E+03  0.00000000000E+00 0.  1.
         25    1    1    2    0    0 -0.84668018731E+02  0.69925394710E+02  0.86879530655E+02  0.18769999219E+03  0.12500000000E+03 0.  0.
         25    1    1    2    0    0 -0.52878939765E+02 -0.13014379107E+03  0.13352470574E+03  0.23062401364E+03  0.12500000000E+03 0.  0.
         25    1    1    2    0    0  0.13754695850E+03  0.60218396357E+02  0.47223162963E+02  0.20099862729E+03  0.12500000000E+03 0.  0.
</event>
<event>
 5    0  0.5778875E-005  0.4207990E+03  0.7546771E-02  0.1036807E+00
         21   -1    0    0  502  501  0.00000000000E+00  0.00000000000E+00  0.34937764117E+03  0.34937764117E+03  0.00000000000E+00 0.  1.
         21   -1    0    0  501  502 -0.00000000000E+00 -0.00000000000E+00 -0.50682054309E+03  0.50682054309E+03  0.00000000000E+00 0.  1.
         25    1    1    2    0    0 -0.16491668093E+03 -0.24327826697E+03 -0.97201333942E+02  0.33384865755E+03  0.12500000000E+03 0.  0.
         25    1    1    2    0    0  0.15016880364E+03  0.13697985722E+03 -0.19606040437E+03  0.30883463703E+03  0.12500000000E+03 0.  0.
         25    1    1    2    0    0  0.14747877291E+02  0.10629840975E+03  0.13581883638E+03  0.21351488968E+03  0.12500000000E+03 0.  0.
</event>
<event>
 5    0  0.5778875E-005  0.2273338E+03  0.7546771E-02  0.1128531E+00
         21   -1    0    0  502  501  0.00000000000E+00  0.00000000000E+00  0.56870435207E+02  0.56870435207E+02  0.00000000000E+00 0.  1.
         21   -1    0    0  501  502 -0.00000000000E+00 -0.00000000000E+00 -0.90874353291E+03  0.90874353291E+03  0.00000000000E+00 0.  1.
         25    1    1    2    0    0  0.24332981791E+01  0.52700484854E+02 -0.20078571125E+03  0.24232862788E+03  0.12500000000E+03 0.  0.
         25    1    1    2    0    0  0.60997020285E+02  0.41897710054E+02 -0.32381499271E+03  0.35490449996E+03  0.12500000000E+03 0.  0.
         25    1    1    2    0    0 -0.63430318464E+02 -0.94598194908E+02 -0.32727239374E+03  0.36838084028E+03  0.12500000000E+03 0.  0.
</event>
<event>
 5    0  0.6785665E-005  0.3444336E+03  0.7546771E-02  0.1064923E+00
         21   -1    0    0  502  501  0.00000000000E+00  0.00000000000E+00  0.46309839732E+03  0.46309839732E+03  0.00000000000E+00 0.  1.
         21   -1    0    0  501  502 -0.00000000000E+00 -0.00000000000E+00 -0.25617559661E+03  0.25617559661E+03  0.00000000000E+00 0.  1.
         25    1    1    2    0    0 -0.15545043035E+03  0.78835176141E+02  0.49296187344E+02  0.22007938427E+03  0.12500000000E+03 0.  0.
         25    1    1    2    0    0  0.15425658852E+03 -0.26927396766E+02 -0.87927006513E+02  0.21880662301E+03  0.12500000000E+03 0.  0.
         25    1    1    2    0    0  0.11938418335E+01 -0.51907779375E+02  0.24555361988E+03  0.28038798664E+03  0.12500000000E+03 0.  0.
</event>
<event>
 5    0  0.5778875E-005  0.3346202E+03  0.7546771E-02  0.1069111E+00
         21   -1    0    0  502  501  0.00000000000E+00  0.00000000000E+00  0.40012506856E+03  0.40012506856E+03  0.00000000000E+00 0.  1.
         21   -1    0    0  501  502 -0.00000000000E+00 -0.00000000000E+00 -0.27983922570E+03  0.27983922570E+03  0.00000000000E+00 0.  1.
         25    1    1    2    0    0  0.71541398317E+02 -0.79459337634E+01  0.20537300038E+03  0.25096688790E+03  0.12500000000E+03 0.  0.
         25    1    1    2    0    0 -0.11626822410E+02 -0.20577899118E+02 -0.20649418689E+03  0.24253552761E+03  0.12500000000E+03 0.  0.
         25    1    1    2    0    0 -0.59914575907E+02  0.28523832881E+02  0.12140702937E+03  0.18646187875E+03  0.12500000000E+03 0.  0.
</event>
<event>
 5    0  0.5778875E-005  0.3661994E+03  0.7546771E-02  0.1056156E+00
         21   -1    0    0  502  501  0.00000000000E+00  0.00000000000E+00  0.65512826966E+02  0.65512826966E+02  0.00000000000E+00 0. -1.
         21   -1    0    0  501  502 -0.00000000000E+00 -0.00000000000E+00 -0.20469581511E+04  0.20469581511E+04  0.00000000000E+00 0. -1.
         25    1    1    2    0    0  0.16263558266E+03  0.11526529998E+03 -0.54873189141E+03  0.59704950446E+03  0.12500000000E+03 0.  0.
         25    1    1    2    0    0 -0.18091910944E+03 -0.75460579201E+01 -0.30799724174E+03  0.37851812119E+03  0.12500000000E+03 0.  0.
         25    1    1    2    0    0  0.18283526784E+02 -0.10771924206E+03 -0.11247161910E+04  0.11369033525E+04  0.12500000000E+03 0.  0.
</event>
<event>
 5    0  0.5778875E-005  0.3081745E+03  0.7546771E-02  0.1081224E+00
         21   -1    0    0  502  501  0.00000000000E+00  0.00000000000E+00  0.43383699440E+03  0.43383699440E+03  0.00000000000E+00 0. -1.
         21   -1    0    0  501  502 -0.00000000000E+00 -0.00000000000E+00 -0.21891064027E+03  0.21891064027E+03  0.00000000000E+00 0. -1.
         25    1    1    2    0    0 -0.95676814015E+02  0.13874286645E+03  0.37182434174E+02  0.21309896561E+03  0.12500000000E+03 0.  0.
         25    1    1    2    0    0 -0.53994773404E+01  0.27653257069E+02 -0.26712269152E+02  0.13089080298E+03  0.12500000000E+03 0.  0.
         25    1    1    2    0    0  0.10107629136E+03 -0.16639612352E+03  0.20445618911E+03  0.30875786607E+03  0.12500000000E+03 0.  0.
</event>
<event>
 5    0  0.6500686E-005  0.2539897E+03  0.7546771E-02  0.1110809E+00
         21   -1    0    0  502  501  0.00000000000E+00  0.00000000000E+00  0.20894261292E+03  0.20894261292E+03  0.00000000000E+00 0.  1.
         21   -1    0    0  501  502 -0.00000000000E+00 -0.00000000000E+00 -0.30874885781E+03  0.30874885781E+03  0.00000000000E+00 0.  1.
         25    1    1    2    0    0 -0.37685853289E+02 -0.78938900228E+02 -0.47262967304E+02  0.15971963431E+03  0.12500000000E+03 0.  0.
         25    1    1    2    0    0  0.28053592031E+02 -0.78301864930E+02 -0.10279461781E+00  0.15014391977E+03  0.12500000000E+03 0.  0.
         25    1    1    2    0    0  0.96322612575E+01  0.15724076516E+03 -0.52440482962E+02  0.20782791665E+03  0.12500000000E+03 0.  0.
</event>
<event>
 5    0  0.5778875E-005  0.2060238E+03  0.7546771E-02  0.1144754E+00
         21   -1    0    0  502  501  0.00000000000E+00  0.00000000000E+00  0.18294197882E+03  0.18294197882E+03  0.00000000000E+00 0.  1.
         21   -1    0    0  501  502 -0.00000000000E+00 -0.00000000000E+00 -0.23201788384E+03  0.23201788384E+03  0.00000000000E+00 0.  1.
         25    1    1    2    0    0  0.54751985343E+02 -0.30877303072E+02 -0.59009541282E+02  0.15184964177E+03  0.12500000000E+03 0.  0.
         25    1    1    2    0    0 -0.14368988792E+02  0.16423030388E+01 -0.13334190278E+02  0.12653839587E+03  0.12500000000E+03 0.  0.
         25    1    1    2    0    0 -0.40382996551E+02  0.29235000033E+02  0.23267826534E+02  0.13657182502E+03  0.12500000000E+03 0.  0.
</event>
<event>
 5    0  0.5778875E-005  0.3361173E+03  0.7546771E-02  0.1068462E+00
         21   -1    0    0  502  501  0.00000000000E+00  0.00000000000E+00  0.96182479436E+02  0.96182479436E+02  0.00000000000E+00 0.  1.
         21   -1    0    0  501  502 -0.00000000000E+00 -0.00000000000E+00 -0.11745885680E+04  0.11745885680E+04  0.00000000000E+00 0.  1.
         25    1    1    2    0    0  0.95823286291E+02  0.13931585430E+02 -0.13659000626E+03  0.20894501927E+03  0.12500000000E+03 0.  0.
         25    1    1    2    0    0 -0.12069673911E+03 -0.19594366387E+03 -0.42415033027E+03  0.49848783828E+03  0.12500000000E+03 0.  0.
         25    1    1    2    0    0  0.24873452821E+02  0.18201207844E+03 -0.51766575203E+03  0.56333818988E+03  0.12500000000E+03 0.  0.
</event>
<event>
 5    0  0.5896903E-005  0.3703069E+03  0.7546771E-02  0.1054576E+00
         21   -1    0    0  502  501  0.00000000000E+00  0.00000000000E+00  0.42954174671E+03  0.42954174671E+03  0.00000000000E+00 0. -1.
         21   -1    0    0  501  502 -0.00000000000E+00 -0.00000000000E+00 -0.31924064889E+03  0.31924064889E+03  0.00000000000E+00 0. -1.
         25    1    1    2    0    0 -0.76397834722E+02 -0.88808148582E+02 -0.17345794360E+03  0.24379535394E+03  0.12500000000E+03 0.  0.
         25    1    1    2    0    0  0.68372909907E+02  0.16618293017E+03  0.43459264550E+02  0.22317107510E+03  0.12500000000E+03 0.  0.
         25    1    1    2    0    0  0.80249248145E+01 -0.77374781585E+02  0.24029977687E+03  0.28181596655E+03  0.12500000000E+03 0.  0.
</event>
<event>
 5    0  0.5778875E-005  0.2778613E+03  0.7546771E-02  0.1096863E+00
         21   -1    0    0  502  501  0.00000000000E+00  0.00000000000E+00  0.98662368210E+02  0.98662368210E+02  0.00000000000E+00 0. -1.
         21   -1    0    0  501  502 -0.00000000000E+00 -0.00000000000E+00 -0.78253630817E+03  0.78253630817E+03  0.00000000000E+00 0. -1.
         25    1    1    2    0    0 -0.27996332389E+02 -0.91975788729E+02 -0.37942468913E+03  0.41089102577E+03  0.12500000000E+03 0.  0.
         25    1    1    2    0    0 -0.51973325733E+02  0.97959995163E+02 -0.47826706752E+02  0.17380961170E+03  0.12500000000E+03 0.  0.
         25    1    1    2    0    0  0.79969658123E+02 -0.59842064346E+01 -0.25662254407E+03  0.29649803890E+03  0.12500000000E+03 0.  0.
</event>
<event>
 5    0  0.5778875E-005  0.2835186E+03  0.7546771E-02  0.1093783E+00
         21   -1    0    0  502  501  0.00000000000E+00  0.00000000000E+00  0.49179591826E+03  0.49179591826E+03  0.00000000000E+00 0. -1.
         21   -1    0    0  501  502 -0.00000000000E+00 -0.00000000000E+00 -0.16344747772E+03  0.16344747772E+03  0.00000000000E+00 0. -1.
         25    1    1    2    0    0  0.26572463402E+02 -0.17988953874E+03  0.13658850352E+03  0.25951447215E+03  0.12500000000E+03 0.  0.
         25    1    1    2    0    0 -0.36754446036E+02  0.49230395366E+02  0.10788534290E+02  0.13969936866E+03  0.12500000000E+03 0.  0.
         25    1    1    2    0    0  0.10181982634E+02  0.13065914338E+03  0.18097140273E+03  0.25602955518E+03  0.12500000000E+03 0.  0.
</event>
<event>
 5    0  0.5778875E-005  0.3104888E+03  0.7546771E-02  0.1080112E+00
         21   -1    0    0  502  501  0.00000000000E+00  0.00000000000E+00  0.12225651816E+04  0.12225651816E+04  0.00000000000E+00 0. -1.
         21   -1    0    0  501  502 -0.00000000000E+00 -0.00000000000E+00 -0.78853317334E+02  0.78853317334E+02  0.00000000000E+00 0. -1.
         25    1    1    2    0    0 -0.22974315417E+02 -0.11928234049E+03  0.19573361639E+03  0.26209300736E+03  0.12500000000E+03 0.  0.
         25    1    1    2    0    0  0.22704933484E+02  0.17449744364E+03  0.26006094609E+03  0.33796681423E+03  0.12500000000E+03 0.  0.
         25    1    1    2    0    0  0.26938193240E+00 -0.55215103152E+02  0.68791730181E+03  0.70135867737E+03  0.12500000000E+03 0.  0.
</event>
<event>
 5    0  0.5778875E-005  0.2564586E+03  0.7546771E-02  0.1109290E+00
         21   -1    0    0  502  501  0.00000000000E+00  0.00000000000E+00  0.51346141954E+03  0.51346141954E+03  0.00000000000E+00 0.  1.
         21   -1    0    0  501  502 -0.00000000000E+00 -0.00000000000E+00 -0.12809336243E+03  0.12809336243E+03  0.00000000000E+00 0.  1.
         25    1    1    2    0    0  0.96820407624E+02 -0.75477559141E+02  0.35570530771E+02  0.17877728023E+03  0.12500000000E+03 0.  0.
         25    1    1    2    0    0 -0.10325447592E+03  0.12839604138E+02  0.17626314001E+03  0.23983335205E+03  0.12500000000E+03 0.  0.
         25    1    1    2    0    0  0.64340682989E+01  0.62637955003E+02  0.17353438633E+03  0.22294414969E+03  0.12500000000E+03 0.  0.
</event>
<event>
 5    0  0.5778875E-005  0.2730384E+03  0.7546771E-02  0.1099553E+00
         21   -1    0    0  502  501  0.00000000000E+00  0.00000000000E+00  0.93341723242E+03  0.93341723242E+03  0.00000000000E+00 0. -1.
         21   -1    0    0  501  502 -0.00000000000E+00 -0.00000000000E+00 -0.79867789681E+02  0.79867789681E+02  0.00000000000E+00 0. -1.
         25    1    1    2    0    0  0.17095301120E+02  0.54630874043E+02  0.10265067068E+03  0.17157780133E+03  0.12500000000E+03 0.  0.
         25    1    1    2    0    0 -0.12570862991E+03 -0.34578546914E+02  0.55894690728E+03  0.58740529509E+03  0.12500000000E+03 0.  0.
         25    1    1    2    0    0  0.10861332879E+03 -0.20052327129E+02  0.19195186478E+03  0.25430192568E+03  0.12500000000E+03 0.  0.
</event>
<event>
 5    0  0.6475253E-005  0.3500727E+03  0.7546771E-02  0.1062585E+00
         21   -1    0    0  502  501  0.00000000000E+00  0.00000000000E+00  0.28471214023E+03  0.28471214023E+03  0.00000000000E+00 0. -1.
         21   -1    0    0  501  502 -0.00000000000E+00 -0.00000000000E+00 -0.43043782097E+03  0.43043782097E+03  0.00000000000E+00 0. -1.
         25    1    1    2    0    0 -0.20707924142E+03 -0.12301905963E+03 -0.78324201355E+02  0.28244500664E+03  0.12500000000E+03 0.  0.
         25    1    1    2    0    0  0.74165484972E+02  0.13562455401E+03  0.62483487626E+02  0.20838360069E+03  0.12500000000E+03 0.  0.
         25    1    1    2    0    0  0.13291375645E+03 -0.12605494381E+02 -0.12988496702E+03  0.22432135386E+03  0.12500000000E+03 0.  0.
</event>
<event>
 5    0  0.5778875E-005  0.2238772E+03  0.7546771E-02  0.1131025E+00
         21   -1    0    0  502  501  0.00000000000E+00  0.00000000000E+00  0.33118565670E+03  0.33118565670E+03  0.00000000000E+00 0. -1.
         21   -1    0    0  501  502 -0.00000000000E+00 -0.00000000000E+00 -0.15133804033E+03  0.15133804033E+03  0.00000000000E+00 0. -1.
         25    1    1    2    0    0 -0.51230220335E+02 -0.16131345712E+02  0.93468637240E+02  0.16506405404E+03  0.12500000000E+03 0.  0.
         25    1    1    2    0    0  0.10156737574E+03  0.21162417691E+02  0.10633681129E+02  0.16279390318E+03  0.12500000000E+03 0.  0.
         25    1    1    2    0    0 -0.50337155407E+02 -0.50310719790E+01  0.75745297997E+02  0.15466573980E+03  0.12500000000E+03 0.  0.
</event>
<event>
 5    0  0.6063768E-005  0.2873850E+03  0.7546771E-02  0.1091722E+00
         21   -1    0    0  502  501  0.00000000000E+00  0.00000000000E+00  0.22322823309E+03  0.22322823309E+03  0.00000000000E+00 0. -1.
         21   -1    0    0  501  502 -0.00000000000E+00 -0.00000000000E+00 -0.36998059954E+03  0.36998059954E+03  0.00000000000E+00 0. -1.
         25    1    1    2    0    0 -0.96887572949E+02 -0.48727680865E+02  0.39490044602E+02  0.17013539402E+03  0.12500000000E+03 0.  0.
         25    1    1    2    0    0  0.10285871619E+03  0.11913646107E+03 -0.19390342783E+03  0.27927934256E+03  0.12500000000E+03 0.  0.
         25    1    1    2    0    0 -0.59711432439E+01 -0.70408780210E+02  0.76610167746E+01  0.14379409606E+03  0.12500000000E+03 0.  0.
</event>
<event>
 5    0  0.5778875E-005  0.2350835E+03  0.7546771E-02  0.1123112E+00
         21   -1    0    0  502  501  0.00000000000E+00  0.00000000000E+00  0.31636639881E+04  0.31636639881E+04  0.00000000000E+00 0. -1.
         21   -1    0    0  501  502 -0.00000000000E+00 -0.00000000000E+00 -0.17468426101E+02  0.17468426101E+02  0.00000000000E+00 0. -1.
         25    1    1    2    0    0 -0.11303820357E+03  0.20530161021E+02  0.16270232317E+04  0.16358571819E+04  0.12500000000E+03 0.  0.
         25    1    1    2    0    0  0.43805210440E+02  0.10510836340E+02  0.59922912540E+03  0.61378328331E+03  0.12500000000E+03 0.  0.
         25    1    1    2    0    0  0.69232993134E+02 -0.31040997361E+02  0.91994320482E+03  0.93149194894E+03  0.12500000000E+03 0.  0.
</event>
<event>
 5    0  0.5778875E-005  0.4017643E+03  0.7546771E-02  0.1043170E+00
         21   -1    0    0  502  501  0.00000000000E+00  0.00000000000E+00  0.11831965180E+04  0.11831965180E+04  0.00000000000E+00 0. -1.
         21   -1    0    0  501  502 -0.00000000000E+00 -0.00000000000E+00 -0.13642246118E+03  0.13642246118E+03  0.00000000000E+00 0. -1.
         25    1    1    2    0    0 -0.23523404988E+03 -0.48131090961E+02  0.23879081927E+03  0.36096774857E+03  0.12500000000E+03 0.  0.
         25    1    1    2    0    0  0.58251101492E+02  0.20397312306E+03  0.43776606877E+03  0.50225726149E+03  0.12500000000E+03 0.  0.
         25    1    1    2    0    0  0.17698294839E+03 -0.15584203210E+03  0.37021716883E+03  0.45639396916E+03  0.12500000000E+03 0.  0.
</event>
<event>
 5    0  0.5778875E-005  0.3585493E+03  0.7546771E-02  0.1059160E+00
         21   -1    0    0  502  501  0.00000000000E+00  0.00000000000E+00  0.31476851811E+03  0.31476851811E+03  0.00000000000E+00 0.  1.
         21   -1    0    0  501  502 -0.00000000000E+00 -0.00000000000E+00 -0.40841950994E+03  0.40841950994E+03  0.00000000000E+00 0.  1.
         25    1    1    2    0    0 -0.14180366207E+03 -0.19116695633E+03 -0.16414681714E+02  0.26934647862E+03  0.12500000000E+03 0.  0.
         25    1    1    2    0    0 -0.30376372565E+02  0.87813230046E+02 -0.13966175508E+03  0.20919917116E+03  0.12500000000E+03 0.  0.
         25    1    1    2    0    0  0.17218003464E+03  0.10335372628E+03  0.62425444969E+02  0.24464237827E+03  0.12500000000E+03 0.  0.
</event>
<event>
 5    0  0.5778875E-005  0.5706634E+03  0.7546771E-02  0.9968212E-01
         21   -1    0    0  502  501  0.00000000000E+00  0.00000000000E+00  0.81989343699E+03  0.81989343699E+03  0.00000000000E+00 0. -1.
         21   -1    0    0  501  502 -0.00000000000E+00 -0.00000000000E+00 -0.39719390872E+03  0.39719390872E+03  0.00000000000E+00 0. -1.
         25    1    1    2    0    0  0.40162337464E+03 -0.31046719951E+03  0.33041215550E+03  0.61845647343E+03  0.12500000000E+03 0.  0.
         25    1    1    2    0    0 -0.28074446862E+03  0.14248052542E+03 -0.30086880680E+01  0.33875095423E+03  0.12500000000E+03 0.  0.
         25    1    1    2    0    0 -0.12087890602E+03  0.16798667409E+03  0.95296060837E+02  0.25987991804E+03  0.12500000000E+03 0.  0.
</event>
<event>
 5    0  0.5778875E-005  0.2615575E+03  0.7546771E-02  0.1106211E+00
         21   -1    0    0  502  501  0.00000000000E+00  0.00000000000E+00  0.18558485796E+03  0.18558485796E+03  0.00000000000E+00 0.  1.
         21   -1    0    0  501  502 -0.00000000000E+00 -0.00000000000E+00 -0.36863097229E+03  0.36863097229E+03  0.00000000000E+00 0.  1.
         25    1    1    2    0    0  0.31583508430E+02  0.24805408685E+02 -0.13014126113E+03  0.18486366369E+03  0.12500000000E+03 0.  0.
         25    1    1    2    0    0  0.57444130467E+02  0.16351205297E+02 -0.13245190451E+03  0.19166558650E+03  0.12500000000E+03 0.  0.
         25    1    1    2    0    0 -0.89027638897E+02 -0.41156613983E+02  0.79547051314E+02  0.17768658006E+03  0.12500000000E+03 0.  0.
</event>
<event>
 5    0  0.5778875E-005  0.3098950E+03  0.7546771E-02  0.1080396E+00
         21   -1    0    0  502  501  0.00000000000E+00  0.00000000000E+00  0.68645769867E+02  0.68645769867E+02  0.00000000000E+00 0. -1.
         21   -1    0    0  501  502 -0.00000000000E+00 -0.00000000000E+00 -0.13989922820E+04  0.13989922820E+04  0.00000000000E+00 0. -1.
         25    1    1    2    0    0 -0.12284789140E+03 -0.11238693604E+03 -0.53970167481E+03  0.57846808521E+03  0.12500000000E+03 0.  0.
         25    1    1    2    0    0 -0.55829265238E+02  0.10914088497E+03 -0.24135832868E+03  0.29817357772E+03  0.12500000000E+03 0.  0.
         25    1    1    2    0    0  0.17867715664E+03  0.32460510631E+01 -0.54928650863E+03  0.59099638892E+03  0.12500000000E+03 0.  0.
</event>
<event>
 5    0  0.5778875E-005  0.2096243E+03  0.7546771E-02  0.1141864E+00
         21   -1    0    0  502  501  0.00000000000E+00  0.00000000000E+00  0.71417601947E+02  0.71417601947E+02  0.00000000000E+00 0.  1.
         21   -1    0    0  501  502 -0.00000000000E+00 -0.00000000000E+00 -0.61528744259E+03  0.61528744259E+03  0.00000000000E+00 0.  1.
         25    1    1    2    0    0  0.15178999821E+02  0.84193459041E+01 -0.14230623492E+03  0.19020344876E+03  0.12500000000E+03 0.  0.
         25    1    1    2    0    0 -0.38064708101E+02 -0.13526396683E+02 -0.31868932552E+03  0.34470243923E+03  0.12500000000E+03 0.  0.
         25    1    1    2    0    0  0.22885708280E+02  0.51070507790E+01 -0.82874280200E+02  0.15179915655E+03  0.12500000000E+03 0.  0.
</event>
<event>
 5    0  0.5778875E-005  0.4251022E+03  0.7546771E-02  0.1035418E+00
         21   -1    0    0  502  501  0.00000000000E+00  0.00000000000E+00  0.26471939234E+03  0.26471939234E+03  0.00000000000E+00 0. -1.
         21   -1    0    0  501  502 -0.00000000000E+00 -0.00000000000E+00 -0.68265449191E+03  0.68265449191E+03  0.00000000000E+00 0. -1.
         25    1    1    2    0    0  0.37694711190E+02 -0.17760046842E+03 -0.27999755177E+03  0.35635157728E+03  0.12500000000E+03 0.  0.
         25    1    1    2    0    0  0.12912310970E+03  0.20403367635E+03  0.84800163296E+02  0.28481324800E+03  0.12500000000E+03 0.  0.
         25    1    1    2    0    0 -0.16681782089E+03 -0.26433207930E+02 -0.22273771110E+03  0.30620905897E+03  0.12500000000E+03 0.  0.
</event>
<event>
 5    0  0.5892049E-005  0.3355626E+03  0.7546771E-02  0.1068702E+00
         21   -1    0    0  502  501  0.00000000000E+00  0.00000000000E+00  0.22016984947E+03  0.22016984947E+03  0.00000000000E+00 0.  1.
         21   -1    0    0  501  502 -0.00000000000E+00 -0.00000000000E+00 -0.51143373001E+03  0.51143373001E+03  0.00000000000E+00 0.  1.
         25    1    1    2    0    0 -0.18318732162E+03 -0.29184618781E+02 -0.10120299179E+03  0.24551248914E+03  0.12500000000E+03 0.  0.
         25    1    1    2    0    0  0.11166148689E+03  0.95922444473E+01 -0.27170330613E+03  0.31938688979E+03  0.12500000000E+03 0.  0.
         25    1    1    2    0    0  0.71525834731E+02  0.19592374333E+02  0.81642417381E+02  0.16670420055E+03  0.12500000000E+03 0.  0.
</event>
<event>
 5    0  0.5778875E-005  0.2418006E+03  0.7546771E-02  0.1118599E+00
         21   -1    0    0  502  501  0.00000000000E+00  0.00000000000E+00  0.12070219832E+04  0.12070219832E+04  0.00000000000E+00 0. -1.
         21   -1    0    0  501  502 -0.00000000000E+00 -0.00000000000E+00 -0.48439474461E+02  0.48439474461E+02  0.00000000000E+00 0. -1.
         25    1    1    2    0    0 -0.14835659583E+02 -0.11130081140E+03  0.26705109620E+03  0.31551427130E+03  0.12500000000E+03 0.  0.
         25    1    1    2    0    0  0.11437751789E+02  0.86401178397E+02  0.32087764007E+03  0.35522309285E+03  0.12500000000E+03 0.  0.
         25    1    1    2    0    0  0.33979077936E+01  0.24899633003E+02  0.57065377249E+03  0.58472409354E+03  0.12500000000E+03 0.  0.
</event>
<event>
 5    0  0.5778875E-005  0.2684669E+03  0.7546771E-02  0.1102160E+00
         21   -1    0    0  502  501  0.00000000000E+00  0.00000000000E+00  0.10968475795E+03  0.10968475795E+03  0.00000000000E+00 0.  1.
         21   -1    0    0  501  502 -0.00000000000E+00 -0.00000000000E+00 -0.65710573425E+03  0.65710573425E+03  0.00000000000E+00 0.  1.
         25    1    1    2    0    0  0.28835185758E+02  0.25350724782E+01 -0.21174148458E+02  0.13004322010E+03  0.12500000000E+03 0.  0.
         25    1    1    2    0    0 -0.70124521607E+02 -0.10926871250E+03 -0.20081688299E+03  0.26983239345E+03  0.12500000000E+03 0.  0.
         25    1    1    2    0    0  0.41289335849E+02  0.10673364002E+03 -0.32542994485E+03  0.36691487865E+03  0.12500000000E+03 0.  0.
</event>
<event>
 5    0  0.5778875E-005  0.4619387E+03  0.7546771E-02  0.1024220E+00
         21   -1    0    0  502  501  0.00000000000E+00  0.00000000000E+00  0.60264187329E+03  0.60264187329E+03  0.00000000000E+00 0. -1.
         21   -1    0    0  501  502 -0.00000000000E+00 -0.00000000000E+00 -0.35408650348E+03  0.35408650348E+03  0.00000000000E+00 0.  1.
         25    1    1    2    0    0 -0.88719500996E+02  0.14747350331E+03  0.11441289528E+03  0.24152617796E+03  0.12500000000E+03 0.  0.
         25    1    1    2    0    0 -0.21236930570E+03  0.25049476903E+02  0.22577098442E+03  0.33515031807E+03  0.12500000000E+03 0.  0.
         25    1    1    2    0    0  0.30108880670E+03 -0.17252298022E+03 -0.91628509889E+02  0.38005188073E+03  0.12500000000E+03 0.  0.
</event>
<event>
 5    0  0.6249363E-005  0.3387084E+03  0.7546771E-02  0.1067347E+00
         21   -1    0    0  502  501  0.00000000000E+00  0.00000000000E+00  0.19424376605E+03  0.19424376605E+03  0.00000000000E+00 0.  1.
         21   -1    0    0  501  502 -0.00000000000E+00 -0.00000000000E+00 -0.59061553909E+03  0.59061553909E+03  0.00000000000E+00 0.  1.
         25    1    1    2    0    0 -0.14668577563E+03  0.14122129364E+03 -0.13994282563E+03  0.27689197351E+03  0.12500000000E+03 0.  0.
         25    1    1    2    0    0  0.13292960856E+03 -0.94731288379E+02 -0.30288683619E+03  0.36607339888E+03  0.12500000000E+03 0.  0.
         25    1    1    2    0    0  0.13756167075E+02 -0.46490005262E+02  0.46457888772E+02  0.14189393275E+03  0.12500000000E+03 0.  0.
</event>
<event>
 5    0  0.5778875E-005  0.4046683E+03  0.7546771E-02  0.1042175E+00
         21   -1    0    0  502  501  0.00000000000E+00  0.00000000000E+00  0.33200947443E+03  0.33200947443E+03  0.00000000000E+00 0. -1.
         21   -1    0    0  501  502 -0.00000000000E+00 -0.00000000000E+00 -0.49322821243E+03  0.49322821243E+03  0.00000000000E+00 0. -1.
         25    1    1    2    0    0  0.84055686124E+01  0.22145024647E+03  0.21859659999E+01  0.25444182772E+03  0.12500000000E+03 0.  0.
         25    1    1    2    0    0  0.19739775274E+03 -0.24204095319E+02 -0.55572426303E+02  0.24138145244E+03  0.12500000000E+03 0.  0.
         25    1    1    2    0    0 -0.20580332135E+03 -0.19724615115E+03 -0.10783227770E+03  0.32941440670E+03  0.12500000000E+03 0.  0.
</event>
<event>
 5    0  0.6525113E-005  0.5917413E+03  0.7546771E-02  0.9922690E-01
         21   -1    0    0  502  501  0.00000000000E+00  0.00000000000E+00  0.89476361833E+03  0.89476361833E+03  0.00000000000E+00 0.  1.
         21   -1    0    0  501  502 -0.00000000000E+00 -0.00000000000E+00 -0.39134104000E+03  0.39134104000E+03  0.00000000000E+00 0.  1.
         25    1    1    2    0    0 -0.11071963620E+03  0.28035276110E+03  0.88428590751E+02  0.33808449263E+03  0.12500000000E+03 0.  0.
         25    1    1    2    0    0  0.77812379607E+02 -0.12559903095E+03 -0.21338900590E+03  0.28807941759E+03  0.12500000000E+03 0.  0.
         25    1    1    2    0    0  0.32907256589E+02 -0.15475373014E+03  0.62838299348E+03  0.65994074812E+03  0.12500000000E+03 0.  0.
</event>
<event>
 5    0  0.5778875E-005  0.2620963E+03  0.7546771E-02  0.1105890E+00
         21   -1    0    0  502  501  0.00000000000E+00  0.00000000000E+00  0.98073520381E+03  0.98073520381E+03  0.00000000000E+00 0.  1.
         21   -1    0    0  501  502 -0.00000000000E+00 -0.00000000000E+00 -0.70043870513E+02  0.70043870513E+02  0.00000000000E+00 0.  1.
         25    1    1    2    0    0  0.11286890401E+03 -0.49687623140E+02  0.52409650130E+03  0.55272994496E+03  0.12500000000E+03 0.  0.
         25    1    1    2    0    0 -0.17251477160E+02  0.71124401795E+02  0.12171088140E+03  0.18919522363E+03  0.12500000000E+03 0.  0.
         25    1    1    2    0    0 -0.95617426852E+02 -0.21436778655E+02  0.26488395060E+03  0.30885390572E+03  0.12500000000E+03 0.  0.
</event>
<event>
 5    0  0.6176179E-005  0.2813088E+03  0.7546771E-02  0.1094976E+00
         21   -1    0    0  502  501  0.00000000000E+00  0.00000000000E+00  0.57374679323E+03  0.57374679323E+03  0.00000000000E+00 0.  1.
         21   -1    0    0  501  502 -0.00000000000E+00 -0.00000000000E+00 -0.13792609622E+03  0.13792609622E+03  0.00000000000E+00 0.  1.
         25    1    1    2    0    0 -0.38921203062E+01  0.27971380354E+02 -0.13964778454E+02  0.12890912208E+03  0.12500000000E+03 0.  0.
         25    1    1    2    0    0  0.43226493880E+02  0.11581177103E+03  0.22328530980E+03  0.28418695546E+03  0.12500000000E+03 0.  0.
         25    1    1    2    0    0 -0.39334373574E+02 -0.14378315138E+03  0.22650016565E+03  0.29857681190E+03  0.12500000000E+03 0.  0.
</event>
<event>
 5    0  0.5778875E-005  0.3144485E+03  0.7546771E-02  0.1078233E+00
         21   -1    0    0  502  501  0.00000000000E+00  0.00000000000E+00  0.50980068180E+03  0.50980068180E+03  0.00000000000E+00 0.  1.
         21   -1    0    0  501  502 -0.00000000000E+00 -0.00000000000E+00 -0.19395398770E+03  0.19395398770E+03  0.00000000000E+00 0.  1.
         25    1    1    2    0    0 -0.38568064027E+02 -0.70190689645E+02 -0.76728449106E+02  0.16711218800E+03  0.12500000000E+03 0.  0.
         25    1    1    2    0    0  0.60894929278E+01  0.87506161684E+02  0.37532250088E+03  0.40519919783E+03  0.12500000000E+03 0.  0.
         25    1    1    2    0    0  0.32478571099E+02 -0.17315472039E+02  0.17252642323E+02  0.13144328366E+03  0.12500000000E+03 0.  0.
</event>
<event>
 5    0  0.5778875E-005  0.2475707E+03  0.7546771E-02  0.1114850E+00
         21   -1    0    0  502  501  0.00000000000E+00  0.00000000000E+00  0.76882947693E+02  0.76882947693E+02  0.00000000000E+00 0.  1.
         21   -1    0    0  501  502 -0.00000000000E+00 -0.00000000000E+00 -0.79720238088E+03  0.79720238088E+03  0.00000000000E+00 0.  1.
         25    1    1    2    0    0  0.81910346492E+02 -0.57376743042E+02 -0.23216441032E+03  0.28200480302E+03  0.12500000000E+03 0.  0.
         25    1    1    2    0    0 -0.71464161900E+02  0.83811170331E+01 -0.41387814543E+03  0.43828927528E+03  0.12500000000E+03 0.  0.
         25    1    1    2    0    0 -0.10446184592E+02  0.48995626009E+02 -0.74276877434E+02  0.15379125028E+03  0.12500000000E+03 0.  0.
</event>
<event>
 5    0  0.5778875E-005  0.2416304E+03  0.7546771E-02  0.1118711E+00
         21   -1    0    0  502  501  0.00000000000E+00  0.00000000000E+00  0.20629444521E+03  0.20629444521E+03  0.00000000000E+00 0.  1.
         21   -1    0    0  501  502 -0.00000000000E+00 -0.00000000000E+00 -0.28301911872E+03  0.28301911872E+03  0.00000000000E+00 0.  1.
         25    1    1    2    0    0  0.64468885675E+02 -0.65250540756E+02  0.18903650369E+02  0.15619288808E+03  0.12500000000E+03 0.  0.
         25    1    1    2    0    0 -0.58034528931E+01  0.27892206663E+02 -0.13355551296E+03  0.18513165666E+03  0.12500000000E+03 0.  0.
         25    1    1    2    0    0 -0.58665432782E+02  0.37358334093E+02  0.37927189077E+02  0.14798901919E+03  0.12500000000E+03 0.  0.
</event>
<event>
 5    0  0.5778875E-005  0.4618514E+03  0.7546771E-02  0.1024246E+00
         21   -1    0    0  502  501  0.00000000000E+00  0.00000000000E+00  0.18330682570E+03  0.18330682570E+03  0.00000000000E+00 0. -1.
         21   -1    0    0  501  502 -0.00000000000E+00 -0.00000000000E+00 -0.11636593441E+04  0.11636593441E+04  0.00000000000E+00 0. -1.
         25    1    1    2    0    0  0.54285637284E+01 -0.20437637154E+03 -0.71631547623E+03  0.75533570817E+03  0.12500000000E+03 0.  0.
         25    1    1    2    0    0 -0.72943356367E+02  0.31341233036E+03 -0.21209427536E+03  0.40516293475E+03  0.12500000000E+03 0.  0.
         25    1    1    2    0    0  0.67514792639E+02 -0.10903595882E+03 -0.51942766771E+02  0.18646752683E+03  0.12500000000E+03 0.  0.
</event>
<event>
 5    0  0.5778875E-005  0.4042142E+03  0.7546771E-02  0.1042330E+00
         21   -1    0    0  502  501  0.00000000000E+00  0.00000000000E+00  0.16626474385E+03  0.16626474385E+03  0.00000000000E+00 0. -1.
         21   -1    0    0  501  502 -0.00000000000E+00 -0.00000000000E+00 -0.98270442852E+03  0.98270442852E+03  0.00000000000E+00 0. -1.
         25    1    1    2    0    0 -0.33527947870E+02 -0.94201067797E+02 -0.13699140386E+03  0.21068841732E+03  0.12500000000E+03 0.  0.
         25    1    1    2    0    0 -0.20201003641E+03 -0.95978066314E+02 -0.10473547739E+03  0.27679299891E+03  0.12500000000E+03 0.  0.
         25    1    1    2    0    0  0.23553798428E+03  0.19017913411E+03 -0.57471280342E+03  0.66148775613E+03  0.12500000000E+03 0.  0.
</event>
<event>
 5    0  0.5778875E-005  0.3370181E+03  0.7546771E-02  0.1068073E+00
         21   -1    0    0  502  501  0.00000000000E+00  0.00000000000E+00  0.11512897831E+03  0.11512897831E+03  0.00000000000E+00 0. -1.
         21   -1    0    0  501  502 -0.00000000000E+00 -0.00000000000E+00 -0.98655619430E+03  0.98655619430E+03  0.00000000000E+00 0. -1.
         25    1    1    2    0    0 -0.22617107978E+03 -0.48863321312E+02 -0.27185436745E+03  0.37824698095E+03  0.12500000000E+03 0.  0.
         25    1    1    2    0    0  0.10983418758E+03  0.54349317821E+02 -0.11453595826E+03  0.20919101999E+03  0.12500000000E+03 0.  0.
         25    1    1    2    0    0  0.11633689219E+03 -0.54859965090E+01 -0.48503689029E+03  0.51424717168E+03  0.12500000000E+03 0.  0.
</event>
<event>
 5    0  0.5778875E-005  0.2231937E+03  0.7546771E-02  0.1131524E+00
         21   -1    0    0  502  501  0.00000000000E+00  0.00000000000E+00  0.63847811010E+03  0.63847811010E+03  0.00000000000E+00 0.  1.
         21   -1    0    0  501  502 -0.00000000000E+00 -0.00000000000E+00 -0.78022169020E+02  0.78022169020E+02  0.00000000000E+00 0.  1.
         25    1    1    2    0    0  0.28467217877E+02 -0.62355426784E+02  0.17588370715E+03  0.22640375479E+03  0.12500000000E+03 0.  0.
         25    1    1    2    0    0  0.26275184713E+02  0.91566298096E+02  0.15061846899E+03  0.21768255667E+03  0.12500000000E+03 0.  0.
         25    1    1    2    0    0 -0.54742402589E+02 -0.29210871313E+02  0.23395376494E+03  0.27241396766E+03  0.12500000000E+03 0.  0.
</event>
<event>
 5    0  0.5778875E-005  0.3657546E+03  0.7546771E-02  0.1056328E+00
         21   -1    0    0  502  501  0.00000000000E+00  0.00000000000E+00  0.70480402755E+03  0.70480402755E+03  0.00000000000E+00 0. -1.
         21   -1    0    0  501  502 -0.00000000000E+00 -0.00000000000E+00 -0.18980651179E+03  0.18980651179E+03  0.00000000000E+00 0. -1.
         25    1    1    2    0    0  0.21116668277E+03 -0.55963936997E+02  0.42792372745E+03  0.49645447593E+03  0.12500000000E+03 0.  0.
         25    1    1    2    0    0 -0.12726329033E+02  0.82498628838E+02  0.54544710340E+02  0.15990030843E+03  0.12500000000E+03 0.  0.
         25    1    1    2    0    0 -0.19844035374E+03 -0.26534691840E+02  0.32529077971E+02  0.23825575497E+03  0.12500000000E+03 0.  0.
</event>
<event>
 5    0  0.5778875E-005  0.3903754E+03  0.7546771E-02  0.1047164E+00
         21   -1    0    0  502  501  0.00000000000E+00  0.00000000000E+00  0.30801536614E+03  0.30801536614E+03  0.00000000000E+00 0. -1.
         21   -1    0    0  501  502 -0.00000000000E+00 -0.00000000000E+00 -0.49475755090E+03  0.49475755090E+03  0.00000000000E+00 0. -1.
         25    1    1    2    0    0 -0.62349934286E+01 -0.16992493077E+03 -0.62578744078E+01  0.21113388698E+03  0.12500000000E+03 0.  0.
         25    1    1    2    0    0  0.20704089450E+03 -0.10452407058E+02  0.30843557042E+01  0.24209439906E+03  0.12500000000E+03 0.  0.
         25    1    1    2    0    0 -0.20080590107E+03  0.18037733782E+03 -0.18356866605E+03  0.34954463100E+03  0.12500000000E+03 0.  0.
</event>
<event>
 5    0  0.5778875E-005  0.1983266E+03  0.7546771E-02  0.1151159E+00
         21   -1    0    0  502  501  0.00000000000E+00  0.00000000000E+00  0.21594363395E+03  0.21594363395E+03  0.00000000000E+00 0. -1.
         21   -1    0    0  501  502 -0.00000000000E+00 -0.00000000000E+00 -0.18214674487E+03  0.18214674487E+03  0.00000000000E+00 0. -1.
         25    1    1    2    0    0  0.30848260527E+02  0.94729129004E+01 -0.16349841994E+02  0.13012943014E+03  0.12500000000E+03 0.  0.
         25    1    1    2    0    0 -0.38945021278E+02 -0.84739275776E+01 -0.45383578674E+01  0.13127878284E+03  0.12500000000E+03 0.  0.
         25    1    1    2    0    0  0.80967607507E+01 -0.99898532286E+00  0.54685088937E+02  0.13668216584E+03  0.12500000000E+03 0.  0.
</event>
<event>
 5    0  0.5778875E-005  0.2130843E+03  0.7546771E-02  0.1139147E+00
         21   -1    0    0  502  501  0.00000000000E+00  0.00000000000E+00  0.10034342584E+03  0.10034342584E+03  0.00000000000E+00 0.  1.
         21   -1    0    0  501  502 -0.00000000000E+00 -0.00000000000E+00 -0.45249513456E+03  0.45249513456E+03  0.00000000000E+00 0.  1.
         25    1    1    2    0    0 -0.17015729053E+02 -0.73247384618E+02 -0.70994082442E+02  0.16223401040E+03  0.12500000000E+03 0.  0.
         25    1    1    2    0    0 -0.13380449722E+02  0.61622153189E+02 -0.12262621679E+03  0.18611425320E+03  0.12500000000E+03 0.  0.
         25    1    1    2    0    0  0.30396178775E+02  0.11625231429E+02 -0.15853140949E+03  0.20449029680E+03  0.12500000000E+03 0.  0.
</event>
<event>
 5    0  0.5778875E-005  0.2466289E+03  0.7546771E-02  0.1115454E+00
         21   -1    0    0  502  501  0.00000000000E+00  0.00000000000E+00  0.52927022677E+03  0.52927022677E+03  0.00000000000E+00 0.  1.
         21   -1    0    0  501  502 -0.00000000000E+00 -0.00000000000E+00 -0.11492388987E+03  0.11492388987E+03  0.00000000000E+00 0.  1.
         25    1    1    2    0    0  0.96760996244E+01 -0.32913422585E+02  0.28431843766E+03  0.31247222962E+03  0.12500000000E+03 0.  0.
         25    1    1    2    0    0  0.79080066112E+02  0.16279099656E+02  0.83579539297E+02  0.17067280197E+03  0.12500000000E+03 0.  0.
         25    1    1    2    0    0 -0.88756165736E+02  0.16634322929E+02  0.46448359940E+02  0.16104908505E+03  0.12500000000E+03 0.  0.
</event>
<event>
 5    0  0.5814317E-005  0.2927933E+03  0.7546771E-02  0.1088900E+00
         21   -1    0    0  502  501  0.00000000000E+00  0.00000000000E+00  0.55479880523E+03  0.55479880523E+03  0.00000000000E+00 0.  1.
         21   -1    0    0  501  502 -0.00000000000E+00 -0.00000000000E+00 -0.15452069998E+03  0.15452069998E+03  0.00000000000E+00 0.  1.
         25    1    1    2    0    0 -0.87120138348E+02 -0.17541608506E+03  0.19930701083E+03  0.30611926756E+03  0.12500000000E+03 0.  0.
         25    1    1    2    0    0  0.63308865601E+02  0.17994400685E+02  0.11938221468E+03  0.18495654652E+03  0.12500000000E+03 0.  0.
         25    1    1    2    0    0  0.23811272747E+02  0.15742168437E+03  0.81588879746E+02  0.21824369113E+03  0.12500000000E+03 0.  0.
</event>
<event>
 5    0  0.5778875E-005  0.3494822E+03  0.7546771E-02  0.1062828E+00
         21   -1    0    0  502  501  0.00000000000E+00  0.00000000000E+00  0.48823731421E+03  0.48823731421E+03  0.00000000000E+00 0.  1.
         21   -1    0    0  501  502 -0.00000000000E+00 -0.00000000000E+00 -0.25016070358E+03  0.25016070358E+03  0.00000000000E+00 0.  1.
         25    1    1    2    0    0  0.23375249926E+03  0.83232408441E+02 -0.32284753894E+02  0.27970550595E+03  0.12500000000E+03 0.  0.
         25    1    1    2    0    0 -0.12819842788E+03 -0.83109656539E+02  0.95704005840E+02  0.21937709236E+03  0.12500000000E+03 0.  0.
         25    1    1    2    0    0 -0.10555407139E+03 -0.12275190180E+00  0.17465735868E+03  0.23931541947E+03  0.12500000000E+03 0.  0.
</event>
<event>
 5    0  0.5778875E-005  0.4041910E+03  0.7546771E-02  0.1042338E+00
         21   -1    0    0  502  501  0.00000000000E+00  0.00000000000E+00  0.30308908020E+03  0.30308908020E+03  0.00000000000E+00 0.  1.
         21   -1    0    0  501  502 -0.00000000000E+00 -0.00000000000E+00 -0.53901755856E+03  0.53901755856E+03  0.00000000000E+00 0.  1.
         25    1    1    2    0    0 -0.15123652328E+03 -0.24822828395E+03  0.27595784308E+02  0.31761028673E+03  0.12500000000E+03 0.  0.
         25    1    1    2    0    0 -0.26613553319E+02  0.18278334450E+03 -0.98394946543E+02  0.24377160982E+03  0.12500000000E+03 0.  0.
         25    1    1    2    0    0  0.17785007660E+03  0.65444939446E+02 -0.16512931613E+03  0.28072474221E+03  0.12500000000E+03 0.  0.
</event>
<event>
 5    0  0.5778875E-005  0.3728776E+03  0.7546771E-02  0.1053598E+00
         21   -1    0    0  502  501  0.00000000000E+00  0.00000000000E+00  0.10155117086E+04  0.10155117086E+04  0.00000000000E+00 0. -1.
         21   -1    0    0  501  502 -0.00000000000E+00 -0.00000000000E+00 -0.13691394803E+03  0.13691394803E+03  0.00000000000E+00 0. -1.
         25    1    1    2    0    0 -0.55923137427E+01  0.20710146508E+03  0.17127508586E+03  0.29644973578E+03  0.12500000000E+03 0.  0.
         25    1    1    2    0    0 -0.99873897472E+02 -0.23908090261E+03  0.29883368415E+03  0.41480241582E+03  0.12500000000E+03 0.  0.
         25    1    1    2    0    0  0.10546621121E+03  0.31979437528E+02  0.40848899054E+03  0.44117350501E+03  0.12500000000E+03 0.  0.
</event>
<event>
 5    0  0.5778875E-005  0.2812897E+03  0.7546771E-02  0.1094987E+00
         21   -1    0    0  502  501  0.00000000000E+00  0.00000000000E+00  0.54569111334E+03  0.54569111334E+03  0.00000000000E+00 0. -1.
         21   -1    0    0  501  502 -0.00000000000E+00 -0.00000000000E+00 -0.14499757744E+03  0.14499757744E+03  0.00000000000E+00 0. -1.
         25    1    1    2    0    0 -0.14754928979E+03 -0.63134041755E+02  0.22972433149E+03  0.30684681622E+03  0.12500000000E+03 0.  0.
         25    1    1    2    0    0 -0.52338114063E+01 -0.51911695350E+01  0.21664321800E+02  0.12707747189E+03  0.12500000000E+03 0.  0.
         25    1    1    2    0    0  0.15278310120E+03  0.68325211290E+02  0.14930488261E+03  0.25676440268E+03  0.12500000000E+03 0.  0.
</event>
<event>
 5    0  0.5778875E-005  0.3883339E+03  0.7546771E-02  0.1047896E+00
         21   -1    0    0  502  501  0.00000000000E+00  0.00000000000E+00  0.40804855336E+03  0.40804855336E+03  0.00000000000E+00 0.  1.
         21   -1    0    0  501  502 -0.00000000000E+00 -0.00000000000E+00 -0.36957174352E+03  0.36957174352E+03  0.00000000000E+00 0.  1.
         25    1    1    2    0    0 -0.55948515754E+02  0.14215277405E+03  0.57977940359E+01  0.19747471231E+03  0.12500000000E+03 0.  0.
         25    1    1    2    0    0 -0.96893730035E+02  0.15556694496E+03  0.63689505278E+01  0.22193474901E+03  0.12500000000E+03 0.  0.
         25    1    1    2    0    0  0.15284224579E+03 -0.29771971901E+03  0.26310065274E+02  0.35821083557E+03  0.12500000000E+03 0.  0.
</event>
<event>
 5    0  0.5778875E-005  0.2951356E+03  0.7546771E-02  0.1087698E+00
         21   -1    0    0  502  501  0.00000000000E+00  0.00000000000E+00  0.38178466606E+03  0.38178466606E+03  0.00000000000E+00 0. -1.
         21   -1    0    0  501  502 -0.00000000000E+00 -0.00000000000E+00 -0.22815215920E+03  0.22815215920E+03  0.00000000000E+00 0. -1.
         25    1    1    2    0    0 -0.58568764350E+02 -0.52304697045E+02  0.64885797228E+02  0.16124902534E+03  0.12500000000E+03 0.  0.
         25    1    1    2    0    0 -0.63926590483E+02 -0.12660701762E+03  0.27698850383E+02  0.19107111816E+03  0.12500000000E+03 0.  0.
         25    1    1    2    0    0  0.12249535483E+03  0.17891171467E+03  0.61047859246E+02  0.25761668176E+03  0.12500000000E+03 0.  0.
</event>
<event>
 5    0  0.5778875E-005  0.2883970E+03  0.7546771E-02  0.1091189E+00
         21   -1    0    0  502  501  0.00000000000E+00  0.00000000000E+00  0.27223936050E+03  0.27223936050E+03  0.00000000000E+00 0.  1.
         21   -1    0    0  501  502 -0.00000000000E+00 -0.00000000000E+00 -0.30551354627E+03  0.30551354627E+03  0.00000000000E+00 0.  1.
         25    1    1    2    0    0 -0.10497224398E+03  0.56969578313E+02 -0.65449496914E+02  0.18486032973E+03  0.12500000000E+03 0.  0.
         25    1    1    2    0    0  0.35941821604E+02 -0.13472625538E+03 -0.71061631134E+02  0.20029411835E+03  0.12500000000E+03 0.  0.
         25    1    1    2    0    0  0.69030422380E+02  0.77756677062E+02  0.10323694228E+03  0.19259845870E+03  0.12500000000E+03 0.  0.
</event>
<event>
 5    0  0.5778875E-005  0.2854238E+03  0.7546771E-02  0.1092763E+00
         21   -1    0    0  502  501  0.00000000000E+00  0.00000000000E+00  0.26910627229E+04  0.26910627229E+04  0.00000000000E+00 0.  1.
         21   -1    0    0  501  502 -0.00000000000E+00 -0.00000000000E+00 -0.30273078690E+02  0.30273078690E+02  0.00000000000E+00 0.  1.
         25    1    1    2    0    0  0.34131865555E+02  0.10321569962E+02  0.53342887653E+03  0.54903814564E+03  0.12500000000E+03 0.  0.
         25    1    1    2    0    0 -0.62453509764E+02  0.16685659091E+03  0.92944107017E+03  0.95458224671E+03  0.12500000000E+03 0.  0.
         25    1    1    2    0    0  0.28321644210E+02 -0.17717816087E+03  0.11979196975E+04  0.12177154092E+04  0.12500000000E+03 0.  0.
</event>
<event>
 5    0  0.5778875E-005  0.3010281E+03  0.7546771E-02  0.1084728E+00
         21   -1    0    0  502  501  0.00000000000E+00  0.00000000000E+00  0.14551352889E+03  0.14551352889E+03  0.00000000000E+00 0.  1.
         21   -1    0    0  501  502 -0.00000000000E+00 -0.00000000000E+00 -0.62274559885E+03  0.62274559885E+03  0.00000000000E+00 0.  1.
         25    1    1    2    0    0  0.27934187905E+01 -0.14428341474E+03 -0.68384806182E+02  0.20279790106E+03  0.12500000000E+03 0.  0.
         25    1    1    2    0    0 -0.12844101420E+02  0.21123242799E+03 -0.22634417715E+03  0.33412691617E+03  0.12500000000E+03 0.  0.
         25    1    1    2    0    0  0.10050682629E+02 -0.66949013257E+02 -0.18250308662E+03  0.23133431052E+03  0.12500000000E+03 0.  0.
</event>
<event>
 5    0  0.5778875E-005  0.2055398E+03  0.7546771E-02  0.1145148E+00
         21   -1    0    0  502  501  0.00000000000E+00  0.00000000000E+00  0.11092188981E+04  0.11092188981E+04  0.00000000000E+00 0. -1.
         21   -1    0    0  501  502 -0.00000000000E+00 -0.00000000000E+00 -0.38086795178E+02  0.38086795178E+02  0.00000000000E+00 0. -1.
         25    1    1    2    0    0 -0.29434974018E+02 -0.19804238750E+02  0.48567500526E+03  0.50275623945E+03  0.12500000000E+03 0.  0.
         25    1    1    2    0    0 -0.14445434755E+02  0.38855185350E+02  0.23468634855E+03  0.26911164636E+03  0.12500000000E+03 0.  0.
         25    1    1    2    0    0  0.43880408773E+02 -0.19050946600E+02  0.35077074909E+03  0.37543780745E+03  0.12500000000E+03 0.  0.
</event>
<event>
 5    0  0.5778875E-005  0.3201735E+03  0.7546771E-02  0.1075569E+00
         21   -1    0    0  502  501  0.00000000000E+00  0.00000000000E+00  0.13565822968E+03  0.13565822968E+03  0.00000000000E+00 0. -1.
         21   -1    0    0  501  502 -0.00000000000E+00 -0.00000000000E+00 -0.75565672955E+03  0.75565672955E+03  0.00000000000E+00 0. -1.
         25    1    1    2    0    0  0.12008467998E+03  0.32346098761E+02 -0.24103275496E+03  0.29864425231E+03  0.12500000000E+03 0.  0.
         25    1    1    2    0    0  0.52835752473E+02 -0.11852770026E+03 -0.29892801304E+03  0.34903207510E+03  0.12500000000E+03 0.  0.
         25    1    1    2    0    0 -0.17292043246E+03  0.86181601494E+02 -0.80037731868E+02  0.24363863183E+03  0.12500000000E+03 0.  0.
</event>
<event>
 5    0  0.5778875E-005  0.3979226E+03  0.7546771E-02  0.1044501E+00
         21   -1    0    0  502  501  0.00000000000E+00  0.00000000000E+00  0.11797101037E+03  0.11797101037E+03  0.00000000000E+00 0.  1.
         21   -1    0    0  501  502 -0.00000000000E+00 -0.00000000000E+00 -0.13422145033E+04  0.13422145033E+04  0.00000000000E+00 0.  1.
         25    1    1    2    0    0  0.41096202972E+02  0.30061302760E+03 -0.62587418321E+03  0.70668280258E+03  0.12500000000E+03 0.  0.
         25    1    1    2    0    0 -0.44884108781E+02 -0.46594189354E+02 -0.34861140687E+03  0.37595280914E+03  0.12500000000E+03 0.  0.
         25    1    1    2    0    0  0.37879058085E+01 -0.25401883824E+03 -0.24975790281E+03  0.37754990191E+03  0.12500000000E+03 0.  0.
</event>
<event>
 5    0  0.5778875E-005  0.2508752E+03  0.7546771E-02  0.1112753E+00
         21   -1    0    0  502  501  0.00000000000E+00  0.00000000000E+00  0.75487766054E+03  0.75487766054E+03  0.00000000000E+00 0.  1.
         21   -1    0    0  501  502 -0.00000000000E+00 -0.00000000000E+00 -0.83375568997E+02  0.83375568997E+02  0.00000000000E+00 0.  1.
         25    1    1    2    0    0  0.30419609082E+02  0.54148916524E+02  0.13761323527E+03  0.19600984745E+03  0.12500000000E+03 0.  0.
         25    1    1    2    0    0  0.26837339287E+02  0.67599645158E+01  0.45451842799E+03  0.47220540159E+03  0.12500000000E+03 0.  0.
         25    1    1    2    0    0 -0.57256948369E+02 -0.60908881040E+02  0.79370428277E+02  0.17003798050E+03  0.12500000000E+03 0.  0.
</event>
<event>
 5    0  0.5778875E-005  0.3682901E+03  0.7546771E-02  0.1055349E+00
         21   -1    0    0  502  501  0.00000000000E+00  0.00000000000E+00  0.49831532945E+03  0.49831532945E+03  0.00000000000E+00 0.  1.
         21   -1    0    0  501  502 -0.00000000000E+00 -0.00000000000E+00 -0.27219226432E+03  0.27219226432E+03  0.00000000000E+00 0.  1.
         25    1    1    2    0    0  0.18103009751E+03  0.13529463868E+03  0.63179701807E+02  0.26588194783E+03  0.12500000000E+03 0.  0.
         25    1    1    2    0    0 -0.69881712540E+02 -0.16655695964E+03 -0.56622741687E+02  0.22683873000E+03  0.12500000000E+03 0.  0.
         25    1    1    2    0    0 -0.11114838497E+03  0.31262320964E+02  0.21956610501E+03  0.27778691594E+03  0.12500000000E+03 0.  0.
</event>
<event>
 5    0  0.5778875E-005  0.2462630E+03  0.7546771E-02  0.1115690E+00
         21   -1    0    0  502  501  0.00000000000E+00  0.00000000000E+00  0.81532686642E+03  0.81532686642E+03  0.00000000000E+00 0.  1.
         21   -1    0    0  501  502 -0.00000000000E+00 -0.00000000000E+00 -0.74381752975E+02  0.74381752975E+02  0.00000000000E+00 0.  1.
         25    1    1    2    0    0  0.64429777656E+02 -0.92450435015E+02  0.20587162644E+03  0.26590676140E+03  0.12500000000E+03 0.  0.
         25    1    1    2    0    0  0.32970091821E+02  0.11005666567E+02  0.14266138768E+03  0.19283522289E+03  0.12500000000E+03 0.  0.
         25    1    1    2    0    0 -0.97399869477E+02  0.81444768449E+02  0.39241209932E+03  0.43096663511E+03  0.12500000000E+03 0.  0.
</event>
<event>
 5    0  0.5778875E-005  0.2138547E+03  0.7546771E-02  0.1138549E+00
         21   -1    0    0  502  501  0.00000000000E+00  0.00000000000E+00  0.11671601839E+04  0.11671601839E+04  0.00000000000E+00 0. -1.
         21   -1    0    0  501  502 -0.00000000000E+00 -0.00000000000E+00 -0.39183862662E+02  0.39183862662E+02  0.00000000000E+00 0. -1.
         25    1    1    2    0    0 -0.73207697814E+01 -0.24783681204E+02  0.37594902924E+03  0.39702707352E+03  0.12500000000E+03 0.  0.
         25    1    1    2    0    0 -0.16780022575E+02  0.90431690232E+02  0.41778322591E+03  0.44567620938E+03  0.12500000000E+03 0.  0.
         25    1    1    2    0    0  0.24100792356E+02 -0.65648009028E+02  0.33424406613E+03  0.36364076370E+03  0.12500000000E+03 0.  0.
</event>
<event>
 5    0  0.5778875E-005  0.2228195E+03  0.7546771E-02  0.1131798E+00
         21   -1    0    0  502  501  0.00000000000E+00  0.00000000000E+00  0.10620040926E+03  0.10620040926E+03  0.00000000000E+00 0. -1.
         21   -1    0    0  501  502 -0.00000000000E+00 -0.00000000000E+00 -0.46749835162E+03  0.46749835162E+03  0.00000000000E+00 0. -1.
         25    1    1    2    0    0 -0.55242931171E+02  0.72331674916E+02 -0.78873121064E+02  0.17357886354E+03  0.12500000000E+03 0.  0.
         25    1    1    2    0    0  0.62807592436E+02 -0.75688200928E+01 -0.11507218583E+03  0.18129723841E+03  0.12500000000E+03 0.  0.
         25    1    1    2    0    0 -0.75646612651E+01 -0.64762854823E+02 -0.16735263546E+03  0.21882265893E+03  0.12500000000E+03 0.  0.
</event>
<event>
 5    0  0.5778875E-005  0.4019138E+03  0.7546771E-02  0.1043119E+00
         21   -1    0    0  502  501  0.00000000000E+00  0.00000000000E+00  0.26659914718E+03  0.26659914718E+03  0.00000000000E+00 0. -1.
         21   -1    0    0  501  502 -0.00000000000E+00 -0.00000000000E+00 -0.60590856974E+03  0.60590856974E+03  0.00000000000E+00 0. -1.
         25    1    1    2    0    0 -0.77628036973E+01  0.33952367093E+02 -0.32038867234E+02  0.13365819603E+03  0.12500000000E+03 0.  0.
         25    1    1    2    0    0 -0.61749072661E+02 -0.31073554596E+03 -0.24899526018E+03  0.42189236434E+03  0.12500000000E+03 0.  0.
         25    1    1    2    0    0  0.69511876358E+02  0.27678317887E+03 -0.58275295152E+02  0.31695715655E+03  0.12500000000E+03 0.  0.
</event>
<event>
 5    0  0.5791052E-005  0.2769160E+03  0.7546771E-02  0.1097385E+00
         21   -1    0    0  502  501  0.00000000000E+00  0.00000000000E+00  0.70834123269E+03  0.70834123269E+03  0.00000000000E+00 0.  1.
         21   -1    0    0  501  502 -0.00000000000E+00 -0.00000000000E+00 -0.10825642591E+03  0.10825642591E+03  0.00000000000E+00 0.  1.
         25    1    1    2    0    0 -0.10327343825E+03 -0.29259866027E+02  0.41218532329E+03  0.44389557729E+03  0.12500000000E+03 0.  0.
         25    1    1    2    0    0 -0.32248485585E+02 -0.20949492986E+02  0.75120476234E+02  0.15082086072E+03  0.12500000000E+03 0.  0.
         25    1    1    2    0    0  0.13552192383E+03  0.50209359013E+02  0.11277900726E+03  0.22188122059E+03  0.12500000000E+03 0.  0.
</event>
<event>
 5    0  0.5778875E-005  0.4525950E+03  0.7546771E-02  0.1026951E+00
         21   -1    0    0  502  501  0.00000000000E+00  0.00000000000E+00  0.71364497909E+03  0.71364497909E+03  0.00000000000E+00 0. -1.
         21   -1    0    0  501  502 -0.00000000000E+00 -0.00000000000E+00 -0.28703661377E+03  0.28703661377E+03  0.00000000000E+00 0. -1.
         25    1    1    2    0    0  0.12724081082E+03  0.35318224827E+02  0.45776290258E+03  0.49255403351E+03  0.12500000000E+03 0.  0.
         25    1    1    2    0    0  0.60489943266E+02 -0.10131727083E+03  0.13646039652E+03  0.21947815933E+03  0.12500000000E+03 0.  0.
         25    1    1    2    0    0 -0.18773075409E+03  0.65999045999E+02 -0.16761493378E+03  0.28864940002E+03  0.12500000000E+03 0.  0.
</event>
<event>
 5    0  0.5778875E-005  0.4051543E+03  0.7546771E-02  0.1042009E+00
         21   -1    0    0  502  501  0.00000000000E+00  0.00000000000E+00  0.13219979133E+04  0.13219979133E+04  0.00000000000E+00 0.  1.
         21   -1    0    0  501  502 -0.00000000000E+00 -0.00000000000E+00 -0.12416813550E+03  0.12416813550E+03  0.00000000000E+00 0.  1.
         25    1    1    2    0    0 -0.13225294566E+03  0.19571991961E+03  0.28292363537E+03  0.38918878712E+03  0.12500000000E+03 0.  0.
         25    1    1    2    0    0  0.13253202261E+03 -0.88910935536E+02  0.10073049525E+03  0.22636590766E+03  0.12500000000E+03 0.  0.
         25    1    1    2    0    0 -0.27907695458E+00 -0.10680898408E+03  0.81417564719E+03  0.83061135403E+03  0.12500000000E+03 0.  0.
</event>
<event>
 5    0  0.5778875E-005  0.2688115E+03  0.7546771E-02  0.1101962E+00
         21   -1    0    0  502  501  0.00000000000E+00  0.00000000000E+00  0.73413194043E+02  0.73413194043E+02  0.00000000000E+00 0.  1.
         21   -1    0    0  501  502 -0.00000000000E+00 -0.00000000000E+00 -0.98428679791E+03  0.98428679791E+03  0.00000000000E+00 0.  1.
         25    1    1    2    0    0 -0.11386835094E+03 -0.14420009291E+02 -0.16521062282E+03  0.23684063820E+03  0.12500000000E+03 0.  0.
         25    1    1    2    0    0  0.12409048905E+03  0.61174547093E+02 -0.28046420467E+03  0.33678768503E+03  0.12500000000E+03 0.  0.
         25    1    1    2    0    0 -0.10222138118E+02 -0.46754537802E+02 -0.46519877638E+03  0.48407166872E+03  0.12500000000E+03 0.  0.
</event>
<event>
 5    0  0.5778875E-005  0.2752495E+03  0.7546771E-02  0.1098312E+00
         21   -1    0    0  502  501  0.00000000000E+00  0.00000000000E+00  0.74825639745E+03  0.74825639745E+03  0.00000000000E+00 0. -1.
         21   -1    0    0  501  502 -0.00000000000E+00 -0.00000000000E+00 -0.10125173706E+03  0.10125173706E+03  0.00000000000E+00 0. -1.
         25    1    1    2    0    0 -0.14049483176E+03  0.99401441004E+01  0.20669701859E+03  0.27961806399E+03  0.12500000000E+03 0.  0.
         25    1    1    2    0    0  0.28523302196E+02 -0.10517430909E+03  0.24041142412E+03  0.29205798553E+03  0.12500000000E+03 0.  0.
         25    1    1    2    0    0  0.11197152956E+03  0.95234164989E+02  0.19989621768E+03  0.27783208500E+03  0.12500000000E+03 0.  0.
</event>
<event>
 5    0  0.5778875E-005  0.3427693E+03  0.7546771E-02  0.1065623E+00
         21   -1    0    0  502  501  0.00000000000E+00  0.00000000000E+00  0.33108252179E+03  0.33108252179E+03  0.00000000000E+00 0.  1.
         21   -1    0    0  501  502 -0.00000000000E+00 -0.00000000000E+00 -0.35486851380E+03  0.35486851380E+03  0.00000000000E+00 0.  1.
         25    1    1    2    0    0  0.23812725885E+03  0.10624521584E+01 -0.62175195943E+02  0.27603709026E+03  0.12500000000E+03 0.  0.
         25    1    1    2    0    0 -0.19166952807E+03  0.34483412272E+02 -0.61622500610E+02  0.23947577392E+03  0.12500000000E+03 0.  0.
         25    1    1    2    0    0 -0.46457730779E+02 -0.35545864430E+02  0.10001170454E+03  0.17043817141E+03  0.12500000000E+03 0.  0.
</event>
<event>
 5    0  0.5778875E-005  0.4313641E+03  0.7546771E-02  0.1033430E+00
         21   -1    0    0  502  501  0.00000000000E+00  0.00000000000E+00  0.42497329039E+03  0.42497329039E+03  0.00000000000E+00 0.  1.
         21   -1    0    0  501  502 -0.00000000000E+00 -0.00000000000E+00 -0.43785101994E+03  0.43785101994E+03  0.00000000000E+00 0.  1.
         25    1    1    2    0    0 -0.24903774106E+03 -0.24519755899E+03 -0.15253217919E+03  0.40128880510E+03  0.12500000000E+03 0.  0.
         25    1    1    2    0    0  0.17202234271E+03  0.17220512004E+03  0.64274358723E+02  0.28107380338E+03  0.12500000000E+03 0.  0.
         25    1    1    2    0    0  0.77015398346E+02  0.72992438957E+02  0.75380090919E+02  0.18046170185E+03  0.12500000000E+03 0.  0.
</event>
<event>
 5    0  0.5778875E-005  0.2946942E+03  0.7546771E-02  0.1087923E+00
         21   -1    0    0  502  501  0.00000000000E+00  0.00000000000E+00  0.10063124608E+04  0.10063124608E+04  0.00000000000E+00 0.  1.
         21   -1    0    0  501  502 -0.00000000000E+00 -0.00000000000E+00 -0.86299878474E+02  0.86299878474E+02  0.00000000000E+00 0.  1.
         25    1    1    2    0    0 -0.12919102266E+03  0.91084211263E+02  0.18792185271E+03  0.27554723117E+03  0.12500000000E+03 0.  0.
         25    1    1    2    0    0 -0.38808396196E+02 -0.36198080832E+02  0.38235525049E+03  0.40575476614E+03  0.12500000000E+03 0.  0.
         25    1    1    2    0    0  0.16799941886E+03 -0.54886130430E+02  0.34973547917E+03  0.41131034200E+03  0.12500000000E+03 0.  0.
</event>
<event>
 5    0  0.5778875E-005  0.2103651E+03  0.7546771E-02  0.1141277E+00
         21   -1    0    0  502  501  0.00000000000E+00  0.00000000000E+00  0.84598143836E+02  0.84598143836E+02  0.00000000000E+00 0.  1.
         21   -1    0    0  501  502 -0.00000000000E+00 -0.00000000000E+00 -0.52310208597E+03  0.52310208597E+03  0.00000000000E+00 0.  1.
         25    1    1    2    0    0 -0.64089789917E+01 -0.36969740161E+02 -0.79332150643E+02  0.15272991464E+03  0.12500000000E+03 0.  0.
         25    1    1    2    0    0  0.41854867603E+02  0.63292398596E+02 -0.20162722526E+03  0.24907086467E+03  0.12500000000E+03 0.  0.
         25    1    1    2    0    0 -0.35445888612E+02 -0.26322658435E+02 -0.15754456623E+03  0.20589945050E+03  0.12500000000E+03 0.  0.
</event>
<event>
 5    0  0.5778875E-005  0.2581054E+03  0.7546771E-02  0.1108287E+00
         21   -1    0    0  502  501  0.00000000000E+00  0.00000000000E+00  0.14871076842E+03  0.14871076842E+03  0.00000000000E+00 0.  1.
         21   -1    0    0  501  502 -0.00000000000E+00 -0.00000000000E+00 -0.44797298499E+03  0.44797298499E+03  0.00000000000E+00 0.  1.
         25    1    1    2    0    0 -0.56130718134E+02 -0.46442300564E+02 -0.13842454854E+03  0.20023461349E+03  0.12500000000E+03 0.  0.
         25    1    1    2    0    0  0.98967802853E+02  0.72980150158E+02  0.13761320959E+02  0.17588377490E+03  0.12500000000E+03 0.  0.
         25    1    1    2    0    0 -0.42837084719E+02 -0.26537849594E+02 -0.17459898899E+03  0.22056536502E+03  0.12500000000E+03 0.  0.
</event>
<event>
 5    0  0.5778875E-005  0.3912500E+03  0.7546771E-02  0.1046852E+00
         21   -1    0    0  502  501  0.00000000000E+00  0.00000000000E+00  0.19321471604E+03  0.19321471604E+03  0.00000000000E+00 0.  1.
         21   -1    0    0  501  502 -0.00000000000E+00 -0.00000000000E+00 -0.79226140877E+03  0.79226140877E+03  0.00000000000E+00 0.  1.
         25    1    1    2    0    0  0.11394055652E+03  0.14626550823E+03 -0.22426746663E+03  0.31669693069E+03  0.12500000000E+03 0.  0.
         25    1    1    2    0    0 -0.18752764705E+03 -0.16645119952E+03 -0.15275345433E+02  0.28059037120E+03  0.12500000000E+03 0.  0.
         25    1    1    2    0    0  0.73587090530E+02  0.20185691286E+02 -0.35950388067E+03  0.38818882292E+03  0.12500000000E+03 0.  0.
</event>
<event>
 5    0  0.5778875E-005  0.3092026E+03  0.7546771E-02  0.1080729E+00
         21   -1    0    0  502  501  0.00000000000E+00  0.00000000000E+00  0.19771391181E+03  0.19771391181E+03  0.00000000000E+00 0.  1.
         21   -1    0    0  501  502 -0.00000000000E+00 -0.00000000000E+00 -0.48355842475E+03  0.48355842475E+03  0.00000000000E+00 0.  1.
         25    1    1    2    0    0 -0.19199202574E+02  0.31403669404E+02  0.35574395994E+02  0.13507530300E+03  0.12500000000E+03 0.  0.
         25    1    1    2    0    0 -0.10650472548E+03 -0.48264704627E+02  0.84038215363E+01  0.17137200028E+03  0.12500000000E+03 0.  0.
         25    1    1    2    0    0  0.12570392805E+03  0.16861035223E+02 -0.32982273047E+03  0.37482503328E+03  0.12500000000E+03 0.  0.
</event>
<event>
 5    0  0.5778875E-005  0.4270341E+03  0.7546771E-02  0.1034801E+00
         21   -1    0    0  502  501  0.00000000000E+00  0.00000000000E+00  0.29019013102E+03  0.29019013102E+03  0.00000000000E+00 0.  1.
         21   -1    0    0  501  502 -0.00000000000E+00 -0.00000000000E+00 -0.62840917675E+03  0.62840917675E+03  0.00000000000E+00 0.  1.
         25    1    1    2    0    0  0.10963389480E+03  0.14369151527E+03 -0.19302657875E+03  0.29249120081E+03  0.12500000000E+03 0.  0.
         25    1    1    2    0    0 -0.18991549513E+03 -0.11920763953E+03 -0.31025373537E+03  0.40269186349E+03  0.12500000000E+03 0.  0.
         25    1    1    2    0    0  0.80281600329E+02 -0.24483875734E+02  0.16506126838E+03  0.22341624346E+03  0.12500000000E+03 0.  0.
</event>
<event>
 5    0  0.5778875E-005  0.2861373E+03  0.7546771E-02  0.1092383E+00
         21   -1    0    0  502  501  0.00000000000E+00  0.00000000000E+00  0.11084305993E+04  0.11084305993E+04  0.00000000000E+00 0.  1.
         21   -1    0    0  501  502 -0.00000000000E+00 -0.00000000000E+00 -0.73865319062E+02  0.73865319062E+02  0.00000000000E+00 0.  1.
         25    1    1    2    0    0 -0.10499697462E+03  0.11745782202E+03  0.45322338657E+03  0.49583983580E+03  0.12500000000E+03 0.  0.
         25    1    1    2    0    0 -0.26397666251E+02 -0.76054275491E+02  0.39971265359E+03  0.42646957107E+03  0.12500000000E+03 0.  0.
         25    1    1    2    0    0  0.13139464087E+03 -0.41403546529E+02  0.18162924011E+03  0.25998651153E+03  0.12500000000E+03 0.  0.
</event>
<event>
 5    0  0.5778875E-005  0.2486842E+03  0.7546771E-02  0.1114139E+00
         21   -1    0    0  502  501  0.00000000000E+00  0.00000000000E+00  0.19157175479E+03  0.19157175479E+03  0.00000000000E+00 0.  1.
         21   -1    0    0  501  502 -0.00000000000E+00 -0.00000000000E+00 -0.32282334925E+03  0.32282334925E+03  0.00000000000E+00 0.  1.
         25    1    1    2    0    0  0.36736651613E+02  0.66377930870E+02  0.80508733511E+02  0.16691994324E+03  0.12500000000E+03 0.  0.
         25    1    1    2    0    0  0.25150122265E+02 -0.35278885448E+02 -0.10979335392E+03  0.17192064732E+03  0.12500000000E+03 0.  0.
         25    1    1    2    0    0 -0.61886773878E+02 -0.31099045422E+02 -0.10196697405E+03  0.17555451348E+03  0.12500000000E+03 0.  0.
</event>
<event>
 5    0  0.5778875E-005  0.3167706E+03  0.7546771E-02  0.1077145E+00
         21   -1    0    0  502  501  0.00000000000E+00  0.00000000000E+00  0.68378549620E+03  0.68378549620E+03  0.00000000000E+00 0. -1.
         21   -1    0    0  501  502 -0.00000000000E+00 -0.00000000000E+00 -0.14674724670E+03  0.14674724670E+03  0.00000000000E+00 0. -1.
         25    1    1    2    0    0  0.42260514310E+02 -0.86388348223E+02  0.40779828516E+03  0.43723373516E+03  0.12500000000E+03 0.  0.
         25    1    1    2    0    0  0.72294385835E+02  0.96924043887E+02  0.13973606562E+03  0.22309620468E+03  0.12500000000E+03 0.  0.
         25    1    1    2    0    0 -0.11455490015E+03 -0.10535695663E+02 -0.10496101281E+02  0.17020280307E+03  0.12500000000E+03 0.  0.
</event>
<event>
 5    0  0.5909992E-005  0.3595170E+03  0.7546771E-02  0.1058775E+00
         21   -1    0    0  502  501  0.00000000000E+00  0.00000000000E+00  0.11768333114E+04  0.11768333114E+04  0.00000000000E+00 0.  1.
         21   -1    0    0  501  502 -0.00000000000E+00 -0.00000000000E+00 -0.10983073161E+03  0.10983073161E+03  0.00000000000E+00 0.  1.
         25    1    1    2    0    0 -0.13065778590E+02  0.59511734669E+02  0.60111689683E+03  0.61699180285E+03  0.12500000000E+03 0.  0.
         25    1    1    2    0    0  0.16939826655E+03  0.52246299901E+02  0.10224475792E+03  0.23980083212E+03  0.12500000000E+03 0.  0.
         25    1    1    2    0    0 -0.15633248796E+03 -0.11175803457E+03  0.36364092507E+03  0.42987140806E+03  0.12500000000E+03 0.  0.
</event>
<event>
 5    0  0.5778875E-005  0.3214716E+03  0.7546771E-02  0.1074974E+00
         21   -1    0    0  502  501  0.00000000000E+00  0.00000000000E+00  0.71359561470E+02  0.71359561470E+02  0.00000000000E+00 0.  1.
         21   -1    0    0  501  502 -0.00000000000E+00 -0.00000000000E+00 -0.14482153757E+04  0.14482153757E+04  0.00000000000E+00 0.  1.
         25    1    1    2    0    0  0.11415300967E+03 -0.18427586758E+03 -0.44517351654E+03  0.51067892537E+03  0.12500000000E+03 0.  0.
         25    1    1    2    0    0 -0.12696263893E+03  0.69792739635E+02 -0.67048642836E+03  0.69725718986E+03  0.12500000000E+03 0.  0.
         25    1    1    2    0    0  0.12809629257E+02  0.11448312794E+03 -0.26119586930E+03  0.31163882191E+03  0.12500000000E+03 0.  0.
</event>
<event>
 5    0  0.5778875E-005  0.2806315E+03  0.7546771E-02  0.1095345E+00
         21   -1    0    0  502  501  0.00000000000E+00  0.00000000000E+00  0.54855041925E+02  0.54855041925E+02  0.00000000000E+00 0. -1.
         21   -1    0    0  501  502 -0.00000000000E+00 -0.00000000000E+00 -0.14356756352E+04  0.14356756352E+04  0.00000000000E+00 0. -1.
         25    1    1    2    0    0 -0.13702737078E+03  0.26862419267E+02 -0.56720304075E+03  0.59736285400E+03  0.12500000000E+03 0.  0.
         25    1    1    2    0    0 -0.42213033569E+02 -0.60119753701E+02 -0.37371781015E+03  0.40085699022E+03  0.12500000000E+03 0.  0.
         25    1    1    2    0    0  0.17924040435E+03  0.33257334434E+02 -0.43989974240E+03  0.49231083292E+03  0.12500000000E+03 0.  0.
</event>
<event>
 5    0  0.5778875E-005  0.2515375E+03  0.7546771E-02  0.1112337E+00
         21   -1    0    0  502  501  0.00000000000E+00  0.00000000000E+00  0.38501041772E+03  0.38501041772E+03  0.00000000000E+00 0.  1.
         21   -1    0    0  501  502 -0.00000000000E+00 -0.00000000000E+00 -0.16433607861E+03  0.16433607861E+03  0.00000000000E+00 0.  1.
         25    1    1    2    0    0 -0.20738594446E+02  0.14559723510E+03  0.52165894100E+02  0.19993730186E+03  0.12500000000E+03 0.  0.
         25    1    1    2    0    0  0.20015738844E+02 -0.12761245341E+03  0.95848560450E+02  0.20370938762E+03  0.12500000000E+03 0.  0.
         25    1    1    2    0    0  0.72285560244E+00 -0.17984781693E+02  0.72659884561E+02  0.14569980685E+03  0.12500000000E+03 0.  0.
</event>
<event>
 5    0  0.5778875E-005  0.2079291E+03  0.7546771E-02  0.1143217E+00
         21   -1    0    0  502  501  0.00000000000E+00  0.00000000000E+00  0.89091699345E+02  0.89091699345E+02  0.00000000000E+00 0. -1.
         21   -1    0    0  501  502 -0.00000000000E+00 -0.00000000000E+00 -0.48528080903E+03  0.48528080903E+03  0.00000000000E+00 0. -1.
         25    1    1    2    0    0 -0.99599059354E+01 -0.58100924026E+02 -0.17924279265E+03  0.22633580322E+03  0.12500000000E+03 0.  0.
         25    1    1    2    0    0  0.71628013416E+00  0.37136679377E+02 -0.53380719741E+02  0.14090474532E+03  0.12500000000E+03 0.  0.
         25    1    1    2    0    0  0.92436258012E+01  0.20964244648E+02 -0.16356559729E+03  0.20713195984E+03  0.12500000000E+03 0.  0.
</event>
<event>
 5    0  0.5778875E-005  0.3397045E+03  0.7546771E-02  0.1066922E+00
         21   -1    0    0  502  501  0.00000000000E+00  0.00000000000E+00  0.23939237990E+03  0.23939237990E+03  0.00000000000E+00 0.  1.
         21   -1    0    0  501  502 -0.00000000000E+00 -0.00000000000E+00 -0.48205031788E+03  0.48205031788E+03  0.00000000000E+00 0.  1.
         25    1    1    2    0    0  0.83807247945E+01  0.16060809282E+03 -0.18762067284E+02  0.20455368781E+03  0.12500000000E+03 0.  0.
         25    1    1    2    0    0  0.12311209007E+03 -0.21067025686E+03 -0.16358888864E+03  0.31925674360E+03  0.12500000000E+03 0.  0.
         25    1    1    2    0    0 -0.13149281486E+03  0.50062164035E+02 -0.60306982049E+02  0.19763226637E+03  0.12500000000E+03 0.  0.
</event>
<event>
 5    0  0.5778875E-005  0.3486900E+03  0.7546771E-02  0.1063154E+00
         21   -1    0    0  502  501  0.00000000000E+00  0.00000000000E+00  0.12563429415E+03  0.12563429415E+03  0.00000000000E+00 0.  1.
         21   -1    0    0  501  502 -0.00000000000E+00 -0.00000000000E+00 -0.96776705195E+03  0.96776705195E+03  0.00000000000E+00 0.  1.
         25    1    1    2    0    0  0.22098407028E+02  0.19345481276E+03 -0.19678415785E+03  0.30374678427E+03  0.12500000000E+03 0.  0.
         25    1    1    2    0    0 -0.16456221963E+03 -0.84054445814E+02 -0.41976020307E+03  0.47536249544E+03  0.12500000000E+03 0.  0.
         25    1    1    2    0    0  0.14246381260E+03 -0.10940036695E+03 -0.22558839688E+03  0.31429206639E+03  0.12500000000E+03 0.  0.
</event>
<event>
 5    0  0.5778875E-005  0.2406470E+03  0.7546771E-02  0.1119363E+00
         21   -1    0    0  502  501  0.00000000000E+00  0.00000000000E+00  0.23312819870E+03  0.23312819870E+03  0.00000000000E+00 0. -1.
         21   -1    0    0  501  502 -0.00000000000E+00 -0.00000000000E+00 -0.24840831996E+03  0.24840831996E+03  0.00000000000E+00 0. -1.
         25    1    1    2    0    0 -0.10698945248E+02  0.66552956156E+02 -0.49212447711E+02  0.15030179111E+03  0.12500000000E+03 0.  0.
         25    1    1    2    0    0  0.69325642745E+02 -0.61137809241E+02 -0.57270748462E+02  0.16567683933E+03  0.12500000000E+03 0.  0.
         25    1    1    2    0    0 -0.58626697497E+02 -0.54151469152E+01  0.91203074916E+02  0.16555788821E+03  0.12500000000E+03 0.  0.
</event>
<event>
 5    0  0.5778875E-005  0.2538838E+03  0.7546771E-02  0.1110875E+00
         21   -1    0    0  502  501  0.00000000000E+00  0.00000000000E+00  0.14713225001E+03  0.14713225001E+03  0.00000000000E+00 0.  1.
         21   -1    0    0  501  502 -0.00000000000E+00 -0.00000000000E+00 -0.43808860452E+03  0.43808860452E+03  0.00000000000E+00 0.  1.
         25    1    1    2    0    0 -0.87090664079E+02 -0.12459975976E+03 -0.11621741415E+03  0.22856371378E+03  0.12500000000E+03 0.  0.
         25    1    1    2    0    0 -0.45857577253E+01  0.35648020136E+02 -0.94376823243E+02  0.16069783844E+03  0.12500000000E+03 0.  0.
         25    1    1    2    0    0  0.91676421804E+02  0.88951739627E+02 -0.80362117106E+02  0.19595930231E+03  0.12500000000E+03 0.  0.
</event>
<event>
 5    0  0.5778875E-005  0.2661482E+03  0.7546771E-02  0.1103505E+00
         21   -1    0    0  502  501  0.00000000000E+00  0.00000000000E+00  0.23751732818E+04  0.23751732818E+04  0.00000000000E+00 0. -1.
         21   -1    0    0  501  502 -0.00000000000E+00 -0.00000000000E+00 -0.29823020169E+02  0.29823020169E+02  0.00000000000E+00 0. -1.
         25    1    1    2    0    0  0.84308933663E+02  0.10260001695E+02  0.46501552264E+03  0.48895572420E+03  0.12500000000E+03 0.  0.
         25    1    1    2    0    0 -0.44924827358E+02 -0.10733549552E+02  0.16110974836E+04  0.16165993786E+04  0.12500000000E+03 0.  0.
         25    1    1    2    0    0 -0.39384106305E+02  0.47354785689E+00  0.26923725541E+03  0.29944119919E+03  0.12500000000E+03 0.  0.
</event>
<event>
 5    0  0.5972676E-005  0.3439683E+03  0.7546771E-02  0.1065118E+00
         21   -1    0    0  502  501  0.00000000000E+00  0.00000000000E+00  0.71823679225E+03  0.71823679225E+03  0.00000000000E+00 0.  1.
         21   -1    0    0  501  502 -0.00000000000E+00 -0.00000000000E+00 -0.16472862224E+03  0.16472862224E+03  0.00000000000E+00 0.  1.
         25    1    1    2    0    0 -0.46456171338E+02 -0.33310274820E+01 -0.93154986936E+02  0.16270256049E+03  0.12500000000E+03 0.  0.
         25    1    1    2    0    0  0.88498230465E+02 -0.45076821713E+01  0.18575925509E+03  0.24079816620E+03  0.12500000000E+03 0.  0.
         25    1    1    2    0    0 -0.42042059127E+02  0.78387096533E+01  0.46090390186E+03  0.47946468780E+03  0.12500000000E+03 0.  0.
</event>
<event>
 5    0  0.5778875E-005  0.3223787E+03  0.7546771E-02  0.1074560E+00
         21   -1    0    0  502  501  0.00000000000E+00  0.00000000000E+00  0.43725699561E+03  0.43725699561E+03  0.00000000000E+00 0.  1.
         21   -1    0    0  501  502 -0.00000000000E+00 -0.00000000000E+00 -0.23768180668E+03  0.23768180668E+03  0.00000000000E+00 0.  1.
         25    1    1    2    0    0 -0.46527486928E+02 -0.20482614920E+02  0.15924678791E+03  0.20873160761E+03  0.12500000000E+03 0.  0.
         25    1    1    2    0    0 -0.14525677078E+03 -0.23665935690E+02 -0.73692744276E+02  0.20667662308E+03  0.12500000000E+03 0.  0.
         25    1    1    2    0    0  0.19178425771E+03  0.44148550610E+02  0.11402114529E+03  0.25953057161E+03  0.12500000000E+03 0.  0.
</event>
<event>
 5    0  0.5778875E-005  0.3369284E+03  0.7546771E-02  0.1068112E+00
         21   -1    0    0  502  501  0.00000000000E+00  0.00000000000E+00  0.13919227343E+03  0.13919227343E+03  0.00000000000E+00 0. -1.
         21   -1    0    0  501  502 -0.00000000000E+00 -0.00000000000E+00 -0.81556782322E+03  0.81556782322E+03  0.00000000000E+00 0. -1.
         25    1    1    2    0    0  0.71813890785E+02  0.16322677302E+03 -0.15774037744E+03  0.26890005767E+03  0.12500000000E+03 0.  0.
         25    1    1    2    0    0 -0.64329098626E+02 -0.29457973394E+02 -0.47672471519E+03  0.49789301983E+03  0.12500000000E+03 0.  0.
         25    1    1    2    0    0 -0.74847921598E+01 -0.13376879963E+03 -0.41910457166E+02  0.18796701915E+03  0.12500000000E+03 0.  0.
</event>
<event>
 5    0  0.5778875E-005  0.3364259E+03  0.7546771E-02  0.1068328E+00
         21   -1    0    0  502  501  0.00000000000E+00  0.00000000000E+00  0.25060760208E+03  0.25060760208E+03  0.00000000000E+00 0. -1.
         21   -1    0    0  501  502 -0.00000000000E+00 -0.00000000000E+00 -0.45163201351E+03  0.45163201351E+03  0.00000000000E+00 0. -1.
         25    1    1    2    0    0  0.59575412707E+02 -0.81102096216E+02 -0.28097956814E+02  0.16291493175E+03  0.12500000000E+03 0.  0.
         25    1    1    2    0    0  0.90760739911E+02  0.11390934511E+03  0.88398839075E+02  0.21131068492E+03  0.12500000000E+03 0.  0.
         25    1    1    2    0    0 -0.15033615262E+03 -0.32807248892E+02 -0.26132529369E+03  0.32801399892E+03  0.12500000000E+03 0.  0.
</event>
<event>
 5    0  0.5778875E-005  0.2505721E+03  0.7546771E-02  0.1112944E+00
         21   -1    0    0  502  501  0.00000000000E+00  0.00000000000E+00  0.51457960500E+03  0.51457960500E+03  0.00000000000E+00 0.  1.
         21   -1    0    0  501  502 -0.00000000000E+00 -0.00000000000E+00 -0.12201491228E+03  0.12201491228E+03  0.00000000000E+00 0.  1.
         25    1    1    2    0    0 -0.84446128557E+02  0.13776319616E+02  0.29298210726E+03  0.32982487897E+03  0.12500000000E+03 0.  0.
         25    1    1    2    0    0  0.40728401833E+02  0.53052256761E+02  0.45642784774E+02  0.14893491352E+03  0.12500000000E+03 0.  0.
         25    1    1    2    0    0  0.43717726724E+02 -0.66828576376E+02  0.53939800687E+02  0.15783472479E+03  0.12500000000E+03 0.  0.
</event>
<event>
 5    0  0.5778875E-005  0.3186220E+03  0.7546771E-02  0.1076285E+00
         21   -1    0    0  502  501  0.00000000000E+00  0.00000000000E+00  0.49294810783E+03  0.49294810783E+03  0.00000000000E+00 0.  1.
         21   -1    0    0  501  502 -0.00000000000E+00 -0.00000000000E+00 -0.20594456307E+03  0.20594456307E+03  0.00000000000E+00 0.  1.
         25    1    1    2    0    0  0.28059037328E+01  0.40885146635E+01 -0.29173787941E+02  0.12845504642E+03  0.12500000000E+03 0.  0.
         25    1    1    2    0    0 -0.88610617641E+02 -0.11693651227E+03  0.32867422877E+03  0.38102196540E+03  0.12500000000E+03 0.  0.
         25    1    1    2    0    0  0.85804713908E+02  0.11284799761E+03 -0.12496896063E+02  0.18941565908E+03  0.12500000000E+03 0.  0.
</event>
<event>
 5    0  0.5778875E-005  0.2378780E+03  0.7546771E-02  0.1121215E+00
         21   -1    0    0  502  501  0.00000000000E+00  0.00000000000E+00  0.32696606273E+03  0.32696606273E+03  0.00000000000E+00 0.  1.
         21   -1    0    0  501  502 -0.00000000000E+00 -0.00000000000E+00 -0.17306366385E+03  0.17306366385E+03  0.00000000000E+00 0.  1.
         25    1    1    2    0    0  0.59167620748E+02 -0.20967990371E+01  0.10437273820E+03  0.17327398071E+03  0.12500000000E+03 0.  0.
         25    1    1    2    0    0 -0.63854559034E+02 -0.73007705395E+02  0.80626454194E+02  0.17757577220E+03  0.12500000000E+03 0.  0.
         25    1    1    2    0    0  0.46869382853E+01  0.75104504433E+02 -0.31096793513E+02  0.14917997367E+03  0.12500000000E+03 0.  0.
</event>
<event>
 5    0  0.5778875E-005  0.3446944E+03  0.7546771E-02  0.1064814E+00
         21   -1    0    0  502  501  0.00000000000E+00  0.00000000000E+00  0.84608106383E+03  0.84608106383E+03  0.00000000000E+00 0.  1.
         21   -1    0    0  501  502 -0.00000000000E+00 -0.00000000000E+00 -0.14042889875E+03  0.14042889875E+03  0.00000000000E+00 0.  1.
         25    1    1    2    0    0  0.10836340256E+03 -0.14361890971E+03  0.52298596102E+03  0.56701704883E+03  0.12500000000E+03 0.  0.
         25    1    1    2    0    0 -0.16185557083E+03  0.46722722408E+02  0.11604822478E+03  0.23973407992E+03  0.12500000000E+03 0.  0.
         25    1    1    2    0    0  0.53492168275E+02  0.96896187301E+02  0.66617979278E+02  0.17975883384E+03  0.12500000000E+03 0.  0.
</event>
<event>
 5    0  0.5778875E-005  0.2947497E+03  0.7546771E-02  0.1087895E+00
         21   -1    0    0  502  501  0.00000000000E+00  0.00000000000E+00  0.29422067499E+03  0.29422067499E+03  0.00000000000E+00 0.  1.
         21   -1    0    0  501  502 -0.00000000000E+00 -0.00000000000E+00 -0.29527966634E+03  0.29527966634E+03  0.00000000000E+00 0.  1.
         25    1    1    2    0    0  0.34288553940E+02  0.23574362757E+02 -0.17367725058E+03  0.21799138258E+03  0.12500000000E+03 0.  0.
         25    1    1    2    0    0 -0.10977314938E+03 -0.52806284864E+02  0.59160271197E+02  0.18429212065E+03  0.12500000000E+03 0.  0.
         25    1    1    2    0    0  0.75484595435E+02  0.29231922107E+02  0.11345798803E+03  0.18721683810E+03  0.12500000000E+03 0.  0.
</event>
<event>
 5    0  0.6007060E-005  0.3989799E+03  0.7546771E-02  0.1044133E+00
         21   -1    0    0  502  501  0.00000000000E+00  0.00000000000E+00  0.75610629245E+03  0.75610629245E+03  0.00000000000E+00 0.  1.
         21   -1    0    0  501  502 -0.00000000000E+00 -0.00000000000E+00 -0.21053256217E+03  0.21053256217E+03  0.00000000000E+00 0.  1.
         25    1    1    2    0    0  0.15862939815E+03  0.23517831324E+03  0.13978824552E+03  0.34005569920E+03  0.12500000000E+03 0.  0.
         25    1    1    2    0    0  0.54747669620E+01 -0.24012542086E+03  0.24160120859E+03  0.36288611824E+03  0.12500000000E+03 0.  0.
         25    1    1    2    0    0 -0.16410416511E+03  0.49471076279E+01  0.16418427617E+03  0.26369703718E+03  0.12500000000E+03 0.  0.
</event>
<event>
 5    0  0.5778875E-005  0.3219827E+03  0.7546771E-02  0.1074740E+00
         21   -1    0    0  502  501  0.00000000000E+00  0.00000000000E+00  0.15058076951E+03  0.15058076951E+03  0.00000000000E+00 0.  1.
         21   -1    0    0  501  502 -0.00000000000E+00 -0.00000000000E+00 -0.68848684234E+03  0.68848684234E+03  0.00000000000E+00 0.  1.
         25    1    1    2    0    0  0.45039084412E+02  0.63879087493E+02 -0.29730657802E+03  0.33185125926E+03  0.12500000000E+03 0.  0.
         25    1    1    2    0    0 -0.68945732633E+02  0.11508291741E+02  0.72804348043E+02  0.16065935367E+03  0.12500000000E+03 0.  0.
         25    1    1    2    0    0  0.23906648221E+02 -0.75387379234E+02 -0.31340384286E+03  0.34655699891E+03  0.12500000000E+03 0.  0.
</event>
<event>
 5    0  0.5778875E-005  0.2955708E+03  0.7546771E-02  0.1087476E+00
         21   -1    0    0  502  501  0.00000000000E+00  0.00000000000E+00  0.28009664848E+03  0.28009664848E+03  0.00000000000E+00 0.  1.
         21   -1    0    0  501  502 -0.00000000000E+00 -0.00000000000E+00 -0.31189985387E+03  0.31189985387E+03  0.00000000000E+00 0.  1.
         25    1    1    2    0    0  0.12680874223E+03  0.11007309674E+03  0.53427639392E+00  0.20933664080E+03  0.12500000000E+03 0.  0.
         25    1    1    2    0    0  0.32717529962E+02 -0.10891891131E+03  0.27781062362E+02  0.17126165197E+03  0.12500000000E+03 0.  0.
         25    1    1    2    0    0 -0.15952627219E+03 -0.11541854307E+01 -0.60118544152E+02  0.21139820958E+03  0.12500000000E+03 0.  0.
</event>
<event>
 5    0  0.5778875E-005  0.3229587E+03  0.7546771E-02  0.1074296E+00
         21   -1    0    0  502  501  0.00000000000E+00  0.00000000000E+00  0.22507758123E+03  0.22507758123E+03  0.00000000000E+00 0.  1.
         21   -1    0    0  501  502 -0.00000000000E+00 -0.00000000000E+00 -0.46340600394E+03  0.46340600394E+03  0.00000000000E+00 0.  1.
         25    1    1    2    0    0 -0.15668578278E+03  0.11072093533E+03 -0.88071368715E+02  0.24533879847E+03  0.12500000000E+03 0.  0.
         25    1    1    2    0    0 -0.36441354232E+02 -0.12136404662E+03 -0.11032263556E+03  0.20941176669E+03  0.12500000000E+03 0.  0.
         25    1    1    2    0    0  0.19312713702E+03  0.10643111289E+02 -0.39934418425E+02  0.23373302001E+03  0.12500000000E+03 0.  0.
</event>
<event>
 5    0  0.5778875E-005  0.2710903E+03  0.7546771E-02  0.1100657E+00
         21   -1    0    0  502  501  0.00000000000E+00  0.00000000000E+00  0.35670984113E+03  0.35670984113E+03  0.00000000000E+00 0.  1.
         21   -1    0    0  501  502 -0.00000000000E+00 -0.00000000000E+00 -0.20602160727E+03  0.20602160727E+03  0.00000000000E+00 0.  1.
         25    1    1    2    0    0  0.29382784448E+02  0.14342965797E+02  0.10749286881E+03  0.16807375029E+03  0.12500000000E+03 0.  0.
         25    1    1    2    0    0 -0.76111131838E+02  0.76886194648E+02  0.13079149500E+03  0.21079802295E+03  0.12500000000E+03 0.  0.
         25    1    1    2    0    0  0.46728347390E+02 -0.91229160446E+02 -0.87596129956E+02  0.18385967516E+03  0.12500000000E+03 0.  0.
</event>
<event>
 5    0  0.5778875E-005  0.4899614E+03  0.7546771E-02  0.1016433E+00
         21   -1    0    0  502  501  0.00000000000E+00  0.00000000000E+00  0.99576021819E+03  0.99576021819E+03  0.00000000000E+00 0. -1.
         21   -1    0    0  501  502 -0.00000000000E+00 -0.00000000000E+00 -0.24108428547E+03  0.24108428547E+03  0.00000000000E+00 0. -1.
         25    1    1    2    0    0  0.20539286283E+03 -0.13035848236E+02 -0.12654432939E+03  0.27201953743E+03  0.12500000000E+03 0.  0.
         25    1    1    2    0    0 -0.16934178640E+03 -0.70749168833E+02  0.37848623377E+03  0.43881535373E+03  0.12500000000E+03 0.  0.
         25    1    1    2    0    0 -0.36051076434E+02  0.83785017069E+02  0.50273402834E+03  0.52600961251E+03  0.12500000000E+03 0.  0.
</event>
<event>
 5    0  0.5778875E-005  0.3781997E+03  0.7546771E-02  0.1051601E+00
         21   -1    0    0  502  501  0.00000000000E+00  0.00000000000E+00  0.31375804001E+03  0.31375804001E+03  0.00000000000E+00 0. -1.
         21   -1    0    0  501  502 -0.00000000000E+00 -0.00000000000E+00 -0.45587690280E+03  0.45587690280E+03  0.00000000000E+00 0. -1.
         25    1    1    2    0    0  0.40632095839E+02  0.70006399054E+02  0.36908146757E+02  0.15342449093E+03  0.12500000000E+03 0.  0.
         25    1    1    2    0    0  0.51746935781E+02  0.16038811332E+03  0.91002108227E+02  0.22871046316E+03  0.12500000000E+03 0.  0.
         25    1    1    2    0    0 -0.92379031619E+02 -0.23039451237E+03 -0.27002911778E+03  0.38749998872E+03  0.12500000000E+03 0.  0.
</event>
<event>
 5    0  0.5778875E-005  0.5158609E+03  0.7546771E-02  0.1009720E+00
         21   -1    0    0  502  501  0.00000000000E+00  0.00000000000E+00  0.28567475420E+03  0.28567475420E+03  0.00000000000E+00 0.  1.
         21   -1    0    0  501  502 -0.00000000000E+00 -0.00000000000E+00 -0.93152238159E+03  0.93152238159E+03  0.00000000000E+00 0.  1.
         25    1    1    2    0    0 -0.41529485137E+02 -0.16464831290E+03 -0.36429787670E+03  0.42091769747E+03  0.12500000000E+03 0.  0.
         25    1    1    2    0    0 -0.31293781248E+03  0.33979335443E+02 -0.70878219915E+02  0.34602513171E+03  0.12500000000E+03 0.  0.
         25    1    1    2    0    0  0.35446729761E+03  0.13066897746E+03 -0.21067153078E+03  0.45025430662E+03  0.12500000000E+03 0.  0.
</event>
<event>
 5    0  0.5778875E-005  0.2850204E+03  0.7546771E-02  0.1092978E+00
         21   -1    0    0  502  501  0.00000000000E+00  0.00000000000E+00  0.18032647466E+03  0.18032647466E+03  0.00000000000E+00 0. -1.
         21   -1    0    0  501  502 -0.00000000000E+00 -0.00000000000E+00 -0.45049736822E+03  0.45049736822E+03  0.00000000000E+00 0. -1.
         25    1    1    2    0    0 -0.14088318106E+03  0.62609887458E+02 -0.48732421473E+02  0.20437200791E+03  0.12500000000E+03 0.  0.
         25    1    1    2    0    0  0.77628101415E+02  0.16551188608E+02  0.55952298024E+01  0.14817682197E+03  0.12500000000E+03 0.  0.
         25    1    1    2    0    0  0.63255079644E+02 -0.79161076066E+02 -0.22703370189E+03  0.27827501300E+03  0.12500000000E+03 0.  0.
</event>
<event>
 5    0  0.5778875E-005  0.2766892E+03  0.7546771E-02  0.1097511E+00
         21   -1    0    0  502  501  0.00000000000E+00  0.00000000000E+00  0.16468313456E+03  0.16468313456E+03  0.00000000000E+00 0.  1.
         21   -1    0    0  501  502 -0.00000000000E+00 -0.00000000000E+00 -0.46487401922E+03  0.46487401922E+03  0.00000000000E+00 0.  1.
         25    1    1    2    0    0 -0.14044898676E+03 -0.15035192017E+02 -0.11681765115E+03  0.22186333293E+03  0.12500000000E+03 0.  0.
         25    1    1    2    0    0  0.50842772612E+02  0.10196056819E+03 -0.15373302247E+03  0.22856024849E+03  0.12500000000E+03 0.  0.
         25    1    1    2    0    0  0.89606214147E+02 -0.86925376168E+02 -0.29640211045E+02  0.17913357236E+03  0.12500000000E+03 0.  0.
</event>
<event>
 5    0  0.7330226E-005  0.3424263E+03  0.7546771E-02  0.1065767E+00
         21   -1    0    0  502  501  0.00000000000E+00  0.00000000000E+00  0.51501415226E+03  0.51501415226E+03  0.00000000000E+00 0.  1.
         21   -1    0    0  501  502 -0.00000000000E+00 -0.00000000000E+00 -0.22767486086E+03  0.22767486086E+03  0.00000000000E+00 0.  1.
         25    1    1    2    0    0  0.10066127363E+03 -0.11840680809E+03  0.16230629724E+03  0.25714042533E+03  0.12500000000E+03 0.  0.
         25    1    1    2    0    0 -0.12472720921E+03 -0.83798405242E+02 -0.34180693355E+02  0.19842471932E+03  0.12500000000E+03 0.  0.
         25    1    1    2    0    0  0.24065935580E+02  0.20220521334E+03  0.15921368751E+03  0.28712386847E+03  0.12500000000E+03 0.  0.
</event>
<event>
 5    0  0.5778875E-005  0.4824848E+03  0.7546771E-02  0.1018455E+00
         21   -1    0    0  502  501  0.00000000000E+00  0.00000000000E+00  0.81611177634E+03  0.81611177634E+03  0.00000000000E+00 0. -1.
         21   -1    0    0  501  502 -0.00000000000E+00 -0.00000000000E+00 -0.28524472070E+03  0.28524472070E+03  0.00000000000E+00 0. -1.
         25    1    1    2    0    0  0.60575835716E+02  0.16917948206E+03  0.47348025157E+03  0.52163174524E+03  0.12500000000E+03 0.  0.
         25    1    1    2    0    0 -0.14807861491E+03 -0.30809515326E+03  0.78371230538E+02  0.37231297242E+03  0.12500000000E+03 0.  0.
         25    1    1    2    0    0  0.87502779195E+02  0.13891567120E+03 -0.20984426468E+02  0.20741177938E+03  0.12500000000E+03 0.  0.
</event>
<event>
 5    0  0.5778875E-005  0.3184749E+03  0.7546771E-02  0.1076353E+00
         21   -1    0    0  502  501  0.00000000000E+00  0.00000000000E+00  0.12012372677E+04  0.12012372677E+04  0.00000000000E+00 0.  1.
         21   -1    0    0  501  502 -0.00000000000E+00 -0.00000000000E+00 -0.84434803431E+02  0.84434803431E+02  0.00000000000E+00 0.  1.
         25    1    1    2    0    0 -0.86724580028E+02  0.54292296216E+02  0.91025544866E+02  0.18541697880E+03  0.12500000000E+03 0.  0.
         25    1    1    2    0    0  0.96015305947E+02 -0.10542772513E+03  0.25554537348E+03  0.31821750754E+03  0.12500000000E+03 0.  0.
         25    1    1    2    0    0 -0.92907259187E+01  0.51135428913E+02  0.77023154594E+03  0.78203758480E+03  0.12500000000E+03 0.  0.
</event>
<event>
 5    0  0.5778875E-005  0.2272666E+03  0.7546771E-02  0.1128579E+00
         21   -1    0    0  502  501  0.00000000000E+00  0.00000000000E+00  0.16742277941E+03  0.16742277941E+03  0.00000000000E+00 0. -1.
         21   -1    0    0  501  502 -0.00000000000E+00 -0.00000000000E+00 -0.30850103501E+03  0.30850103501E+03  0.00000000000E+00 0. -1.
         25    1    1    2    0    0 -0.21712494758E+02 -0.64810048581E+02 -0.60630667444E+02  0.15483169140E+03  0.12500000000E+03 0.  0.
         25    1    1    2    0    0 -0.49421472503E+01  0.30778623947E+02  0.47272768323E+02  0.13722777830E+03  0.12500000000E+03 0.  0.
         25    1    1    2    0    0  0.26654642009E+02  0.34031424634E+02 -0.12772035648E+03  0.18386434473E+03  0.12500000000E+03 0.  0.
</event>
<event>
 5    0  0.5778875E-005  0.3984064E+03  0.7546771E-02  0.1044333E+00
         21   -1    0    0  502  501  0.00000000000E+00  0.00000000000E+00  0.41348577556E+03  0.41348577556E+03  0.00000000000E+00 0. -1.
         21   -1    0    0  501  502 -0.00000000000E+00 -0.00000000000E+00 -0.38387704530E+03  0.38387704530E+03  0.00000000000E+00 0. -1.
         25    1    1    2    0    0  0.10251604689E+03 -0.15863321265E+03 -0.11027635964E+03  0.25191250767E+03  0.12500000000E+03 0.  0.
         25    1    1    2    0    0  0.13471406068E+03 -0.10409947154E+02  0.13527906199E+03  0.22843307501E+03  0.12500000000E+03 0.  0.
         25    1    1    2    0    0 -0.23723010756E+03  0.16904315980E+03  0.46060279154E+01  0.31701723818E+03  0.12500000000E+03 0.  0.
</event>
<event>
 5    0  0.5778875E-005  0.3950748E+03  0.7546771E-02  0.1045499E+00
         21   -1    0    0  502  501  0.00000000000E+00  0.00000000000E+00  0.11362077409E+04  0.11362077409E+04  0.00000000000E+00 0.  1.
         21   -1    0    0  501  502 -0.00000000000E+00 -0.00000000000E+00 -0.13737282933E+03  0.13737282933E+03  0.00000000000E+00 0.  1.
         25    1    1    2    0    0 -0.91511003272E+02 -0.12016576240E+02  0.17772576334E+02  0.15639541647E+03  0.12500000000E+03 0.  0.
         25    1    1    2    0    0 -0.13160343223E+03 -0.53340483360E+02  0.72556304951E+03  0.74982091819E+03  0.12500000000E+03 0.  0.
         25    1    1    2    0    0  0.22311443551E+03  0.65357059600E+02  0.25549928574E+03  0.36736423558E+03  0.12500000000E+03 0.  0.
</event>
<event>
 5    0  0.5778875E-005  0.3765815E+03  0.7546771E-02  0.1052205E+00
         21   -1    0    0  502  501  0.00000000000E+00  0.00000000000E+00  0.22508006699E+03  0.22508006699E+03  0.00000000000E+00 0. -1.
         21   -1    0    0  501  502 -0.00000000000E+00 -0.00000000000E+00 -0.63005865591E+03  0.63005865591E+03  0.00000000000E+00 0. -1.
         25    1    1    2    0    0 -0.23564346079E+02 -0.94851455682E+01 -0.56280858599E+02  0.13941944426E+03  0.12500000000E+03 0.  0.
         25    1    1    2    0    0 -0.20406700277E+03  0.14718020226E+03 -0.30601613772E+02  0.28260716962E+03  0.12500000000E+03 0.  0.
         25    1    1    2    0    0  0.22763134885E+03 -0.13769505669E+03 -0.31809611654E+03  0.43311210902E+03  0.12500000000E+03 0.  0.
</event>
<event>
 5    0  0.5778875E-005  0.3790099E+03  0.7546771E-02  0.1051300E+00
         21   -1    0    0  502  501  0.00000000000E+00  0.00000000000E+00  0.90708931910E+03  0.90708931910E+03  0.00000000000E+00 0. -1.
         21   -1    0    0  501  502 -0.00000000000E+00 -0.00000000000E+00 -0.15836199986E+03  0.15836199986E+03  0.00000000000E+00 0. -1.
         25    1    1    2    0    0  0.19678292470E+03 -0.62154214645E+02  0.30600232991E+03  0.38967819000E+03  0.12500000000E+03 0.  0.
         25    1    1    2    0    0  0.74648241759E+02 -0.65981733327E+02  0.53394534139E+02  0.16852870796E+03  0.12500000000E+03 0.  0.
         25    1    1    2    0    0 -0.27143116646E+03  0.12813594797E+03  0.38933045520E+03  0.50724442100E+03  0.12500000000E+03 0.  0.
</event>
<event>
 5    0  0.5778875E-005  0.4951284E+03  0.7546771E-02  0.1015058E+00
         21   -1    0    0  502  501  0.00000000000E+00  0.00000000000E+00  0.39747684137E+03  0.39747684137E+03  0.00000000000E+00 0.  1.
         21   -1    0    0  501  502 -0.00000000000E+00 -0.00000000000E+00 -0.61677090877E+03  0.61677090877E+03  0.00000000000E+00 0.  1.
         25    1    1    2    0    0  0.28571489864E+03  0.28216600031E+03 -0.27193502277E+03  0.50082363327E+03  0.12500000000E+03 0.  0.
         25    1    1    2    0    0 -0.14772773088E+03 -0.23527660307E+03  0.90357042361E+02  0.31775455548E+03  0.12500000000E+03 0.  0.
         25    1    1    2    0    0 -0.13798716776E+03 -0.46889397238E+02 -0.37716086994E+02  0.19566956140E+03  0.12500000000E+03 0.  0.
</event>
<event>
 5    0  0.5778875E-005  0.3263007E+03  0.7546771E-02  0.1072786E+00
         21   -1    0    0  502  501  0.00000000000E+00  0.00000000000E+00  0.95608760428E+03  0.95608760428E+03  0.00000000000E+00 0. -1.
         21   -1    0    0  501  502 -0.00000000000E+00 -0.00000000000E+00 -0.11136233362E+03  0.11136233362E+03  0.00000000000E+00 0. -1.
         25    1    1    2    0    0  0.37194828810E+02 -0.12766632319E+02  0.41175181099E+03  0.43210067814E+03  0.12500000000E+03 0.  0.
         25    1    1    2    0    0  0.15911740957E+03 -0.60912170239E+02  0.13764459481E+03  0.25218976386E+03  0.12500000000E+03 0.  0.
         25    1    1    2    0    0 -0.19631223838E+03  0.73678802558E+02  0.29532886485E+03  0.38315949590E+03  0.12500000000E+03 0.  0.
</event>
<event>
 5    0  0.5778875E-005  0.3249661E+03  0.7546771E-02  0.1073386E+00
         21   -1    0    0  502  501  0.00000000000E+00  0.00000000000E+00  0.30578844800E+03  0.30578844800E+03  0.00000000000E+00 0. -1.
         21   -1    0    0  501  502 -0.00000000000E+00 -0.00000000000E+00 -0.34534642370E+03  0.34534642370E+03  0.00000000000E+00 0. -1.
         25    1    1    2    0    0  0.15200692070E+03  0.92958408275E+02  0.11832848211E+03  0.24773776315E+03  0.12500000000E+03 0.  0.
         25    1    1    2    0    0  0.18493424101E+02 -0.94951915863E+02 -0.48378987364E+02  0.16529791130E+03  0.12500000000E+03 0.  0.
         25    1    1    2    0    0 -0.17050034481E+03  0.19935075885E+01 -0.10950747045E+03  0.23809919726E+03  0.12500000000E+03 0.  0.
</event>
<event>
 5    0  0.5778875E-005  0.2350508E+03  0.7546771E-02  0.1123134E+00
         21   -1    0    0  502  501  0.00000000000E+00  0.00000000000E+00  0.80801176021E+03  0.80801176021E+03  0.00000000000E+00 0. -1.
         21   -1    0    0  501  502 -0.00000000000E+00 -0.00000000000E+00 -0.68376351077E+02  0.68376351077E+02  0.00000000000E+00 0. -1.
         25    1    1    2    0    0 -0.39785146641E+02 -0.91185701390E+02  0.14897438431E+03  0.21844005405E+03  0.12500000000E+03 0.  0.
         25    1    1    2    0    0  0.17620613830E+02  0.58887969155E+02  0.18445417245E+03  0.23114199246E+03  0.12500000000E+03 0.  0.
         25    1    1    2    0    0  0.22164532811E+02  0.32297732235E+02  0.40620685236E+03  0.42680606477E+03  0.12500000000E+03 0.  0.
</event>
<event>
 5    0  0.5778875E-005  0.2796381E+03  0.7546771E-02  0.1095887E+00
         21   -1    0    0  502  501  0.00000000000E+00  0.00000000000E+00  0.13167652537E+03  0.13167652537E+03  0.00000000000E+00 0. -1.
         21   -1    0    0  501  502 -0.00000000000E+00 -0.00000000000E+00 -0.59386031344E+03  0.59386031344E+03  0.00000000000E+00 0. -1.
         25    1    1    2    0    0 -0.11729966774E+03  0.66570576734E+02 -0.97757135228E+02  0.20826020077E+03  0.12500000000E+03 0.  0.
         25    1    1    2    0    0 -0.45769776387E+02 -0.43802616114E+02 -0.23428559562E+03  0.27299868484E+03  0.12500000000E+03 0.  0.
         25    1    1    2    0    0  0.16306944413E+03 -0.22767960619E+02 -0.13014105722E+03  0.24427795319E+03  0.12500000000E+03 0.  0.
</event>
<event>
 5    0  0.5778875E-005  0.2610633E+03  0.7546771E-02  0.1106506E+00
         21   -1    0    0  502  501  0.00000000000E+00  0.00000000000E+00  0.10831538068E+03  0.10831538068E+03  0.00000000000E+00 0.  1.
         21   -1    0    0  501  502 -0.00000000000E+00 -0.00000000000E+00 -0.62921855561E+03  0.62921855561E+03  0.00000000000E+00 0.  1.
         25    1    1    2    0    0 -0.88541173958E+02 -0.21168295600E+02 -0.10697855037E+03  0.18803469484E+03  0.12500000000E+03 0.  0.
         25    1    1    2    0    0  0.65511998721E+02 -0.11690643049E+02 -0.31367485490E+02  0.14504279457E+03  0.12500000000E+03 0.  0.
         25    1    1    2    0    0  0.23029175237E+02  0.32858938650E+02 -0.38255713907E+03  0.40445644687E+03  0.12500000000E+03 0.  0.
</event>
<event>
 5    0  0.5778875E-005  0.3879019E+03  0.7546771E-02  0.1048051E+00
         21   -1    0    0  502  501  0.00000000000E+00  0.00000000000E+00  0.87367575041E+03  0.87367575041E+03  0.00000000000E+00 0.  1.
         21   -1    0    0  501  502 -0.00000000000E+00 -0.00000000000E+00 -0.17222393093E+03  0.17222393093E+03  0.00000000000E+00 0.  1.
         25    1    1    2    0    0 -0.34843035877E+02  0.29313464850E+03  0.16475027388E+03  0.36042976021E+03  0.12500000000E+03 0.  0.
         25    1    1    2    0    0 -0.13648861027E+02 -0.29677383858E+02  0.13674549768E+03  0.18812594094E+03  0.12500000000E+03 0.  0.
         25    1    1    2    0    0  0.48491896904E+02 -0.26345726464E+03  0.39995604792E+03  0.49734398018E+03  0.12500000000E+03 0.  0.
</event>
<event>
 5    0  0.5778875E-005  0.2965551E+03  0.7546771E-02  0.1086975E+00
         21   -1    0    0  502  501  0.00000000000E+00  0.00000000000E+00  0.11904232513E+03  0.11904232513E+03  0.00000000000E+00 0. -1.
         21   -1    0    0  501  502 -0.00000000000E+00 -0.00000000000E+00 -0.73877012602E+03  0.73877012602E+03  0.00000000000E+00 0. -1.
         25    1    1    2    0    0  0.13988585649E+02 -0.78572135381E+02 -0.22959013995E+03  0.27332378848E+03  0.12500000000E+03 0.  0.
         25    1    1    2    0    0 -0.78739935966E+02  0.17526148127E+03 -0.33326878889E+03  0.40448689717E+03  0.12500000000E+03 0.  0.
         25    1    1    2    0    0  0.64751350317E+02 -0.96689345892E+02 -0.56868872045E+02  0.18000176550E+03  0.12500000000E+03 0.  0.
</event>
<event>
 5    0  0.5778875E-005  0.2962207E+03  0.7546771E-02  0.1087145E+00
         21   -1    0    0  502  501  0.00000000000E+00  0.00000000000E+00  0.80265925434E+02  0.80265925434E+02  0.00000000000E+00 0.  1.
         21   -1    0    0  501  502 -0.00000000000E+00 -0.00000000000E+00 -0.10931999975E+04  0.10931999975E+04  0.00000000000E+00 0.  1.
         25    1    1    2    0    0  0.44628616239E+02 -0.24889844808E+01 -0.70920436309E+03  0.72152182022E+03  0.12500000000E+03 0.  0.
         25    1    1    2    0    0  0.60961963480E+02  0.19990556657E+02 -0.49235012382E+02  0.14887938001E+03  0.12500000000E+03 0.  0.
         25    1    1    2    0    0 -0.10559057972E+03 -0.17501572176E+02 -0.25449469659E+03  0.30306472270E+03  0.12500000000E+03 0.  0.
</event>
<event>
 5    0  0.5778875E-005  0.2927671E+03  0.7546771E-02  0.1088913E+00
         21   -1    0    0  502  501  0.00000000000E+00  0.00000000000E+00  0.10311335675E+03  0.10311335675E+03  0.00000000000E+00 0.  1.
         21   -1    0    0  501  502 -0.00000000000E+00 -0.00000000000E+00 -0.83124590846E+03  0.83124590846E+03  0.00000000000E+00 0.  1.
         25    1    1    2    0    0 -0.41722558133E+02  0.97632273258E+02 -0.41004808082E+03  0.44163023132E+03  0.12500000000E+03 0.  0.
         25    1    1    2    0    0 -0.36340436628E+02 -0.16606084878E+03 -0.20922942943E+03  0.29715111807E+03  0.12500000000E+03 0.  0.
         25    1    1    2    0    0  0.78062994760E+02  0.68428575522E+02 -0.10885504147E+03  0.19557791581E+03  0.12500000000E+03 0.  0.
</event>
<event>
 5    0  0.5778875E-005  0.2977497E+03  0.7546771E-02  0.1086371E+00
         21   -1    0    0  502  501  0.00000000000E+00  0.00000000000E+00  0.40995275870E+03  0.40995275870E+03  0.00000000000E+00 0.  1.
         21   -1    0    0  501  502 -0.00000000000E+00 -0.00000000000E+00 -0.21625628942E+03  0.21625628942E+03  0.00000000000E+00 0.  1.
         25    1    1    2    0    0 -0.46725566754E+00 -0.86143717970E+02  0.44231018052E+02  0.15812128709E+03  0.12500000000E+03 0.  0.
         25    1    1    2    0    0 -0.17073336025E+03  0.19206620555E+02  0.11953192237E+03  0.24378608460E+03  0.12500000000E+03 0.  0.
         25    1    1    2    0    0  0.17120061592E+03  0.66937097415E+02  0.29933528855E+02  0.22430167644E+03  0.12500000000E+03 0.  0.
</event>
<event>
 5    0  0.6271010E-005  0.2916360E+03  0.7546771E-02  0.1089498E+00
         21   -1    0    0  502  501  0.00000000000E+00  0.00000000000E+00  0.81340879791E+02  0.81340879791E+02  0.00000000000E+00 0.  1.
         21   -1    0    0  501  502 -0.00000000000E+00 -0.00000000000E+00 -0.10456185196E+04  0.10456185196E+04  0.00000000000E+00 0.  1.
         25    1    1    2    0    0  0.12446932408E+03 -0.32038537474E+02 -0.63251238111E+03  0.65743135975E+03  0.12500000000E+03 0.  0.
         25    1    1    2    0    0 -0.11843519727E+03 -0.36471956650E+02 -0.24789888481E+03  0.30403282169E+03  0.12500000000E+03 0.  0.
         25    1    1    2    0    0 -0.60341268120E+01  0.68510494125E+02 -0.83866373851E+02  0.16549521792E+03  0.12500000000E+03 0.  0.
</event>
<event>
 5    0  0.5778875E-005  0.4640774E+03  0.7546771E-02  0.1023605E+00
         21   -1    0    0  502  501  0.00000000000E+00  0.00000000000E+00  0.27375121579E+03  0.27375121579E+03  0.00000000000E+00 0. -1.
         21   -1    0    0  501  502 -0.00000000000E+00 -0.00000000000E+00 -0.78672826014E+03  0.78672826014E+03  0.00000000000E+00 0.  1.
         25    1    1    2    0    0  0.10088308799E+02 -0.34941670668E+03  0.22847641715E+02  0.37194196269E+03  0.12500000000E+03 0.  0.
         25    1    1    2    0    0 -0.16969540882E+02  0.14530425056E+03 -0.22172953219E+03  0.29358180461E+03  0.12500000000E+03 0.  0.
         25    1    1    2    0    0  0.68812320826E+01  0.20411245612E+03 -0.31409515387E+03  0.39495570863E+03  0.12500000000E+03 0.  0.
</event>
<event>
 5    0  0.5778875E-005  0.4764725E+03  0.7546771E-02  0.1020109E+00
         21   -1    0    0  502  501  0.00000000000E+00  0.00000000000E+00  0.39309693744E+04  0.39309693744E+04  0.00000000000E+00 0.  1.
         21   -1    0    0  501  502 -0.00000000000E+00 -0.00000000000E+00 -0.57753185381E+02  0.57753185381E+02  0.00000000000E+00 0.  1.
         25    1    1    2    0    0 -0.97848199109E+02 -0.12142158512E+03  0.17605753269E+03  0.26634324887E+03  0.12500000000E+03 0.  0.
         25    1    1    2    0    0  0.73945458268E+02 -0.25798451817E+02  0.28216903621E+04  0.28255433089E+04  0.12500000000E+03 0.  0.
         25    1    1    2    0    0  0.23902740841E+02  0.14722003694E+03  0.87546829421E+03  0.89683600198E+03  0.12500000000E+03 0.  0.
</event>
<event>
 5    0  0.5778875E-005  0.3774196E+03  0.7546771E-02  0.1051892E+00
         21   -1    0    0  502  501  0.00000000000E+00  0.00000000000E+00  0.24416952738E+03  0.24416952738E+03  0.00000000000E+00 0.  1.
         21   -1    0    0  501  502 -0.00000000000E+00 -0.00000000000E+00 -0.58338797374E+03  0.58338797374E+03  0.00000000000E+00 0.  1.
         25    1    1    2    0    0  0.43679925815E+02 -0.99849458395E+02  0.61211037879E+01  0.16595275886E+03  0.12500000000E+03 0.  0.
         25    1    1    2    0    0  0.17274164639E+03 -0.91917183640E+02 -0.22806184460E+03  0.32546220980E+03  0.12500000000E+03 0.  0.
         25    1    1    2    0    0 -0.21642157221E+03  0.19176664203E+03 -0.11727770555E+03  0.33614253247E+03  0.12500000000E+03 0.  0.
</event>
<event>
 5    0  0.5778875E-005  0.3634639E+03  0.7546771E-02  0.1057221E+00
         21   -1    0    0  502  501  0.00000000000E+00  0.00000000000E+00  0.56340464567E+03  0.56340464567E+03  0.00000000000E+00 0. -1.
         21   -1    0    0  501  502 -0.00000000000E+00 -0.00000000000E+00 -0.23447806428E+03  0.23447806428E+03  0.00000000000E+00 0. -1.
         25    1    1    2    0    0  0.21025088673E+03 -0.68698310959E+01  0.12265802482E+03  0.27371996822E+03  0.12500000000E+03 0.  0.
         25    1    1    2    0    0 -0.27567100551E+02 -0.14109826707E+03  0.53146698901E+01  0.19058308351E+03  0.12500000000E+03 0.  0.
         25    1    1    2    0    0 -0.18268378618E+03  0.14796809816E+03  0.20095388668E+03  0.33357965822E+03  0.12500000000E+03 0.  0.
</event>
<event>
 5    0  0.5778875E-005  0.2860125E+03  0.7546771E-02  0.1092450E+00
         21   -1    0    0  502  501  0.00000000000E+00  0.00000000000E+00  0.22551021565E+03  0.22551021565E+03  0.00000000000E+00 0.  1.
         21   -1    0    0  501  502 -0.00000000000E+00 -0.00000000000E+00 -0.36274685987E+03  0.36274685987E+03  0.00000000000E+00 0.  1.
         25    1    1    2    0    0 -0.89630155142E+02  0.11749598483E+03  0.13437518528E+02  0.19402174637E+03  0.12500000000E+03 0.  0.
         25    1    1    2    0    0 -0.19602515846E+02 -0.14350688047E+03 -0.11243108468E+03  0.22191041474E+03  0.12500000000E+03 0.  0.
         25    1    1    2    0    0  0.10923267099E+03  0.26010895638E+02 -0.38243078060E+02  0.17232491440E+03  0.12500000000E+03 0.  0.
</event>
<event>
 5    0  0.5778875E-005  0.3334655E+03  0.7546771E-02  0.1069614E+00
         21   -1    0    0  502  501  0.00000000000E+00  0.00000000000E+00  0.69275213076E+02  0.69275213076E+02  0.00000000000E+00 0. -1.
         21   -1    0    0  501  502 -0.00000000000E+00 -0.00000000000E+00 -0.16051809331E+04  0.16051809331E+04  0.00000000000E+00 0. -1.
         25    1    1    2    0    0 -0.24741941007E+02 -0.20812565975E+03 -0.69573888303E+03  0.73729644462E+03  0.12500000000E+03 0.  0.
         25    1    1    2    0    0  0.10470200699E+03  0.16883277555E+02 -0.43917865906E+03  0.46877547920E+03  0.12500000000E+03 0.  0.
         25    1    1    2    0    0 -0.79960065988E+02  0.19124238219E+03 -0.40098817789E+03  0.46838422231E+03  0.12500000000E+03 0.  0.
</event>
<event>
 5    0  0.5778875E-005  0.2439073E+03  0.7546771E-02  0.1117217E+00
         21   -1    0    0  502  501  0.00000000000E+00  0.00000000000E+00  0.98895659884E+03  0.98895659884E+03  0.00000000000E+00 0. -1.
         21   -1    0    0  501  502 -0.00000000000E+00 -0.00000000000E+00 -0.60155089474E+02  0.60155089474E+02  0.00000000000E+00 0. -1.
         25    1    1    2    0    0  0.23302334400E+02 -0.99233547322E+02  0.17074674378E+03  0.23488240933E+03  0.12500000000E+03 0.  0.
         25    1    1    2    0    0  0.23897590541E+02  0.11657779438E+02  0.44182410414E+03  0.45993536247E+03  0.12500000000E+03 0.  0.
         25    1    1    2    0    0 -0.47199924941E+02  0.87575767884E+02  0.31623066145E+03  0.35429391651E+03  0.12500000000E+03 0.  0.
</event>
<event>
 5    0  0.5778875E-005  0.2598803E+03  0.7546771E-02  0.1107215E+00
         21   -1    0    0  502  501  0.00000000000E+00  0.00000000000E+00  0.47778803060E+03  0.47778803060E+03  0.00000000000E+00 0.  1.
         21   -1    0    0  501  502 -0.00000000000E+00 -0.00000000000E+00 -0.14135510066E+03  0.14135510066E+03  0.00000000000E+00 0.  1.
         25    1    1    2    0    0 -0.15935830266E+02  0.12184066467E+03  0.51392109499E+02  0.18266156458E+03  0.12500000000E+03 0.  0.
         25    1    1    2    0    0 -0.37359696397E+02 -0.24458509017E+02  0.37780986194E+02  0.13800858124E+03  0.12500000000E+03 0.  0.
         25    1    1    2    0    0  0.53295526663E+02 -0.97382155657E+02  0.24725983425E+03  0.29847298544E+03  0.12500000000E+03 0.  0.
</event>
<event>
 5    0  0.5778875E-005  0.2714644E+03  0.7546771E-02  0.1100444E+00
         21   -1    0    0  502  501  0.00000000000E+00  0.00000000000E+00  0.59357233722E+02  0.59357233722E+02  0.00000000000E+00 0. -1.
         21   -1    0    0  501  502 -0.00000000000E+00 -0.00000000000E+00 -0.12415152664E+04  0.12415152664E+04  0.00000000000E+00 0. -1.
         25    1    1    2    0    0  0.15337455008E+02  0.81020144828E+02 -0.89517958874E+02  0.17446479976E+03  0.12500000000E+03 0.  0.
         25    1    1    2    0    0 -0.13538080091E+02 -0.75919226598E+02 -0.52615729741E+03  0.54627237730E+03  0.12500000000E+03 0.  0.
         25    1    1    2    0    0 -0.17993749162E+01 -0.51009182302E+01 -0.56648277635E+03  0.58013532303E+03  0.12500000000E+03 0.  0.
</event>
<event>
 5    0  0.5778875E-005  0.3795799E+03  0.7546771E-02  0.1051089E+00
         21   -1    0    0  502  501  0.00000000000E+00  0.00000000000E+00  0.17531918604E+03  0.17531918604E+03  0.00000000000E+00 0.  1.
         21   -1    0    0  501  502 -0.00000000000E+00 -0.00000000000E+00 -0.82182058916E+03  0.82182058916E+03  0.00000000000E+00 0.  1.
         25    1    1    2    0    0  0.14721149893E+02  0.15892615061E+03 -0.36381510799E+03  0.41648609389E+03  0.12500000000E+03 0.  0.
         25    1    1    2    0    0  0.19409495633E+02 -0.38103543426E+02 -0.36288137288E+03  0.38618195107E+03  0.12500000000E+03 0.  0.
         25    1    1    2    0    0 -0.34130645527E+02 -0.12082260719E+03  0.80195077750E+02  0.19447173025E+03  0.12500000000E+03 0.  0.
</event>
<event>
 5    0  0.5778875E-005  0.3208389E+03  0.7546771E-02  0.1075264E+00
         21   -1    0    0  502  501  0.00000000000E+00  0.00000000000E+00  0.27642211397E+03  0.27642211397E+03  0.00000000000E+00 0. -1.
         21   -1    0    0  501  502 -0.00000000000E+00 -0.00000000000E+00 -0.37239282244E+03  0.37239282244E+03  0.00000000000E+00 0. -1.
         25    1    1    2    0    0  0.53675120433E+02 -0.79096518900E+02 -0.69035661270E+02  0.17183771525E+03  0.12500000000E+03 0.  0.
         25    1    1    2    0    0 -0.16329139778E+03  0.18589837924E+03  0.22952271981E+01  0.27722293567E+03  0.12500000000E+03 0.  0.
         25    1    1    2    0    0  0.10961627734E+03 -0.10680186034E+03 -0.29230274404E+02  0.19975428549E+03  0.12500000000E+03 0.  0.
</event>
<event>
 5    0  0.5778875E-005  0.2804068E+03  0.7546771E-02  0.1095467E+00
         21   -1    0    0  502  501  0.00000000000E+00  0.00000000000E+00  0.24844247958E+03  0.24844247958E+03  0.00000000000E+00 0.  1.
         21   -1    0    0  501  502 -0.00000000000E+00 -0.00000000000E+00 -0.31648363518E+03  0.31648363518E+03  0.00000000000E+00 0. -1.
         25    1    1    2    0    0 -0.23342290454E+02  0.87457357544E+01 -0.23970052300E+02  0.12969546571E+03  0.12500000000E+03 0.  0.
         25    1    1    2    0    0  0.18129709624E+03 -0.30012220039E+02 -0.65110706704E+02  0.23158966856E+03  0.12500000000E+03 0.  0.
         25    1    1    2    0    0 -0.15795480579E+03  0.21266484284E+02  0.21039603396E+02  0.20364098049E+03  0.12500000000E+03 0.  0.
</event>
<event>
 5    0  0.5778875E-005  0.2990278E+03  0.7546771E-02  0.1085728E+00
         21   -1    0    0  502  501  0.00000000000E+00  0.00000000000E+00  0.86817658387E+02  0.86817658387E+02  0.00000000000E+00 0. -1.
         21   -1    0    0  501  502 -0.00000000000E+00 -0.00000000000E+00 -0.10299471308E+04  0.10299471308E+04  0.00000000000E+00 0. -1.
         25    1    1    2    0    0 -0.94502922049E+02  0.23203289736E+02 -0.90264716816E+02  0.18232365187E+03  0.12500000000E+03 0.  0.
         25    1    1    2    0    0  0.13568277987E+03 -0.86754963229E+02 -0.30092187219E+03  0.36347656535E+03  0.12500000000E+03 0.  0.
         25    1    1    2    0    0 -0.41179857819E+02  0.63551673494E+02 -0.55194288345E+03  0.57096457200E+03  0.12500000000E+03 0.  0.
</event>
<event>
 5    0  0.5778875E-005  0.5153333E+03  0.7546771E-02  0.1009852E+00
         21   -1    0    0  502  501  0.00000000000E+00  0.00000000000E+00  0.52185367773E+03  0.52185367773E+03  0.00000000000E+00 0.  1.
         21   -1    0    0  501  502 -0.00000000000E+00 -0.00000000000E+00 -0.50889435556E+03  0.50889435556E+03  0.00000000000E+00 0.  1.
         25    1    1    2    0    0 -0.19549850633E+02  0.56804076518E+02 -0.17590555867E+03  0.22400148513E+03  0.12500000000E+03 0.  0.
         25    1    1    2    0    0  0.35829489688E+03 -0.10736248306E+03 -0.37771110309E+01  0.39438712259E+03  0.12500000000E+03 0.  0.
         25    1    1    2    0    0 -0.33874504625E+03  0.50558406542E+02  0.19264199187E+03  0.41235942558E+03  0.12500000000E+03 0.  0.
</event>
<event>
 5    0  0.5778875E-005  0.3490729E+03  0.7546771E-02  0.1062996E+00
         21   -1    0    0  502  501  0.00000000000E+00  0.00000000000E+00  0.23463783734E+03  0.23463783734E+03  0.00000000000E+00 0. -1.
         21   -1    0    0  501  502 -0.00000000000E+00 -0.00000000000E+00 -0.51931894705E+03  0.51931894705E+03  0.00000000000E+00 0. -1.
         25    1    1    2    0    0  0.14714409186E+01  0.11508453265E+03 -0.47272611163E+02  0.17636982327E+03  0.12500000000E+03 0.  0.
         25    1    1    2    0    0  0.84908415378E+02 -0.35070326224E+02  0.10992214028E+03  0.19012428490E+03  0.12500000000E+03 0.  0.
         25    1    1    2    0    0 -0.86379856296E+02 -0.80014206423E+02 -0.34733063882E+03  0.38746267623E+03  0.12500000000E+03 0.  0.
</event>
<event>
 5    0  0.5778875E-005  0.2309209E+03  0.7546771E-02  0.1125993E+00
         21   -1    0    0  502  501  0.00000000000E+00  0.00000000000E+00  0.14279308551E+04  0.14279308551E+04  0.00000000000E+00 0. -1.
         21   -1    0    0  501  502 -0.00000000000E+00 -0.00000000000E+00 -0.37343883716E+02  0.37343883716E+02  0.00000000000E+00 0. -1.
         25    1    1    2    0    0  0.48534211261E+02  0.48031144592E+02  0.62059591897E+03  0.63673138383E+03  0.12500000000E+03 0.  0.
         25    1    1    2    0    0 -0.44322948784E+02 -0.10370004013E+03  0.45200256414E+03  0.48233757898E+03  0.12500000000E+03 0.  0.
         25    1    1    2    0    0 -0.42112624774E+01  0.55668895539E+02  0.31798848830E+03  0.34620577602E+03  0.12500000000E+03 0.  0.
</event>
<event>
 5    0  0.5778875E-005  0.2712671E+03  0.7546771E-02  0.1100557E+00
         21   -1    0    0  502  501  0.00000000000E+00  0.00000000000E+00  0.26122979653E+03  0.26122979653E+03  0.00000000000E+00 0.  1.
         21   -1    0    0  501  502 -0.00000000000E+00 -0.00000000000E+00 -0.28169009954E+03  0.28169009954E+03  0.00000000000E+00 0.  1.
         25    1    1    2    0    0  0.14217370164E+03 -0.10107885190E+02 -0.81330461909E+01  0.18975425482E+03  0.12500000000E+03 0.  0.
         25    1    1    2    0    0 -0.43749268543E+02 -0.92294405111E+02 -0.25843670789E+02  0.16347828918E+03  0.12500000000E+03 0.  0.
         25    1    1    2    0    0 -0.98424433097E+02  0.10240229030E+03  0.13516413976E+02  0.18968735207E+03  0.12500000000E+03 0.  0.
</event>
<event>
 5    0  0.5778875E-005  0.3983699E+03  0.7546771E-02  0.1044346E+00
         21   -1    0    0  502  501  0.00000000000E+00  0.00000000000E+00  0.25760822238E+03  0.25760822238E+03  0.00000000000E+00 0.  1.
         21   -1    0    0  501  502 -0.00000000000E+00 -0.00000000000E+00 -0.61604615092E+03  0.61604615092E+03  0.00000000000E+00 0.  1.
         25    1    1    2    0    0 -0.40949973056E+02  0.20072852595E+03 -0.35655958324E+03  0.42980062567E+03  0.12500000000E+03 0.  0.
         25    1    1    2    0    0  0.68906744365E+02 -0.20131329223E+03  0.11334566088E+03  0.27156476187E+03  0.12500000000E+03 0.  0.
         25    1    1    2    0    0 -0.27956771309E+02  0.58476627921E+00 -0.11522400618E+03  0.17228898576E+03  0.12500000000E+03 0.  0.
</event>
<event>
 5    0  0.5778875E-005  0.2753994E+03  0.7546771E-02  0.1098229E+00
         21   -1    0    0  502  501  0.00000000000E+00  0.00000000000E+00  0.18684698858E+03  0.18684698858E+03  0.00000000000E+00 0.  1.
         21   -1    0    0  501  502 -0.00000000000E+00 -0.00000000000E+00 -0.40591941432E+03  0.40591941432E+03  0.00000000000E+00 0.  1.
         25    1    1    2    0    0  0.10629128423E+02 -0.60600520899E+02 -0.43743292051E+02  0.14602697389E+03  0.12500000000E+03 0.  0.
         25    1    1    2    0    0  0.57387896498E+02  0.56688260158E+02  0.68977333127E+02  0.16398110254E+03  0.12500000000E+03 0.  0.
         25    1    1    2    0    0 -0.68017024921E+02  0.39122607413E+01 -0.24430646682E+03  0.28275832648E+03  0.12500000000E+03 0.  0.
</event>
<event>
 5    0  0.5778875E-005  0.2604800E+03  0.7546771E-02  0.1106855E+00
         21   -1    0    0  502  501  0.00000000000E+00  0.00000000000E+00  0.34631538717E+03  0.34631538717E+03  0.00000000000E+00 0.  1.
         21   -1    0    0  501  502 -0.00000000000E+00 -0.00000000000E+00 -0.19591920651E+03  0.19591920651E+03  0.00000000000E+00 0.  1.
         25    1    1    2    0    0  0.29065656474E+01  0.12054828426E+03  0.49115769491E+02  0.18049292444E+03  0.12500000000E+03 0.  0.
         25    1    1    2    0    0  0.56761972458E+01 -0.12097877435E+03  0.14755068573E+03  0.22817600206E+03  0.12500000000E+03 0.  0.
         25    1    1    2    0    0 -0.85827628932E+01  0.43049009189E+00 -0.46270274558E+02  0.13356566718E+03  0.12500000000E+03 0.  0.
</event>
<event>
 5    0  0.5778875E-005  0.2781923E+03  0.7546771E-02  0.1096680E+00
         21   -1    0    0  502  501  0.00000000000E+00  0.00000000000E+00  0.10293283276E+04  0.10293283276E+04  0.00000000000E+00 0.  1.
         21   -1    0    0  501  502 -0.00000000000E+00 -0.00000000000E+00 -0.75185896752E+02  0.75185896752E+02  0.00000000000E+00 0.  1.
         25    1    1    2    0    0  0.10193980438E+03 -0.67714336820E+02  0.43008955377E+03  0.46430483456E+03  0.12500000000E+03 0.  0.
         25    1    1    2    0    0 -0.15384768606E+03  0.69130680913E+02  0.20407285687E+03  0.29277788930E+03  0.12500000000E+03 0.  0.
         25    1    1    2    0    0  0.51907881680E+02 -0.14163440934E+01  0.31998002024E+03  0.34743150053E+03  0.12500000000E+03 0.  0.
</event>
<event>
 5    0  0.5778875E-005  0.2537741E+03  0.7546771E-02  0.1110943E+00
         21   -1    0    0  502  501  0.00000000000E+00  0.00000000000E+00  0.17088659413E+03  0.17088659413E+03  0.00000000000E+00 0. -1.
         21   -1    0    0  501  502 -0.00000000000E+00 -0.00000000000E+00 -0.37686554813E+03  0.37686554813E+03  0.00000000000E+00 0. -1.
         25    1    1    2    0    0  0.57307619686E+01 -0.55761365697E+02 -0.18767135550E+03  0.23235255370E+03  0.12500000000E+03 0.  0.
         25    1    1    2    0    0 -0.12496147896E+02  0.97623883258E+02  0.50009616321E+02  0.16677091479E+03  0.12500000000E+03 0.  0.
         25    1    1    2    0    0  0.67653859271E+01 -0.41862517561E+02 -0.68317214821E+02  0.14862867376E+03  0.12500000000E+03 0.  0.
</event>
<event>
 5    0  0.5778875E-005  0.2795650E+03  0.7546771E-02  0.1095927E+00
         21   -1    0    0  502  501  0.00000000000E+00  0.00000000000E+00  0.44337526807E+03  0.44337526807E+03  0.00000000000E+00 0. -1.
         21   -1    0    0  501  502 -0.00000000000E+00 -0.00000000000E+00 -0.17627633310E+03  0.17627633310E+03  0.00000000000E+00 0. -1.
         25    1    1    2    0    0  0.50676733513E+02 -0.49676738738E+02 -0.77417174656E+02  0.16326153443E+03  0.12500000000E+03 0.  0.
         25    1    1    2    0    0 -0.99050630498E+02  0.11602511786E+02  0.17855175310E+03  0.23969016295E+03  0.12500000000E+03 0.  0.
         25    1    1    2    0    0  0.48373896985E+02  0.38074226953E+02  0.16596435652E+03  0.21669990379E+03  0.12500000000E+03 0.  0.
</event>
<event>
 5    0  0.5778875E-005  0.2407610E+03  0.7546771E-02  0.1119287E+00
         21   -1    0    0  502  501  0.00000000000E+00  0.00000000000E+00  0.42814240609E+02  0.42814240609E+02  0.00000000000E+00 0. -1.
         21   -1    0    0  501  502 -0.00000000000E+00 -0.00000000000E+00 -0.13538921122E+04  0.13538921122E+04  0.00000000000E+00 0. -1.
         25    1    1    2    0    0  0.35549642204E+02 -0.91369104681E+02 -0.33414918868E+03  0.36999023048E+03  0.12500000000E+03 0.  0.
         25    1    1    2    0    0  0.56201857966E+02  0.53345300630E+02 -0.34719040755E+03  0.37705510079E+03  0.12500000000E+03 0.  0.
         25    1    1    2    0    0 -0.91751500169E+02  0.38023804051E+02 -0.62973827537E+03  0.64966102155E+03  0.12500000000E+03 0.  0.
</event>
<event>
 5    0  0.5778875E-005  0.3951709E+03  0.7546771E-02  0.1045465E+00
         21   -1    0    0  502  501  0.00000000000E+00  0.00000000000E+00  0.21796648139E+03  0.21796648139E+03  0.00000000000E+00 0.  1.
         21   -1    0    0  501  502 -0.00000000000E+00 -0.00000000000E+00 -0.71644074723E+03  0.71644074723E+03  0.00000000000E+00 0.  1.
         25    1    1    2    0    0  0.28616053670E+02  0.15359764012E+03 -0.45430287082E+03  0.49641435517E+03  0.12500000000E+03 0.  0.
         25    1    1    2    0    0 -0.84870801854E+02 -0.28042204962E+02 -0.15769167422E+03  0.22018420103E+03  0.12500000000E+03 0.  0.
         25    1    1    2    0    0  0.56254748184E+02 -0.12555543516E+03  0.11352027921E+03  0.21780867242E+03  0.12500000000E+03 0.  0.
</event>
<event>
 5    0  0.5778875E-005  0.2898938E+03  0.7546771E-02  0.1090405E+00
         21   -1    0    0  502  501  0.00000000000E+00  0.00000000000E+00  0.87855386202E+02  0.87855386202E+02  0.00000000000E+00 0. -1.
         21   -1    0    0  501  502 -0.00000000000E+00 -0.00000000000E+00 -0.95655410194E+03  0.95655410194E+03  0.00000000000E+00 0. -1.
         25    1    1    2    0    0  0.24819743489E+02 -0.60981842461E+02 -0.51920749872E+03  0.53808571019E+03  0.12500000000E+03 0.  0.
         25    1    1    2    0    0  0.10919015306E+03  0.97390765961E+01 -0.10551786919E+03  0.19691713957E+03  0.12500000000E+03 0.  0.
         25    1    1    2    0    0 -0.13400989655E+03  0.51242765865E+02 -0.24397334783E+03  0.30940663839E+03  0.12500000000E+03 0.  0.
</event>
<event>
 5    0  0.5778875E-005  0.3860262E+03  0.7546771E-02  0.1048729E+00
         21   -1    0    0  502  501  0.00000000000E+00  0.00000000000E+00  0.66003654179E+02  0.66003654179E+02  0.00000000000E+00 0.  1.
         21   -1    0    0  501  502 -0.00000000000E+00 -0.00000000000E+00 -0.22576960476E+04  0.22576960476E+04  0.00000000000E+00 0.  1.
         25    1    1    2    0    0  0.84747313138E+01  0.42163034699E+02 -0.28962143995E+02  0.13532682051E+03  0.12500000000E+03 0.  0.
         25    1    1    2    0    0  0.20647733129E+01 -0.80736447876E+02 -0.17245842122E+04  0.17309934553E+04  0.12500000000E+03 0.  0.
         25    1    1    2    0    0 -0.10539504627E+02  0.38573413177E+02 -0.43814603720E+03  0.45737942594E+03  0.12500000000E+03 0.  0.
</event>
<event>
 5    0  0.5778875E-005  0.3218439E+03  0.7546771E-02  0.1074804E+00
         21   -1    0    0  502  501  0.00000000000E+00  0.00000000000E+00  0.16938669108E+04  0.16938669108E+04  0.00000000000E+00 0. -1.
         21   -1    0    0  501  502 -0.00000000000E+00 -0.00000000000E+00 -0.61152099286E+02  0.61152099286E+02  0.00000000000E+00 0. -1.
         25    1    1    2    0    0 -0.12111733446E+02 -0.12327065209E+03  0.11927683107E+04  0.12056797215E+04  0.12500000000E+03 0.  0.
         25    1    1    2    0    0 -0.18253900767E+02 -0.32862980732E+01  0.88515267491E+02  0.15428531112E+03  0.12500000000E+03 0.  0.
         25    1    1    2    0    0  0.30365634213E+02  0.12655695016E+03  0.35143123326E+03  0.39505397744E+03  0.12500000000E+03 0.  0.
</event>
<event>
 5    0  0.5778875E-005  0.2194542E+03  0.7546771E-02  0.1134291E+00
         21   -1    0    0  502  501  0.00000000000E+00  0.00000000000E+00  0.36143164961E+03  0.36143164961E+03  0.00000000000E+00 0. -1.
         21   -1    0    0  501  502 -0.00000000000E+00 -0.00000000000E+00 -0.13324833826E+03  0.13324833826E+03  0.00000000000E+00 0. -1.
         25    1    1    2    0    0  0.16123945240E+02  0.11734657514E+02  0.27404187798E+02  0.12951321672E+03  0.12500000000E+03 0.  0.
         25    1    1    2    0    0 -0.94654738231E+01 -0.76534176760E+02  0.16263935275E+03  0.21914295442E+03  0.12500000000E+03 0.  0.
         25    1    1    2    0    0 -0.66584714164E+01  0.64799519246E+02  0.38139770799E+02  0.14602381673E+03  0.12500000000E+03 0.  0.
</event>
<event>
 5    0  0.5989394E-005  0.3652021E+03  0.7546771E-02  0.1056543E+00
         21   -1    0    0  502  501  0.00000000000E+00  0.00000000000E+00  0.30362631217E+03  0.30362631217E+03  0.00000000000E+00 0.  1.
         21   -1    0    0  501  502 -0.00000000000E+00 -0.00000000000E+00 -0.43926543734E+03  0.43926543734E+03  0.00000000000E+00 0.  1.
         25    1    1    2    0    0  0.53925834484E+02 -0.87975826615E+02  0.13184755553E+03  0.20894142623E+03  0.12500000000E+03 0.  0.
         25    1    1    2    0    0  0.15910893755E+03  0.59390165240E+02 -0.15103958128E+03  0.25938542914E+03  0.12500000000E+03 0.  0.
         25    1    1    2    0    0 -0.21303477203E+03  0.28585661374E+02 -0.11644709942E+03  0.27456489414E+03  0.12500000000E+03 0.  0.
</event>
<event>
 5    0  0.5778875E-005  0.2353676E+03  0.7546771E-02  0.1122918E+00
         21   -1    0    0  502  501  0.00000000000E+00  0.00000000000E+00  0.25472786763E+03  0.25472786763E+03  0.00000000000E+00 0.  1.
         21   -1    0    0  501  502 -0.00000000000E+00 -0.00000000000E+00 -0.21747869899E+03  0.21747869899E+03  0.00000000000E+00 0.  1.
         25    1    1    2    0    0  0.91049204405E+02  0.16935114320E+02  0.29385628641E+02  0.15832015314E+03  0.12500000000E+03 0.  0.
         25    1    1    2    0    0  0.13015884338E+02 -0.44152849379E+02  0.52282129824E+02  0.14309894637E+03  0.12500000000E+03 0.  0.
         25    1    1    2    0    0 -0.10406508874E+03  0.27217735059E+02 -0.44418589824E+02  0.17078746710E+03  0.12500000000E+03 0.  0.
</event>
<event>
 5    0  0.5778875E-005  0.3216642E+03  0.7546771E-02  0.1074886E+00
         21   -1    0    0  502  501  0.00000000000E+00  0.00000000000E+00  0.33937444889E+03  0.33937444889E+03  0.00000000000E+00 0. -1.
         21   -1    0    0  501  502 -0.00000000000E+00 -0.00000000000E+00 -0.30487810114E+03  0.30487810114E+03  0.00000000000E+00 0. -1.
         25    1    1    2    0    0  0.21133662855E+02 -0.88346830345E+02  0.17975995980E+03  0.23704522203E+03  0.12500000000E+03 0.  0.
         25    1    1    2    0    0 -0.86535984812E+02  0.11900484754E+03  0.12355738670E+02  0.19346393639E+03  0.12500000000E+03 0.  0.
         25    1    1    2    0    0  0.65402321957E+02 -0.30658017195E+02 -0.15761935072E+03  0.21374339161E+03  0.12500000000E+03 0.  0.
</event>
<event>
 5    0  0.5778875E-005  0.3334127E+03  0.7546771E-02  0.1069637E+00
         21   -1    0    0  502  501  0.00000000000E+00  0.00000000000E+00  0.72063422929E+02  0.72063422929E+02  0.00000000000E+00 0. -1.
         21   -1    0    0  501  502 -0.00000000000E+00 -0.00000000000E+00 -0.15425859771E+04  0.15425859771E+04  0.00000000000E+00 0. -1.
         25    1    1    2    0    0  0.66136091036E+01  0.51814425498E+01 -0.45032658602E+02  0.13312973940E+03  0.12500000000E+03 0.  0.
         25    1    1    2    0    0  0.89520849704E+02  0.12573435738E+03 -0.69534438422E+03  0.72315414942E+03  0.12500000000E+03 0.  0.
         25    1    1    2    0    0 -0.96134458807E+02 -0.13091579993E+03 -0.73014551131E+03  0.75836551117E+03  0.12500000000E+03 0.  0.
</event>
<event>
 5    0  0.5778875E-005  0.3411265E+03  0.7546771E-02  0.1066317E+00
         21   -1    0    0  502  501  0.00000000000E+00  0.00000000000E+00  0.82074668473E+02  0.82074668473E+02  0.00000000000E+00 0. -1.
         21   -1    0    0  501  502 -0.00000000000E+00 -0.00000000000E+00 -0.14178225658E+04  0.14178225658E+04  0.00000000000E+00 0. -1.
         25    1    1    2    0    0  0.41627927079E+02  0.60338364915E+02 -0.48769688138E+03  0.50876993888E+03  0.12500000000E+03 0.  0.
         25    1    1    2    0    0 -0.14343049137E+03 -0.12269197059E+03 -0.76794428670E+03  0.80061791947E+03  0.12500000000E+03 0.  0.
         25    1    1    2    0    0  0.10180256429E+03  0.62353605674E+02 -0.80106729205E+02  0.19050937589E+03  0.12500000000E+03 0.  0.
</event>
<event>
 5    0  0.5778875E-005  0.2781029E+03  0.7546771E-02  0.1096730E+00
         21   -1    0    0  502  501  0.00000000000E+00  0.00000000000E+00  0.12430640421E+04  0.12430640421E+04  0.00000000000E+00 0. -1.
         21   -1    0    0  501  502 -0.00000000000E+00 -0.00000000000E+00 -0.62218224609E+02  0.62218224609E+02  0.00000000000E+00 0. -1.
         25    1    1    2    0    0 -0.17273750650E+03  0.12129830519E+02  0.59905521571E+03  0.63598547971E+03  0.12500000000E+03 0.  0.
         25    1    1    2    0    0  0.13440590957E+03 -0.21151688652E+01  0.23265743010E+03  0.29635097814E+03  0.12500000000E+03 0.  0.
         25    1    1    2    0    0  0.38331596928E+02 -0.10014661653E+02  0.34913317170E+03  0.37294580887E+03  0.12500000000E+03 0.  0.
</event>
<event>
 5    0  0.5778875E-005  0.6215501E+03  0.7546771E-02  0.9861678E-01
         21   -1    0    0  502  501  0.00000000000E+00  0.00000000000E+00  0.69374183238E+03  0.69374183238E+03  0.00000000000E+00 0. -1.
         21   -1    0    0  501  502 -0.00000000000E+00 -0.00000000000E+00 -0.55687077886E+03  0.55687077886E+03  0.00000000000E+00 0. -1.
         25    1    1    2    0    0  0.71726892194E+02 -0.61139797726E+02  0.15352017221E+01  0.15655726995E+03  0.12500000000E+03 0.  0.
         25    1    1    2    0    0  0.31216836070E+03  0.37306897561E+03  0.26467312940E+03  0.56772036375E+03  0.12500000000E+03 0.  0.
         25    1    1    2    0    0 -0.38389525289E+03 -0.31192917789E+03 -0.12933727760E+03  0.52633497754E+03  0.12500000000E+03 0.  0.
</event>
<event>
 5    0  0.5778875E-005  0.3292950E+03  0.7546771E-02  0.1071449E+00
         21   -1    0    0  502  501  0.00000000000E+00  0.00000000000E+00  0.62129205944E+03  0.62129205944E+03  0.00000000000E+00 0.  1.
         21   -1    0    0  501  502 -0.00000000000E+00 -0.00000000000E+00 -0.17453178271E+03  0.17453178271E+03  0.00000000000E+00 0.  1.
         25    1    1    2    0    0 -0.11955918667E+03 -0.31286199334E+02  0.36079898608E+02  0.17944354117E+03  0.12500000000E+03 0.  0.
         25    1    1    2    0    0  0.20620985236E+03 -0.83630497899E+02  0.30749015204E+03  0.39961451048E+03  0.12500000000E+03 0.  0.
         25    1    1    2    0    0 -0.86650665696E+02  0.11491669723E+03  0.10319022609E+03  0.21676579050E+03  0.12500000000E+03 0.  0.
</event>
<event>
 5    0  0.5778875E-005  0.3279128E+03  0.7546771E-02  0.1072064E+00
         21   -1    0    0  502  501  0.00000000000E+00  0.00000000000E+00  0.85698042176E+02  0.85698042176E+02  0.00000000000E+00 0.  1.
         21   -1    0    0  501  502 -0.00000000000E+00 -0.00000000000E+00 -0.12547175158E+04  0.12547175158E+04  0.00000000000E+00 0.  1.
         25    1    1    2    0    0  0.56690326019E+02  0.14481313734E+03 -0.43605088844E+03  0.47953103666E+03  0.12500000000E+03 0.  0.
         25    1    1    2    0    0 -0.14652371342E+03 -0.20396399174E+03 -0.52720870821E+03  0.59719722917E+03  0.12500000000E+03 0.  0.
         25    1    1    2    0    0  0.89833387402E+02  0.59150854406E+02 -0.20575987701E+03  0.26368729218E+03  0.12500000000E+03 0.  0.
</event>
<event>
 5    0  0.5778875E-005  0.3244086E+03  0.7546771E-02  0.1073638E+00
         21   -1    0    0  502  501  0.00000000000E+00  0.00000000000E+00  0.55717909345E+02  0.55717909345E+02  0.00000000000E+00 0. -1.
         21   -1    0    0  501  502 -0.00000000000E+00 -0.00000000000E+00 -0.18888165388E+04  0.18888165388E+04  0.00000000000E+00 0. -1.
         25    1    1    2    0    0 -0.14438702478E+03  0.92812903642E+02 -0.44739183609E+03  0.49522348794E+03  0.12500000000E+03 0.  0.
         25    1    1    2    0    0  0.22911139281E+03 -0.80332340096E+02 -0.90091744962E+03  0.94139394847E+03  0.12500000000E+03 0.  0.
         25    1    1    2    0    0 -0.84724368035E+02 -0.12480563546E+02 -0.48478934376E+03  0.50791701175E+03  0.12500000000E+03 0.  0.
</event>
<event>
 5    0  0.5778875E-005  0.3770400E+03  0.7546771E-02  0.1052033E+00
         21   -1    0    0  502  501  0.00000000000E+00  0.00000000000E+00  0.98962595917E+03  0.98962595917E+03  0.00000000000E+00 0.  1.
         21   -1    0    0  501  502 -0.00000000000E+00 -0.00000000000E+00 -0.14364935121E+03  0.14364935121E+03  0.00000000000E+00 0.  1.
         25    1    1    2    0    0 -0.13660497237E+03 -0.15097249122E+03  0.38488004876E+03  0.45300249836E+03  0.12500000000E+03 0.  0.
         25    1    1    2    0    0 -0.43524133187E+02  0.19187254715E+03  0.95263347746E+02  0.25181248965E+03  0.12500000000E+03 0.  0.
         25    1    1    2    0    0  0.18012910556E+03 -0.40900055928E+02  0.36583321146E+03  0.42846032238E+03  0.12500000000E+03 0.  0.
</event>
<event>
 5    0  0.5778875E-005  0.3713500E+03  0.7546771E-02  0.1054178E+00
         21   -1    0    0  502  501  0.00000000000E+00  0.00000000000E+00  0.20422672808E+03  0.20422672808E+03  0.00000000000E+00 0.  1.
         21   -1    0    0  501  502 -0.00000000000E+00 -0.00000000000E+00 -0.67523378266E+03  0.67523378266E+03  0.00000000000E+00 0.  1.
         25    1    1    2    0    0  0.16979640726E+03  0.35311497397E+02 -0.18036191442E+02  0.21454143182E+03  0.12500000000E+03 0.  0.
         25    1    1    2    0    0  0.37208315744E+02 -0.43444552758E+02  0.14816903239E+02  0.13826217323E+03  0.12500000000E+03 0.  0.
         25    1    1    2    0    0 -0.20700472300E+03  0.81330553610E+01 -0.46778776637E+03  0.52665690568E+03  0.12500000000E+03 0.  0.
</event>
<event>
 5    0  0.5778875E-005  0.3498552E+03  0.7546771E-02  0.1062675E+00
         21   -1    0    0  502  501  0.00000000000E+00  0.00000000000E+00  0.86223805576E+03  0.86223805576E+03  0.00000000000E+00 0.  1.
         21   -1    0    0  501  502 -0.00000000000E+00 -0.00000000000E+00 -0.14195456587E+03  0.14195456587E+03  0.00000000000E+00 0.  1.
         25    1    1    2    0    0 -0.15183565869E+03  0.44017631654E+02  0.18123302388E+03  0.27103879444E+03  0.12500000000E+03 0.  0.
         25    1    1    2    0    0  0.21998610516E+03 -0.15556074528E+03  0.42785421986E+03  0.52084284135E+03  0.12500000000E+03 0.  0.
         25    1    1    2    0    0 -0.68150446471E+02  0.11154311362E+03  0.11119624615E+03  0.21231098584E+03  0.12500000000E+03 0.  0.
</event>
<event>
 5    0  0.5778875E-005  0.3233049E+03  0.7546771E-02  0.1074138E+00
         21   -1    0    0  502  501  0.00000000000E+00  0.00000000000E+00  0.56066795709E+03  0.56066795709E+03  0.00000000000E+00 0. -1.
         21   -1    0    0  501  502 -0.00000000000E+00 -0.00000000000E+00 -0.18643126212E+03  0.18643126212E+03  0.00000000000E+00 0. -1.
         25    1    1    2    0    0  0.11947397149E+03  0.10087979446E+03  0.14871873175E+03  0.24938529221E+03  0.12500000000E+03 0.  0.
         25    1    1    2    0    0  0.10783188486E+03 -0.14175523103E+02  0.11986348854E+03  0.20450163015E+03  0.12500000000E+03 0.  0.
         25    1    1    2    0    0 -0.22730585635E+03 -0.86704271361E+02  0.10565447468E+03  0.29321229685E+03  0.12500000000E+03 0.  0.
</event>
<event>
 5    0  0.5778875E-005  0.3422366E+03  0.7546771E-02  0.1065847E+00
         21   -1    0    0  502  501  0.00000000000E+00  0.00000000000E+00  0.19266354154E+03  0.19266354154E+03  0.00000000000E+00 0. -1.
         21   -1    0    0  501  502 -0.00000000000E+00 -0.00000000000E+00 -0.60792953827E+03  0.60792953827E+03  0.00000000000E+00 0. -1.
         25    1    1    2    0    0 -0.35288878700E+02  0.28517761840E+02  0.98210389518E+02  0.16531439232E+03  0.12500000000E+03 0.  0.
         25    1    1    2    0    0  0.10042585588E+02  0.20194843209E+02 -0.47750181098E+03  0.49410693651E+03  0.12500000000E+03 0.  0.
         25    1    1    2    0    0  0.25246293112E+02 -0.48712605049E+02 -0.35974575262E+02  0.14117175097E+03  0.12500000000E+03 0.  0.
</event>
<event>
 5    0  0.5778875E-005  0.3364880E+03  0.7546771E-02  0.1068302E+00
         21   -1    0    0  502  501  0.00000000000E+00  0.00000000000E+00  0.23644453917E+03  0.23644453917E+03  0.00000000000E+00 0.  1.
         21   -1    0    0  501  502 -0.00000000000E+00 -0.00000000000E+00 -0.47886147480E+03  0.47886147480E+03  0.00000000000E+00 0.  1.
         25    1    1    2    0    0 -0.92217118340E+02  0.22464126979E+03 -0.71152843625E+02  0.28223292537E+03  0.12500000000E+03 0.  0.
         25    1    1    2    0    0 -0.40195044389E+02 -0.42470899032E+02 -0.81699093033E+02  0.16037194474E+03  0.12500000000E+03 0.  0.
         25    1    1    2    0    0  0.13241216273E+03 -0.18217037076E+03 -0.89564998976E+02  0.27270114386E+03  0.12500000000E+03 0.  0.
</event>
<event>
 5    0  0.5778875E-005  0.4298555E+03  0.7546771E-02  0.1033906E+00
         21   -1    0    0  502  501  0.00000000000E+00  0.00000000000E+00  0.12862784692E+04  0.12862784692E+04  0.00000000000E+00 0. -1.
         21   -1    0    0  501  502 -0.00000000000E+00 -0.00000000000E+00 -0.14365144307E+03  0.14365144307E+03  0.00000000000E+00 0. -1.
         25    1    1    2    0    0 -0.17400257759E+03 -0.81192783016E+02  0.70183408843E+03  0.73828534640E+03  0.12500000000E+03 0.  0.
         25    1    1    2    0    0  0.24938991649E+03  0.19551492192E+03  0.33688542754E+03  0.47910145735E+03  0.12500000000E+03 0.  0.
         25    1    1    2    0    0 -0.75387338904E+02 -0.11432213891E+03  0.10390751015E+03  0.21254310852E+03  0.12500000000E+03 0.  0.
</event>
<event>
 5    0  0.5778875E-005  0.3273908E+03  0.7546771E-02  0.1072297E+00
         21   -1    0    0  502  501  0.00000000000E+00  0.00000000000E+00  0.64919463734E+03  0.64919463734E+03  0.00000000000E+00 0.  1.
         21   -1    0    0  501  502 -0.00000000000E+00 -0.00000000000E+00 -0.16510417900E+03  0.16510417900E+03  0.00000000000E+00 0.  1.
         25    1    1    2    0    0  0.11766887458E+03 -0.86828861500E+02  0.26303536884E+03  0.32588007072E+03  0.12500000000E+03 0.  0.
         25    1    1    2    0    0  0.37787665490E+02  0.15138555814E+03  0.25202593119E+02  0.20150847520E+03  0.12500000000E+03 0.  0.
         25    1    1    2    0    0 -0.15545654007E+03 -0.64556696641E+02  0.19585249638E+03  0.28691027042E+03  0.12500000000E+03 0.  0.
</event>
<event>
 5    0  0.5778875E-005  0.3147219E+03  0.7546771E-02  0.1078104E+00
         21   -1    0    0  502  501  0.00000000000E+00  0.00000000000E+00  0.11000173747E+04  0.11000173747E+04  0.00000000000E+00 0.  1.
         21   -1    0    0  501  502 -0.00000000000E+00 -0.00000000000E+00 -0.90043915894E+02  0.90043915894E+02  0.00000000000E+00 0.  1.
         25    1    1    2    0    0 -0.13694578773E+02  0.17284779921E+03  0.17361842397E+03  0.27537657911E+03  0.12500000000E+03 0.  0.
         25    1    1    2    0    0 -0.83922162584E+02 -0.43085160332E+02  0.46332306818E+03  0.48907312942E+03  0.12500000000E+03 0.  0.
         25    1    1    2    0    0  0.97616741357E+02 -0.12976263888E+03  0.37303196665E+03  0.42561158206E+03  0.12500000000E+03 0.  0.
</event>
<event>
 5    0  0.6056100E-005  0.2988665E+03  0.7546771E-02  0.1085809E+00
         21   -1    0    0  502  501  0.00000000000E+00  0.00000000000E+00  0.59610848725E+03  0.59610848725E+03  0.00000000000E+00 0. -1.
         21   -1    0    0  501  502 -0.00000000000E+00 -0.00000000000E+00 -0.14984049718E+03  0.14984049718E+03  0.00000000000E+00 0. -1.
         25    1    1    2    0    0  0.17887475800E+02  0.13367043430E+03  0.16740671380E+03  0.24867198198E+03  0.12500000000E+03 0.  0.
         25    1    1    2    0    0  0.16699305350E+02 -0.20559646408E+03  0.24770609786E+03  0.34573412293E+03  0.12500000000E+03 0.  0.
         25    1    1    2    0    0 -0.34586781150E+02  0.71926029777E+02  0.31155178410E+02  0.15154287951E+03  0.12500000000E+03 0.  0.
</event>
<event>
 5    0  0.5778875E-005  0.3048497E+03  0.7546771E-02  0.1082841E+00
         21   -1    0    0  502  501  0.00000000000E+00  0.00000000000E+00  0.25891393104E+03  0.25891393104E+03  0.00000000000E+00 0.  1.
         21   -1    0    0  501  502 -0.00000000000E+00 -0.00000000000E+00 -0.35893517782E+03  0.35893517782E+03  0.00000000000E+00 0.  1.
         25    1    1    2    0    0  0.14255657834E+02 -0.10322101898E+03 -0.16291434631E+03  0.23026916158E+03  0.12500000000E+03 0.  0.
         25    1    1    2    0    0  0.25880657943E+02 -0.32173413992E+02 -0.77233355391E+02  0.15262676112E+03  0.12500000000E+03 0.  0.
         25    1    1    2    0    0 -0.40136315777E+02  0.13539443297E+03  0.14012645492E+03  0.23495318617E+03  0.12500000000E+03 0.  0.
</event>
<event>
 5    0  0.5778875E-005  0.4935152E+03  0.7546771E-02  0.1015486E+00
         21   -1    0    0  502  501  0.00000000000E+00  0.00000000000E+00  0.29850769670E+03  0.29850769670E+03  0.00000000000E+00 0. -1.
         21   -1    0    0  501  502 -0.00000000000E+00 -0.00000000000E+00 -0.81591603497E+03  0.81591603497E+03  0.00000000000E+00 0. -1.
         25    1    1    2    0    0  0.15062596026E+03  0.10818011937E+03 -0.28433033157E+03  0.36174556746E+03  0.12500000000E+03 0.  0.
         25    1    1    2    0    0  0.11549565617E+02  0.25528000437E+03 -0.22470032930E+02  0.28536148212E+03  0.12500000000E+03 0.  0.
         25    1    1    2    0    0 -0.16217552587E+03 -0.36346012374E+03 -0.21060797377E+03  0.46731668209E+03  0.12500000000E+03 0.  0.
</event>
<event>
 5    0  0.5778875E-005  0.2788401E+03  0.7546771E-02  0.1096324E+00
         21   -1    0    0  502  501  0.00000000000E+00  0.00000000000E+00  0.18676537769E+04  0.18676537769E+04  0.00000000000E+00 0.  1.
         21   -1    0    0  501  502 -0.00000000000E+00 -0.00000000000E+00 -0.41630739576E+02  0.41630739576E+02  0.00000000000E+00 0.  1.
         25    1    1    2    0    0 -0.14138427418E+02 -0.70400317084E+02  0.23866106736E+03  0.27881930501E+03  0.12500000000E+03 0.  0.
         25    1    1    2    0    0 -0.82181969887E+02 -0.23504069195E+02  0.10864917266E+04  0.10969938876E+04  0.12500000000E+03 0.  0.
         25    1    1    2    0    0  0.96320397305E+02  0.93904386279E+02  0.50087024329E+03  0.53347132379E+03  0.12500000000E+03 0.  0.
</event>
<event>
 5    0  0.5778875E-005  0.2237313E+03  0.7546771E-02  0.1131131E+00
         21   -1    0    0  502  501  0.00000000000E+00  0.00000000000E+00  0.29960560862E+03  0.29960560862E+03  0.00000000000E+00 0. -1.
         21   -1    0    0  501  502 -0.00000000000E+00 -0.00000000000E+00 -0.16707188410E+03  0.16707188410E+03  0.00000000000E+00 0. -1.
         25    1    1    2    0    0  0.38845029571E+02  0.21372353464E+02  0.11346309350E+03  0.17454107654E+03  0.12500000000E+03 0.  0.
         25    1    1    2    0    0 -0.24616662988E+02  0.12908311189E+02  0.77035350410E+02  0.14943911739E+03  0.12500000000E+03 0.  0.
         25    1    1    2    0    0 -0.14228366583E+02 -0.34280664652E+02 -0.57964719388E+02  0.14269729878E+03  0.12500000000E+03 0.  0.
</event>
<event>
 5    0  0.5778875E-005  0.2523000E+03  0.7546771E-02  0.1111860E+00
         21   -1    0    0  502  501  0.00000000000E+00  0.00000000000E+00  0.52850781096E+02  0.52850781096E+02  0.00000000000E+00 0. -1.
         21   -1    0    0  501  502 -0.00000000000E+00 -0.00000000000E+00 -0.12044339933E+04  0.12044339933E+04  0.00000000000E+00 0. -1.
         25    1    1    2    0    0 -0.46763774613E+02 -0.42477863795E+02 -0.32172363794E+03  0.35088790053E+03  0.12500000000E+03 0.  0.
         25    1    1    2    0    0  0.58074658723E+02  0.14670928057E+03 -0.44821589601E+03  0.49134383931E+03  0.12500000000E+03 0.  0.
         25    1    1    2    0    0 -0.11310884110E+02 -0.10423141678E+03 -0.38164367825E+03  0.41505303456E+03  0.12500000000E+03 0.  0.
</event>
<event>
 5    0  0.5778875E-005  0.4860818E+03  0.7546771E-02  0.1017477E+00
         21   -1    0    0  502  501  0.00000000000E+00  0.00000000000E+00  0.26366296763E+03  0.26366296763E+03  0.00000000000E+00 0. -1.
         21   -1    0    0  501  502 -0.00000000000E+00 -0.00000000000E+00 -0.89612696602E+03  0.89612696602E+03  0.00000000000E+00 0. -1.
         25    1    1    2    0    0  0.66731869110E+02 -0.24844811029E+03  0.11873139192E+03  0.30968007570E+03  0.12500000000E+03 0.  0.
         25    1    1    2    0    0  0.83435234690E+01  0.18352365587E+03 -0.55069057922E+03  0.59383134027E+03  0.12500000000E+03 0.  0.
         25    1    1    2    0    0 -0.75075392578E+02  0.64924454414E+02 -0.20050481109E+03  0.25627851767E+03  0.12500000000E+03 0.  0.
</event>
<event>
 5    0  0.5778875E-005  0.3142145E+03  0.7546771E-02  0.1078343E+00
         21   -1    0    0  502  501  0.00000000000E+00  0.00000000000E+00  0.15272134322E+03  0.15272134322E+03  0.00000000000E+00 0. -1.
         21   -1    0    0  501  502 -0.00000000000E+00 -0.00000000000E+00 -0.64647635147E+03  0.64647635147E+03  0.00000000000E+00 0. -1.
         25    1    1    2    0    0 -0.63124935413E+02  0.82619500219E+02  0.37891789853E+02  0.16694767751E+03  0.12500000000E+03 0.  0.
         25    1    1    2    0    0 -0.45436877949E+02 -0.38789053970E+02 -0.10919442393E+03  0.17640159524E+03  0.12500000000E+03 0.  0.
         25    1    1    2    0    0  0.10856181336E+03 -0.43830446249E+02 -0.42245237417E+03  0.45584842193E+03  0.12500000000E+03 0.  0.
</event>
<event>
 5    0  0.5778875E-005  0.4074017E+03  0.7546771E-02  0.1041246E+00
         21   -1    0    0  502  501  0.00000000000E+00  0.00000000000E+00  0.87926148926E+03  0.87926148926E+03  0.00000000000E+00 0.  1.
         21   -1    0    0  501  502 -0.00000000000E+00 -0.00000000000E+00 -0.18876769493E+03  0.18876769493E+03  0.00000000000E+00 0.  1.
         25    1    1    2    0    0  0.26391561810E+03  0.90239950291E+02  0.13822745541E+03  0.33544974517E+03  0.12500000000E+03 0.  0.
         25    1    1    2    0    0 -0.27326162218E+03  0.12062627560E+02  0.25569202227E+03  0.39474147412E+03  0.12500000000E+03 0.  0.
         25    1    1    2    0    0  0.93460040871E+01 -0.10230257785E+03  0.29657431666E+03  0.33783796490E+03  0.12500000000E+03 0.  0.
</event>
<event>
 5    0  0.5778875E-005  0.3513732E+03  0.7546771E-02  0.1062053E+00
         21   -1    0    0  502  501  0.00000000000E+00  0.00000000000E+00  0.40354180697E+02  0.40354180697E+02  0.00000000000E+00 0. -1.
         21   -1    0    0  501  502 -0.00000000000E+00 -0.00000000000E+00 -0.30594886234E+04  0.30594886234E+04  0.00000000000E+00 0. -1.
         25    1    1    2    0    0  0.14079650080E+03 -0.23135754974E+02 -0.10629638087E+04  0.10797573692E+04  0.12500000000E+03 0.  0.
         25    1    1    2    0    0  0.84734386247E+02 -0.13224212842E+03 -0.87967684625E+03  0.90228834115E+03  0.12500000000E+03 0.  0.
         25    1    1    2    0    0 -0.22553088705E+03  0.15537788339E+03 -0.10764937878E+04  0.11177970937E+04  0.12500000000E+03 0.  0.
</event>
<event>
 5    0  0.5778875E-005  0.2357770E+03  0.7546771E-02  0.1122638E+00
         21   -1    0    0  502  501  0.00000000000E+00  0.00000000000E+00  0.28110457213E+03  0.28110457213E+03  0.00000000000E+00 0. -1.
         21   -1    0    0  501  502 -0.00000000000E+00 -0.00000000000E+00 -0.19775848725E+03  0.19775848725E+03  0.00000000000E+00 0. -1.
         25    1    1    2    0    0  0.50649742189E+02  0.12923459097E+01  0.20941108921E+02  0.13649394340E+03  0.12500000000E+03 0.  0.
         25    1    1    2    0    0 -0.36137753814E+02  0.89048119725E+02  0.94982326588E+02  0.18407103857E+03  0.12500000000E+03 0.  0.
         25    1    1    2    0    0 -0.14511988375E+02 -0.90340465634E+02 -0.32577350627E+02  0.15829807741E+03  0.12500000000E+03 0.  0.
</event>
<event>
 5    0  0.6262590E-005  0.2599529E+03  0.7546771E-02  0.1107172E+00
         21   -1    0    0  502  501  0.00000000000E+00  0.00000000000E+00  0.11921908879E+03  0.11921908879E+03  0.00000000000E+00 0. -1.
         21   -1    0    0  501  502 -0.00000000000E+00 -0.00000000000E+00 -0.56681779488E+03  0.56681779488E+03  0.00000000000E+00 0. -1.
         25    1    1    2    0    0  0.61484221168E+02  0.10303497122E+03 -0.33977736671E+03  0.38140552392E+03  0.12500000000E+03 0.  0.
         25    1    1    2    0    0 -0.58134411099E+02 -0.62322992471E+02 -0.76111607708E+02  0.16935684802E+03  0.12500000000E+03 0.  0.
         25    1    1    2    0    0 -0.33498100688E+01 -0.40711978751E+02 -0.31709731665E+02  0.13527451173E+03  0.12500000000E+03 0.  0.
</event>
<event>
 5    0  0.5778875E-005  0.2410705E+03  0.7546771E-02  0.1119082E+00
         21   -1    0    0  502  501  0.00000000000E+00  0.00000000000E+00  0.46720094022E+02  0.46720094022E+02  0.00000000000E+00 0. -1.
         21   -1    0    0  501  502 -0.00000000000E+00 -0.00000000000E+00 -0.12438966735E+04  0.12438966735E+04  0.00000000000E+00 0. -1.
         25    1    1    2    0    0 -0.72962428464E+01 -0.81368419793E+02 -0.28106183626E+03  0.31826845697E+03  0.12500000000E+03 0.  0.
         25    1    1    2    0    0  0.48240953742E+02 -0.33819180604E+02 -0.27426683772E+03  0.30711272339E+03  0.12500000000E+03 0.  0.
         25    1    1    2    0    0 -0.40944710896E+02  0.11518760040E+03 -0.64184790547E+03  0.66523558714E+03  0.12500000000E+03 0.  0.
</event>
<event>
 5    0  0.5778875E-005  0.5318476E+03  0.7546771E-02  0.1005785E+00
         21   -1    0    0  502  501  0.00000000000E+00  0.00000000000E+00  0.28784879413E+03  0.28784879413E+03  0.00000000000E+00 0.  1.
         21   -1    0    0  501  502 -0.00000000000E+00 -0.00000000000E+00 -0.98267536999E+03  0.98267536999E+03  0.00000000000E+00 0.  1.
         25    1    1    2    0    0  0.10151540354E+03  0.52430784209E+02 -0.20910094779E+03  0.26907725778E+03  0.12500000000E+03 0.  0.
         25    1    1    2    0    0 -0.40538005087E+03  0.89040210927E+02 -0.47957871428E+02  0.43610331602E+03  0.12500000000E+03 0.  0.
         25    1    1    2    0    0  0.30386464734E+03 -0.14147099514E+03 -0.43776775665E+03  0.56534359033E+03  0.12500000000E+03 0.  0.
</event>
<event>
 5    0  0.5778875E-005  0.3461953E+03  0.7546771E-02  0.1064188E+00
         21   -1    0    0  502  501  0.00000000000E+00  0.00000000000E+00  0.11868637279E+03  0.11868637279E+03  0.00000000000E+00 0. -1.
         21   -1    0    0  501  502 -0.00000000000E+00 -0.00000000000E+00 -0.10098143102E+04  0.10098143102E+04  0.00000000000E+00 0. -1.
         25    1    1    2    0    0  0.31637571669E+02 -0.79362283944E+02 -0.23566675919E+03  0.28011270846E+03  0.12500000000E+03 0.  0.
         25    1    1    2    0    0 -0.22617314825E+03  0.11058479751E+03 -0.48076229161E+03  0.55690274866E+03  0.12500000000E+03 0.  0.
         25    1    1    2    0    0  0.19453557658E+03 -0.31222513569E+02 -0.17469888655E+03  0.29148522582E+03  0.12500000000E+03 0.  0.
</event>
<event>
 5    0  0.5778875E-005  0.2549444E+03  0.7546771E-02  0.1110219E+00
         21   -1    0    0  502  501  0.00000000000E+00  0.00000000000E+00  0.26044943303E+04  0.26044943303E+04  0.00000000000E+00 0. -1.
         21   -1    0    0  501  502 -0.00000000000E+00 -0.00000000000E+00 -0.24955566258E+02  0.24955566258E+02  0.00000000000E+00 0. -1.
         25    1    1    2    0    0 -0.12205193109E+02 -0.76919988253E+02  0.13629595239E+04  0.13708936192E+04  0.12500000000E+03 0.  0.
         25    1    1    2    0    0 -0.28452854750E+02  0.49977672232E+02  0.95206060047E+03  0.96195203603E+03  0.12500000000E+03 0.  0.
         25    1    1    2    0    0  0.40658047859E+02  0.26942316021E+02  0.26451863971E+03  0.29660424138E+03  0.12500000000E+03 0.  0.
</event>
<event>
 5    0  0.5778875E-005  0.2582211E+03  0.7546771E-02  0.1108217E+00
         21   -1    0    0  502  501  0.00000000000E+00  0.00000000000E+00  0.26726205074E+03  0.26726205074E+03  0.00000000000E+00 0. -1.
         21   -1    0    0  501  502 -0.00000000000E+00 -0.00000000000E+00 -0.24948592279E+03  0.24948592279E+03  0.00000000000E+00 0. -1.
         25    1    1    2    0    0  0.85013730795E+02  0.66218951046E+02 -0.40245545573E+02  0.16987344654E+03  0.12500000000E+03 0.  0.
         25    1    1    2    0    0 -0.16105607981E+02  0.55288266103E+02 -0.28296102957E+02  0.14050570245E+03  0.12500000000E+03 0.  0.
         25    1    1    2    0    0 -0.68908122815E+02 -0.12150721715E+03  0.86317776472E+02  0.20636882455E+03  0.12500000000E+03 0.  0.
</event>
<event>
 5    0  0.5778875E-005  0.3157638E+03  0.7546771E-02  0.1077616E+00
         21   -1    0    0  502  501  0.00000000000E+00  0.00000000000E+00  0.61239478731E+02  0.61239478731E+02  0.00000000000E+00 0.  1.
         21   -1    0    0  501  502 -0.00000000000E+00 -0.00000000000E+00 -0.16281454490E+04  0.16281454490E+04  0.00000000000E+00 0.  1.
         25    1    1    2    0    0 -0.29210637932E+02  0.37120899385E+02 -0.51445015931E+03  0.53152157901E+03  0.12500000000E+03 0.  0.
         25    1    1    2    0    0  0.18829198218E+03  0.90529000106E+02 -0.52976742324E+03  0.58303335508E+03  0.12500000000E+03 0.  0.
         25    1    1    2    0    0 -0.15908134424E+03 -0.12764989949E+03 -0.52268838767E+03  0.57482999359E+03  0.12500000000E+03 0.  0.
</event>
<event>
 5    0  0.5778875E-005  0.2628872E+03  0.7546771E-02  0.1105421E+00
         21   -1    0    0  502  501  0.00000000000E+00  0.00000000000E+00  0.51274249347E+03  0.51274249347E+03  0.00000000000E+00 0.  1.
         21   -1    0    0  501  502 -0.00000000000E+00 -0.00000000000E+00 -0.13478433614E+03  0.13478433614E+03  0.00000000000E+00 0.  1.
         25    1    1    2    0    0 -0.85019309263E+02  0.34861130009E+02  0.16508161109E+03  0.22654032677E+03  0.12500000000E+03 0.  0.
         25    1    1    2    0    0 -0.25929452500E+02  0.53667228242E+02  0.18302319108E+03  0.22951034044E+03  0.12500000000E+03 0.  0.
         25    1    1    2    0    0  0.11094876176E+03 -0.88528358251E+02  0.29853355162E+02  0.19147616240E+03  0.12500000000E+03 0.  0.
</event>
<event>
 5    0  0.5778875E-005  0.3403119E+03  0.7546771E-02  0.1066663E+00
         21   -1    0    0  502  501  0.00000000000E+00  0.00000000000E+00  0.39705010959E+03  0.39705010959E+03  0.00000000000E+00 0.  1.
         21   -1    0    0  501  502 -0.00000000000E+00 -0.00000000000E+00 -0.29168153879E+03  0.29168153879E+03  0.00000000000E+00 0.  1.
         25    1    1    2    0    0 -0.81062144726E+02 -0.44248716581E+02  0.77086643736E+02  0.17348305643E+03  0.12500000000E+03 0.  0.
         25    1    1    2    0    0  0.88816741811E+02  0.23545853033E+03 -0.19753253766E+02  0.28168124567E+03  0.12500000000E+03 0.  0.
         25    1    1    2    0    0 -0.77545970844E+01 -0.19120981374E+03  0.48035180828E+02  0.23356734627E+03  0.12500000000E+03 0.  0.
</event>
<event>
 5    0  0.5778875E-005  0.3160944E+03  0.7546771E-02  0.1077461E+00
         21   -1    0    0  502  501  0.00000000000E+00  0.00000000000E+00  0.21730820461E+03  0.21730820461E+03  0.00000000000E+00 0. -1.
         21   -1    0    0  501  502 -0.00000000000E+00 -0.00000000000E+00 -0.45978772173E+03  0.45978772173E+03  0.00000000000E+00 0. -1.
         25    1    1    2    0    0 -0.99267755681E+02  0.12964442333E+03 -0.11789879384E+02  0.20597515645E+03  0.12500000000E+03 0.  0.
         25    1    1    2    0    0  0.12973052463E+03 -0.19285374636E+03 -0.11948798348E+03  0.28969804056E+03  0.12500000000E+03 0.  0.
         25    1    1    2    0    0 -0.30462768953E+02  0.63209323033E+02 -0.11120165426E+03  0.18142272934E+03  0.12500000000E+03 0.  0.
</event>
<event>
 5    0  0.5778875E-005  0.3867206E+03  0.7546771E-02  0.1048477E+00
         21   -1    0    0  502  501  0.00000000000E+00  0.00000000000E+00  0.49494219796E+03  0.49494219796E+03  0.00000000000E+00 0. -1.
         21   -1    0    0  501  502 -0.00000000000E+00 -0.00000000000E+00 -0.30216215919E+03  0.30216215919E+03  0.00000000000E+00 0. -1.
         25    1    1    2    0    0 -0.21914910422E+03  0.96182296088E+02  0.96728715733E+02  0.28680796434E+03  0.12500000000E+03 0.  0.
         25    1    1    2    0    0 -0.38087451616E+02 -0.16154500555E+03  0.37467577047E+02  0.21113091228E+03  0.12500000000E+03 0.  0.
         25    1    1    2    0    0  0.25723655584E+03  0.65362709462E+02  0.58583745989E+02  0.29916548053E+03  0.12500000000E+03 0.  0.
</event>
<event>
 5    0  0.5778875E-005  0.2522990E+03  0.7546771E-02  0.1111860E+00
         21   -1    0    0  502  501  0.00000000000E+00  0.00000000000E+00  0.46395732599E+02  0.46395732599E+02  0.00000000000E+00 0. -1.
         21   -1    0    0  501  502 -0.00000000000E+00 -0.00000000000E+00 -0.13719961453E+04  0.13719961453E+04  0.00000000000E+00 0. -1.
         25    1    1    2    0    0 -0.27678256823E+02  0.34296592836E+02 -0.38701290910E+03  0.40907986261E+03  0.12500000000E+03 0.  0.
         25    1    1    2    0    0 -0.81231215607E+02 -0.36359933816E+02 -0.71313118999E+03  0.72945297951E+03  0.12500000000E+03 0.  0.
         25    1    1    2    0    0  0.10890947243E+03  0.20633409798E+01 -0.22545631359E+03  0.27985903577E+03  0.12500000000E+03 0.  0.
</event>
<event>
 5    0  0.5778875E-005  0.2799817E+03  0.7546771E-02  0.1095699E+00
         21   -1    0    0  502  501  0.00000000000E+00  0.00000000000E+00  0.34133577568E+03  0.34133577568E+03  0.00000000000E+00 0.  1.
         21   -1    0    0  501  502 -0.00000000000E+00 -0.00000000000E+00 -0.22965580808E+03  0.22965580808E+03  0.00000000000E+00 0.  1.
         25    1    1    2    0    0 -0.39877961330E+02 -0.78985541643E+02  0.16474737694E+03  0.22493480343E+03  0.12500000000E+03 0.  0.
         25    1    1    2    0    0  0.61326526566E+02  0.14326550403E+03 -0.31118047115E+02  0.20218625167E+03  0.12500000000E+03 0.  0.
         25    1    1    2    0    0 -0.21448565235E+02 -0.64279962390E+02 -0.21949362223E+02  0.14387052866E+03  0.12500000000E+03 0.  0.
</event>
<event>
 5    0  0.5778875E-005  0.2348585E+03  0.7546771E-02  0.1123266E+00
         21   -1    0    0  502  501  0.00000000000E+00  0.00000000000E+00  0.66793958044E+03  0.66793958044E+03  0.00000000000E+00 0. -1.
         21   -1    0    0  501  502 -0.00000000000E+00 -0.00000000000E+00 -0.82580119676E+02  0.82580119676E+02  0.00000000000E+00 0. -1.
         25    1    1    2    0    0  0.38628695694E+02  0.58926612921E+02  0.24471745728E+03  0.28368319608E+03  0.12500000000E+03 0.  0.
         25    1    1    2    0    0 -0.76996117379E+02 -0.84580717368E+02  0.11495308018E+03  0.20474743096E+03  0.12500000000E+03 0.  0.
         25    1    1    2    0    0  0.38367421685E+02  0.25654104447E+02  0.22568892330E+03  0.26208907307E+03  0.12500000000E+03 0.  0.
</event>
<event>
 5    0  0.5778875E-005  0.3218582E+03  0.7546771E-02  0.1074797E+00
         21   -1    0    0  502  501  0.00000000000E+00  0.00000000000E+00  0.11658743904E+04  0.11658743904E+04  0.00000000000E+00 0. -1.
         21   -1    0    0  501  502 -0.00000000000E+00 -0.00000000000E+00 -0.88854082669E+02  0.88854082669E+02  0.00000000000E+00 0. -1.
         25    1    1    2    0    0 -0.35308686897E+01 -0.12283801734E+03  0.43718092467E+02  0.18065967217E+03  0.12500000000E+03 0.  0.
         25    1    1    2    0    0  0.20655758681E+02  0.58984736292E+02  0.66561248123E+03  0.68012560211E+03  0.12500000000E+03 0.  0.
         25    1    1    2    0    0 -0.17124889992E+02  0.63853281051E+02  0.36768973404E+03  0.39394319879E+03  0.12500000000E+03 0.  0.
</event>
<event>
 5    0  0.5778875E-005  0.3089340E+03  0.7546771E-02  0.1080858E+00
         21   -1    0    0  502  501  0.00000000000E+00  0.00000000000E+00  0.12825587577E+03  0.12825587577E+03  0.00000000000E+00 0. -1.
         21   -1    0    0  501  502 -0.00000000000E+00 -0.00000000000E+00 -0.74413900863E+03  0.74413900863E+03  0.00000000000E+00 0. -1.
         25    1    1    2    0    0  0.99109451639E+02 -0.16102214084E+02 -0.42246511165E+03  0.45186694420E+03  0.12500000000E+03 0.  0.
         25    1    1    2    0    0 -0.12324564043E+02  0.38431697716E+02  0.43235549047E+02  0.13828666953E+03  0.12500000000E+03 0.  0.
         25    1    1    2    0    0 -0.86784887597E+02 -0.22329483632E+02 -0.23665357026E+03  0.28224127067E+03  0.12500000000E+03 0.  0.
</event>
<event>
 5    0  0.5778875E-005  0.4173630E+03  0.7546771E-02  0.1037928E+00
         21   -1    0    0  502  501  0.00000000000E+00  0.00000000000E+00  0.31221594406E+03  0.31221594406E+03  0.00000000000E+00 0.  1.
         21   -1    0    0  501  502 -0.00000000000E+00 -0.00000000000E+00 -0.55792119238E+03  0.55792119238E+03  0.00000000000E+00 0.  1.
         25    1    1    2    0    0  0.21216389594E+03 -0.20465402285E+02 -0.20757854488E+03  0.32271690958E+03  0.12500000000E+03 0.  0.
         25    1    1    2    0    0 -0.26313906713E+03  0.83490028659E+02  0.12382228575E+03  0.32736785423E+03  0.12500000000E+03 0.  0.
         25    1    1    2    0    0  0.50975171192E+02 -0.63024626374E+02 -0.16194898918E+03  0.22005237264E+03  0.12500000000E+03 0.  0.
</event>
<event>
 5    0  0.6139784E-005  0.3864624E+03  0.7546771E-02  0.1048571E+00
         21   -1    0    0  502  501  0.00000000000E+00  0.00000000000E+00  0.69034443443E+03  0.69034443443E+03  0.00000000000E+00 0. -1.
         21   -1    0    0  501  502 -0.00000000000E+00 -0.00000000000E+00 -0.21634586510E+03  0.21634586510E+03  0.00000000000E+00 0. -1.
         25    1    1    2    0    0 -0.72803796417E-01  0.81820382262E+02 -0.51349213433E+02  0.15797570058E+03  0.12500000000E+03 0.  0.
         25    1    1    2    0    0 -0.78901413152E+02 -0.22403435801E+03  0.11917784946E+03  0.29367530773E+03  0.12500000000E+03 0.  0.
         25    1    1    2    0    0  0.78974216948E+02  0.14221397575E+03  0.40616993331E+03  0.45503929123E+03  0.12500000000E+03 0.  0.
</event>
<event>
 5    0  0.5778875E-005  0.3176733E+03  0.7546771E-02  0.1076725E+00
         21   -1    0    0  502  501  0.00000000000E+00  0.00000000000E+00  0.26262105074E+03  0.26262105074E+03  0.00000000000E+00 0. -1.
         21   -1    0    0  501  502 -0.00000000000E+00 -0.00000000000E+00 -0.38426589553E+03  0.38426589553E+03  0.00000000000E+00 0. -1.
         25    1    1    2    0    0 -0.43228612061E+02 -0.19902996483E+02  0.82381973461E+02  0.15708797446E+03  0.12500000000E+03 0.  0.
         25    1    1    2    0    0 -0.11225085288E+03  0.12310140412E+03 -0.41029045716E+02  0.21227951446E+03  0.12500000000E+03 0.  0.
         25    1    1    2    0    0  0.15547946494E+03 -0.10319840763E+03 -0.16299777253E+03  0.27751945735E+03  0.12500000000E+03 0.  0.
</event>
<event>
 5    0  0.5778875E-005  0.3591060E+03  0.7546771E-02  0.1058938E+00
         21   -1    0    0  502  501  0.00000000000E+00  0.00000000000E+00  0.37938218286E+03  0.37938218286E+03  0.00000000000E+00 0. -1.
         21   -1    0    0  501  502 -0.00000000000E+00 -0.00000000000E+00 -0.33991354651E+03  0.33991354651E+03  0.00000000000E+00 0. -1.
         25    1    1    2    0    0 -0.21085537200E+02 -0.45413671308E+02  0.20776666361E+03  0.24758632420E+03  0.12500000000E+03 0.  0.
         25    1    1    2    0    0  0.48719447091E+02  0.60669091146E+02  0.97293403577E+02  0.17648039417E+03  0.12500000000E+03 0.  0.
         25    1    1    2    0    0 -0.27633909891E+02 -0.15255419838E+02 -0.26559143084E+03  0.29522901101E+03  0.12500000000E+03 0.  0.
</event>
<event>
 5    0  0.5778875E-005  0.3971048E+03  0.7546771E-02  0.1044787E+00
         21   -1    0    0  502  501  0.00000000000E+00  0.00000000000E+00  0.17010341846E+04  0.17010341846E+04  0.00000000000E+00 0. -1.
         21   -1    0    0  501  502 -0.00000000000E+00 -0.00000000000E+00 -0.92703719669E+02  0.92703719669E+02  0.00000000000E+00 0. -1.
         25    1    1    2    0    0  0.48770830944E+02 -0.12213767325E+03  0.14935392283E+03  0.23500595619E+03  0.12500000000E+03 0.  0.
         25    1    1    2    0    0 -0.21198019293E+01  0.29809383347E+03  0.76564333884E+03  0.83108311824E+03  0.12500000000E+03 0.  0.
         25    1    1    2    0    0 -0.46651029014E+02 -0.17595616022E+03  0.69333320326E+03  0.72764882984E+03  0.12500000000E+03 0.  0.
</event>
<event>
 5    0  0.5778875E-005  0.3953852E+03  0.7546771E-02  0.1045389E+00
         21   -1    0    0  502  501  0.00000000000E+00  0.00000000000E+00  0.33575278805E+03  0.33575278805E+03  0.00000000000E+00 0. -1.
         21   -1    0    0  501  502 -0.00000000000E+00 -0.00000000000E+00 -0.46560883016E+03  0.46560883016E+03  0.00000000000E+00 0. -1.
         25    1    1    2    0    0 -0.17978009645E+03  0.13693204331E+03 -0.20580166177E+03  0.33022809019E+03  0.12500000000E+03 0.  0.
         25    1    1    2    0    0  0.22603831860E+03 -0.19055509040E+03  0.60556025667E+02  0.32664444921E+03  0.12500000000E+03 0.  0.
         25    1    1    2    0    0 -0.46258222155E+02  0.53623047089E+02  0.15389593991E+02  0.14448907882E+03  0.12500000000E+03 0.  0.
</event>
<event>
 5    0  0.5778875E-005  0.2783176E+03  0.7546771E-02  0.1096611E+00
         21   -1    0    0  502  501  0.00000000000E+00  0.00000000000E+00  0.14076331636E+03  0.14076331636E+03  0.00000000000E+00 0.  1.
         21   -1    0    0  501  502 -0.00000000000E+00 -0.00000000000E+00 -0.55029023332E+03  0.55029023332E+03  0.00000000000E+00 0.  1.
         25    1    1    2    0    0  0.71665953007E+02 -0.14384607914E+03 -0.87724339999E+02  0.22169407555E+03  0.12500000000E+03 0.  0.
         25    1    1    2    0    0  0.31484531826E+02  0.83989754714E+01 -0.14214556781E+03  0.19207337395E+03  0.12500000000E+03 0.  0.
         25    1    1    2    0    0 -0.10315048483E+03  0.13544710367E+03 -0.17965700915E+03  0.27728610017E+03  0.12500000000E+03 0.  0.
</event>
<event>
 5    0  0.5778875E-005  0.3183839E+03  0.7546771E-02  0.1076395E+00
         21   -1    0    0  502  501  0.00000000000E+00  0.00000000000E+00  0.16765724235E+04  0.16765724235E+04  0.00000000000E+00 0.  1.
         21   -1    0    0  501  502 -0.00000000000E+00 -0.00000000000E+00 -0.60461646694E+02  0.60461646694E+02  0.00000000000E+00 0.  1.
         25    1    1    2    0    0 -0.65720427582E+02 -0.66939857844E+02  0.11495760717E+04  0.11601509659E+04  0.12500000000E+03 0.  0.
         25    1    1    2    0    0  0.77429253115E+02 -0.18789339144E+02  0.96607562274E+02  0.17693600423E+03  0.12500000000E+03 0.  0.
         25    1    1    2    0    0 -0.11708825534E+02  0.85729196988E+02  0.36992714290E+03  0.39994710008E+03  0.12500000000E+03 0.  0.
</event>
<event>
 5    0  0.5778875E-005  0.2856484E+03  0.7546771E-02  0.1092643E+00
         21   -1    0    0  502  501  0.00000000000E+00  0.00000000000E+00  0.72827301418E+02  0.72827301418E+02  0.00000000000E+00 0.  1.
         21   -1    0    0  501  502 -0.00000000000E+00 -0.00000000000E+00 -0.11203906714E+04  0.11203906714E+04  0.00000000000E+00 0.  1.
         25    1    1    2    0    0  0.63807505226E+02  0.10481214341E+03 -0.77968391797E+03  0.79911763532E+03  0.12500000000E+03 0.  0.
         25    1    1    2    0    0  0.61278812726E+01 -0.45439459086E+02 -0.10863626870E+03  0.17184043252E+03  0.12500000000E+03 0.  0.
         25    1    1    2    0    0 -0.69935386499E+02 -0.59372684327E+02 -0.15924318328E+03  0.22225990496E+03  0.12500000000E+03 0.  0.
</event>
<event>
 5    0  0.5778875E-005  0.2547784E+03  0.7546771E-02  0.1110322E+00
         21   -1    0    0  502  501  0.00000000000E+00  0.00000000000E+00  0.85808993015E+02  0.85808993015E+02  0.00000000000E+00 0. -1.
         21   -1    0    0  501  502 -0.00000000000E+00 -0.00000000000E+00 -0.75647108864E+03  0.75647108864E+03  0.00000000000E+00 0. -1.
         25    1    1    2    0    0  0.17215014217E+02  0.91642227719E+02 -0.24022478680E+03  0.28640461381E+03  0.12500000000E+03 0.  0.
         25    1    1    2    0    0  0.40475957981E+02 -0.63640186644E+02 -0.37920286324E+03  0.40633506866E+03  0.12500000000E+03 0.  0.
         25    1    1    2    0    0 -0.57690972198E+02 -0.28002041075E+02 -0.51234445590E+02  0.14954039920E+03  0.12500000000E+03 0.  0.
</event>
<event>
 5    0  0.5778875E-005  0.3640389E+03  0.7546771E-02  0.1056996E+00
         21   -1    0    0  502  501  0.00000000000E+00  0.00000000000E+00  0.18485785390E+04  0.18485785390E+04  0.00000000000E+00 0.  1.
         21   -1    0    0  501  502 -0.00000000000E+00 -0.00000000000E+00 -0.71689843979E+02  0.71689843979E+02  0.00000000000E+00 0.  1.
         25    1    1    2    0    0 -0.12476021453E+03  0.14197352313E+02  0.19148695901E+03  0.26088106756E+03  0.12500000000E+03 0.  0.
         25    1    1    2    0    0  0.81859083451E+02  0.12496060471E+03  0.28686529699E+03  0.34674596016E+03  0.12500000000E+03 0.  0.
         25    1    1    2    0    0  0.42901131075E+02 -0.13915795703E+03  0.12985364390E+04  0.13126413552E+04  0.12500000000E+03 0.  0.
</event>
<event>
 5    0  0.6848331E-005  0.2959388E+03  0.7546771E-02  0.1087289E+00
         21   -1    0    0  502  501  0.00000000000E+00  0.00000000000E+00  0.13262986676E+04  0.13262986676E+04  0.00000000000E+00 0. -1.
         21   -1    0    0  501  502 -0.00000000000E+00 -0.00000000000E+00 -0.66033209095E+02  0.66033209095E+02  0.00000000000E+00 0. -1.
         25    1    1    2    0    0  0.56254147086E+02 -0.13402780106E+03  0.24427900220E+03  0.31052409155E+03  0.12500000000E+03 0.  0.
         25    1    1    2    0    0 -0.13290429214E+03  0.67529205362E+02  0.39531163282E+03  0.44059054857E+03  0.12500000000E+03 0.  0.
         25    1    1    2    0    0  0.76650145056E+02  0.66498595695E+02  0.62067482353E+03  0.64121723661E+03  0.12500000000E+03 0.  0.
</event>
<event>
 5    0  0.5778875E-005  0.3209683E+03  0.7546771E-02  0.1075205E+00
         21   -1    0    0  502  501  0.00000000000E+00  0.00000000000E+00  0.29984693943E+03  0.29984693943E+03  0.00000000000E+00 0.  1.
         21   -1    0    0  501  502 -0.00000000000E+00 -0.00000000000E+00 -0.34357742537E+03  0.34357742537E+03  0.00000000000E+00 0.  1.
         25    1    1    2    0    0  0.19383092486E+02 -0.46996886327E+02 -0.18724096984E+03  0.23079989685E+03  0.12500000000E+03 0.  0.
         25    1    1    2    0    0 -0.10035974772E+03  0.11216116540E+03 -0.19469828993E+00  0.19564571013E+03  0.12500000000E+03 0.  0.
         25    1    1    2    0    0  0.80976655232E+02 -0.65164279072E+02  0.14370518218E+03  0.21697875782E+03  0.12500000000E+03 0.  0.
</event>
<event>
 5    0  0.5778875E-005  0.2689856E+03  0.7546771E-02  0.1101862E+00
         21   -1    0    0  502  501  0.00000000000E+00  0.00000000000E+00  0.77416602705E+02  0.77416602705E+02  0.00000000000E+00 0. -1.
         21   -1    0    0  501  502 -0.00000000000E+00 -0.00000000000E+00 -0.93459629847E+03  0.93459629847E+03  0.00000000000E+00 0. -1.
         25    1    1    2    0    0 -0.28894065117E+02 -0.79525187541E+02 -0.67477831487E+02  0.16534019534E+03  0.12500000000E+03 0.  0.
         25    1    1    2    0    0 -0.45335832332E+02  0.44557851164E+02 -0.25005476051E+03  0.28669343042E+03  0.12500000000E+03 0.  0.
         25    1    1    2    0    0  0.74229897448E+02  0.34967336378E+02 -0.53964710377E+03  0.55997927542E+03  0.12500000000E+03 0.  0.
</event>
<event>
 5    0  0.5778875E-005  0.2088590E+03  0.7546771E-02  0.1142473E+00
         21   -1    0    0  502  501  0.00000000000E+00  0.00000000000E+00  0.16171705551E+03  0.16171705551E+03  0.00000000000E+00 0. -1.
         21   -1    0    0  501  502 -0.00000000000E+00 -0.00000000000E+00 -0.26974331357E+03  0.26974331357E+03  0.00000000000E+00 0. -1.
         25    1    1    2    0    0 -0.30716928325E+02 -0.19494621595E+02 -0.10675231207E+03  0.16835862345E+03  0.12500000000E+03 0.  0.
         25    1    1    2    0    0  0.18743629593E+02  0.24979194118E+01 -0.36488359248E+02  0.13158253536E+03  0.12500000000E+03 0.  0.
         25    1    1    2    0    0  0.11973298733E+02  0.16996702183E+02  0.35214413261E+02  0.13151921027E+03  0.12500000000E+03 0.  0.
</event>
<event>
 5    0  0.5778875E-005  0.3257132E+03  0.7546771E-02  0.1073050E+00
         21   -1    0    0  502  501  0.00000000000E+00  0.00000000000E+00  0.32412390372E+03  0.32412390372E+03  0.00000000000E+00 0.  1.
         21   -1    0    0  501  502 -0.00000000000E+00 -0.00000000000E+00 -0.32731025384E+03  0.32731025384E+03  0.00000000000E+00 0.  1.
         25    1    1    2    0    0  0.12421683292E+03  0.18792064567E+03 -0.59301993978E+02  0.26435906858E+03  0.12500000000E+03 0.  0.
         25    1    1    2    0    0 -0.32852465947E+02 -0.23660467225E+02 -0.46147764583E+02  0.13926133133E+03  0.12500000000E+03 0.  0.
         25    1    1    2    0    0 -0.91364366972E+02 -0.16426017844E+03  0.10226340844E+03  0.24781375765E+03  0.12500000000E+03 0.  0.
</event>
<event>
 5    0  0.5778875E-005  0.2544961E+03  0.7546771E-02  0.1110496E+00
         21   -1    0    0  502  501  0.00000000000E+00  0.00000000000E+00  0.94347152669E+02  0.94347152669E+02  0.00000000000E+00 0.  1.
         21   -1    0    0  501  502 -0.00000000000E+00 -0.00000000000E+00 -0.68648860335E+03  0.68648860335E+03  0.00000000000E+00 0.  1.
         25    1    1    2    0    0 -0.63119523668E+02 -0.60131260429E+02 -0.53201400083E+02  0.16141633040E+03  0.12500000000E+03 0.  0.
         25    1    1    2    0    0 -0.33671701365E+02  0.66313088278E+02 -0.22604300263E+03  0.26879666700E+03  0.12500000000E+03 0.  0.
         25    1    1    2    0    0  0.96791225032E+02 -0.61818278483E+01 -0.31289704797E+03  0.35062275862E+03  0.12500000000E+03 0.  0.
</event>
<event>
 5    0  0.5778875E-005  0.3367626E+03  0.7546771E-02  0.1068183E+00
         21   -1    0    0  502  501  0.00000000000E+00  0.00000000000E+00  0.13245133510E+03  0.13245133510E+03  0.00000000000E+00 0. -1.
         21   -1    0    0  501  502 -0.00000000000E+00 -0.00000000000E+00 -0.85623187515E+03  0.85623187515E+03  0.00000000000E+00 0. -1.
         25    1    1    2    0    0  0.18737359877E+03 -0.27560711961E+02 -0.39297785625E+02  0.23029931462E+03  0.12500000000E+03 0.  0.
         25    1    1    2    0    0 -0.55001547181E+02  0.44214431011E+02 -0.28885211063E+03  0.32255329470E+03  0.12500000000E+03 0.  0.
         25    1    1    2    0    0 -0.13237205159E+03 -0.16653719050E+02 -0.39563064379E+03  0.43583060093E+03  0.12500000000E+03 0.  0.
</event>
<event>
 5    0  0.5778875E-005  0.3135674E+03  0.7546771E-02  0.1078648E+00
         21   -1    0    0  502  501  0.00000000000E+00  0.00000000000E+00  0.16292299814E+03  0.16292299814E+03  0.00000000000E+00 0.  1.
         21   -1    0    0  501  502 -0.00000000000E+00 -0.00000000000E+00 -0.60350279511E+03  0.60350279511E+03  0.00000000000E+00 0.  1.
         25    1    1    2    0    0 -0.93879702999E+02 -0.97569557295E+02 -0.60457082387E+02  0.19394142403E+03  0.12500000000E+03 0.  0.
         25    1    1    2    0    0  0.84225574925E+01 -0.11291871219E+03 -0.15635803635E+03  0.22998784874E+03  0.12500000000E+03 0.  0.
         25    1    1    2    0    0  0.85457145506E+02  0.21048826949E+03 -0.22376467823E+03  0.34249652047E+03  0.12500000000E+03 0.  0.
</event>
<event>
 5    0  0.5778875E-005  0.2401068E+03  0.7546771E-02  0.1119722E+00
         21   -1    0    0  502  501  0.00000000000E+00  0.00000000000E+00  0.12367303974E+03  0.12367303974E+03  0.00000000000E+00 0.  1.
         21   -1    0    0  501  502 -0.00000000000E+00 -0.00000000000E+00 -0.46615864048E+03  0.46615864048E+03  0.00000000000E+00 0.  1.
         25    1    1    2    0    0  0.61102997730E+02  0.80517222821E+02 -0.52958651277E+02  0.16925193720E+03  0.12500000000E+03 0.  0.
         25    1    1    2    0    0 -0.96753171206E+02 -0.34467217944E+02 -0.19507844714E+03  0.25343592048E+03  0.12500000000E+03 0.  0.
         25    1    1    2    0    0  0.35650173476E+02 -0.46050004878E+02 -0.94448502325E+02  0.16714382253E+03  0.12500000000E+03 0.  0.
</event>
<event>
 5    0  0.7418926E-005  0.2822967E+03  0.7546771E-02  0.1094441E+00
         21   -1    0    0  502  501  0.00000000000E+00  0.00000000000E+00  0.45309909332E+03  0.45309909332E+03  0.00000000000E+00 0. -1.
         21   -1    0    0  501  502 -0.00000000000E+00 -0.00000000000E+00 -0.17588078517E+03  0.17588078517E+03  0.00000000000E+00 0. -1.
         25    1    1    2    0    0  0.44339199371E+02  0.89702978502E+02  0.14529040897E+03  0.21621029553E+03  0.12500000000E+03 0.  0.
         25    1    1    2    0    0 -0.11826130705E+03  0.45238655470E+02  0.11911683310E+03  0.21411700685E+03  0.12500000000E+03 0.  0.
         25    1    1    2    0    0  0.73922107675E+02 -0.13494163397E+03  0.12811066082E+02  0.19865257611E+03  0.12500000000E+03 0.  0.
</event>
<event>
 5    0  0.5778875E-005  0.3429184E+03  0.7546771E-02  0.1065560E+00
         21   -1    0    0  502  501  0.00000000000E+00  0.00000000000E+00  0.83555055802E+03  0.83555055802E+03  0.00000000000E+00 0.  1.
         21   -1    0    0  501  502 -0.00000000000E+00 -0.00000000000E+00 -0.14073715539E+03  0.14073715539E+03  0.00000000000E+00 0.  1.
         25    1    1    2    0    0  0.47618985352E+01  0.47406796335E+02 -0.22250659305E+02  0.13561036780E+03  0.12500000000E+03 0.  0.
         25    1    1    2    0    0 -0.14414443332E+03  0.63875059429E+02  0.47037320652E+03  0.51159905618E+03  0.12500000000E+03 0.  0.
         25    1    1    2    0    0  0.13938253478E+03 -0.11128185576E+03  0.24669085541E+03  0.32907828942E+03  0.12500000000E+03 0.  0.
</event>
<event>
 5    0  0.5778875E-005  0.3225146E+03  0.7546771E-02  0.1074498E+00
         21   -1    0    0  502  501  0.00000000000E+00  0.00000000000E+00  0.54622755277E+02  0.54622755277E+02  0.00000000000E+00 0.  1.
         21   -1    0    0  501  502 -0.00000000000E+00 -0.00000000000E+00 -0.19042550364E+04  0.19042550364E+04  0.00000000000E+00 0.  1.
         25    1    1    2    0    0  0.46539247713E+02  0.22142929898E+03 -0.51992208783E+03  0.58063828106E+03  0.12500000000E+03 0.  0.
         25    1    1    2    0    0 -0.26762928696E+02 -0.56871019412E+02 -0.73862243301E+03  0.75175705234E+03  0.12500000000E+03 0.  0.
         25    1    1    2    0    0 -0.19776319016E+02 -0.16455827956E+03 -0.59108776031E+03  0.62648245830E+03  0.12500000000E+03 0.  0.
</event>
<event>
 5    0  0.5778875E-005  0.2673945E+03  0.7546771E-02  0.1102780E+00
         21   -1    0    0  502  501  0.00000000000E+00  0.00000000000E+00  0.92759398462E+03  0.92759398462E+03  0.00000000000E+00 0.  1.
         21   -1    0    0  501  502 -0.00000000000E+00 -0.00000000000E+00 -0.77080963340E+02  0.77080963340E+02  0.00000000000E+00 0.  1.
         25    1    1    2    0    0 -0.79319710703E+02 -0.58439653877E+02  0.14806041101E+03  0.21737915024E+03  0.12500000000E+03 0.  0.
         25    1    1    2    0    0 -0.76232843393E+02  0.14193201902E+02  0.23698080240E+03  0.27892255932E+03  0.12500000000E+03 0.  0.
         25    1    1    2    0    0  0.15555255410E+03  0.44246451974E+02  0.46547180786E+03  0.50837323839E+03  0.12500000000E+03 0.  0.
</event>
<event>
 5    0  0.5778875E-005  0.3240161E+03  0.7546771E-02  0.1073816E+00
         21   -1    0    0  502  501  0.00000000000E+00  0.00000000000E+00  0.11367368867E+03  0.11367368867E+03  0.00000000000E+00 0. -1.
         21   -1    0    0  501  502 -0.00000000000E+00 -0.00000000000E+00 -0.92357732439E+03  0.92357732439E+03  0.00000000000E+00 0.  1.
         25    1    1    2    0    0 -0.27267701259E+02  0.60606593411E+02 -0.41031402593E+03  0.43404986646E+03  0.12500000000E+03 0.  0.
         25    1    1    2    0    0 -0.20041860316E+01  0.15332122318E+03 -0.21954646902E+03  0.29552845260E+03  0.12500000000E+03 0.  0.
         25    1    1    2    0    0  0.29271887290E+02 -0.21392781659E+03 -0.18004314077E+03  0.30767269400E+03  0.12500000000E+03 0.  0.
</event>
<event>
 5    0  0.5778875E-005  0.4771440E+03  0.7546771E-02  0.1019923E+00
         21   -1    0    0  502  501  0.00000000000E+00  0.00000000000E+00  0.60279226316E+03  0.60279226316E+03  0.00000000000E+00 0. -1.
         21   -1    0    0  501  502 -0.00000000000E+00 -0.00000000000E+00 -0.37768635952E+03  0.37768635952E+03  0.00000000000E+00 0. -1.
         25    1    1    2    0    0 -0.10334961677E+03  0.64000037046E+02 -0.16685296719E+03  0.24133391948E+03  0.12500000000E+03 0.  0.
         25    1    1    2    0    0  0.13770121330E+03  0.88582998402E+02 -0.84250978315E+02  0.22255740630E+03  0.12500000000E+03 0.  0.
         25    1    1    2    0    0 -0.34351596532E+02 -0.15258303545E+03  0.47620984916E+03  0.51658729691E+03  0.12500000000E+03 0.  0.
</event>
<event>
 5    0  0.5778875E-005  0.2309950E+03  0.7546771E-02  0.1125941E+00
         21   -1    0    0  502  501  0.00000000000E+00  0.00000000000E+00  0.50166946557E+02  0.50166946557E+02  0.00000000000E+00 0.  1.
         21   -1    0    0  501  502 -0.00000000000E+00 -0.00000000000E+00 -0.10636223567E+04  0.10636223567E+04  0.00000000000E+00 0.  1.
         25    1    1    2    0    0 -0.45442181216E+02 -0.49160014891E+02 -0.40514071843E+03  0.42923851251E+03  0.12500000000E+03 0.  0.
         25    1    1    2    0    0  0.61092925377E+02 -0.43239792178E+01 -0.14314550257E+03  0.19966641489E+03  0.12500000000E+03 0.  0.
         25    1    1    2    0    0 -0.15650744161E+02  0.53483994109E+02 -0.46516918910E+03  0.48488437582E+03  0.12500000000E+03 0.  0.
</event>
<event>
 5    0  0.5778875E-005  0.2524933E+03  0.7546771E-02  0.1111739E+00
         21   -1    0    0  502  501  0.00000000000E+00  0.00000000000E+00  0.25237844916E+03  0.25237844916E+03  0.00000000000E+00 0. -1.
         21   -1    0    0  501  502 -0.00000000000E+00 -0.00000000000E+00 -0.25260825122E+03  0.25260825122E+03  0.00000000000E+00 0. -1.
         25    1    1    2    0    0 -0.32788834159E+02  0.33071607075E+02 -0.73182906886E+02  0.15214984949E+03  0.12500000000E+03 0.  0.
         25    1    1    2    0    0 -0.56107148729E+01 -0.10312588885E+03  0.11483277693E+03  0.19869070369E+03  0.12500000000E+03 0.  0.
         25    1    1    2    0    0  0.38399549032E+02  0.70054281775E+02 -0.41879672105E+02  0.15414614720E+03  0.12500000000E+03 0.  0.
</event>
<event>
 5    0  0.5778875E-005  0.2107104E+03  0.7546771E-02  0.1141005E+00
         21   -1    0    0  502  501  0.00000000000E+00  0.00000000000E+00  0.19443817385E+03  0.19443817385E+03  0.00000000000E+00 0.  1.
         21   -1    0    0  501  502 -0.00000000000E+00 -0.00000000000E+00 -0.22834432547E+03  0.22834432547E+03  0.00000000000E+00 0.  1.
         25    1    1    2    0    0  0.45986004895E+02  0.35858340363E+02 -0.42491254414E+01  0.13799850828E+03  0.12500000000E+03 0.  0.
         25    1    1    2    0    0  0.36997934207E+02 -0.94875105205E+01 -0.84606644297E+01  0.13097878773E+03  0.12500000000E+03 0.  0.
         25    1    1    2    0    0 -0.82983939102E+02 -0.26370829843E+02 -0.21196361748E+02  0.15380520332E+03  0.12500000000E+03 0.  0.
</event>
<event>
 5    0  0.5778875E-005  0.2443158E+03  0.7546771E-02  0.1116951E+00
         21   -1    0    0  502  501  0.00000000000E+00  0.00000000000E+00  0.60254667913E+03  0.60254667913E+03  0.00000000000E+00 0. -1.
         21   -1    0    0  501  502 -0.00000000000E+00 -0.00000000000E+00 -0.99063228612E+02  0.99063228612E+02  0.00000000000E+00 0. -1.
         25    1    1    2    0    0 -0.60409863991E+02 -0.39891879887E+02  0.17366760127E+03  0.22588968431E+03  0.12500000000E+03 0.  0.
         25    1    1    2    0    0 -0.37447619493E+02  0.87765770928E+02  0.81469351078E+02  0.17710846935E+03  0.12500000000E+03 0.  0.
         25    1    1    2    0    0  0.97857483484E+02 -0.47873891041E+02  0.24834649817E+03  0.29861175407E+03  0.12500000000E+03 0.  0.
</event>
<event>
 5    0  0.5778875E-005  0.3797662E+03  0.7546771E-02  0.1051020E+00
         21   -1    0    0  502  501  0.00000000000E+00  0.00000000000E+00  0.24544872121E+03  0.24544872121E+03  0.00000000000E+00 0. -1.
         21   -1    0    0  501  502 -0.00000000000E+00 -0.00000000000E+00 -0.58758645496E+03  0.58758645496E+03  0.00000000000E+00 0. -1.
         25    1    1    2    0    0 -0.16308984823E+03 -0.86020455751E+02  0.78951775362E+02  0.23633916357E+03  0.12500000000E+03 0.  0.
         25    1    1    2    0    0 -0.57727246233E+02 -0.33830227485E+02 -0.12983085781E+03  0.19224456010E+03  0.12500000000E+03 0.  0.
         25    1    1    2    0    0  0.22081709446E+03  0.11985068324E+03 -0.29125865130E+03  0.40445145251E+03  0.12500000000E+03 0.  0.
</event>
<event>
 5    0  0.5778875E-005  0.2996035E+03  0.7546771E-02  0.1085439E+00
         21   -1    0    0  502  501  0.00000000000E+00  0.00000000000E+00  0.57339311349E+02  0.57339311349E+02  0.00000000000E+00 0.  1.
         21   -1    0    0  501  502 -0.00000000000E+00 -0.00000000000E+00 -0.15654576242E+04  0.15654576242E+04  0.00000000000E+00 0.  1.
         25    1    1    2    0    0 -0.15327762222E+03  0.12433859053E+03 -0.61640119173E+03  0.65918854946E+03  0.12500000000E+03 0.  0.
         25    1    1    2    0    0  0.48442968433E+02 -0.12189778006E+03 -0.62692649697E+03  0.65258533740E+03  0.12500000000E+03 0.  0.
         25    1    1    2    0    0  0.10483465378E+03 -0.24408104647E+01 -0.26479062419E+03  0.31102304874E+03  0.12500000000E+03 0.  0.
</event>
<event>
 5    0  0.5778875E-005  0.3564793E+03  0.7546771E-02  0.1059987E+00
         21   -1    0    0  502  501  0.00000000000E+00  0.00000000000E+00  0.10875537828E+04  0.10875537828E+04  0.00000000000E+00 0. -1.
         21   -1    0    0  501  502 -0.00000000000E+00 -0.00000000000E+00 -0.11684708018E+03  0.11684708018E+03  0.00000000000E+00 0. -1.
         25    1    1    2    0    0  0.10721819288E+03 -0.75080208146E+02  0.42620941924E+03  0.46304670130E+03  0.12500000000E+03 0.  0.
         25    1    1    2    0    0 -0.90719393997E+02 -0.16476982935E+03  0.18986027341E+03  0.29504411285E+03  0.12500000000E+03 0.  0.
         25    1    1    2    0    0 -0.16498798887E+02  0.23985003749E+03  0.35463701000E+03  0.44631004886E+03  0.12500000000E+03 0.  0.
</event>
<event>
 5    0  0.5778875E-005  0.4416336E+03  0.7546771E-02  0.1030247E+00
         21   -1    0    0  502  501  0.00000000000E+00  0.00000000000E+00  0.11465472072E+03  0.11465472072E+03  0.00000000000E+00 0.  1.
         21   -1    0    0  501  502 -0.00000000000E+00 -0.00000000000E+00 -0.17011098606E+04  0.17011098606E+04  0.00000000000E+00 0.  1.
         25    1    1    2    0    0  0.29301441823E+03  0.92945917952E+01 -0.35545478757E+03  0.47740647748E+03  0.12500000000E+03 0.  0.
         25    1    1    2    0    0 -0.35630951345E+03  0.83692973240E+01 -0.98152018269E+03  0.10516812176E+04  0.12500000000E+03 0.  0.
         25    1    1    2    0    0  0.63295095218E+02 -0.17663889119E+02 -0.24948016963E+03  0.28667688623E+03  0.12500000000E+03 0.  0.
</event>
<event>
 5    0  0.5778875E-005  0.2840561E+03  0.7546771E-02  0.1093494E+00
         21   -1    0    0  502  501  0.00000000000E+00  0.00000000000E+00  0.60753356620E+03  0.60753356620E+03  0.00000000000E+00 0. -1.
         21   -1    0    0  501  502 -0.00000000000E+00 -0.00000000000E+00 -0.13281222416E+03  0.13281222416E+03  0.00000000000E+00 0. -1.
         25    1    1    2    0    0  0.10790870057E+03 -0.15224338311E+03  0.17618432509E+03  0.28546147160E+03  0.12500000000E+03 0.  0.
         25    1    1    2    0    0 -0.44603847436E+02  0.10935336689E+03  0.24404333275E+03  0.29854616111E+03  0.12500000000E+03 0.  0.
         25    1    1    2    0    0 -0.63304853135E+02  0.42890016220E+02  0.54493684208E+02  0.15633815766E+03  0.12500000000E+03 0.  0.
</event>
<event>
 5    0  0.7509354E-005  0.4368726E+03  0.7546771E-02  0.1031711E+00
         21   -1    0    0  502  501  0.00000000000E+00  0.00000000000E+00  0.19580673984E+03  0.19580673984E+03  0.00000000000E+00 0.  1.
         21   -1    0    0  501  502 -0.00000000000E+00 -0.00000000000E+00 -0.97472478093E+03  0.97472478093E+03  0.00000000000E+00 0.  1.
         25    1    1    2    0    0 -0.95986518019E+02  0.20464859026E+03 -0.42463355852E+02  0.26176820611E+03  0.12500000000E+03 0.  0.
         25    1    1    2    0    0  0.30219751215E+02 -0.24075487400E+03 -0.16486709047E+03  0.31887662228E+03  0.12500000000E+03 0.  0.
         25    1    1    2    0    0  0.65766766803E+02  0.36106283743E+02 -0.57158759477E+03  0.58988669237E+03  0.12500000000E+03 0.  0.
</event>
<event>
 5    0  0.5778875E-005  0.2491886E+03  0.7546771E-02  0.1113819E+00
         21   -1    0    0  502  501  0.00000000000E+00  0.00000000000E+00  0.27023443092E+03  0.27023443092E+03  0.00000000000E+00 0. -1.
         21   -1    0    0  501  502 -0.00000000000E+00 -0.00000000000E+00 -0.22978173111E+03  0.22978173111E+03  0.00000000000E+00 0. -1.
         25    1    1    2    0    0  0.23010522068E+02 -0.15535540816E+02  0.29999199128E+02  0.13151345598E+03  0.12500000000E+03 0.  0.
         25    1    1    2    0    0  0.49956298177E+02  0.12717686504E+03  0.13565254015E+02  0.18568414807E+03  0.12500000000E+03 0.  0.
         25    1    1    2    0    0 -0.72966820245E+02 -0.11164132423E+03 -0.31117533328E+01  0.18281855798E+03  0.12500000000E+03 0.  0.
</event>
<event>
 5    0  0.5778875E-005  0.2456947E+03  0.7546771E-02  0.1116056E+00
         21   -1    0    0  502  501  0.00000000000E+00  0.00000000000E+00  0.18299580519E+03  0.18299580519E+03  0.00000000000E+00 0. -1.
         21   -1    0    0  501  502 -0.00000000000E+00 -0.00000000000E+00 -0.32987589498E+03  0.32987589498E+03  0.00000000000E+00 0. -1.
         25    1    1    2    0    0 -0.63810334143E+02 -0.61267485770E+02 -0.66356932942E+01  0.15327914399E+03  0.12500000000E+03 0.  0.
         25    1    1    2    0    0 -0.13070208253E+02 -0.37690630098E+02 -0.12617776671E+03  0.18203637755E+03  0.12500000000E+03 0.  0.
         25    1    1    2    0    0  0.76880542396E+02  0.98958115869E+02 -0.14066629792E+02  0.17755617863E+03  0.12500000000E+03 0.  0.
</event>
<event>
 5    0  0.5778875E-005  0.2469728E+03  0.7546771E-02  0.1115233E+00
         21   -1    0    0  502  501  0.00000000000E+00  0.00000000000E+00  0.60575372414E+02  0.60575372414E+02  0.00000000000E+00 0. -1.
         21   -1    0    0  501  502 -0.00000000000E+00 -0.00000000000E+00 -0.10069370666E+04  0.10069370666E+04  0.00000000000E+00 0. -1.
         25    1    1    2    0    0  0.29636777974E+00 -0.36378256165E+02 -0.24038071795E+03  0.27337036218E+03  0.12500000000E+03 0.  0.
         25    1    1    2    0    0 -0.56467651628E+02  0.11699954757E+03 -0.22956419728E+03  0.29189417686E+03  0.12500000000E+03 0.  0.
         25    1    1    2    0    0  0.56171283848E+02 -0.80621291403E+02 -0.47641677891E+03  0.50224789993E+03  0.12500000000E+03 0.  0.
</event>
<event>
 5    0  0.5778875E-005  0.2366184E+03  0.7546771E-02  0.1122066E+00
         21   -1    0    0  502  501  0.00000000000E+00  0.00000000000E+00  0.81324406792E+02  0.81324406792E+02  0.00000000000E+00 0. -1.
         21   -1    0    0  501  502 -0.00000000000E+00 -0.00000000000E+00 -0.68845582682E+03  0.68845582682E+03  0.00000000000E+00 0. -1.
         25    1    1    2    0    0  0.10682285998E+02  0.61887444581E+02 -0.35345113181E+03  0.38012743865E+03  0.12500000000E+03 0.  0.
         25    1    1    2    0    0  0.15515160728E+02  0.19327934403E+02 -0.52325365707E+02  0.13775787875E+03  0.12500000000E+03 0.  0.
         25    1    1    2    0    0 -0.26197446726E+02 -0.81215378984E+02 -0.20135492251E+03  0.25189491622E+03  0.12500000000E+03 0.  0.
</event>
<event>
 5    0  0.5778875E-005  0.2579213E+03  0.7546771E-02  0.1108399E+00
         21   -1    0    0  502  501  0.00000000000E+00  0.00000000000E+00  0.36980990167E+02  0.36980990167E+02  0.00000000000E+00 0. -1.
         21   -1    0    0  501  502 -0.00000000000E+00 -0.00000000000E+00 -0.17988532064E+04  0.17988532064E+04  0.00000000000E+00 0. -1.
         25    1    1    2    0    0 -0.58458664431E+02  0.79433748730E+02 -0.70156489414E+03  0.71940630841E+03  0.12500000000E+03 0.  0.
         25    1    1    2    0    0  0.10748805007E+03  0.11102861059E+02 -0.33847830464E+03  0.37665570106E+03  0.12500000000E+03 0.  0.
         25    1    1    2    0    0 -0.49029385636E+02 -0.90536609789E+02 -0.72182901744E+03  0.73977218708E+03  0.12500000000E+03 0.  0.
</event>
<event>
 5    0  0.5778875E-005  0.2837672E+03  0.7546771E-02  0.1093649E+00
         21   -1    0    0  502  501  0.00000000000E+00  0.00000000000E+00  0.56111110235E+02  0.56111110235E+02  0.00000000000E+00 0.  1.
         21   -1    0    0  501  502 -0.00000000000E+00 -0.00000000000E+00 -0.14350783139E+04  0.14350783139E+04  0.00000000000E+00 0.  1.
         25    1    1    2    0    0  0.15645934145E+03  0.66328979820E+02 -0.62791074627E+03  0.66240166392E+03  0.12500000000E+03 0.  0.
         25    1    1    2    0    0 -0.13065085904E+03  0.31408172328E+02 -0.47662255957E+03  0.51073494549E+03  0.12500000000E+03 0.  0.
         25    1    1    2    0    0 -0.25808482408E+02 -0.97737152148E+02 -0.27443389785E+03  0.31805281474E+03  0.12500000000E+03 0.  0.
</event>
<event>
 5    0  0.5778875E-005  0.3253078E+03  0.7546771E-02  0.1073232E+00
         21   -1    0    0  502  501  0.00000000000E+00  0.00000000000E+00  0.73895903556E+02  0.73895903556E+02  0.00000000000E+00 0.  1.
         21   -1    0    0  501  502 -0.00000000000E+00 -0.00000000000E+00 -0.14320844861E+04  0.14320844861E+04  0.00000000000E+00 0.  1.
         25    1    1    2    0    0 -0.47856312587E+01  0.11877215565E+03 -0.55636063931E+03  0.58248767214E+03  0.12500000000E+03 0.  0.
         25    1    1    2    0    0 -0.10503780700E+03 -0.15344072522E+03 -0.20765241900E+03  0.30548571844E+03  0.12500000000E+03 0.  0.
         25    1    1    2    0    0  0.10982343826E+03  0.34668569574E+02 -0.59417552425E+03  0.61800699909E+03  0.12500000000E+03 0.  0.
</event>
<event>
 5    0  0.5778875E-005  0.2437980E+03  0.7546771E-02  0.1117288E+00
         21   -1    0    0  502  501  0.00000000000E+00  0.00000000000E+00  0.15456270779E+04  0.15456270779E+04  0.00000000000E+00 0. -1.
         21   -1    0    0  501  502 -0.00000000000E+00 -0.00000000000E+00 -0.38455252653E+02  0.38455252653E+02  0.00000000000E+00 0. -1.
         25    1    1    2    0    0  0.60284767846E+02  0.12464152727E+03  0.47496749921E+03  0.51028314577E+03  0.12500000000E+03 0.  0.
         25    1    1    2    0    0 -0.59085245191E+02 -0.36473171306E+02  0.49440590130E+03  0.51466839194E+03  0.12500000000E+03 0.  0.
         25    1    1    2    0    0 -0.11995226544E+01 -0.88168355965E+02  0.53779842475E+03  0.55913079285E+03  0.12500000000E+03 0.  0.
</event>
<event>
 5    0  0.5778875E-005  0.2384264E+03  0.7546771E-02  0.1120846E+00
         21   -1    0    0  502  501  0.00000000000E+00  0.00000000000E+00  0.13797239314E+03  0.13797239314E+03  0.00000000000E+00 0. -1.
         21   -1    0    0  501  502 -0.00000000000E+00 -0.00000000000E+00 -0.41201841189E+03  0.41201841189E+03  0.00000000000E+00 0. -1.
         25    1    1    2    0    0  0.11823196522E+01 -0.44062822981E+02 -0.25145774364E+03  0.28425152082E+03  0.12500000000E+03 0.  0.
         25    1    1    2    0    0  0.18024807459E+02  0.12276987098E+02  0.20226153013E+02  0.12849013722E+03  0.12500000000E+03 0.  0.
         25    1    1    2    0    0 -0.19207127111E+02  0.31785835883E+02 -0.42814428120E+02  0.13724914699E+03  0.12500000000E+03 0.  0.
</event>
<event>
 5    0  0.5778875E-005  0.3358999E+03  0.7546771E-02  0.1068556E+00
         21   -1    0    0  502  501  0.00000000000E+00  0.00000000000E+00  0.10948181550E+03  0.10948181550E+03  0.00000000000E+00 0. -1.
         21   -1    0    0  501  502 -0.00000000000E+00 -0.00000000000E+00 -0.10305707609E+04  0.10305707609E+04  0.00000000000E+00 0. -1.
         25    1    1    2    0    0  0.98784794357E+02  0.64027610641E+02 -0.60617460220E+02  0.18209186419E+03  0.12500000000E+03 0.  0.
         25    1    1    2    0    0 -0.15092632231E+03  0.73328515408E+02 -0.30437506815E+03  0.36935756125E+03  0.12500000000E+03 0.  0.
         25    1    1    2    0    0  0.52141527955E+02 -0.13735612605E+03 -0.55609641707E+03  0.58860315101E+03  0.12500000000E+03 0.  0.
</event>
<event>
 5    0  0.5778875E-005  0.2777521E+03  0.7546771E-02  0.1096923E+00
         21   -1    0    0  502  501  0.00000000000E+00  0.00000000000E+00  0.29188014750E+04  0.29188014750E+04  0.00000000000E+00 0.  1.
         21   -1    0    0  501  502 -0.00000000000E+00 -0.00000000000E+00 -0.26430783358E+02  0.26430783358E+02  0.00000000000E+00 0.  1.
         25    1    1    2    0    0 -0.95530321382E+02 -0.59622097645E+02  0.72493872254E+03  0.74420560887E+03  0.12500000000E+03 0.  0.
         25    1    1    2    0    0  0.94255789706E+02  0.10468554052E+03  0.18086346006E+04  0.18184134114E+04  0.12500000000E+03 0.  0.
         25    1    1    2    0    0  0.12745316754E+01 -0.45063442875E+02  0.35879736850E+03  0.38261323808E+03  0.12500000000E+03 0.  0.
</event>
<event>
 5    0  0.5778875E-005  0.2639129E+03  0.7546771E-02  0.1104815E+00
         21   -1    0    0  502  501  0.00000000000E+00  0.00000000000E+00  0.77031675551E+02  0.77031675551E+02  0.00000000000E+00 0. -1.
         21   -1    0    0  501  502 -0.00000000000E+00 -0.00000000000E+00 -0.90417407531E+03  0.90417407531E+03  0.00000000000E+00 0. -1.
         25    1    1    2    0    0  0.61186862983E+02  0.30972132837E+02 -0.41443792064E+03  0.43827719000E+03  0.12500000000E+03 0.  0.
         25    1    1    2    0    0 -0.10441682336E+03  0.38838851669E+02 -0.33471061286E+03  0.37425596022E+03  0.12500000000E+03 0.  0.
         25    1    1    2    0    0  0.43229960377E+02 -0.69810984506E+02 -0.77993866263E+02  0.16867260064E+03  0.12500000000E+03 0.  0.
</event>
<event>
 5    0  0.5778875E-005  0.3174095E+03  0.7546771E-02  0.1076848E+00
         21   -1    0    0  502  501  0.00000000000E+00  0.00000000000E+00  0.82958635324E+02  0.82958635324E+02  0.00000000000E+00 0.  1.
         21   -1    0    0  501  502 -0.00000000000E+00 -0.00000000000E+00 -0.12144459391E+04  0.12144459391E+04  0.00000000000E+00 0.  1.
         25    1    1    2    0    0 -0.13599532865E+03 -0.88896264299E+02 -0.22489276596E+03  0.30430088959E+03  0.12500000000E+03 0.  0.
         25    1    1    2    0    0  0.75037801218E+02  0.16009612907E+03 -0.70827098959E+03  0.74063097211E+03  0.12500000000E+03 0.  0.
         25    1    1    2    0    0  0.60957527436E+02 -0.71199864767E+02 -0.19832354825E+03  0.25247271275E+03  0.12500000000E+03 0.  0.
</event>
<event>
 5    0  0.5778875E-005  0.4846956E+03  0.7546771E-02  0.1017853E+00
         21   -1    0    0  502  501  0.00000000000E+00  0.00000000000E+00  0.12502171722E+04  0.12502171722E+04  0.00000000000E+00 0.  1.
         21   -1    0    0  501  502 -0.00000000000E+00 -0.00000000000E+00 -0.18791123730E+03  0.18791123730E+03  0.00000000000E+00 0.  1.
         25    1    1    2    0    0  0.10958821384E+03  0.11521636327E+03  0.29089805185E+02  0.20434187956E+03  0.12500000000E+03 0.  0.
         25    1    1    2    0    0 -0.27764451947E+03 -0.27242141965E+03  0.56396834551E+03  0.69640879074E+03  0.12500000000E+03 0.  0.
         25    1    1    2    0    0  0.16805630563E+03  0.15720505638E+03  0.46924778425E+03  0.53737773924E+03  0.12500000000E+03 0.  0.
</event>
<event>
 5    0  0.5778875E-005  0.3688190E+03  0.7546771E-02  0.1055145E+00
         21   -1    0    0  502  501  0.00000000000E+00  0.00000000000E+00  0.75868872576E+02  0.75868872576E+02  0.00000000000E+00 0.  1.
         21   -1    0    0  501  502 -0.00000000000E+00 -0.00000000000E+00 -0.17929283401E+04  0.17929283401E+04  0.00000000000E+00 0. -1.
         25    1    1    2    0    0 -0.51565373642E+02 -0.11994361033E+03 -0.58590719963E+03  0.61315389911E+03  0.12500000000E+03 0.  0.
         25    1    1    2    0    0  0.13795751687E+03 -0.70636247677E+02 -0.89278918249E+03  0.91472360870E+03  0.12500000000E+03 0.  0.
         25    1    1    2    0    0 -0.86392143224E+02  0.19057985800E+03 -0.23836308544E+03  0.34091970490E+03  0.12500000000E+03 0.  0.
</event>
<event>
 5    0  0.5778875E-005  0.2494729E+03  0.7546771E-02  0.1113638E+00
         21   -1    0    0  502  501  0.00000000000E+00  0.00000000000E+00  0.14163099193E+03  0.14163099193E+03  0.00000000000E+00 0.  1.
         21   -1    0    0  501  502 -0.00000000000E+00 -0.00000000000E+00 -0.43942857819E+03  0.43942857819E+03  0.00000000000E+00 0.  1.
         25    1    1    2    0    0  0.51348419618E+02  0.13539941833E+02 -0.69154695315E+02  0.15240525616E+03  0.12500000000E+03 0.  0.
         25    1    1    2    0    0  0.31210929974E+02 -0.12041443558E+03 -0.88264564711E+02  0.19720393462E+03  0.12500000000E+03 0.  0.
         25    1    1    2    0    0 -0.82559349591E+02  0.10687449375E+03 -0.14037832623E+03  0.23145037933E+03  0.12500000000E+03 0.  0.
</event>
<event>
 5    0  0.5778875E-005  0.5441314E+03  0.7546771E-02  0.1002861E+00
         21   -1    0    0  502  501  0.00000000000E+00  0.00000000000E+00  0.14690974646E+04  0.14690974646E+04  0.00000000000E+00 0. -1.
         21   -1    0    0  501  502 -0.00000000000E+00 -0.00000000000E+00 -0.20153801283E+03  0.20153801283E+03  0.00000000000E+00 0. -1.
         25    1    1    2    0    0  0.35830937951E+03  0.10068205435E+03  0.43415831055E+03  0.58535538448E+03  0.12500000000E+03 0.  0.
         25    1    1    2    0    0 -0.20502240263E-01 -0.22229278548E+02 -0.37233449407E+02  0.13230824237E+03  0.12500000000E+03 0.  0.
         25    1    1    2    0    0 -0.35828887727E+03 -0.78452775798E+02  0.87063459058E+03  0.95297185054E+03  0.12500000000E+03 0.  0.
</event>
<event>
 5    0  0.5778875E-005  0.4262831E+03  0.7546771E-02  0.1035041E+00
         21   -1    0    0  502  501  0.00000000000E+00  0.00000000000E+00  0.34172774769E+03  0.34172774769E+03  0.00000000000E+00 0.  1.
         21   -1    0    0  501  502 -0.00000000000E+00 -0.00000000000E+00 -0.53176037695E+03  0.53176037695E+03  0.00000000000E+00 0.  1.
         25    1    1    2    0    0  0.13391979557E+03 -0.31773270247E+03 -0.14463674613E+02  0.36704601857E+03  0.12500000000E+03 0.  0.
         25    1    1    2    0    0  0.16753468441E+02  0.17101818335E+03 -0.13374682443E+02  0.21291261088E+03  0.12500000000E+03 0.  0.
         25    1    1    2    0    0 -0.15067326401E+03  0.14671451912E+03 -0.16219427221E+03  0.29352949519E+03  0.12500000000E+03 0.  0.
</event>
<event>
 5    0  0.5778875E-005  0.3426468E+03  0.7546771E-02  0.1065674E+00
         21   -1    0    0  502  501  0.00000000000E+00  0.00000000000E+00  0.22771003264E+03  0.22771003264E+03  0.00000000000E+00 0. -1.
         21   -1    0    0  501  502 -0.00000000000E+00 -0.00000000000E+00 -0.51559789172E+03  0.51559789172E+03  0.00000000000E+00 0. -1.
         25    1    1    2    0    0  0.27076701002E+02 -0.17403830147E+03  0.90017764050E+02  0.23398862357E+03  0.12500000000E+03 0.  0.
         25    1    1    2    0    0  0.19853316669E+02  0.89478156374E+01 -0.17023589629E+03  0.21231928309E+03  0.12500000000E+03 0.  0.
         25    1    1    2    0    0 -0.46930017671E+02  0.16509048583E+03 -0.20766972683E+03  0.29700001770E+03  0.12500000000E+03 0.  0.
</event>
<event>
 5    0  0.5778875E-005  0.2897888E+03  0.7546771E-02  0.1090459E+00
         21   -1    0    0  502  501  0.00000000000E+00  0.00000000000E+00  0.28925792967E+03  0.28925792967E+03  0.00000000000E+00 0. -1.
         21   -1    0    0  501  502 -0.00000000000E+00 -0.00000000000E+00 -0.29032067738E+03  0.29032067738E+03  0.00000000000E+00 0. -1.
         25    1    1    2    0    0 -0.56268157130E+02  0.65758432281E+02 -0.49157777886E+02  0.15978662037E+03  0.12500000000E+03 0.  0.
         25    1    1    2    0    0  0.56803498875E+02 -0.12657220360E+03 -0.10399538419E+03  0.21374564356E+03  0.12500000000E+03 0.  0.
         25    1    1    2    0    0 -0.53534174525E+00  0.60813771323E+02  0.15209041436E+03  0.20604634312E+03  0.12500000000E+03 0.  0.
</event>
<event>
 5    0  0.5778875E-005  0.3132725E+03  0.7546771E-02  0.1078788E+00
         21   -1    0    0  502  501  0.00000000000E+00  0.00000000000E+00  0.12326859316E+03  0.12326859316E+03  0.00000000000E+00 0. -1.
         21   -1    0    0  501  502 -0.00000000000E+00 -0.00000000000E+00 -0.79614477152E+03  0.79614477152E+03  0.00000000000E+00 0. -1.
         25    1    1    2    0    0  0.55356258634E+02  0.13648688835E+03 -0.23202796369E+02  0.19456709851E+03  0.12500000000E+03 0.  0.
         25    1    1    2    0    0  0.88271016443E+01 -0.74778307838E+02 -0.44961867674E+03  0.47270674580E+03  0.12500000000E+03 0.  0.
         25    1    1    2    0    0 -0.64183360279E+02 -0.61708580517E+02 -0.20005470524E+03  0.25213952038E+03  0.12500000000E+03 0.  0.
</event>
<event>
 5    0  0.5778875E-005  0.3799272E+03  0.7546771E-02  0.1050961E+00
         21   -1    0    0  502  501  0.00000000000E+00  0.00000000000E+00  0.43428664140E+03  0.43428664140E+03  0.00000000000E+00 0. -1.
         21   -1    0    0  501  502 -0.00000000000E+00 -0.00000000000E+00 -0.33237184258E+03  0.33237184258E+03  0.00000000000E+00 0. -1.
         25    1    1    2    0    0  0.23014831417E+02  0.12374075464E+03 -0.31915724546E+02  0.18023615147E+03  0.12500000000E+03 0.  0.
         25    1    1    2    0    0  0.23154991326E+03 -0.66978106844E+02  0.97355233905E+01  0.27170058804E+03  0.12500000000E+03 0.  0.
         25    1    1    2    0    0 -0.25456474467E+03 -0.56762647798E+02  0.12409499998E+03  0.31472174446E+03  0.12500000000E+03 0.  0.
</event>
<event>
 5    0  0.5778875E-005  0.2408707E+03  0.7546771E-02  0.1119214E+00
         21   -1    0    0  502  501  0.00000000000E+00  0.00000000000E+00  0.30331934750E+03  0.30331934750E+03  0.00000000000E+00 0.  1.
         21   -1    0    0  501  502 -0.00000000000E+00 -0.00000000000E+00 -0.19127918495E+03  0.19127918495E+03  0.00000000000E+00 0.  1.
         25    1    1    2    0    0 -0.10187952397E+03 -0.17607886013E+02  0.71598355516E+02  0.17731553673E+03  0.12500000000E+03 0.  0.
         25    1    1    2    0    0  0.70526940057E+02  0.45921696131E+02 -0.48332995941E+02  0.15825274072E+03  0.12500000000E+03 0.  0.
         25    1    1    2    0    0  0.31352583911E+02 -0.28313810118E+02  0.88774802981E+02  0.15903025500E+03  0.12500000000E+03 0.  0.
</event>
<event>
 5    0  0.5778875E-005  0.2623385E+03  0.7546771E-02  0.1105746E+00
         21   -1    0    0  502  501  0.00000000000E+00  0.00000000000E+00  0.10141353419E+03  0.10141353419E+03  0.00000000000E+00 0.  1.
         21   -1    0    0  501  502 -0.00000000000E+00 -0.00000000000E+00 -0.67862249928E+03  0.67862249928E+03  0.00000000000E+00 0.  1.
         25    1    1    2    0    0 -0.88255373968E+02 -0.66806502740E+02 -0.27075942139E+03  0.31810027368E+03  0.12500000000E+03 0.  0.
         25    1    1    2    0    0  0.50257047749E+02 -0.11864849270E+02 -0.19052105783E+02  0.13658158086E+03  0.12500000000E+03 0.  0.
         25    1    1    2    0    0  0.37998326219E+02  0.78671352010E+02 -0.28739743791E+03  0.32535417892E+03  0.12500000000E+03 0.  0.
</event>
<event>
 5    0  0.5778875E-005  0.2937708E+03  0.7546771E-02  0.1088397E+00
         21   -1    0    0  502  501  0.00000000000E+00  0.00000000000E+00  0.15019013460E+03  0.15019013460E+03  0.00000000000E+00 0.  1.
         21   -1    0    0  501  502 -0.00000000000E+00 -0.00000000000E+00 -0.57461350254E+03  0.57461350254E+03  0.00000000000E+00 0.  1.
         25    1    1    2    0    0 -0.10979976127E+03  0.62119719584E+02 -0.51017871213E+02  0.18477735337E+03  0.12500000000E+03 0.  0.
         25    1    1    2    0    0  0.91135591146E+02  0.60550535122E+02 -0.52949729493E+02  0.17435807160E+03  0.12500000000E+03 0.  0.
         25    1    1    2    0    0  0.18664170124E+02 -0.12267025471E+03 -0.32045576724E+03  0.36566821217E+03  0.12500000000E+03 0.  0.
</event>
<event>
 5    0  0.5778875E-005  0.2952641E+03  0.7546771E-02  0.1087632E+00
         21   -1    0    0  502  501  0.00000000000E+00  0.00000000000E+00  0.61414433811E+02  0.61414433811E+02  0.00000000000E+00 0. -1.
         21   -1    0    0  501  502 -0.00000000000E+00 -0.00000000000E+00 -0.14195506484E+04  0.14195506484E+04  0.00000000000E+00 0. -1.
         25    1    1    2    0    0  0.68451489035E+02  0.19222456201E+03 -0.55286579991E+03  0.60242964842E+03  0.12500000000E+03 0.  0.
         25    1    1    2    0    0 -0.39541675338E+02 -0.10388889058E+03 -0.58709130139E+03  0.61045691236E+03  0.12500000000E+03 0.  0.
         25    1    1    2    0    0 -0.28909813697E+02 -0.88335671427E+02 -0.21817911326E+03  0.26807852140E+03  0.12500000000E+03 0.  0.
</event>
<event>
 5    0  0.5778875E-005  0.3312571E+03  0.7546771E-02  0.1070582E+00
         21   -1    0    0  502  501  0.00000000000E+00  0.00000000000E+00  0.75705793372E+03  0.75705793372E+03  0.00000000000E+00 0.  1.
         21   -1    0    0  501  502 -0.00000000000E+00 -0.00000000000E+00 -0.14494434775E+03  0.14494434775E+03  0.00000000000E+00 0.  1.
         25    1    1    2    0    0  0.27265725177E+02  0.52714725701E+02  0.13521349047E+03  0.19346821465E+03  0.12500000000E+03 0.  0.
         25    1    1    2    0    0  0.85477414003E+02 -0.14025423129E+03  0.47597057726E+03  0.51879729001E+03  0.12500000000E+03 0.  0.
         25    1    1    2    0    0 -0.11274313918E+03  0.87539505585E+02  0.92951823080E+00  0.18973677681E+03  0.12500000000E+03 0.  0.
</event>
<event>
 5    0  0.5778875E-005  0.3326850E+03  0.7546771E-02  0.1069955E+00
         21   -1    0    0  502  501  0.00000000000E+00  0.00000000000E+00  0.22706571366E+03  0.22706571366E+03  0.00000000000E+00 0. -1.
         21   -1    0    0  501  502 -0.00000000000E+00 -0.00000000000E+00 -0.48743298539E+03  0.48743298539E+03  0.00000000000E+00 0. -1.
         25    1    1    2    0    0 -0.12175566103E+03  0.60165755915E+02 -0.26344370542E+03  0.32167055367E+03  0.12500000000E+03 0.  0.
         25    1    1    2    0    0  0.16602484871E+03 -0.22398701994E+02  0.92406714964E+02  0.22853873459E+03  0.12500000000E+03 0.  0.
         25    1    1    2    0    0 -0.44269187681E+02 -0.37767053921E+02 -0.89330281282E+02  0.16428941078E+03  0.12500000000E+03 0.  0.
</event>
<event>
 5    0  0.5778875E-005  0.4162601E+03  0.7546771E-02  0.1038290E+00
         21   -1    0    0  502  501  0.00000000000E+00  0.00000000000E+00  0.14122309082E+04  0.14122309082E+04  0.00000000000E+00 0. -1.
         21   -1    0    0  501  502 -0.00000000000E+00 -0.00000000000E+00 -0.12269415382E+03  0.12269415382E+03  0.00000000000E+00 0. -1.
         25    1    1    2    0    0 -0.12285126122E+03 -0.73774606505E+02 -0.73565069431E+00  0.19015958069E+03  0.12500000000E+03 0.  0.
         25    1    1    2    0    0  0.63387107059E+02  0.14321153073E+03  0.48546513576E+03  0.52519412212E+03  0.12500000000E+03 0.  0.
         25    1    1    2    0    0  0.59464154159E+02 -0.69436924224E+02  0.80480726929E+03  0.81957135917E+03  0.12500000000E+03 0.  0.
</event>
<event>
 5    0  0.5778875E-005  0.2070091E+03  0.7546771E-02  0.1143957E+00
         21   -1    0    0  502  501  0.00000000000E+00  0.00000000000E+00  0.41932313678E+03  0.41932313678E+03  0.00000000000E+00 0.  1.
         21   -1    0    0  501  502 -0.00000000000E+00 -0.00000000000E+00 -0.10219513733E+03  0.10219513733E+03  0.00000000000E+00 0.  1.
         25    1    1    2    0    0  0.15208504358E+02  0.18020865332E+02  0.19593417920E+03  0.23360490742E+03  0.12500000000E+03 0.  0.
         25    1    1    2    0    0 -0.32202206561E+02 -0.58023429855E+01  0.32545786647E+02  0.13324742969E+03  0.12500000000E+03 0.  0.
         25    1    1    2    0    0  0.16993702202E+02 -0.12218522346E+02  0.88648033607E+02  0.15466593699E+03  0.12500000000E+03 0.  0.
</event>
<event>
 5    0  0.5778875E-005  0.2878934E+03  0.7546771E-02  0.1091454E+00
         21   -1    0    0  502  501  0.00000000000E+00  0.00000000000E+00  0.64913684029E+02  0.64913684029E+02  0.00000000000E+00 0.  1.
         21   -1    0    0  501  502 -0.00000000000E+00 -0.00000000000E+00 -0.12768129271E+04  0.12768129271E+04  0.00000000000E+00 0.  1.
         25    1    1    2    0    0 -0.12560612776E+02 -0.36068146333E+02 -0.45875998064E+03  0.47701614229E+03  0.12500000000E+03 0.  0.
         25    1    1    2    0    0  0.11113608184E+03  0.44643829317E+02 -0.65502462725E+03  0.67751499060E+03  0.12500000000E+03 0.  0.
         25    1    1    2    0    0 -0.98575469061E+02 -0.85756829833E+01 -0.98114635203E+02  0.18719547826E+03  0.12500000000E+03 0.  0.
</event>
<event>
 5    0  0.5778875E-005  0.2112948E+03  0.7546771E-02  0.1140545E+00
         21   -1    0    0  502  501  0.00000000000E+00  0.00000000000E+00  0.65005859865E+03  0.65005859865E+03  0.00000000000E+00 0.  1.
         21   -1    0    0  501  502 -0.00000000000E+00 -0.00000000000E+00 -0.68679156582E+02  0.68679156582E+02  0.00000000000E+00 0.  1.
         25    1    1    2    0    0  0.43368181022E+02 -0.38184474043E+02  0.22300944646E+03  0.26210125218E+03  0.12500000000E+03 0.  0.
         25    1    1    2    0    0 -0.45546044628E+01  0.63987881364E+02  0.24092126725E+03  0.27889648689E+03  0.12500000000E+03 0.  0.
         25    1    1    2    0    0 -0.38813576559E+02 -0.25803407320E+02  0.11744872835E+03  0.17774001617E+03  0.12500000000E+03 0.  0.
</event>
<event>
 5    0  0.5778875E-005  0.2857808E+03  0.7546771E-02  0.1092573E+00
         21   -1    0    0  502  501  0.00000000000E+00  0.00000000000E+00  0.35099477279E+03  0.35099477279E+03  0.00000000000E+00 0.  1.
         21   -1    0    0  501  502 -0.00000000000E+00 -0.00000000000E+00 -0.23268335083E+03  0.23268335083E+03  0.00000000000E+00 0.  1.
         25    1    1    2    0    0 -0.26068706905E+02 -0.16721596246E+03  0.16657311453E+03  0.26835118421E+03  0.12500000000E+03 0.  0.
         25    1    1    2    0    0  0.35421479656E+02  0.92496400256E+02  0.60990970077E+01  0.15960095321E+03  0.12500000000E+03 0.  0.
         25    1    1    2    0    0 -0.93527727512E+01  0.74719562202E+02 -0.54360789585E+02  0.15572598620E+03  0.12500000000E+03 0.  0.
</event>
<event>
 5    0  0.5778875E-005  0.2218178E+03  0.7546771E-02  0.1132535E+00
         21   -1    0    0  502  501  0.00000000000E+00  0.00000000000E+00  0.38387377326E+02  0.38387377326E+02  0.00000000000E+00 0.  1.
         21   -1    0    0  501  502 -0.00000000000E+00 -0.00000000000E+00 -0.12817531236E+04  0.12817531236E+04  0.00000000000E+00 0.  1.
         25    1    1    2    0    0 -0.27508557062E+02  0.21095652273E+02 -0.21474100019E+03  0.25087934236E+03  0.12500000000E+03 0.  0.
         25    1    1    2    0    0  0.14385732151E+02 -0.39504539965E+02 -0.27478771571E+03  0.30479640200E+03  0.12500000000E+03 0.  0.
         25    1    1    2    0    0  0.13122824911E+02  0.18408887692E+02 -0.75383703035E+03  0.76446475655E+03  0.12500000000E+03 0.  0.
</event>
<event>
 5    0  0.5778875E-005  0.5146755E+03  0.7546771E-02  0.1010018E+00
         21   -1    0    0  502  501  0.00000000000E+00  0.00000000000E+00  0.61685452705E+03  0.61685452705E+03  0.00000000000E+00 0. -1.
         21   -1    0    0  501  502 -0.00000000000E+00 -0.00000000000E+00 -0.42942197391E+03  0.42942197391E+03  0.00000000000E+00 0. -1.
         25    1    1    2    0    0 -0.20670540656E+03 -0.11163324119E+03 -0.20609900212E+03  0.33658714223E+03  0.12500000000E+03 0.  0.
         25    1    1    2    0    0  0.18260231647E+03 -0.15475462380E+02  0.46571837271E+03  0.51585046147E+03  0.12500000000E+03 0.  0.
         25    1    1    2    0    0  0.24103090089E+02  0.12710870357E+03 -0.72186817457E+02  0.19383889726E+03  0.12500000000E+03 0.  0.
</event>
<event>
 5    0  0.5778875E-005  0.2641881E+03  0.7546771E-02  0.1104653E+00
         21   -1    0    0  502  501  0.00000000000E+00  0.00000000000E+00  0.93396664183E+02  0.93396664183E+02  0.00000000000E+00 0. -1.
         21   -1    0    0  501  502 -0.00000000000E+00 -0.00000000000E+00 -0.74729999057E+03  0.74729999057E+03  0.00000000000E+00 0. -1.
         25    1    1    2    0    0  0.41839083848E+02 -0.39091395542E+02 -0.63603717312E+02  0.15148953429E+03  0.12500000000E+03 0.  0.
         25    1    1    2    0    0 -0.44222878828E+02 -0.78961543551E+02 -0.41889559594E+03  0.44641808730E+03  0.12500000000E+03 0.  0.
         25    1    1    2    0    0  0.23837949801E+01  0.11805293909E+03 -0.17140401314E+03  0.24278903317E+03  0.12500000000E+03 0.  0.
</event>
<event>
 5    0  0.5778875E-005  0.2301215E+03  0.7546771E-02  0.1126554E+00
         21   -1    0    0  502  501  0.00000000000E+00  0.00000000000E+00  0.18168577242E+03  0.18168577242E+03  0.00000000000E+00 0.  1.
         21   -1    0    0  501  502 -0.00000000000E+00 -0.00000000000E+00 -0.29146985415E+03  0.29146985415E+03  0.00000000000E+00 0.  1.
         25    1    1    2    0    0 -0.95415673164E+02  0.84406636327E+01 -0.15950942766E+01  0.15748949112E+03  0.12500000000E+03 0.  0.
         25    1    1    2    0    0  0.28255519067E+02 -0.64951857103E+01  0.13098204970E+02  0.12898497885E+03  0.12500000000E+03 0.  0.
         25    1    1    2    0    0  0.67160154097E+02 -0.19454779224E+01 -0.12128719243E+03  0.18668115660E+03  0.12500000000E+03 0.  0.
</event>
<event>
 5    0  0.5778875E-005  0.3476964E+03  0.7546771E-02  0.1063565E+00
         21   -1    0    0  502  501  0.00000000000E+00  0.00000000000E+00  0.10196915398E+04  0.10196915398E+04  0.00000000000E+00 0. -1.
         21   -1    0    0  501  502 -0.00000000000E+00 -0.00000000000E+00 -0.11855821788E+03  0.11855821788E+03  0.00000000000E+00 0. -1.
         25    1    1    2    0    0  0.86825542721E+02 -0.15014929576E+03  0.29417211588E+03  0.36365604580E+03  0.12500000000E+03 0.  0.
         25    1    1    2    0    0  0.10735924894E+03  0.15425271027E+03  0.42245977964E+03  0.47897512709E+03  0.12500000000E+03 0.  0.
         25    1    1    2    0    0 -0.19418479166E+03 -0.41034145144E+01  0.18450142640E+03  0.29561858478E+03  0.12500000000E+03 0.  0.
</event>
<event>
 5    0  0.6112305E-005  0.3115784E+03  0.7546771E-02  0.1079592E+00
         21   -1    0    0  502  501  0.00000000000E+00  0.00000000000E+00  0.47579673496E+03  0.47579673496E+03  0.00000000000E+00 0. -1.
         21   -1    0    0  501  502 -0.00000000000E+00 -0.00000000000E+00 -0.20403905795E+03  0.20403905795E+03  0.00000000000E+00 0. -1.
         25    1    1    2    0    0 -0.65256738422E+02  0.16253741837E+03  0.19532590822E+03  0.29060981522E+03  0.12500000000E+03 0.  0.
         25    1    1    2    0    0  0.13196466768E+03 -0.59011252843E+02  0.93808013581E+02  0.21288951334E+03  0.12500000000E+03 0.  0.
         25    1    1    2    0    0 -0.66707929258E+02 -0.10352616553E+03 -0.17376244788E+02  0.17633646435E+03  0.12500000000E+03 0.  0.
</event>
<event>
 5    0  0.5778875E-005  0.2455416E+03  0.7546771E-02  0.1116155E+00
         21   -1    0    0  502  501  0.00000000000E+00  0.00000000000E+00  0.11006139624E+03  0.11006139624E+03  0.00000000000E+00 0. -1.
         21   -1    0    0  501  502 -0.00000000000E+00 -0.00000000000E+00 -0.54779150448E+03  0.54779150448E+03  0.00000000000E+00 0. -1.
         25    1    1    2    0    0 -0.17307190964E+01 -0.12457295097E+03 -0.20265650298E+03  0.26873048525E+03  0.12500000000E+03 0.  0.
         25    1    1    2    0    0  0.53209478785E+01  0.30102993490E+02 -0.18351222035E+03  0.22413441886E+03  0.12500000000E+03 0.  0.
         25    1    1    2    0    0 -0.35902287821E+01  0.94469957478E+02 -0.51561384913E+02  0.16498799660E+03  0.12500000000E+03 0.  0.
</event>
<event>
 5    0  0.5778875E-005  0.3070068E+03  0.7546771E-02  0.1081789E+00
         21   -1    0    0  502  501  0.00000000000E+00  0.00000000000E+00  0.95787254976E+03  0.95787254976E+03  0.00000000000E+00 0.  1.
         21   -1    0    0  501  502 -0.00000000000E+00 -0.00000000000E+00 -0.98398479778E+02  0.98398479778E+02  0.00000000000E+00 0.  1.
         25    1    1    2    0    0  0.82822459379E+02  0.27867990307E+02  0.23105053684E+03  0.27684930058E+03  0.12500000000E+03 0.  0.
         25    1    1    2    0    0  0.47655598434E+02  0.15443422507E+03  0.27179448052E+03  0.34002680126E+03  0.12500000000E+03 0.  0.
         25    1    1    2    0    0 -0.13047805781E+03 -0.18230221538E+03  0.35662905263E+03  0.43939492769E+03  0.12500000000E+03 0.  0.
</event>
<event>
 5    0  0.5778875E-005  0.2959694E+03  0.7546771E-02  0.1087273E+00
         21   -1    0    0  502  501  0.00000000000E+00  0.00000000000E+00  0.44241196069E+02  0.44241196069E+02  0.00000000000E+00 0.  1.
         21   -1    0    0  501  502 -0.00000000000E+00 -0.00000000000E+00 -0.19800074058E+04  0.19800074058E+04  0.00000000000E+00 0.  1.
         25    1    1    2    0    0 -0.66400854291E+02  0.16426810536E+03 -0.71504733412E+03  0.74720196328E+03  0.12500000000E+03 0.  0.
         25    1    1    2    0    0 -0.43112481852E+02  0.92454037362E+01 -0.36878724908E+03  0.39188416486E+03  0.12500000000E+03 0.  0.
         25    1    1    2    0    0  0.10951333614E+03 -0.17351350910E+03 -0.85193162653E+03  0.88516247374E+03  0.12500000000E+03 0.  0.
</event>
<event>
 5    0  0.5778875E-005  0.6043086E+03  0.7546771E-02  0.9896507E-01
         21   -1    0    0  502  501  0.00000000000E+00  0.00000000000E+00  0.16550016469E+03  0.16550016469E+03  0.00000000000E+00 0.  1.
         21   -1    0    0  501  502 -0.00000000000E+00 -0.00000000000E+00 -0.22065774056E+04  0.22065774056E+04  0.00000000000E+00 0.  1.
         25    1    1    2    0    0  0.10516681256E+03  0.66389773272E+02 -0.30510187998E+03  0.35239156861E+03  0.12500000000E+03 0.  0.
         25    1    1    2    0    0 -0.19334021087E+03 -0.26637363859E+03 -0.17324680157E+04  0.17678817205E+04  0.12500000000E+03 0.  0.
         25    1    1    2    0    0  0.88173398311E+02  0.19998386531E+03 -0.35073453064E+01  0.25180428119E+03  0.12500000000E+03 0.  0.
</event>
<event>
 5    0  0.5778875E-005  0.4431297E+03  0.7546771E-02  0.1029791E+00
         21   -1    0    0  502  501  0.00000000000E+00  0.00000000000E+00  0.10941659269E+03  0.10941659269E+03  0.00000000000E+00 0. -1.
         21   -1    0    0  501  502 -0.00000000000E+00 -0.00000000000E+00 -0.17946451604E+04  0.17946451604E+04  0.00000000000E+00 0. -1.
         25    1    1    2    0    0 -0.37923742540E+02  0.30914377869E+03 -0.79720928317E+03  0.86497151822E+03  0.12500000000E+03 0.  0.
         25    1    1    2    0    0  0.70681638038E+02 -0.34547193265E+03 -0.47403480629E+03  0.60388802586E+03  0.12500000000E+03 0.  0.
         25    1    1    2    0    0 -0.32757895498E+02  0.36328153960E+02 -0.41398447822E+03  0.43520220897E+03  0.12500000000E+03 0.  0.
</event>
<event>
 5    0  0.5778875E-005  0.3819656E+03  0.7546771E-02  0.1050210E+00
         21   -1    0    0  502  501  0.00000000000E+00  0.00000000000E+00  0.73990008644E+03  0.73990008644E+03  0.00000000000E+00 0.  1.
         21   -1    0    0  501  502 -0.00000000000E+00 -0.00000000000E+00 -0.19718571510E+03  0.19718571510E+03  0.00000000000E+00 0.  1.
         25    1    1    2    0    0  0.78821070434E+02  0.11376655224E+03  0.80334687276E+02  0.20306218637E+03  0.12500000000E+03 0.  0.
         25    1    1    2    0    0 -0.26347326144E+03 -0.17235366770E+03  0.29392845360E+03  0.44848955629E+03  0.12500000000E+03 0.  0.
         25    1    1    2    0    0  0.18465219101E+03  0.58587115460E+02  0.16845123046E+03  0.28553405889E+03  0.12500000000E+03 0.  0.
</event>
<event>
 5    0  0.5778875E-005  0.4788504E+03  0.7546771E-02  0.1019452E+00
         21   -1    0    0  502  501  0.00000000000E+00  0.00000000000E+00  0.40001162061E+03  0.40001162061E+03  0.00000000000E+00 0. -1.
         21   -1    0    0  501  502 -0.00000000000E+00 -0.00000000000E+00 -0.57322766029E+03  0.57322766029E+03  0.00000000000E+00 0. -1.
         25    1    1    2    0    0  0.88831120605E+02 -0.17302199472E+03 -0.11250303085E+03  0.25711769795E+03  0.12500000000E+03 0.  0.
         25    1    1    2    0    0 -0.42697268248E+02  0.30142006336E+03 -0.27794649479E+03  0.43076253931E+03  0.12500000000E+03 0.  0.
         25    1    1    2    0    0 -0.46133852356E+02 -0.12839806863E+03  0.21723348597E+03  0.28535904364E+03  0.12500000000E+03 0.  0.
</event>
<event>
 5    0  0.5778875E-005  0.5588626E+03  0.7546771E-02  0.9994632E-01
         21   -1    0    0  502  501  0.00000000000E+00  0.00000000000E+00  0.41923790198E+03  0.41923790198E+03  0.00000000000E+00 0.  1.
         21   -1    0    0  501  502 -0.00000000000E+00 -0.00000000000E+00 -0.74498849061E+03  0.74498849061E+03  0.00000000000E+00 0.  1.
         25    1    1    2    0    0  0.24416083908E+03  0.38790785907E+03 -0.10258555897E+03  0.48604096471E+03  0.12500000000E+03 0.  0.
         25    1    1    2    0    0 -0.22609292796E+03 -0.92624380632E+02  0.20261964873E+02  0.27519599413E+03  0.12500000000E+03 0.  0.
         25    1    1    2    0    0 -0.18067911119E+02 -0.29528347844E+03 -0.24342699453E+03  0.40298943375E+03  0.12500000000E+03 0.  0.
</event>
<event>
 5    0  0.5778875E-005  0.5714601E+03  0.7546771E-02  0.9966453E-01
         21   -1    0    0  502  501  0.00000000000E+00  0.00000000000E+00  0.13384207183E+04  0.13384207183E+04  0.00000000000E+00 0.  1.
         21   -1    0    0  501  502 -0.00000000000E+00 -0.00000000000E+00 -0.24399398796E+03  0.24399398796E+03  0.00000000000E+00 0.  1.
         25    1    1    2    0    0  0.51099599427E+02 -0.11877484908E+03  0.17651413542E+03  0.25199379723E+03  0.12500000000E+03 0.  0.
         25    1    1    2    0    0  0.33043125792E+03  0.79876738189E+01  0.83370303890E+03  0.90550227841E+03  0.12500000000E+03 0.  0.
         25    1    1    2    0    0 -0.38153085734E+03  0.11078717526E+03  0.84209555999E+02  0.42491863060E+03  0.12500000000E+03 0.  0.
</event>
<event>
 5    0  0.5778875E-005  0.3823979E+03  0.7546771E-02  0.1050051E+00
         21   -1    0    0  502  501  0.00000000000E+00  0.00000000000E+00  0.93089271910E+03  0.93089271910E+03  0.00000000000E+00 0. -1.
         21   -1    0    0  501  502 -0.00000000000E+00 -0.00000000000E+00 -0.15708382481E+03  0.15708382481E+03  0.00000000000E+00 0. -1.
         25    1    1    2    0    0 -0.99198218045E+02  0.18875911094E+03  0.14130854011E+03  0.28471633591E+03  0.12500000000E+03 0.  0.
         25    1    1    2    0    0 -0.12193267514E+03  0.15215532882E+01  0.26887991575E+03  0.32061082559E+03  0.12500000000E+03 0.  0.
         25    1    1    2    0    0  0.22113089319E+03 -0.19028066423E+03  0.36362043842E+03  0.48264938241E+03  0.12500000000E+03 0.  0.
</event>
<event>
 5    0  0.5778875E-005  0.2585227E+03  0.7546771E-02  0.1108034E+00
         21   -1    0    0  502  501  0.00000000000E+00  0.00000000000E+00  0.10391235699E+04  0.10391235699E+04  0.00000000000E+00 0. -1.
         21   -1    0    0  501  502 -0.00000000000E+00 -0.00000000000E+00 -0.64317635949E+02  0.64317635949E+02  0.00000000000E+00 0. -1.
         25    1    1    2    0    0  0.95154872914E+02 -0.71551151903E+01  0.15929439973E+03  0.22384224646E+03  0.12500000000E+03 0.  0.
         25    1    1    2    0    0 -0.12311971670E+03 -0.29591449017E+02  0.31633725002E+03  0.36294403734E+03  0.12500000000E+03 0.  0.
         25    1    1    2    0    0  0.27964843785E+02  0.36746564208E+02  0.49917428419E+03  0.51665492204E+03  0.12500000000E+03 0.  0.
</event>
<event>
 5    0  0.5778875E-005  0.3055958E+03  0.7546771E-02  0.1082476E+00
         21   -1    0    0  502  501  0.00000000000E+00  0.00000000000E+00  0.13870018620E+03  0.13870018620E+03  0.00000000000E+00 0.  1.
         21   -1    0    0  501  502 -0.00000000000E+00 -0.00000000000E+00 -0.67331395092E+03  0.67331395092E+03  0.00000000000E+00 0.  1.
         25    1    1    2    0    0 -0.75958821229E+02 -0.31157221203E+02  0.25516637287E+02  0.15171227285E+03  0.12500000000E+03 0.  0.
         25    1    1    2    0    0 -0.17077628305E+02  0.11634180471E+03 -0.29190114854E+03  0.33861237637E+03  0.12500000000E+03 0.  0.
         25    1    1    2    0    0  0.93036449534E+02 -0.85184583505E+02 -0.26822925347E+03  0.32168948790E+03  0.12500000000E+03 0.  0.
</event>
<event>
 5    0  0.5778875E-005  0.3878032E+03  0.7546771E-02  0.1048087E+00
         21   -1    0    0  502  501  0.00000000000E+00  0.00000000000E+00  0.19679074524E+03  0.19679074524E+03  0.00000000000E+00 0. -1.
         21   -1    0    0  501  502 -0.00000000000E+00 -0.00000000000E+00 -0.76421964671E+03  0.76421964671E+03  0.00000000000E+00 0. -1.
         25    1    1    2    0    0  0.17905021531E+03 -0.15649901434E+03 -0.33650075154E+03  0.43059107850E+03  0.12500000000E+03 0.  0.
         25    1    1    2    0    0 -0.11690954636E+03  0.13586852170E+03  0.42599040104E+02  0.22263821648E+03  0.12500000000E+03 0.  0.
         25    1    1    2    0    0 -0.62140668953E+02  0.20630492640E+02 -0.27352719003E+03  0.30778109697E+03  0.12500000000E+03 0.  0.
</event>
<event>
 5    0  0.5778875E-005  0.4290073E+03  0.7546771E-02  0.1034174E+00
         21   -1    0    0  502  501  0.00000000000E+00  0.00000000000E+00  0.10619736608E+04  0.10619736608E+04  0.00000000000E+00 0.  1.
         21   -1    0    0  501  502 -0.00000000000E+00 -0.00000000000E+00 -0.17330677390E+03  0.17330677390E+03  0.00000000000E+00 0.  1.
         25    1    1    2    0    0  0.10067281813E+03  0.16507036879E+03  0.21325532888E+03  0.31382491657E+03  0.12500000000E+03 0.  0.
         25    1    1    2    0    0 -0.24286359875E+03 -0.25624959259E+03  0.26003010832E+03  0.45594653035E+03  0.12500000000E+03 0.  0.
         25    1    1    2    0    0  0.14219078062E+03  0.91179223798E+02  0.41538144968E+03  0.46550898776E+03  0.12500000000E+03 0.  0.
</event>
<event>
 5    0  0.8707656E-005  0.2873984E+03  0.7546771E-02  0.1091715E+00
         21   -1    0    0  502  501  0.00000000000E+00  0.00000000000E+00  0.22235337278E+03  0.22235337278E+03  0.00000000000E+00 0. -1.
         21   -1    0    0  501  502 -0.00000000000E+00 -0.00000000000E+00 -0.37147105927E+03  0.37147105927E+03  0.00000000000E+00 0. -1.
         25    1    1    2    0    0 -0.90620611841E+02 -0.14973670794E+02  0.46684373452E+02  0.16198992818E+03  0.12500000000E+03 0.  0.
         25    1    1    2    0    0  0.17284414803E+03  0.38994958058E+02 -0.52136315437E+02  0.22302219991E+03  0.12500000000E+03 0.  0.
         25    1    1    2    0    0 -0.82223536193E+02 -0.24021287263E+02 -0.14366574450E+03  0.20881230397E+03  0.12500000000E+03 0.  0.
</event>
<event>
 5    0  0.5778875E-005  0.5420895E+03  0.7546771E-02  0.1003342E+00
         21   -1    0    0  502  501  0.00000000000E+00  0.00000000000E+00  0.61654431375E+03  0.61654431375E+03  0.00000000000E+00 0. -1.
         21   -1    0    0  501  502 -0.00000000000E+00 -0.00000000000E+00 -0.47662591529E+03  0.47662591529E+03  0.00000000000E+00 0. -1.
         25    1    1    2    0    0  0.59363038574E+02 -0.33596511929E+03  0.44698649507E+02  0.36608673972E+03  0.12500000000E+03 0.  0.
         25    1    1    2    0    0  0.23920768616E+03  0.49896934100E+02  0.10790163462E+03  0.29491996186E+03  0.12500000000E+03 0.  0.
         25    1    1    2    0    0 -0.29857072473E+03  0.28606818519E+03 -0.12681885655E+02  0.43216352746E+03  0.12500000000E+03 0.  0.
</event>
<event>
 5    0  0.5778875E-005  0.2696481E+03  0.7546771E-02  0.1101481E+00
         21   -1    0    0  502  501  0.00000000000E+00  0.00000000000E+00  0.45670492272E+03  0.45670492272E+03  0.00000000000E+00 0.  1.
         21   -1    0    0  501  502 -0.00000000000E+00 -0.00000000000E+00 -0.15920585648E+03  0.15920585648E+03  0.00000000000E+00 0.  1.
         25    1    1    2    0    0 -0.64602736422E+02  0.47011761963E+02  0.16605022072E+03  0.22266857685E+03  0.12500000000E+03 0.  0.
         25    1    1    2    0    0  0.14276659947E+03  0.13219461810E+02  0.13614415404E+03  0.23391726480E+03  0.12500000000E+03 0.  0.
         25    1    1    2    0    0 -0.78163863044E+02 -0.60231223773E+02 -0.46953085221E+01  0.15932493755E+03  0.12500000000E+03 0.  0.
</event>
<event>
 5    0  0.5778875E-005  0.2606825E+03  0.7546771E-02  0.1106734E+00
         21   -1    0    0  502  501  0.00000000000E+00  0.00000000000E+00  0.33091817789E+02  0.33091817789E+02  0.00000000000E+00 0.  1.
         21   -1    0    0  501  502 -0.00000000000E+00 -0.00000000000E+00 -0.20535402379E+04  0.20535402379E+04  0.00000000000E+00 0.  1.
         25    1    1    2    0    0  0.47678421901E+02  0.62313602354E+02 -0.53317530258E+03  0.55322429469E+03  0.12500000000E+03 0.  0.
         25    1    1    2    0    0  0.65028197882E+02  0.14819240304E+02 -0.29984344151E+03  0.33163137038E+03  0.12500000000E+03 0.  0.
         25    1    1    2    0    0 -0.11270661978E+03 -0.77132842658E+02 -0.11874296761E+04  0.12017763907E+04  0.12500000000E+03 0.  0.
</event>
<event>
 5    0  0.5778875E-005  0.3413559E+03  0.7546771E-02  0.1066220E+00
         21   -1    0    0  502  501  0.00000000000E+00  0.00000000000E+00  0.70984966639E+02  0.70984966639E+02  0.00000000000E+00 0. -1.
         21   -1    0    0  501  502 -0.00000000000E+00 -0.00000000000E+00 -0.16415289159E+04  0.16415289159E+04  0.00000000000E+00 0. -1.
         25    1    1    2    0    0  0.56846057525E+02 -0.55426200260E+02 -0.12980429637E+03  0.19692052531E+03  0.12500000000E+03 0.  0.
         25    1    1    2    0    0  0.57222379063E+02 -0.12021303097E+03 -0.95222077912E+03  0.96957464162E+03  0.12500000000E+03 0.  0.
         25    1    1    2    0    0 -0.11406843659E+03  0.17563923123E+03 -0.48851887378E+03  0.54601871562E+03  0.12500000000E+03 0.  0.
</event>
<event>
 5    0  0.5778875E-005  0.3372856E+03  0.7546771E-02  0.1067958E+00
         21   -1    0    0  502  501  0.00000000000E+00  0.00000000000E+00  0.99538589300E+02  0.99538589300E+02  0.00000000000E+00 0. -1.
         21   -1    0    0  501  502 -0.00000000000E+00 -0.00000000000E+00 -0.11428891819E+04  0.11428891819E+04  0.00000000000E+00 0. -1.
         25    1    1    2    0    0  0.87540906992E+01  0.13299285815E+02  0.50692863149E+01  0.12611186610E+03  0.12500000000E+03 0.  0.
         25    1    1    2    0    0 -0.34761517999E+02  0.67494556005E+02 -0.87137571596E+03  0.88356353285E+03  0.12500000000E+03 0.  0.
         25    1    1    2    0    0  0.26007427299E+02 -0.80793841821E+02 -0.17704416296E+03  0.23275237225E+03  0.12500000000E+03 0.  0.
</event>
<event>
 5    0  0.5778875E-005  0.2638239E+03  0.7546771E-02  0.1104867E+00
         21   -1    0    0  502  501  0.00000000000E+00  0.00000000000E+00  0.97301652370E+03  0.97301652370E+03  0.00000000000E+00 0.  1.
         21   -1    0    0  501  502 -0.00000000000E+00 -0.00000000000E+00 -0.71533286846E+02  0.71533286846E+02  0.00000000000E+00 0.  1.
         25    1    1    2    0    0 -0.36257559099E+02 -0.24514936503E+02  0.16242351388E+03  0.20957573945E+03  0.12500000000E+03 0.  0.
         25    1    1    2    0    0  0.21510351183E+02 -0.12666533368E+03  0.24819029819E+03  0.30615392547E+03  0.12500000000E+03 0.  0.
         25    1    1    2    0    0  0.14747207916E+02  0.15118027019E+03  0.49086942478E+03  0.52882014563E+03  0.12500000000E+03 0.  0.
</event>
<event>
 5    0  0.5778875E-005  0.2181316E+03  0.7546771E-02  0.1135284E+00
         21   -1    0    0  502  501  0.00000000000E+00  0.00000000000E+00  0.53877816926E+02  0.53877816926E+02  0.00000000000E+00 0. -1.
         21   -1    0    0  501  502 -0.00000000000E+00 -0.00000000000E+00 -0.88313553512E+03  0.88313553512E+03  0.00000000000E+00 0. -1.
         25    1    1    2    0    0  0.24717653694E+02 -0.95020796928E+00 -0.17247778979E+03  0.21444219097E+03  0.12500000000E+03 0.  0.
         25    1    1    2    0    0 -0.69344553825E+02 -0.59302012554E+02 -0.31315448541E+03  0.34930806972E+03  0.12500000000E+03 0.  0.
         25    1    1    2    0    0  0.44626900131E+02  0.60252220524E+02 -0.34362544299E+03  0.37326309135E+03  0.12500000000E+03 0.  0.
</event>
<event>
 5    0  0.5778875E-005  0.2221620E+03  0.7546771E-02  0.1132281E+00
         21   -1    0    0  502  501  0.00000000000E+00  0.00000000000E+00  0.13058045922E+04  0.13058045922E+04  0.00000000000E+00 0. -1.
         21   -1    0    0  501  502 -0.00000000000E+00 -0.00000000000E+00 -0.37797351806E+02  0.37797351806E+02  0.00000000000E+00 0. -1.
         25    1    1    2    0    0 -0.14214605550E+02  0.33047082326E+02  0.62593730707E+03  0.63930953148E+03  0.12500000000E+03 0.  0.
         25    1    1    2    0    0  0.26779079365E+02 -0.81733460455E+02  0.38994142147E+03  0.41842178460E+03  0.12500000000E+03 0.  0.
         25    1    1    2    0    0 -0.12564473814E+02  0.48686378129E+02  0.25212851181E+03  0.28587062788E+03  0.12500000000E+03 0.  0.
</event>
<event>
 5    0  0.5778875E-005  0.2650038E+03  0.7546771E-02  0.1104174E+00
         21   -1    0    0  502  501  0.00000000000E+00  0.00000000000E+00  0.39870036277E+02  0.39870036277E+02  0.00000000000E+00 0.  1.
         21   -1    0    0  501  502 -0.00000000000E+00 -0.00000000000E+00 -0.17613986347E+04  0.17613986347E+04  0.00000000000E+00 0.  1.
         25    1    1    2    0    0 -0.10713493881E+03 -0.13427271767E+02 -0.25615423147E+03  0.30479202260E+03  0.12500000000E+03 0.  0.
         25    1    1    2    0    0  0.27458421084E+02 -0.29189504331E+02 -0.42735434284E+03  0.44706009260E+03  0.12500000000E+03 0.  0.
         25    1    1    2    0    0  0.79676517722E+02  0.42616776098E+02 -0.10380200241E+04  0.10494165558E+04  0.12500000000E+03 0.  0.
</event>
<event>
 5    0  0.5778875E-005  0.2857394E+03  0.7546771E-02  0.1092595E+00
         21   -1    0    0  502  501  0.00000000000E+00  0.00000000000E+00  0.14469618048E+03  0.14469618048E+03  0.00000000000E+00 0.  1.
         21   -1    0    0  501  502 -0.00000000000E+00 -0.00000000000E+00 -0.56426527141E+03  0.56426527141E+03  0.00000000000E+00 0.  1.
         25    1    1    2    0    0  0.43794099667E+02 -0.60484732021E+02 -0.95745315774E+02  0.17426557740E+03  0.12500000000E+03 0.  0.
         25    1    1    2    0    0  0.25196585591E+01 -0.11888595049E+03 -0.46789853241E+02  0.17875823973E+03  0.12500000000E+03 0.  0.
         25    1    1    2    0    0 -0.46313758227E+02  0.17937068251E+03 -0.27703392192E+03  0.35593763477E+03  0.12500000000E+03 0.  0.
</event>
<event>
 5    0  0.5778875E-005  0.3192056E+03  0.7546771E-02  0.1076016E+00
         21   -1    0    0  502  501  0.00000000000E+00  0.00000000000E+00  0.49095264634E+03  0.49095264634E+03  0.00000000000E+00 0. -1.
         21   -1    0    0  501  502 -0.00000000000E+00 -0.00000000000E+00 -0.20753975480E+03  0.20753975480E+03  0.00000000000E+00 0. -1.
         25    1    1    2    0    0 -0.16389027402E+03 -0.17418686923E+03  0.16215056445E+03  0.31483153095E+03  0.12500000000E+03 0.  0.
         25    1    1    2    0    0  0.10116034235E+03  0.79954317654E+02  0.11819650834E+03  0.21499191231E+03  0.12500000000E+03 0.  0.
         25    1    1    2    0    0  0.62729931666E+02  0.94232551581E+02  0.30658187455E+01  0.16866895787E+03  0.12500000000E+03 0.  0.
</event>
<event>
 5    0  0.5778875E-005  0.4203711E+03  0.7546771E-02  0.1036946E+00
         21   -1    0    0  502  501  0.00000000000E+00  0.00000000000E+00  0.48651895955E+03  0.48651895955E+03  0.00000000000E+00 0. -1.
         21   -1    0    0  501  502 -0.00000000000E+00 -0.00000000000E+00 -0.36321674739E+03  0.36321674739E+03  0.00000000000E+00 0. -1.
         25    1    1    2    0    0 -0.13915671499E+03  0.21411104518E+03  0.84001923844E+02  0.29646155603E+03  0.12500000000E+03 0.  0.
         25    1    1    2    0    0 -0.55839083453E+02 -0.30236558811E+02 -0.14748554147E+03  0.20349259857E+03  0.12500000000E+03 0.  0.
         25    1    1    2    0    0  0.19499579845E+03 -0.18387448637E+03  0.18678582978E+03  0.34978155234E+03  0.12500000000E+03 0.  0.
</event>
<event>
 5    0  0.5778875E-005  0.2654298E+03  0.7546771E-02  0.1103924E+00
         21   -1    0    0  502  501  0.00000000000E+00  0.00000000000E+00  0.11119743517E+03  0.11119743517E+03  0.00000000000E+00 0. -1.
         21   -1    0    0  501  502 -0.00000000000E+00 -0.00000000000E+00 -0.63358433773E+03  0.63358433773E+03  0.00000000000E+00 0. -1.
         25    1    1    2    0    0 -0.82978629215E+02 -0.79207316737E+02 -0.77841619578E+02  0.18666432351E+03  0.12500000000E+03 0.  0.
         25    1    1    2    0    0  0.89407864622E+02  0.11160016669E+03 -0.17104028785E+03  0.25559370792E+03  0.12500000000E+03 0.  0.
         25    1    1    2    0    0 -0.64292354071E+01 -0.32392849955E+02 -0.27350499513E+03  0.30252374148E+03  0.12500000000E+03 0.  0.
</event>
<event>
 5    0  0.7922815E-005  0.3682720E+03  0.7546771E-02  0.1055356E+00
         21   -1    0    0  502  501  0.00000000000E+00  0.00000000000E+00  0.68770810692E+03  0.68770810692E+03  0.00000000000E+00 0. -1.
         21   -1    0    0  501  502 -0.00000000000E+00 -0.00000000000E+00 -0.19721201611E+03  0.19721201611E+03  0.00000000000E+00 0. -1.
         25    1    1    2    0    0  0.48256514561E+02  0.41607854975E+02 -0.69431366925E+02  0.15654270825E+03  0.12500000000E+03 0.  0.
         25    1    1    2    0    0  0.29038175095E+02 -0.20743131718E+03  0.27923153390E+03  0.37076436787E+03  0.12500000000E+03 0.  0.
         25    1    1    2    0    0 -0.77294689655E+02  0.16582346220E+03  0.28069592383E+03  0.35761304691E+03  0.12500000000E+03 0.  0.
</event>
<event>
 5    0  0.5778875E-005  0.3486819E+03  0.7546771E-02  0.1063157E+00
         21   -1    0    0  502  501  0.00000000000E+00  0.00000000000E+00  0.48572188027E+02  0.48572188027E+02  0.00000000000E+00 0. -1.
         21   -1    0    0  501  502 -0.00000000000E+00 -0.00000000000E+00 -0.25030593336E+04  0.25030593336E+04  0.00000000000E+00 0. -1.
         25    1    1    2    0    0  0.22323302007E+03  0.87640162182E+01 -0.10948192542E+04  0.11243504741E+04  0.12500000000E+03 0.  0.
         25    1    1    2    0    0 -0.13631138153E+03 -0.12574100889E+03 -0.93256301780E+03  0.95900488853E+03  0.12500000000E+03 0.  0.
         25    1    1    2    0    0 -0.86921638541E+02  0.11697699267E+03 -0.42710487354E+03  0.46827615897E+03  0.12500000000E+03 0.  0.
</event>
<event>
 5    0  0.5778875E-005  0.2312301E+03  0.7546771E-02  0.1125777E+00
         21   -1    0    0  502  501  0.00000000000E+00  0.00000000000E+00  0.75528181019E+03  0.75528181019E+03  0.00000000000E+00 0.  1.
         21   -1    0    0  501  502 -0.00000000000E+00 -0.00000000000E+00 -0.70791258075E+02  0.70791258075E+02  0.00000000000E+00 0.  1.
         25    1    1    2    0    0  0.81104986408E+02 -0.68625916563E+02  0.34636546635E+03  0.38325131640E+03  0.12500000000E+03 0.  0.
         25    1    1    2    0    0 -0.40730034337E+02  0.80239605813E+02  0.17803943322E+03  0.23541531348E+03  0.12500000000E+03 0.  0.
         25    1    1    2    0    0 -0.40374952070E+02 -0.11613689251E+02  0.16008565254E+03  0.20740643838E+03  0.12500000000E+03 0.  0.
</event>
<event>
 5    0  0.5778875E-005  0.7683849E+03  0.7546771E-02  0.9606941E-01
         21   -1    0    0  502  501  0.00000000000E+00  0.00000000000E+00  0.10387093718E+04  0.10387093718E+04  0.00000000000E+00 0.  1.
         21   -1    0    0  501  502 -0.00000000000E+00 -0.00000000000E+00 -0.56841247838E+03  0.56841247838E+03  0.00000000000E+00 0.  1.
         25    1    1    2    0    0  0.56191109721E+01  0.37659083602E+02  0.40027321550E+03  0.42106226147E+03  0.12500000000E+03 0.  0.
         25    1    1    2    0    0  0.19259034177E+03 -0.13695802402E+03  0.56746784314E+03  0.62729043759E+03  0.12500000000E+03 0.  0.
         25    1    1    2    0    0 -0.19820945274E+03  0.99298940419E+02 -0.49744416523E+03  0.55876915112E+03  0.12500000000E+03 0.  0.
</event>
<event>
 5    0  0.5778875E-005  0.2351037E+03  0.7546771E-02  0.1123098E+00
         21   -1    0    0  502  501  0.00000000000E+00  0.00000000000E+00  0.60612860111E+02  0.60612860111E+02  0.00000000000E+00 0. -1.
         21   -1    0    0  501  502 -0.00000000000E+00 -0.00000000000E+00 -0.91191442715E+03  0.91191442715E+03  0.00000000000E+00 0. -1.
         25    1    1    2    0    0  0.73004582379E+01 -0.63923276599E+02 -0.13667976613E+03  0.19607610882E+03  0.12500000000E+03 0.  0.
         25    1    1    2    0    0 -0.29658765131E+02  0.33953275238E+02 -0.55298469104E+03  0.56872623975E+03  0.12500000000E+03 0.  0.
         25    1    1    2    0    0  0.22358306893E+02  0.29970001361E+02 -0.16163710987E+03  0.20772493869E+03  0.12500000000E+03 0.  0.
</event>
<event>
 5    0  0.5778875E-005  0.2563043E+03  0.7546771E-02  0.1109384E+00
         21   -1    0    0  502  501  0.00000000000E+00  0.00000000000E+00  0.28039499307E+03  0.28039499307E+03  0.00000000000E+00 0.  1.
         21   -1    0    0  501  502 -0.00000000000E+00 -0.00000000000E+00 -0.23428344144E+03  0.23428344144E+03  0.00000000000E+00 0.  1.
         25    1    1    2    0    0 -0.50678642784E+02  0.83932714816E+02 -0.64682598507E+02  0.17152802687E+03  0.12500000000E+03 0.  0.
         25    1    1    2    0    0 -0.23330146230E+02 -0.25981761499E+02  0.13223961682E+03  0.18528805658E+03  0.12500000000E+03 0.  0.
         25    1    1    2    0    0  0.74008789014E+02 -0.57950953317E+02 -0.21445466688E+02  0.15786235106E+03  0.12500000000E+03 0.  0.
</event>
<event>
 5    0  0.5778875E-005  0.2896488E+03  0.7546771E-02  0.1090533E+00
         21   -1    0    0  502  501  0.00000000000E+00  0.00000000000E+00  0.21321825805E+03  0.21321825805E+03  0.00000000000E+00 0.  1.
         21   -1    0    0  501  502 -0.00000000000E+00 -0.00000000000E+00 -0.39347682954E+03  0.39347682954E+03  0.00000000000E+00 0.  1.
         25    1    1    2    0    0  0.10981769800E+03 -0.77322556462E+02 -0.19810020091E+03  0.27001369249E+03  0.12500000000E+03 0.  0.
         25    1    1    2    0    0  0.20553304034E+02  0.78084473341E+02  0.41583549299E+02  0.15451153632E+03  0.12500000000E+03 0.  0.
         25    1    1    2    0    0 -0.13037100203E+03 -0.76191687959E+00 -0.23741919879E+02  0.18216985878E+03  0.12500000000E+03 0.  0.
</event>
<event>
 5    0  0.5778875E-005  0.3076605E+03  0.7546771E-02  0.1081473E+00
         21   -1    0    0  502  501  0.00000000000E+00  0.00000000000E+00  0.96292291263E+02  0.96292291263E+02  0.00000000000E+00 0.  1.
         21   -1    0    0  501  502 -0.00000000000E+00 -0.00000000000E+00 -0.98299660601E+03  0.98299660601E+03  0.00000000000E+00 0.  1.
         25    1    1    2    0    0  0.21802393564E+02  0.10502800679E+02 -0.43208412740E+03  0.45045237965E+03  0.12500000000E+03 0.  0.
         25    1    1    2    0    0  0.15841672860E+03  0.83809754348E+01 -0.29245756260E+03  0.35541880447E+03  0.12500000000E+03 0.  0.
         25    1    1    2    0    0 -0.18021912217E+03 -0.18883776113E+02 -0.16216262475E+03  0.27341771314E+03  0.12500000000E+03 0.  0.
</event>
<event>
 5    0  0.5778875E-005  0.4029979E+03  0.7546771E-02  0.1042747E+00
         21   -1    0    0  502  501  0.00000000000E+00  0.00000000000E+00  0.14306644105E+04  0.14306644105E+04  0.00000000000E+00 0.  1.
         21   -1    0    0  501  502 -0.00000000000E+00 -0.00000000000E+00 -0.11351879136E+03  0.11351879136E+03  0.00000000000E+00 0.  1.
         25    1    1    2    0    0  0.16880515894E+02 -0.12321123401E+03  0.26713578288E+03  0.32008199965E+03  0.12500000000E+03 0.  0.
         25    1    1    2    0    0 -0.37971191580E+02  0.32971955805E+03  0.80423279407E+03  0.87896085545E+03  0.12500000000E+03 0.  0.
         25    1    1    2    0    0  0.21090675686E+02 -0.20650832404E+03  0.24577704216E+03  0.34514034674E+03  0.12500000000E+03 0.  0.
</event>
<event>
 5    0  0.5778875E-005  0.2407720E+03  0.7546771E-02  0.1119280E+00
         21   -1    0    0  502  501  0.00000000000E+00  0.00000000000E+00  0.89378393632E+02  0.89378393632E+02  0.00000000000E+00 0. -1.
         21   -1    0    0  501  502 -0.00000000000E+00 -0.00000000000E+00 -0.64860344911E+03  0.64860344911E+03  0.00000000000E+00 0. -1.
         25    1    1    2    0    0 -0.35198442566E+02  0.94694820177E+02 -0.19093050975E+03  0.24957062904E+03  0.12500000000E+03 0.  0.
         25    1    1    2    0    0  0.10498935655E+02 -0.15271174570E+02 -0.29584235821E+03  0.32170038442E+03  0.12500000000E+03 0.  0.
         25    1    1    2    0    0  0.24699506910E+02 -0.79423645607E+02 -0.72452187515E+02  0.16671082928E+03  0.12500000000E+03 0.  0.
</event>
<event>
 5    0  0.5778875E-005  0.3134230E+03  0.7546771E-02  0.1078717E+00
         21   -1    0    0  502  501  0.00000000000E+00  0.00000000000E+00  0.68307888250E+03  0.68307888250E+03  0.00000000000E+00 0.  1.
         21   -1    0    0  501  502 -0.00000000000E+00 -0.00000000000E+00 -0.14381058675E+03  0.14381058675E+03  0.00000000000E+00 0.  1.
         25    1    1    2    0    0  0.12291962252E+02 -0.11384578430E+03  0.43563855799E+02  0.17502789626E+03  0.12500000000E+03 0.  0.
         25    1    1    2    0    0 -0.84308303193E+02 -0.80068563743E+02  0.13487335935E+03  0.21756536477E+03  0.12500000000E+03 0.  0.
         25    1    1    2    0    0  0.72016340942E+02  0.19391434804E+03  0.36083108061E+03  0.43429620822E+03  0.12500000000E+03 0.  0.
</event>
<event>
 5    0  0.5778875E-005  0.6327423E+03  0.7546771E-02  0.9839712E-01
         21   -1    0    0  502  501  0.00000000000E+00  0.00000000000E+00  0.11674972629E+04  0.11674972629E+04  0.00000000000E+00 0. -1.
         21   -1    0    0  501  502 -0.00000000000E+00 -0.00000000000E+00 -0.34292403119E+03  0.34292403119E+03  0.00000000000E+00 0. -1.
         25    1    1    2    0    0  0.16438988478E+03 -0.29534474971E+03  0.19934819995E+03  0.41184616087E+03  0.12500000000E+03 0.  0.
         25    1    1    2    0    0  0.17989587338E+03 -0.12125169775E+03 -0.15777813176E+02  0.25087534525E+03  0.12500000000E+03 0.  0.
         25    1    1    2    0    0 -0.34428575815E+03  0.41659644746E+03  0.64100284496E+03  0.84769978799E+03  0.12500000000E+03 0.  0.
</event>
<event>
 5    0  0.5778875E-005  0.4240237E+03  0.7546771E-02  0.1035765E+00
         21   -1    0    0  502  501  0.00000000000E+00  0.00000000000E+00  0.39367437640E+03  0.39367437640E+03  0.00000000000E+00 0.  1.
         21   -1    0    0  501  502 -0.00000000000E+00 -0.00000000000E+00 -0.45671266511E+03  0.45671266511E+03  0.00000000000E+00 0.  1.
         25    1    1    2    0    0  0.62565361287E+01 -0.43535385346E+02 -0.96103976748E+02  0.16369315309E+03  0.12500000000E+03 0.  0.
         25    1    1    2    0    0  0.25478643013E+03  0.17473343524E+03 -0.91130252804E+02  0.34551066748E+03  0.12500000000E+03 0.  0.
         25    1    1    2    0    0 -0.26104296626E+03 -0.13119804989E+03  0.12419594085E+03  0.34118322094E+03  0.12500000000E+03 0.  0.
</event>
<event>
 5    0  0.5778875E-005  0.2710402E+03  0.7546771E-02  0.1100686E+00
         21   -1    0    0  502  501  0.00000000000E+00  0.00000000000E+00  0.81383058761E+03  0.81383058761E+03  0.00000000000E+00 0. -1.
         21   -1    0    0  501  502 -0.00000000000E+00 -0.00000000000E+00 -0.90267883354E+02  0.90267883354E+02  0.00000000000E+00 0. -1.
         25    1    1    2    0    0  0.13014403617E+03 -0.27527468124E+02  0.22720411196E+03  0.29144800590E+03  0.12500000000E+03 0.  0.
         25    1    1    2    0    0 -0.15475403622E+03 -0.16762367009E+02  0.18025355072E+03  0.26897236145E+03  0.12500000000E+03 0.  0.
         25    1    1    2    0    0  0.24610000050E+02  0.44289835133E+02  0.31610504157E+03  0.34367810361E+03  0.12500000000E+03 0.  0.
</event>
<event>
 5    0  0.5778875E-005  0.9296959E+03  0.7546771E-02  0.9389203E-01
         21   -1    0    0  502  501  0.00000000000E+00  0.00000000000E+00  0.33192438984E+03  0.33192438984E+03  0.00000000000E+00 0. -1.
         21   -1    0    0  501  502 -0.00000000000E+00 -0.00000000000E+00 -0.26040099069E+04  0.26040099069E+04  0.00000000000E+00 0. -1.
         25    1    1    2    0    0  0.23826454055E+03 -0.11633189208E+03 -0.84508786528E+03  0.89448398557E+03  0.12500000000E+03 0.  0.
         25    1    1    2    0    0 -0.23745591876E+03  0.62645799242E+02  0.24210650752E+03  0.36681108285E+03  0.12500000000E+03 0.  0.
         25    1    1    2    0    0 -0.80862178541E+00  0.53686092840E+02 -0.16691041593E+04  0.16746392283E+04  0.12500000000E+03 0.  0.
</event>
<event>
 5    0  0.5778875E-005  0.4375622E+03  0.7546771E-02  0.1031497E+00
         21   -1    0    0  502  501  0.00000000000E+00  0.00000000000E+00  0.56945503092E+03  0.56945503092E+03  0.00000000000E+00 0. -1.
         21   -1    0    0  501  502 -0.00000000000E+00 -0.00000000000E+00 -0.33621732742E+03  0.33621732742E+03  0.00000000000E+00 0. -1.
         25    1    1    2    0    0 -0.10966112075E+02  0.76185109105E+02  0.43641715883E+02  0.15314707254E+03  0.12500000000E+03 0.  0.
         25    1    1    2    0    0 -0.26935097401E+03  0.31596045951E+02  0.28575153442E+03  0.41331246865E+03  0.12500000000E+03 0.  0.
         25    1    1    2    0    0  0.28031708609E+03 -0.10778115506E+03 -0.96155546795E+02  0.33921281715E+03  0.12500000000E+03 0.  0.
</event>
<event>
 5    0  0.5778875E-005  0.4309329E+03  0.7546771E-02  0.1033566E+00
         21   -1    0    0  502  501  0.00000000000E+00  0.00000000000E+00  0.54354833546E+03  0.54354833546E+03  0.00000000000E+00 0. -1.
         21   -1    0    0  501  502 -0.00000000000E+00 -0.00000000000E+00 -0.34164979472E+03  0.34164979472E+03  0.00000000000E+00 0. -1.
         25    1    1    2    0    0  0.44738466621E+02 -0.28915804935E+03 -0.19853734175E+02  0.31879943328E+03  0.12500000000E+03 0.  0.
         25    1    1    2    0    0 -0.13330255885E+03  0.25813642668E+03  0.25539340649E+03  0.40651541060E+03  0.12500000000E+03 0.  0.
         25    1    1    2    0    0  0.88564092233E+02  0.31021622671E+02 -0.33641131570E+02  0.15988328630E+03  0.12500000000E+03 0.  0.
</event>
<event>
 5    0  0.5778875E-005  0.3463567E+03  0.7546771E-02  0.1064120E+00
         21   -1    0    0  502  501  0.00000000000E+00  0.00000000000E+00  0.78485008693E+03  0.78485008693E+03  0.00000000000E+00 0.  1.
         21   -1    0    0  501  502 -0.00000000000E+00 -0.00000000000E+00 -0.15284822833E+03  0.15284822833E+03  0.00000000000E+00 0.  1.
         25    1    1    2    0    0  0.13927599696E+03 -0.17117413289E+03  0.22632963545E+03  0.33992424301E+03  0.12500000000E+03 0.  0.
         25    1    1    2    0    0 -0.36969583621E+02  0.16829332184E+03  0.37806863660E+03  0.43387819289E+03  0.12500000000E+03 0.  0.
         25    1    1    2    0    0 -0.10230641334E+03  0.28808110445E+01  0.27603586551E+02  0.16389587937E+03  0.12500000000E+03 0.  0.
</event>
<event>
 5    0  0.6618650E-005  0.2857648E+03  0.7546771E-02  0.1092581E+00
         21   -1    0    0  502  501  0.00000000000E+00  0.00000000000E+00  0.10060489231E+04  0.10060489231E+04  0.00000000000E+00 0. -1.
         21   -1    0    0  501  502 -0.00000000000E+00 -0.00000000000E+00 -0.81170510935E+02  0.81170510935E+02  0.00000000000E+00 0. -1.
         25    1    1    2    0    0  0.19716137960E+03 -0.50362568289E+02  0.39012780469E+03  0.45742070557E+03  0.12500000000E+03 0.  0.
         25    1    1    2    0    0 -0.99714429600E+02  0.24679689785E+02  0.34623715976E+03  0.38217433895E+03  0.12500000000E+03 0.  0.
         25    1    1    2    0    0 -0.97446950004E+02  0.25682878504E+02  0.18851344774E+03  0.24762438953E+03  0.12500000000E+03 0.  0.
</event>
<event>
 5    0  0.5778875E-005  0.3311343E+03  0.7546771E-02  0.1070636E+00
         21   -1    0    0  502  501  0.00000000000E+00  0.00000000000E+00  0.11426850481E+03  0.11426850481E+03  0.00000000000E+00 0. -1.
         21   -1    0    0  501  502 -0.00000000000E+00 -0.00000000000E+00 -0.95958126755E+03  0.95958126755E+03  0.00000000000E+00 0. -1.
         25    1    1    2    0    0 -0.17214444231E+03 -0.13296050392E+03 -0.58643239756E+03  0.63784023197E+03  0.12500000000E+03 0.  0.
         25    1    1    2    0    0  0.13497311399E+03  0.11978525294E+03 -0.15430845935E+03  0.26833253428E+03  0.12500000000E+03 0.  0.
         25    1    1    2    0    0  0.37171328320E+02  0.13175250976E+02 -0.10457190584E+03  0.16767700611E+03  0.12500000000E+03 0.  0.
</event>
<event>
 5    0  0.5778875E-005  0.2099723E+03  0.7546771E-02  0.1141588E+00
         21   -1    0    0  502  501  0.00000000000E+00  0.00000000000E+00  0.23671823957E+03  0.23671823957E+03  0.00000000000E+00 0.  1.
         21   -1    0    0  501  502 -0.00000000000E+00 -0.00000000000E+00 -0.18624829673E+03  0.18624829673E+03  0.00000000000E+00 0.  1.
         25    1    1    2    0    0 -0.39761772267E+02 -0.41389133859E+02  0.79441253546E+02  0.15883945259E+03  0.12500000000E+03 0.  0.
         25    1    1    2    0    0  0.28358993901E+02  0.20730896393E+02  0.12221357055E+02  0.13041611928E+03  0.12500000000E+03 0.  0.
         25    1    1    2    0    0  0.11402778366E+02  0.20658237466E+02 -0.41192667763E+02  0.13371096442E+03  0.12500000000E+03 0.  0.
</event>
<event>
 5    0  0.5778875E-005  0.5531240E+03  0.7546771E-02  0.1000773E+00
         21   -1    0    0  502  501  0.00000000000E+00  0.00000000000E+00  0.55136316028E+03  0.55136316028E+03  0.00000000000E+00 0. -1.
         21   -1    0    0  501  502 -0.00000000000E+00 -0.00000000000E+00 -0.55489048755E+03  0.55489048755E+03  0.00000000000E+00 0. -1.
         25    1    1    2    0    0 -0.10079078710E+03  0.34680138763E+02  0.19369756330E+03  0.25397881962E+03  0.12500000000E+03 0.  0.
         25    1    1    2    0    0 -0.15670886758E+03  0.31199910616E+03 -0.15071232505E+03  0.40030028272E+03  0.12500000000E+03 0.  0.
         25    1    1    2    0    0  0.25749965467E+03 -0.34667924492E+03 -0.46512565520E+02  0.45197454549E+03  0.12500000000E+03 0.  0.
</event>
<event>
 5    0  0.5778875E-005  0.5183977E+03  0.7546771E-02  0.1009085E+00
         21   -1    0    0  502  501  0.00000000000E+00  0.00000000000E+00  0.10989245514E+03  0.10989245514E+03  0.00000000000E+00 0. -1.
         21   -1    0    0  501  502 -0.00000000000E+00 -0.00000000000E+00 -0.24454467678E+04  0.24454467678E+04  0.00000000000E+00 0. -1.
         25    1    1    2    0    0  0.31370755871E+02  0.80765683208E+02  0.12712859650E+02  0.15262318536E+03  0.12500000000E+03 0.  0.
         25    1    1    2    0    0  0.99206944885E+02  0.10077398289E+03 -0.16148498417E+04  0.16258420663E+04  0.12500000000E+03 0.  0.
         25    1    1    2    0    0 -0.13057770076E+03 -0.18153966610E+03 -0.73341733062E+03  0.77687397122E+03  0.12500000000E+03 0.  0.
</event>
<event>
 5    0  0.5778875E-005  0.2991144E+03  0.7546771E-02  0.1085684E+00
         21   -1    0    0  502  501  0.00000000000E+00  0.00000000000E+00  0.22170393803E+04  0.22170393803E+04  0.00000000000E+00 0.  1.
         21   -1    0    0  501  502 -0.00000000000E+00 -0.00000000000E+00 -0.40355349221E+02  0.40355349221E+02  0.00000000000E+00 0.  1.
         25    1    1    2    0    0  0.46104049087E+02  0.11125636277E+03  0.12006413025E+04  0.12131232826E+04  0.12500000000E+03 0.  0.
         25    1    1    2    0    0  0.38959901385E+02 -0.14996252961E+03  0.69326092799E+03  0.72127827395E+03  0.12500000000E+03 0.  0.
         25    1    1    2    0    0 -0.85063950472E+02  0.38706166837E+02  0.28278180066E+03  0.32299317300E+03  0.12500000000E+03 0.  0.
</event>
<event>
 5    0  0.5778875E-005  0.3083152E+03  0.7546771E-02  0.1081156E+00
         21   -1    0    0  502  501  0.00000000000E+00  0.00000000000E+00  0.50521394842E+03  0.50521394842E+03  0.00000000000E+00 0.  1.
         21   -1    0    0  501  502 -0.00000000000E+00 -0.00000000000E+00 -0.18815441086E+03  0.18815441086E+03  0.00000000000E+00 0.  1.
         25    1    1    2    0    0  0.73768251703E+02  0.33869855121E+02  0.52623261355E+02  0.15806052537E+03  0.12500000000E+03 0.  0.
         25    1    1    2    0    0 -0.27440754639E+02  0.60344959045E+02 -0.73916715668E+02  0.15963455125E+03  0.12500000000E+03 0.  0.
         25    1    1    2    0    0 -0.46327497064E+02 -0.94214814166E+02  0.33835299187E+03  0.37567328266E+03  0.12500000000E+03 0.  0.
</event>
<event>
 5    0  0.5778875E-005  0.2623807E+03  0.7546771E-02  0.1105721E+00
         21   -1    0    0  502  501  0.00000000000E+00  0.00000000000E+00  0.60185735356E+02  0.60185735356E+02  0.00000000000E+00 0.  1.
         21   -1    0    0  501  502 -0.00000000000E+00 -0.00000000000E+00 -0.11438530786E+04  0.11438530786E+04  0.00000000000E+00 0.  1.
         25    1    1    2    0    0 -0.63820738517E+02  0.60609950565E+02 -0.36485099780E+03  0.39558551966E+03  0.12500000000E+03 0.  0.
         25    1    1    2    0    0  0.73150364149E+02 -0.15153545497E+03 -0.48067010532E+03  0.52438794802E+03  0.12500000000E+03 0.  0.
         25    1    1    2    0    0 -0.93296256319E+01  0.90925504407E+02 -0.23814624017E+03  0.28406534631E+03  0.12500000000E+03 0.  0.
</event>
<event>
 5    0  0.5778875E-005  0.3367640E+03  0.7546771E-02  0.1068183E+00
         21   -1    0    0  502  501  0.00000000000E+00  0.00000000000E+00  0.18953812688E+04  0.18953812688E+04  0.00000000000E+00 0.  1.
         21   -1    0    0  501  502 -0.00000000000E+00 -0.00000000000E+00 -0.59834918097E+02  0.59834918097E+02  0.00000000000E+00 0.  1.
         25    1    1    2    0    0  0.70022907076E+02  0.24616900259E+02  0.75335792088E+02  0.16373662041E+03  0.12500000000E+03 0.  0.
         25    1    1    2    0    0 -0.45780824923E+02 -0.89841254383E+02  0.12907977447E+04  0.13007502268E+04  0.12500000000E+03 0.  0.
         25    1    1    2    0    0 -0.24242082153E+02  0.65224354124E+02  0.46941281395E+03  0.49072933967E+03  0.12500000000E+03 0.  0.
</event>
<event>
 5    0  0.5778875E-005  0.2912788E+03  0.7546771E-02  0.1089683E+00
         21   -1    0    0  502  501  0.00000000000E+00  0.00000000000E+00  0.55403272319E+03  0.55403272319E+03  0.00000000000E+00 0. -1.
         21   -1    0    0  501  502 -0.00000000000E+00 -0.00000000000E+00 -0.15313772466E+03  0.15313772466E+03  0.00000000000E+00 0. -1.
         25    1    1    2    0    0  0.15559261807E+03 -0.87579382361E+01  0.11293129311E+03  0.22948690865E+03  0.12500000000E+03 0.  0.
         25    1    1    2    0    0 -0.56157898206E+02 -0.54990858270E+02  0.64533670720E+01  0.14779834225E+03  0.12500000000E+03 0.  0.
         25    1    1    2    0    0 -0.99434719864E+02  0.63748796507E+02  0.28151033835E+03  0.32988519695E+03  0.12500000000E+03 0.  0.
</event>
<event>
 5    0  0.5778875E-005  0.2724972E+03  0.7546771E-02  0.1099859E+00
         21   -1    0    0  502  501  0.00000000000E+00  0.00000000000E+00  0.92458003411E+03  0.92458003411E+03  0.00000000000E+00 0. -1.
         21   -1    0    0  501  502 -0.00000000000E+00 -0.00000000000E+00 -0.80311856909E+02  0.80311856909E+02  0.00000000000E+00 0. -1.
         25    1    1    2    0    0 -0.61204112368E+02  0.15534112364E+03  0.28321762013E+03  0.35173005049E+03  0.12500000000E+03 0.  0.
         25    1    1    2    0    0  0.76687075691E+02 -0.88125888275E+02  0.19045766821E+03  0.25601992723E+03  0.12500000000E+03 0.  0.
         25    1    1    2    0    0 -0.15482963323E+02 -0.67215235367E+02  0.37059288887E+03  0.39714191330E+03  0.12500000000E+03 0.  0.
</event>
<event>
 5    0  0.5778875E-005  0.3488671E+03  0.7546771E-02  0.1063081E+00
         21   -1    0    0  502  501  0.00000000000E+00  0.00000000000E+00  0.19748102423E+03  0.19748102423E+03  0.00000000000E+00 0.  1.
         21   -1    0    0  501  502 -0.00000000000E+00 -0.00000000000E+00 -0.61630366664E+03  0.61630366664E+03  0.00000000000E+00 0.  1.
         25    1    1    2    0    0 -0.26207578060E+03 -0.10538895034E+03 -0.21839075748E+03  0.37829891433E+03  0.12500000000E+03 0.  0.
         25    1    1    2    0    0  0.98628852149E+02  0.13638814092E+02 -0.64320234962E+02  0.17226653869E+03  0.12500000000E+03 0.  0.
         25    1    1    2    0    0  0.16344692845E+03  0.91750136244E+02 -0.13611164997E+03  0.26321923786E+03  0.12500000000E+03 0.  0.
</event>
<event>
 5    0  0.5778875E-005  0.3037286E+03  0.7546771E-02  0.1083391E+00
         21   -1    0    0  502  501  0.00000000000E+00  0.00000000000E+00  0.93051196555E+02  0.93051196555E+02  0.00000000000E+00 0.  1.
         21   -1    0    0  501  502 -0.00000000000E+00 -0.00000000000E+00 -0.99140110617E+03  0.99140110617E+03  0.00000000000E+00 0.  1.
         25    1    1    2    0    0  0.87996226651E+02  0.44518780851E+02 -0.39757613147E+03  0.42827215421E+03  0.12500000000E+03 0.  0.
         25    1    1    2    0    0 -0.11479480223E+03  0.21083204361E+02 -0.42939202472E+02  0.17632675133E+03  0.12500000000E+03 0.  0.
         25    1    1    2    0    0  0.26798575575E+02 -0.65601985211E+02 -0.45783457567E+03  0.47985339719E+03  0.12500000000E+03 0.  0.
</event>
<event>
 5    0  0.5778875E-005  0.6499168E+03  0.7546771E-02  0.9806935E-01
         21   -1    0    0  502  501  0.00000000000E+00  0.00000000000E+00  0.16114026741E+04  0.16114026741E+04  0.00000000000E+00 0.  1.
         21   -1    0    0  501  502 -0.00000000000E+00 -0.00000000000E+00 -0.26212684761E+03  0.26212684761E+03  0.00000000000E+00 0.  1.
         25    1    1    2    0    0  0.13838334835E+03  0.29683458354E+03  0.11659163454E+04  0.12174755216E+04  0.12500000000E+03 0.  0.
         25    1    1    2    0    0  0.14784105495E+03  0.75562404415E+01  0.59674477239E+02  0.20273163920E+03  0.12500000000E+03 0.  0.
         25    1    1    2    0    0 -0.28622440329E+03 -0.30439082398E+03  0.12368500382E+03  0.45332236094E+03  0.12500000000E+03 0.  0.
</event>
<event>
 5    0  0.5778875E-005  0.2940301E+03  0.7546771E-02  0.1088264E+00
         21   -1    0    0  502  501  0.00000000000E+00  0.00000000000E+00  0.97445389336E+03  0.97445389336E+03  0.00000000000E+00 0. -1.
         21   -1    0    0  501  502 -0.00000000000E+00 -0.00000000000E+00 -0.88720182758E+02  0.88720182758E+02  0.00000000000E+00 0. -1.
         25    1    1    2    0    0 -0.72273321342E+02  0.13255873862E+03  0.14771471362E+03  0.24543815674E+03  0.12500000000E+03 0.  0.
         25    1    1    2    0    0  0.10387595815E+03 -0.30192627954E+02  0.51263559569E+03  0.53862980185E+03  0.12500000000E+03 0.  0.
         25    1    1    2    0    0 -0.31602636812E+02 -0.10236611067E+03  0.22538340128E+03  0.27910611753E+03  0.12500000000E+03 0.  0.
</event>
<event>
 5    0  0.5778875E-005  0.3490533E+03  0.7546771E-02  0.1063004E+00
         21   -1    0    0  502  501  0.00000000000E+00  0.00000000000E+00  0.10018676070E+04  0.10018676070E+04  0.00000000000E+00 0.  1.
         21   -1    0    0  501  502 -0.00000000000E+00 -0.00000000000E+00 -0.12161111114E+03  0.12161111114E+03  0.00000000000E+00 0.  1.
         25    1    1    2    0    0  0.33203132048E+02  0.10248166752E+03  0.51890487535E+02  0.17298139453E+03  0.12500000000E+03 0.  0.
         25    1    1    2    0    0 -0.12771680867E+03  0.37133373724E+02  0.64974883465E+03  0.67489926566E+03  0.12500000000E+03 0.  0.
         25    1    1    2    0    0  0.94513676617E+02 -0.13961504125E+03  0.17861717363E+03  0.27559805792E+03  0.12500000000E+03 0.  0.
</event>
<event>
 5    0  0.5778875E-005  0.2425781E+03  0.7546771E-02  0.1118087E+00
         21   -1    0    0  502  501  0.00000000000E+00  0.00000000000E+00  0.21061894111E+03  0.21061894111E+03  0.00000000000E+00 0. -1.
         21   -1    0    0  501  502 -0.00000000000E+00 -0.00000000000E+00 -0.27938674940E+03  0.27938674940E+03  0.00000000000E+00 0. -1.
         25    1    1    2    0    0  0.76811148259E+02  0.70604981581E+00  0.44269910782E+02  0.15324906526E+03  0.12500000000E+03 0.  0.
         25    1    1    2    0    0 -0.12587750045E+03 -0.14844576733E+02 -0.37108401278E+02  0.18184482402E+03  0.12500000000E+03 0.  0.
         25    1    1    2    0    0  0.49066352188E+02  0.14138526917E+02 -0.75929317796E+02  0.15491180123E+03  0.12500000000E+03 0.  0.
</event>
<event>
 5    0  0.5778875E-005  0.2294619E+03  0.7546771E-02  0.1127019E+00
         21   -1    0    0  502  501  0.00000000000E+00  0.00000000000E+00  0.40318736881E+03  0.40318736881E+03  0.00000000000E+00 0.  1.
         21   -1    0    0  501  502 -0.00000000000E+00 -0.00000000000E+00 -0.13059132620E+03  0.13059132620E+03  0.00000000000E+00 0.  1.
         25    1    1    2    0    0  0.29782441445E+02 -0.99261390461E+02  0.71061267037E+02  0.17724142046E+03  0.12500000000E+03 0.  0.
         25    1    1    2    0    0 -0.44685475370E+02  0.73083492474E+02  0.16243736254E+03  0.22214609007E+03  0.12500000000E+03 0.  0.
         25    1    1    2    0    0  0.14903033926E+02  0.26177897987E+02  0.39097413028E+02  0.13439118449E+03  0.12500000000E+03 0.  0.
</event>
<event>
 5    0  0.5778875E-005  0.2077029E+03  0.7546771E-02  0.1143398E+00
         21   -1    0    0  502  501  0.00000000000E+00  0.00000000000E+00  0.86603058528E+03  0.86603058528E+03  0.00000000000E+00 0. -1.
         21   -1    0    0  501  502 -0.00000000000E+00 -0.00000000000E+00 -0.49814068724E+02  0.49814068724E+02  0.00000000000E+00 0. -1.
         25    1    1    2    0    0  0.89941814550E+01 -0.48993786008E+02  0.37044600386E+03  0.39412755314E+03  0.12500000000E+03 0.  0.
         25    1    1    2    0    0  0.18357668133E+01 -0.19903340103E+02  0.23519031333E+03  0.26709360994E+03  0.12500000000E+03 0.  0.
         25    1    1    2    0    0 -0.10829948268E+02  0.68897126111E+02  0.21058019937E+03  0.25462349093E+03  0.12500000000E+03 0.  0.
</event>
<event>
 5    0  0.5778875E-005  0.3870492E+03  0.7546771E-02  0.1048359E+00
         21   -1    0    0  502  501  0.00000000000E+00  0.00000000000E+00  0.88983653480E+03  0.88983653480E+03  0.00000000000E+00 0.  1.
         21   -1    0    0  501  502 -0.00000000000E+00 -0.00000000000E+00 -0.16835344860E+03  0.16835344860E+03  0.00000000000E+00 0.  1.
         25    1    1    2    0    0 -0.35007982052E+02  0.23510167284E+03  0.95225356122E+02  0.28494073740E+03  0.12500000000E+03 0.  0.
         25    1    1    2    0    0  0.15036976074E+03 -0.19506892653E+03  0.42314337594E+03  0.50531007079E+03  0.12500000000E+03 0.  0.
         25    1    1    2    0    0 -0.11536177869E+03 -0.40032746308E+02  0.20311435413E+03  0.26793917521E+03  0.12500000000E+03 0.  0.
</event>
<event>
 5    0  0.5778875E-005  0.3319845E+03  0.7546771E-02  0.1070262E+00
         21   -1    0    0  502  501  0.00000000000E+00  0.00000000000E+00  0.84814365722E+03  0.84814365722E+03  0.00000000000E+00 0. -1.
         21   -1    0    0  501  502 -0.00000000000E+00 -0.00000000000E+00 -0.12994695796E+03  0.12994695796E+03  0.00000000000E+00 0. -1.
         25    1    1    2    0    0 -0.43170168257E+02 -0.33391875067E+02  0.10298893057E+03  0.17091050455E+03  0.12500000000E+03 0.  0.
         25    1    1    2    0    0 -0.31660103816E+01 -0.60466231696E+02  0.62844052044E+03  0.64360599479E+03  0.12500000000E+03 0.  0.
         25    1    1    2    0    0  0.46336178639E+02  0.93858106763E+02 -0.13232751744E+02  0.16357411585E+03  0.12500000000E+03 0.  0.
</event>
<event>
 5    0  0.5778875E-005  0.2789148E+03  0.7546771E-02  0.1096283E+00
         21   -1    0    0  502  501  0.00000000000E+00  0.00000000000E+00  0.30870822456E+03  0.30870822456E+03  0.00000000000E+00 0. -1.
         21   -1    0    0  501  502 -0.00000000000E+00 -0.00000000000E+00 -0.25199680708E+03  0.25199680708E+03  0.00000000000E+00 0. -1.
         25    1    1    2    0    0 -0.59166536072E+02  0.55593054357E+01  0.15337819548E+03  0.20659490729E+03  0.12500000000E+03 0.  0.
         25    1    1    2    0    0  0.12266901761E+03 -0.58728913344E+02 -0.20293358172E+02  0.18583216495E+03  0.12500000000E+03 0.  0.
         25    1    1    2    0    0 -0.63502481534E+02  0.53169607908E+02 -0.76373419835E+02  0.16827795941E+03  0.12500000000E+03 0.  0.
</event>
<event>
 5    0  0.5778875E-005  0.2567746E+03  0.7546771E-02  0.1109097E+00
         21   -1    0    0  502  501  0.00000000000E+00  0.00000000000E+00  0.44545965299E+03  0.44545965299E+03  0.00000000000E+00 0. -1.
         21   -1    0    0  501  502 -0.00000000000E+00 -0.00000000000E+00 -0.14801165501E+03  0.14801165501E+03  0.00000000000E+00 0. -1.
         25    1    1    2    0    0  0.69482715362E+02  0.53958552664E+02  0.25581368352E+03  0.29800170103E+03  0.12500000000E+03 0.  0.
         25    1    1    2    0    0 -0.25316977254E+02 -0.27814590938E+02 -0.41310849067E+02  0.13691671577E+03  0.12500000000E+03 0.  0.
         25    1    1    2    0    0 -0.44165738108E+02 -0.26143961726E+02  0.82945163527E+02  0.15855289121E+03  0.12500000000E+03 0.  0.
</event>
<event>
 5    0  0.5778875E-005  0.2190143E+03  0.7546771E-02  0.1134620E+00
         21   -1    0    0  502  501  0.00000000000E+00  0.00000000000E+00  0.24468606404E+03  0.24468606404E+03  0.00000000000E+00 0. -1.
         21   -1    0    0  501  502 -0.00000000000E+00 -0.00000000000E+00 -0.19603599746E+03  0.19603599746E+03  0.00000000000E+00 0. -1.
         25    1    1    2    0    0  0.54403349979E+02  0.59737628810E+02 -0.76363163235E+01  0.14903564041E+03  0.12500000000E+03 0.  0.
         25    1    1    2    0    0 -0.14794254954E+01 -0.17583431837E+02 -0.23913434424E+02  0.12848431080E+03  0.12500000000E+03 0.  0.
         25    1    1    2    0    0 -0.52923924484E+02 -0.42154196973E+02  0.80199817335E+02  0.16320211030E+03  0.12500000000E+03 0.  0.
</event>
<event>
 5    0  0.5778875E-005  0.3498452E+03  0.7546771E-02  0.1062679E+00
         21   -1    0    0  502  501  0.00000000000E+00  0.00000000000E+00  0.18902785359E+04  0.18902785359E+04  0.00000000000E+00 0.  1.
         21   -1    0    0  501  502 -0.00000000000E+00 -0.00000000000E+00 -0.64747950167E+02  0.64747950167E+02  0.00000000000E+00 0.  1.
         25    1    1    2    0    0 -0.10149116448E+03  0.16574038890E+03  0.29255917692E+03  0.37280853662E+03  0.12500000000E+03 0.  0.
         25    1    1    2    0    0 -0.46429177863E+02 -0.11564903338E+03  0.50483478560E+03  0.53480232631E+03  0.12500000000E+03 0.  0.
         25    1    1    2    0    0  0.14792034235E+03 -0.50091355515E+02  0.10281366232E+04  0.10474156231E+04  0.12500000000E+03 0.  0.
</event>
<event>
 5    0  0.5778875E-005  0.2320787E+03  0.7546771E-02  0.1125185E+00
         21   -1    0    0  502  501  0.00000000000E+00  0.00000000000E+00  0.32737443045E+03  0.32737443045E+03  0.00000000000E+00 0.  1.
         21   -1    0    0  501  502 -0.00000000000E+00 -0.00000000000E+00 -0.16452271849E+03  0.16452271849E+03  0.00000000000E+00 0.  1.
         25    1    1    2    0    0  0.20878293426E+02 -0.64911282605E+02  0.44151497091E+02  0.14907626384E+03  0.12500000000E+03 0.  0.
         25    1    1    2    0    0 -0.88735989351E+02  0.14567767055E+02  0.11449145037E+03  0.19188430851E+03  0.12500000000E+03 0.  0.
         25    1    1    2    0    0  0.67857695925E+02  0.50343515550E+02  0.42087645005E+01  0.15093657659E+03  0.12500000000E+03 0.  0.
</event>
<event>
 5    0  0.5778875E-005  0.2688495E+03  0.7546771E-02  0.1101940E+00
         21   -1    0    0  502  501  0.00000000000E+00  0.00000000000E+00  0.20261876562E+03  0.20261876562E+03  0.00000000000E+00 0.  1.
         21   -1    0    0  501  502 -0.00000000000E+00 -0.00000000000E+00 -0.35672943627E+03  0.35672943627E+03  0.00000000000E+00 0.  1.
         25    1    1    2    0    0 -0.11026515752E+03  0.14430300676E+03 -0.74480997166E+02  0.23271051042E+03  0.12500000000E+03 0.  0.
         25    1    1    2    0    0  0.41630351215E+02 -0.10382677061E+03 -0.30667625071E+02  0.17052444888E+03  0.12500000000E+03 0.  0.
         25    1    1    2    0    0  0.68634806305E+02 -0.40476236145E+02 -0.48962048407E+02  0.15611324259E+03  0.12500000000E+03 0.  0.
</event>
<event>
 5    0  0.5778875E-005  0.2038404E+03  0.7546771E-02  0.1146539E+00
         21   -1    0    0  502  501  0.00000000000E+00  0.00000000000E+00  0.51713351736E+03  0.51713351736E+03  0.00000000000E+00 0.  1.
         21   -1    0    0  501  502 -0.00000000000E+00 -0.00000000000E+00 -0.80348535371E+02  0.80348535371E+02  0.00000000000E+00 0.  1.
         25    1    1    2    0    0  0.40518914116E+01 -0.40948329361E+02  0.84118173781E+02  0.15618594899E+03  0.12500000000E+03 0.  0.
         25    1    1    2    0    0  0.14649301995E+01 -0.17443431793E+02  0.18735746478E+03  0.22590758939E+03  0.12500000000E+03 0.  0.
         25    1    1    2    0    0 -0.55168216111E+01  0.58391761154E+02  0.16530934342E+03  0.21538851435E+03  0.12500000000E+03 0.  0.
</event>
<event>
 5    0  0.5778875E-005  0.2311796E+03  0.7546771E-02  0.1125812E+00
         21   -1    0    0  502  501  0.00000000000E+00  0.00000000000E+00  0.12697845260E+03  0.12697845260E+03  0.00000000000E+00 0.  1.
         21   -1    0    0  501  502 -0.00000000000E+00 -0.00000000000E+00 -0.42089036728E+03  0.42089036728E+03  0.00000000000E+00 0.  1.
         25    1    1    2    0    0 -0.81687491479E+02 -0.25105528081E+02 -0.13795002625E+03  0.20483735877E+03  0.12500000000E+03 0.  0.
         25    1    1    2    0    0  0.38683634141E+02 -0.62824608613E+02 -0.92108007821E+02  0.17190764992E+03  0.12500000000E+03 0.  0.
         25    1    1    2    0    0  0.43003857338E+02  0.87930136695E+02 -0.63853880616E+02  0.17112381119E+03  0.12500000000E+03 0.  0.
</event>
<event>
 5    0  0.5778875E-005  0.1078137E+04  0.7546771E-02  0.9226767E-01
         21   -1    0    0  502  501  0.00000000000E+00  0.00000000000E+00  0.15143649158E+04  0.15143649158E+04  0.00000000000E+00 0. -1.
         21   -1    0    0  501  502 -0.00000000000E+00 -0.00000000000E+00 -0.76756913153E+03  0.76756913153E+03  0.00000000000E+00 0. -1.
         25    1    1    2    0    0  0.25981293216E+03 -0.33657836894E+03  0.37490104666E+03  0.58048561820E+03  0.12500000000E+03 0.  0.
         25    1    1    2    0    0  0.40096959015E+03 -0.34711322089E+03  0.49302634227E+03  0.73482254628E+03  0.12500000000E+03 0.  0.
         25    1    1    2    0    0 -0.66078252231E+03  0.68369158982E+03 -0.12113160465E+03  0.96662588287E+03  0.12500000000E+03 0.  0.
</event>
<event>
 5    0  0.5778875E-005  0.2580675E+03  0.7546771E-02  0.1108310E+00
         21   -1    0    0  502  501  0.00000000000E+00  0.00000000000E+00  0.94074608443E+02  0.94074608443E+02  0.00000000000E+00 0. -1.
         21   -1    0    0  501  502 -0.00000000000E+00 -0.00000000000E+00 -0.70793653780E+03  0.70793653780E+03  0.00000000000E+00 0. -1.
         25    1    1    2    0    0  0.12101169951E+03 -0.77461937236E+02 -0.31326726673E+03  0.36661364342E+03  0.12500000000E+03 0.  0.
         25    1    1    2    0    0 -0.38612108949E+01  0.47448068443E+02 -0.17778770442E+03  0.22248527140E+03  0.12500000000E+03 0.  0.
         25    1    1    2    0    0 -0.11715048862E+03  0.30013868793E+02 -0.12280695821E+03  0.21291223142E+03  0.12500000000E+03 0.  0.
</event>
<event>
 5    0  0.5778875E-005  0.2471164E+03  0.7546771E-02  0.1115141E+00
         21   -1    0    0  502  501  0.00000000000E+00  0.00000000000E+00  0.12832166668E+03  0.12832166668E+03  0.00000000000E+00 0.  1.
         21   -1    0    0  501  502 -0.00000000000E+00 -0.00000000000E+00 -0.47588605470E+03  0.47588605470E+03  0.00000000000E+00 0.  1.
         25    1    1    2    0    0  0.35982277092E+02 -0.62712244124E+02 -0.20352901135E+03  0.24955281663E+03  0.12500000000E+03 0.  0.
         25    1    1    2    0    0 -0.87360315946E+02  0.89435337585E+02 -0.38052154168E+02  0.18084100986E+03  0.12500000000E+03 0.  0.
         25    1    1    2    0    0  0.51378038854E+02 -0.26723093461E+02 -0.10598322250E+03  0.17381389488E+03  0.12500000000E+03 0.  0.
</event>
<event>
 5    0  0.5778875E-005  0.3307072E+03  0.7546771E-02  0.1070824E+00
         21   -1    0    0  502  501  0.00000000000E+00  0.00000000000E+00  0.10590840929E+04  0.10590840929E+04  0.00000000000E+00 0.  1.
         21   -1    0    0  501  502 -0.00000000000E+00 -0.00000000000E+00 -0.10326585741E+03  0.10326585741E+03  0.00000000000E+00 0.  1.
         25    1    1    2    0    0 -0.12267468610E+03  0.82299388036E+02  0.35014443278E+03  0.40006048503E+03  0.12500000000E+03 0.  0.
         25    1    1    2    0    0 -0.67738865639E+02  0.67204968139E+02  0.37004760183E+03  0.40207622322E+03  0.12500000000E+03 0.  0.
         25    1    1    2    0    0  0.19041355174E+03 -0.14950435618E+03  0.23562620086E+03  0.36021324203E+03  0.12500000000E+03 0.  0.
</event>
<event>
 5    0  0.5778875E-005  0.4243034E+03  0.7546771E-02  0.1035675E+00
         21   -1    0    0  502  501  0.00000000000E+00  0.00000000000E+00  0.14974357590E+03  0.14974357590E+03  0.00000000000E+00 0.  1.
         21   -1    0    0  501  502 -0.00000000000E+00 -0.00000000000E+00 -0.12022775768E+04  0.12022775768E+04  0.00000000000E+00 0.  1.
         25    1    1    2    0    0  0.19326774600E+03  0.22744105385E+03 -0.71490324681E+03  0.78472511551E+03  0.12500000000E+03 0.  0.
         25    1    1    2    0    0 -0.27541739887E+01 -0.56265323630E+02 -0.16749131032E+02  0.13812641133E+03  0.12500000000E+03 0.  0.
         25    1    1    2    0    0 -0.19051357201E+03 -0.17117573022E+03 -0.32088162303E+03  0.42916962583E+03  0.12500000000E+03 0.  0.
</event>
<event>
 5    0  0.5778875E-005  0.3256382E+03  0.7546771E-02  0.1073083E+00
         21   -1    0    0  502  501  0.00000000000E+00  0.00000000000E+00  0.60399804276E+02  0.60399804276E+02  0.00000000000E+00 0.  1.
         21   -1    0    0  501  502 -0.00000000000E+00 -0.00000000000E+00 -0.17556382265E+04  0.17556382265E+04  0.00000000000E+00 0.  1.
         25    1    1    2    0    0 -0.32113781453E+02 -0.61836209496E+02 -0.20363443602E+03  0.24889153320E+03  0.12500000000E+03 0.  0.
         25    1    1    2    0    0  0.14848893921E+03  0.12072674522E+03 -0.40008518186E+03  0.46077875908E+03  0.12500000000E+03 0.  0.
         25    1    1    2    0    0 -0.11637515776E+03 -0.58890535724E+02 -0.10915188043E+04  0.11063677385E+04  0.12500000000E+03 0.  0.
</event>
<event>
 5    0  0.5778875E-005  0.3678732E+03  0.7546771E-02  0.1055509E+00
         21   -1    0    0  502  501  0.00000000000E+00  0.00000000000E+00  0.34223000558E+03  0.34223000558E+03  0.00000000000E+00 0.  1.
         21   -1    0    0  501  502 -0.00000000000E+00 -0.00000000000E+00 -0.39543772833E+03  0.39543772833E+03  0.00000000000E+00 0.  1.
         25    1    1    2    0    0  0.15960103686E+03  0.21061110455E+02 -0.20074424596E+03  0.28607571310E+03  0.12500000000E+03 0.  0.
         25    1    1    2    0    0  0.80441681800E+02  0.16731152562E-01  0.91059296574E+02  0.17432056661E+03  0.12500000000E+03 0.  0.
         25    1    1    2    0    0 -0.24004271866E+03 -0.21077841608E+02  0.56477226630E+02  0.27727145420E+03  0.12500000000E+03 0.  0.
</event>
<event>
 5    0  0.5778875E-005  0.2671252E+03  0.7546771E-02  0.1102936E+00
         21   -1    0    0  502  501  0.00000000000E+00  0.00000000000E+00  0.39470486685E+03  0.39470486685E+03  0.00000000000E+00 0.  1.
         21   -1    0    0  501  502 -0.00000000000E+00 -0.00000000000E+00 -0.18078281420E+03  0.18078281420E+03  0.00000000000E+00 0.  1.
         25    1    1    2    0    0  0.13109361575E+03 -0.16656628602E+02  0.32385888557E+02  0.18476153589E+03  0.12500000000E+03 0.  0.
         25    1    1    2    0    0  0.37539881508E+02 -0.22232246787E+02  0.74424067947E+02  0.15187974648E+03  0.12500000000E+03 0.  0.
         25    1    1    2    0    0 -0.16863349725E+03  0.38888875389E+02  0.10711209615E+03  0.23884639869E+03  0.12500000000E+03 0.  0.
</event>
<event>
 5    0  0.5778875E-005  0.3354821E+03  0.7546771E-02  0.1068737E+00
         21   -1    0    0  502  501  0.00000000000E+00  0.00000000000E+00  0.39793639167E+03  0.39793639167E+03  0.00000000000E+00 0. -1.
         21   -1    0    0  501  502 -0.00000000000E+00 -0.00000000000E+00 -0.28282970366E+03  0.28282970366E+03  0.00000000000E+00 0. -1.
         25    1    1    2    0    0  0.15095103176E+03  0.10508269099E+03  0.23460029425E+03  0.32325049729E+03  0.12500000000E+03 0.  0.
         25    1    1    2    0    0 -0.34729531111E+02  0.73627006722E+01 -0.68341326828E+02  0.14681923118E+03  0.12500000000E+03 0.  0.
         25    1    1    2    0    0 -0.11622150065E+03 -0.11244539166E+03 -0.51152279405E+02  0.21069636686E+03  0.12500000000E+03 0.  0.
</event>
<event>
 5    0  0.5778875E-005  0.3617976E+03  0.7546771E-02  0.1057874E+00
         21   -1    0    0  502  501  0.00000000000E+00  0.00000000000E+00  0.27232843581E+03  0.27232843581E+03  0.00000000000E+00 0.  1.
         21   -1    0    0  501  502 -0.00000000000E+00 -0.00000000000E+00 -0.48066052693E+03  0.48066052693E+03  0.00000000000E+00 0.  1.
         25    1    1    2    0    0 -0.19999755576E+03  0.22466375596E+02 -0.90625258036E+02  0.25365665324E+03  0.12500000000E+03 0.  0.
         25    1    1    2    0    0 -0.25696824936E+02 -0.10752332821E+03 -0.15174525281E+03  0.22555091370E+03  0.12500000000E+03 0.  0.
         25    1    1    2    0    0  0.22569438069E+03  0.85056952615E+02  0.34038419735E+02  0.27378139579E+03  0.12500000000E+03 0.  0.
</event>
<event>
 5    0  0.5778875E-005  0.3553120E+03  0.7546771E-02  0.1060456E+00
         21   -1    0    0  502  501  0.00000000000E+00  0.00000000000E+00  0.87484358784E+03  0.87484358784E+03  0.00000000000E+00 0. -1.
         21   -1    0    0  501  502 -0.00000000000E+00 -0.00000000000E+00 -0.14430761876E+03  0.14430761876E+03  0.00000000000E+00 0. -1.
         25    1    1    2    0    0 -0.93416627749E+02  0.63548524999E+02  0.26641526203E+03  0.31522559099E+03  0.12500000000E+03 0.  0.
         25    1    1    2    0    0  0.13125898828E+01 -0.25407504801E+03  0.23654067119E+03  0.36896116603E+03  0.12500000000E+03 0.  0.
         25    1    1    2    0    0  0.92104037867E+02  0.19052652301E+03  0.22758003586E+03  0.33496444958E+03  0.12500000000E+03 0.  0.
</event>
<event>
 5    0  0.5778875E-005  0.3697582E+03  0.7546771E-02  0.1054785E+00
         21   -1    0    0  502  501  0.00000000000E+00  0.00000000000E+00  0.11662558310E+03  0.11662558310E+03  0.00000000000E+00 0.  1.
         21   -1    0    0  501  502 -0.00000000000E+00 -0.00000000000E+00 -0.11723078823E+04  0.11723078823E+04  0.00000000000E+00 0.  1.
         25    1    1    2    0    0 -0.23177040349E+03 -0.65127651523E+02 -0.73355836635E+03  0.78210741447E+03  0.12500000000E+03 0.  0.
         25    1    1    2    0    0  0.16314528245E+03  0.11666628608E+03 -0.22785561820E+03  0.32828431007E+03  0.12500000000E+03 0.  0.
         25    1    1    2    0    0  0.68625121041E+02 -0.51538634559E+02 -0.94268314680E+02  0.17854174090E+03  0.12500000000E+03 0.  0.
</event>
<event>
 5    0  0.5778875E-005  0.5005775E+03  0.7546771E-02  0.1013628E+00
         21   -1    0    0  502  501  0.00000000000E+00  0.00000000000E+00  0.32628044518E+03  0.32628044518E+03  0.00000000000E+00 0.  1.
         21   -1    0    0  501  502 -0.00000000000E+00 -0.00000000000E+00 -0.76798301297E+03  0.76798301297E+03  0.00000000000E+00 0.  1.
         25    1    1    2    0    0 -0.29604673089E+03  0.80031000028E+02 -0.18151695710E+03  0.37765332456E+03  0.12500000000E+03 0.  0.
         25    1    1    2    0    0  0.89452005511E+02  0.17899241545E+03  0.55314768455E+02  0.24233173479E+03  0.12500000000E+03 0.  0.
         25    1    1    2    0    0  0.20659472538E+03 -0.25902341548E+03 -0.31550037916E+03  0.47427839880E+03  0.12500000000E+03 0.  0.
</event>
<event>
 5    0  0.5778875E-005  0.2634063E+03  0.7546771E-02  0.1105114E+00
         21   -1    0    0  502  501  0.00000000000E+00  0.00000000000E+00  0.67677623849E+03  0.67677623849E+03  0.00000000000E+00 0. -1.
         21   -1    0    0  501  502 -0.00000000000E+00 -0.00000000000E+00 -0.10251968718E+03  0.10251968718E+03  0.00000000000E+00 0. -1.
         25    1    1    2    0    0  0.15172975722E+02 -0.35216261741E+02  0.34448925695E+03  0.36846743741E+03  0.12500000000E+03 0.  0.
         25    1    1    2    0    0 -0.69410653976E+02  0.91060232023E+02  0.46592186681E+02  0.17579999033E+03  0.12500000000E+03 0.  0.
         25    1    1    2    0    0  0.54237678254E+02 -0.55843970282E+02  0.18317510768E+03  0.23502849792E+03  0.12500000000E+03 0.  0.
</event>
<event>
 5    0  0.5778875E-005  0.3863625E+03  0.7546771E-02  0.1048607E+00
         21   -1    0    0  502  501  0.00000000000E+00  0.00000000000E+00  0.92768899270E+03  0.92768899270E+03  0.00000000000E+00 0.  1.
         21   -1    0    0  501  502 -0.00000000000E+00 -0.00000000000E+00 -0.16091167884E+03  0.16091167884E+03  0.00000000000E+00 0.  1.
         25    1    1    2    0    0 -0.25192093526E+03 -0.71297565786E+02  0.51863106176E+03  0.59426482205E+03  0.12500000000E+03 0.  0.
         25    1    1    2    0    0  0.25380673855E+03  0.92829432951E+02  0.19979799413E+03  0.35857970190E+03  0.12500000000E+03 0.  0.
         25    1    1    2    0    0 -0.18858032957E+01 -0.21531867165E+02  0.48348257976E+02  0.13575614758E+03  0.12500000000E+03 0.  0.
</event>
<event>
 5    0  0.5778875E-005  0.5667070E+03  0.7546771E-02  0.9976992E-01
         21   -1    0    0  502  501  0.00000000000E+00  0.00000000000E+00  0.13871524474E+03  0.13871524474E+03  0.00000000000E+00 0.  1.
         21   -1    0    0  501  502 -0.00000000000E+00 -0.00000000000E+00 -0.23152240695E+04  0.23152240695E+04  0.00000000000E+00 0.  1.
         25    1    1    2    0    0 -0.35076922070E+03 -0.10806488298E+03 -0.47750560272E+03  0.61510459741E+03  0.12500000000E+03 0.  0.
         25    1    1    2    0    0  0.69530925350E+01  0.97177415761E+02 -0.12479431724E+04  0.12579661987E+04  0.12500000000E+03 0.  0.
         25    1    1    2    0    0  0.34381612816E+03  0.10887467219E+02 -0.45106004966E+03  0.58086851811E+03  0.12500000000E+03 0.  0.
</event>
<event>
 5    0  0.5778875E-005  0.2303440E+03  0.7546771E-02  0.1126398E+00
         21   -1    0    0  502  501  0.00000000000E+00  0.00000000000E+00  0.46686498220E+03  0.46686498220E+03  0.00000000000E+00 0.  1.
         21   -1    0    0  501  502 -0.00000000000E+00 -0.00000000000E+00 -0.11364822628E+03  0.11364822628E+03  0.00000000000E+00 0.  1.
         25    1    1    2    0    0 -0.84605389481E+02 -0.36872809821E+02  0.97684156436E+02  0.18353438493E+03  0.12500000000E+03 0.  0.
         25    1    1    2    0    0  0.11679719308E+02 -0.41355034823E+02  0.72030517454E+02  0.15053255526E+03  0.12500000000E+03 0.  0.
         25    1    1    2    0    0  0.72925670173E+02  0.78227844644E+02  0.18350208202E+03  0.24644626829E+03  0.12500000000E+03 0.  0.
</event>
<event>
 5    0  0.5778875E-005  0.3444185E+03  0.7546771E-02  0.1064929E+00
         21   -1    0    0  502  501  0.00000000000E+00  0.00000000000E+00  0.12495599798E+03  0.12495599798E+03  0.00000000000E+00 0.  1.
         21   -1    0    0  501  502 -0.00000000000E+00 -0.00000000000E+00 -0.94932720537E+03  0.94932720537E+03  0.00000000000E+00 0.  1.
         25    1    1    2    0    0 -0.17269533467E+02 -0.59729568238E+02 -0.18103939005E+03  0.22861784457E+03  0.12500000000E+03 0.  0.
         25    1    1    2    0    0 -0.10140419252E+03 -0.69158965068E+02 -0.60139938529E+03  0.62639603554E+03  0.12500000000E+03 0.  0.
         25    1    1    2    0    0  0.11867372599E+03  0.12888853331E+03 -0.41932432046E+02  0.21926932324E+03  0.12500000000E+03 0.  0.
</event>
<event>
 5    0  0.5778875E-005  0.3284061E+03  0.7546771E-02  0.1071844E+00
         21   -1    0    0  502  501  0.00000000000E+00  0.00000000000E+00  0.80780607175E+03  0.80780607175E+03  0.00000000000E+00 0. -1.
         21   -1    0    0  501  502 -0.00000000000E+00 -0.00000000000E+00 -0.13351049546E+03  0.13351049546E+03  0.00000000000E+00 0. -1.
         25    1    1    2    0    0 -0.46816288758E+02  0.22152688980E+02  0.26514486968E+02  0.13787865876E+03  0.12500000000E+03 0.  0.
         25    1    1    2    0    0  0.17619203716E+02 -0.17317470499E+02 -0.15023264683E+02  0.12830054406E+03  0.12500000000E+03 0.  0.
         25    1    1    2    0    0  0.29197085041E+02 -0.48352184812E+01  0.66280435400E+03  0.67513736439E+03  0.12500000000E+03 0.  0.
</event>
<event>
 5    0  0.5778875E-005  0.3724529E+03  0.7546771E-02  0.1053759E+00
         21   -1    0    0  502  501  0.00000000000E+00  0.00000000000E+00  0.13743054360E+03  0.13743054360E+03  0.00000000000E+00 0.  1.
         21   -1    0    0  501  502 -0.00000000000E+00 -0.00000000000E+00 -0.10093908406E+04  0.10093908406E+04  0.00000000000E+00 0.  1.
         25    1    1    2    0    0  0.12845753589E+03  0.16478197461E+03 -0.13884561002E+03  0.28028118221E+03  0.12500000000E+03 0.  0.
         25    1    1    2    0    0 -0.19903041819E+03 -0.11871192204E+03 -0.63296822292E+03  0.68555043507E+03  0.12500000000E+03 0.  0.
         25    1    1    2    0    0  0.70572882300E+02 -0.46070052565E+02 -0.10014646403E+03  0.18098976689E+03  0.12500000000E+03 0.  0.
</event>
<event>
 5    0  0.5778875E-005  0.2667557E+03  0.7546771E-02  0.1103151E+00
         21   -1    0    0  502  501  0.00000000000E+00  0.00000000000E+00  0.98725143731E+03  0.98725143731E+03  0.00000000000E+00 0. -1.
         21   -1    0    0  501  502 -0.00000000000E+00 -0.00000000000E+00 -0.72077481947E+02  0.72077481947E+02  0.00000000000E+00 0. -1.
         25    1    1    2    0    0 -0.15341560705E+03 -0.94456994947E+00  0.41638930583E+03  0.46102309563E+03  0.12500000000E+03 0.  0.
         25    1    1    2    0    0  0.73533518173E+02  0.76064298398E+02  0.23301099907E+03  0.28480182842E+03  0.12500000000E+03 0.  0.
         25    1    1    2    0    0  0.79882088875E+02 -0.75119728449E+02  0.26577365046E+03  0.31350399520E+03  0.12500000000E+03 0.  0.
</event>
<event>
 5    0  0.5778875E-005  0.4070820E+03  0.7546771E-02  0.1041355E+00
         21   -1    0    0  502  501  0.00000000000E+00  0.00000000000E+00  0.29327444023E+03  0.29327444023E+03  0.00000000000E+00 0.  1.
         21   -1    0    0  501  502 -0.00000000000E+00 -0.00000000000E+00 -0.56505354755E+03  0.56505354755E+03  0.00000000000E+00 0.  1.
         25    1    1    2    0    0  0.19788961192E+03  0.16461849173E+03  0.12088668128E+03  0.31064149117E+03  0.12500000000E+03 0.  0.
         25    1    1    2    0    0 -0.14960254970E+03 -0.15194796784E+03 -0.25085918237E+03  0.35217103400E+03  0.12500000000E+03 0.  0.
         25    1    1    2    0    0 -0.48287062213E+02 -0.12670523883E+02 -0.14180660622E+03  0.19551546261E+03  0.12500000000E+03 0.  0.
</event>
<event>
 5    0  0.5778875E-005  0.3216014E+03  0.7546771E-02  0.1074915E+00
         21   -1    0    0  502  501  0.00000000000E+00  0.00000000000E+00  0.15922418660E+03  0.15922418660E+03  0.00000000000E+00 0.  1.
         21   -1    0    0  501  502 -0.00000000000E+00 -0.00000000000E+00 -0.64957133854E+03  0.64957133854E+03  0.00000000000E+00 0.  1.
         25    1    1    2    0    0  0.21023483592E+03 -0.65938949784E+01 -0.11695769447E+03  0.27119415182E+03  0.12500000000E+03 0.  0.
         25    1    1    2    0    0 -0.15671352045E+03  0.28653631703E+02 -0.88173646140E+02  0.22086138181E+03  0.12500000000E+03 0.  0.
         25    1    1    2    0    0 -0.53521315470E+02 -0.22059736724E+02 -0.28521581133E+03  0.31673999152E+03  0.12500000000E+03 0.  0.
</event>
<event>
 5    0  0.5951381E-005  0.2849502E+03  0.7546771E-02  0.1093016E+00
         21   -1    0    0  502  501  0.00000000000E+00  0.00000000000E+00  0.93401260757E+03  0.93401260757E+03  0.00000000000E+00 0.  1.
         21   -1    0    0  501  502 -0.00000000000E+00 -0.00000000000E+00 -0.86933104373E+02  0.86933104373E+02  0.00000000000E+00 0.  1.
         25    1    1    2    0    0  0.66227255191E+02  0.64626525539E+01  0.37964800593E+03  0.40519800545E+03  0.12500000000E+03 0.  0.
         25    1    1    2    0    0 -0.73854153189E+02  0.10790810235E+03  0.90184879341E+02  0.20213091539E+03  0.12500000000E+03 0.  0.
         25    1    1    2    0    0  0.76268979974E+01 -0.11437075490E+03  0.37724661792E+03  0.41361679111E+03  0.12500000000E+03 0.  0.
</event>
<event>
 5    0  0.5778875E-005  0.2795925E+03  0.7546771E-02  0.1095912E+00
         21   -1    0    0  502  501  0.00000000000E+00  0.00000000000E+00  0.13152221932E+03  0.13152221932E+03  0.00000000000E+00 0. -1.
         21   -1    0    0  501  502 -0.00000000000E+00 -0.00000000000E+00 -0.59436334377E+03  0.59436334377E+03  0.00000000000E+00 0. -1.
         25    1    1    2    0    0  0.41140362892E+02 -0.38089356540E+02 -0.22569808646E+02  0.13884424656E+03  0.12500000000E+03 0.  0.
         25    1    1    2    0    0 -0.25397129066E+02 -0.83048637253E+02 -0.36739996951E+03  0.39768056014E+03  0.12500000000E+03 0.  0.
         25    1    1    2    0    0 -0.15743233826E+02  0.12113799379E+03 -0.72871346292E+02  0.18936075639E+03  0.12500000000E+03 0.  0.
</event>
<event>
 5    0  0.5778875E-005  0.2364462E+03  0.7546771E-02  0.1122183E+00
         21   -1    0    0  502  501  0.00000000000E+00  0.00000000000E+00  0.31224215628E+03  0.31224215628E+03  0.00000000000E+00 0. -1.
         21   -1    0    0  501  502 -0.00000000000E+00 -0.00000000000E+00 -0.17904953370E+03  0.17904953370E+03  0.00000000000E+00 0. -1.
         25    1    1    2    0    0 -0.64398676738E+02 -0.34007786574E+02 -0.19203211777E+02  0.14593656997E+03  0.12500000000E+03 0.  0.
         25    1    1    2    0    0  0.80288604614E+02 -0.25695861747E+02  0.13936189883E+03  0.20531263036E+03  0.12500000000E+03 0.  0.
         25    1    1    2    0    0 -0.15889927876E+02  0.59703648321E+02  0.13033935533E+02  0.14004248965E+03  0.12500000000E+03 0.  0.
</event>
<event>
 5    0  0.5778875E-005  0.3778854E+03  0.7546771E-02  0.1051718E+00
         21   -1    0    0  502  501  0.00000000000E+00  0.00000000000E+00  0.24103918845E+03  0.24103918845E+03  0.00000000000E+00 0. -1.
         21   -1    0    0  501  502 -0.00000000000E+00 -0.00000000000E+00 -0.59242393456E+03  0.59242393456E+03  0.00000000000E+00 0. -1.
         25    1    1    2    0    0  0.21052841734E+03  0.33156574654E+02  0.58424892624E+01  0.24714511452E+03  0.12500000000E+03 0.  0.
         25    1    1    2    0    0 -0.49628617724E+02 -0.13937937245E+03 -0.45330417808E+02  0.19892072778E+03  0.12500000000E+03 0.  0.
         25    1    1    2    0    0 -0.16089979962E+03  0.10622279780E+03 -0.31189681757E+03  0.38739728071E+03  0.12500000000E+03 0.  0.
</event>
<event>
 5    0  0.5778875E-005  0.2647236E+03  0.7546771E-02  0.1104338E+00
         21   -1    0    0  502  501  0.00000000000E+00  0.00000000000E+00  0.75344078646E+03  0.75344078646E+03  0.00000000000E+00 0.  1.
         21   -1    0    0  501  502 -0.00000000000E+00 -0.00000000000E+00 -0.93011380795E+02  0.93011380795E+02  0.00000000000E+00 0.  1.
         25    1    1    2    0    0 -0.26944044681E+02  0.84643449588E+02  0.21591318829E+03  0.26482824619E+03  0.12500000000E+03 0.  0.
         25    1    1    2    0    0  0.32597773918E+02  0.68487578689E+02  0.30913783430E+03  0.34197129103E+03  0.12500000000E+03 0.  0.
         25    1    1    2    0    0 -0.56537292369E+01 -0.15313102828E+03  0.13537838308E+03  0.23965263003E+03  0.12500000000E+03 0.  0.
</event>
<event>
 5    0  0.5778875E-005  0.2017611E+03  0.7546771E-02  0.1148262E+00
         21   -1    0    0  502  501  0.00000000000E+00  0.00000000000E+00  0.13552569350E+03  0.13552569350E+03  0.00000000000E+00 0. -1.
         21   -1    0    0  501  502 -0.00000000000E+00 -0.00000000000E+00 -0.30036781128E+03  0.30036781128E+03  0.00000000000E+00 0. -1.
         25    1    1    2    0    0 -0.28577330697E+02  0.48381720980E+02 -0.44864566444E+02  0.14420570057E+03  0.12500000000E+03 0.  0.
         25    1    1    2    0    0 -0.14804109959E+02 -0.38737784395E+01 -0.64254433610E+02  0.14137821639E+03  0.12500000000E+03 0.  0.
         25    1    1    2    0    0  0.43381440656E+02 -0.44507942541E+02 -0.55723117719E+02  0.15030958782E+03  0.12500000000E+03 0.  0.
</event>
<event>
 5    0  0.5778875E-005  0.3044617E+03  0.7546771E-02  0.1083031E+00
         21   -1    0    0  502  501  0.00000000000E+00  0.00000000000E+00  0.73305642945E+03  0.73305642945E+03  0.00000000000E+00 0. -1.
         21   -1    0    0  501  502 -0.00000000000E+00 -0.00000000000E+00 -0.12645268509E+03  0.12645268509E+03  0.00000000000E+00 0. -1.
         25    1    1    2    0    0 -0.89685216787E+02  0.57840258065E+02  0.17795248746E+03  0.24224165900E+03  0.12500000000E+03 0.  0.
         25    1    1    2    0    0  0.47959031939E+01 -0.86974699200E+02 -0.97249422266E+01  0.15266687096E+03  0.12500000000E+03 0.  0.
         25    1    1    2    0    0  0.84889313593E+02  0.29134441135E+02  0.43837619913E+03  0.46460058458E+03  0.12500000000E+03 0.  0.
</event>
<event>
 5    0  0.5778875E-005  0.3364017E+03  0.7546771E-02  0.1068339E+00
         21   -1    0    0  502  501  0.00000000000E+00  0.00000000000E+00  0.46626724993E+02  0.46626724993E+02  0.00000000000E+00 0. -1.
         21   -1    0    0  501  502 -0.00000000000E+00 -0.00000000000E+00 -0.24270659035E+04  0.24270659035E+04  0.00000000000E+00 0. -1.
         25    1    1    2    0    0 -0.12830262319E+03 -0.42672990734E+02 -0.38786816531E+03  0.42935912814E+03  0.12500000000E+03 0.  0.
         25    1    1    2    0    0  0.17744997816E+03  0.16362646186E+03 -0.10518109380E+04  0.10863670480E+04  0.12500000000E+03 0.  0.
         25    1    1    2    0    0 -0.49147354966E+02 -0.12095347112E+03 -0.94076007520E+03  0.95796645232E+03  0.12500000000E+03 0.  0.
</event>
<event>
 5    0  0.7402052E-005  0.2793527E+03  0.7546771E-02  0.1096043E+00
         21   -1    0    0  502  501  0.00000000000E+00  0.00000000000E+00  0.13681632641E+03  0.13681632641E+03  0.00000000000E+00 0. -1.
         21   -1    0    0  501  502 -0.00000000000E+00 -0.00000000000E+00 -0.57038471771E+03  0.57038471771E+03  0.00000000000E+00 0. -1.
         25    1    1    2    0    0  0.30026990082E+01  0.16884754964E+02  0.30773927071E+01  0.12620848425E+03  0.12500000000E+03 0.  0.
         25    1    1    2    0    0 -0.91889779935E+02 -0.39899039029E+02 -0.38586131175E+03  0.41779135567E+03  0.12500000000E+03 0.  0.
         25    1    1    2    0    0  0.88887080927E+02  0.23014284065E+02 -0.50784472262E+02  0.16320120419E+03  0.12500000000E+03 0.  0.
</event>
<event>
 5    0  0.5778875E-005  0.2647020E+03  0.7546771E-02  0.1104351E+00
         21   -1    0    0  502  501  0.00000000000E+00  0.00000000000E+00  0.15855058667E+04  0.15855058667E+04  0.00000000000E+00 0. -1.
         21   -1    0    0  501  502 -0.00000000000E+00 -0.00000000000E+00 -0.44192289086E+02  0.44192289086E+02  0.00000000000E+00 0. -1.
         25    1    1    2    0    0 -0.24983792877E+02  0.79393600774E+02  0.30975002387E+03  0.34423481962E+03  0.12500000000E+03 0.  0.
         25    1    1    2    0    0  0.11809864387E+03 -0.68650229934E+02  0.90109259924E+03  0.91992011401E+03  0.12500000000E+03 0.  0.
         25    1    1    2    0    0 -0.93114850989E+02 -0.10743370840E+02  0.33047095445E+03  0.36554322211E+03  0.12500000000E+03 0.  0.
</event>
<event>
 5    0  0.5778875E-005  0.3020487E+03  0.7546771E-02  0.1084221E+00
         21   -1    0    0  502  501  0.00000000000E+00  0.00000000000E+00  0.75047563295E+02  0.75047563295E+02  0.00000000000E+00 0. -1.
         21   -1    0    0  501  502 -0.00000000000E+00 -0.00000000000E+00 -0.12156745497E+04  0.12156745497E+04  0.00000000000E+00 0. -1.
         25    1    1    2    0    0 -0.10422110924E+03  0.59678996885E+01 -0.12997281532E+03  0.20836407598E+03  0.12500000000E+03 0.  0.
         25    1    1    2    0    0  0.16541898367E+02  0.12141950611E+03 -0.33398964920E+03  0.37708144563E+03  0.12500000000E+03 0.  0.
         25    1    1    2    0    0  0.87679210868E+02 -0.12738740580E+03 -0.67666452186E+03  0.70527659136E+03  0.12500000000E+03 0.  0.
</event>
<event>
 5    0  0.5778875E-005  0.2569485E+03  0.7546771E-02  0.1108991E+00
         21   -1    0    0  502  501  0.00000000000E+00  0.00000000000E+00  0.26958740154E+03  0.26958740154E+03  0.00000000000E+00 0.  1.
         21   -1    0    0  501  502 -0.00000000000E+00 -0.00000000000E+00 -0.24490214152E+03  0.24490214152E+03  0.00000000000E+00 0.  1.
         25    1    1    2    0    0 -0.57064540894E+02  0.13287634054E+03 -0.12631620270E+02  0.19156471892E+03  0.12500000000E+03 0.  0.
         25    1    1    2    0    0 -0.28796432174E+02 -0.55163538611E+02  0.58146802212E+02  0.15125574735E+03  0.12500000000E+03 0.  0.
         25    1    1    2    0    0  0.85860973068E+02 -0.77712801932E+02 -0.20829921930E+02  0.17166907680E+03  0.12500000000E+03 0.  0.
</event>
<event>
 5    0  0.5778875E-005  0.3008361E+03  0.7546771E-02  0.1084823E+00
         21   -1    0    0  502  501  0.00000000000E+00  0.00000000000E+00  0.21969739856E+03  0.21969739856E+03  0.00000000000E+00 0. -1.
         21   -1    0    0  501  502 -0.00000000000E+00 -0.00000000000E+00 -0.41194103956E+03  0.41194103956E+03  0.00000000000E+00 0. -1.
         25    1    1    2    0    0 -0.42343588621E+02  0.96342855615E+02  0.87318869776E+02  0.18526875167E+03  0.12500000000E+03 0.  0.
         25    1    1    2    0    0 -0.38962130945E+02 -0.13992010208E+03 -0.13748297852E+03  0.23584370247E+03  0.12500000000E+03 0.  0.
         25    1    1    2    0    0  0.81305719566E+02  0.43577246462E+02 -0.14207953226E+03  0.21052598398E+03  0.12500000000E+03 0.  0.
</event>
<event>
 5    0  0.5778875E-005  0.3427350E+03  0.7546771E-02  0.1065637E+00
         21   -1    0    0  502  501  0.00000000000E+00  0.00000000000E+00  0.11114747290E+03  0.11114747290E+03  0.00000000000E+00 0. -1.
         21   -1    0    0  501  502 -0.00000000000E+00 -0.00000000000E+00 -0.10568597281E+04  0.10568597281E+04  0.00000000000E+00 0. -1.
         25    1    1    2    0    0  0.21515848120E+03 -0.65538101124E+02 -0.43858252291E+03  0.50849586442E+03  0.12500000000E+03 0.  0.
         25    1    1    2    0    0 -0.16110693813E+03  0.14002619449E+03 -0.40209256442E+03  0.47208707991E+03  0.12500000000E+03 0.  0.
         25    1    1    2    0    0 -0.54051543065E+02 -0.74488093364E+02 -0.10503716789E+03  0.18742425670E+03  0.12500000000E+03 0.  0.
</event>
<event>
 5    0  0.5778875E-005  0.3185214E+03  0.7546771E-02  0.1076332E+00
         21   -1    0    0  502  501  0.00000000000E+00  0.00000000000E+00  0.41442710721E+03  0.41442710721E+03  0.00000000000E+00 0.  1.
         21   -1    0    0  501  502 -0.00000000000E+00 -0.00000000000E+00 -0.24480992004E+03  0.24480992004E+03  0.00000000000E+00 0.  1.
         25    1    1    2    0    0  0.73428269280E+02  0.13477131561E+03  0.14807223287E+02  0.19849249885E+03  0.12500000000E+03 0.  0.
         25    1    1    2    0    0  0.66915361349E+02  0.62489120505E+02  0.95165240429E+02  0.18183503170E+03  0.12500000000E+03 0.  0.
         25    1    1    2    0    0 -0.14034363063E+03 -0.19726043611E+03  0.59644723458E+02  0.27890949670E+03  0.12500000000E+03 0.  0.
</event>
<event>
 5    0  0.5778875E-005  0.5148640E+03  0.7546771E-02  0.1009970E+00
         21   -1    0    0  502  501  0.00000000000E+00  0.00000000000E+00  0.38629782932E+03  0.38629782932E+03  0.00000000000E+00 0. -1.
         21   -1    0    0  501  502 -0.00000000000E+00 -0.00000000000E+00 -0.68621906013E+03  0.68621906013E+03  0.00000000000E+00 0. -1.
         25    1    1    2    0    0 -0.21736292698E+03 -0.12715727449E+03 -0.38032752328E+03  0.47295839082E+03  0.12500000000E+03 0.  0.
         25    1    1    2    0    0  0.45716095468E+02  0.10981304777E+03  0.26596379986E+03  0.31703408284E+03  0.12500000000E+03 0.  0.
         25    1    1    2    0    0  0.17164683151E+03  0.17344226717E+02 -0.18555750739E+03  0.28252441579E+03  0.12500000000E+03 0.  0.
</event>
<event>
 5    0  0.5778875E-005  0.2710145E+03  0.7546771E-02  0.1100700E+00
         21   -1    0    0  502  501  0.00000000000E+00  0.00000000000E+00  0.30295293449E+03  0.30295293449E+03  0.00000000000E+00 0.  1.
         21   -1    0    0  501  502 -0.00000000000E+00 -0.00000000000E+00 -0.24244322280E+03  0.24244322280E+03  0.00000000000E+00 0.  1.
         25    1    1    2    0    0 -0.23473924173E+02 -0.11380867590E+03  0.88450017865E+01  0.17089960176E+03  0.12500000000E+03 0.  0.
         25    1    1    2    0    0  0.10356188251E+03  0.12996821017E+03  0.79438104434E+02  0.22260326054E+03  0.12500000000E+03 0.  0.
         25    1    1    2    0    0 -0.80087958342E+02 -0.16159534273E+02 -0.27773394531E+02  0.15189329499E+03  0.12500000000E+03 0.  0.
</event>
<event>
 5    0  0.5778875E-005  0.3831606E+03  0.7546771E-02  0.1049772E+00
         21   -1    0    0  502  501  0.00000000000E+00  0.00000000000E+00  0.11823507048E+03  0.11823507048E+03  0.00000000000E+00 0. -1.
         21   -1    0    0  501  502 -0.00000000000E+00 -0.00000000000E+00 -0.12416962986E+04  0.12416962986E+04  0.00000000000E+00 0. -1.
         25    1    1    2    0    0  0.47359253593E+02  0.20584021634E+03 -0.35776803761E+03  0.43386180092E+03  0.12500000000E+03 0.  0.
         25    1    1    2    0    0  0.11303031466E+03 -0.17265064928E+03 -0.64180266531E+03  0.68565279838E+03  0.12500000000E+03 0.  0.
         25    1    1    2    0    0 -0.16038956826E+03 -0.33189567056E+02 -0.12389052525E+03  0.24041676982E+03  0.12500000000E+03 0.  0.
</event>
<event>
 5    0  0.5778875E-005  0.2488145E+03  0.7546771E-02  0.1114056E+00
         21   -1    0    0  502  501  0.00000000000E+00  0.00000000000E+00  0.18449652111E+03  0.18449652111E+03  0.00000000000E+00 0. -1.
         21   -1    0    0  501  502 -0.00000000000E+00 -0.00000000000E+00 -0.33555461649E+03  0.33555461649E+03  0.00000000000E+00 0.  1.
         25    1    1    2    0    0  0.45721300376E+02 -0.93249160888E+02 -0.45299329263E+02  0.16870943230E+03  0.12500000000E+03 0.  0.
         25    1    1    2    0    0 -0.16795603453E+02 -0.44820588917E+02 -0.91879137759E+02  0.16235071124E+03  0.12500000000E+03 0.  0.
         25    1    1    2    0    0 -0.28925696923E+02  0.13806974980E+03 -0.13879628362E+02  0.18899099406E+03  0.12500000000E+03 0.  0.
</event>
<event>
 5    0  0.5778875E-005  0.3082620E+03  0.7546771E-02  0.1081182E+00
         21   -1    0    0  502  501  0.00000000000E+00  0.00000000000E+00  0.98121499305E+02  0.98121499305E+02  0.00000000000E+00 0.  1.
         21   -1    0    0  501  502 -0.00000000000E+00 -0.00000000000E+00 -0.96844678075E+03  0.96844678075E+03  0.00000000000E+00 0.  1.
         25    1    1    2    0    0 -0.48206799078E+02 -0.97316709859E+02 -0.15619145079E+03  0.22762953849E+03  0.12500000000E+03 0.  0.
         25    1    1    2    0    0  0.16387590907E+03  0.21688793578E+02 -0.55997095700E+03  0.59709144192E+03  0.12500000000E+03 0.  0.
         25    1    1    2    0    0 -0.11566910999E+03  0.75627916281E+02 -0.15416287366E+03  0.24184729964E+03  0.12500000000E+03 0.  0.
</event>
<event>
 5    0  0.5778875E-005  0.2769193E+03  0.7546771E-02  0.1097384E+00
         21   -1    0    0  502  501  0.00000000000E+00  0.00000000000E+00  0.16498584244E+03  0.16498584244E+03  0.00000000000E+00 0.  1.
         21   -1    0    0  501  502 -0.00000000000E+00 -0.00000000000E+00 -0.46479332359E+03  0.46479332359E+03  0.00000000000E+00 0.  1.
         25    1    1    2    0    0 -0.36140693768E+02 -0.80687084190E+02 -0.17604039770E+03  0.23330618707E+03  0.12500000000E+03 0.  0.
         25    1    1    2    0    0  0.12432017658E+03 -0.32105127300E+02 -0.99229347667E+02  0.20483580971E+03  0.12500000000E+03 0.  0.
         25    1    1    2    0    0 -0.88179482808E+02  0.11279221149E+03 -0.24537735780E+02  0.19163716925E+03  0.12500000000E+03 0.  0.
</event>
<event>
 5    0  0.5778875E-005  0.3353743E+03  0.7546771E-02  0.1068783E+00
         21   -1    0    0  502  501  0.00000000000E+00  0.00000000000E+00  0.28103870310E+03  0.28103870310E+03  0.00000000000E+00 0. -1.
         21   -1    0    0  501  502 -0.00000000000E+00 -0.00000000000E+00 -0.40021501929E+03  0.40021501929E+03  0.00000000000E+00 0. -1.
         25    1    1    2    0    0  0.24320290331E+02 -0.26981919255E+01 -0.10345511801E+03  0.16409362633E+03  0.12500000000E+03 0.  0.
         25    1    1    2    0    0 -0.12882535221E+03 -0.10100701009E+03  0.15627233919E+03  0.25854290061E+03  0.12500000000E+03 0.  0.
         25    1    1    2    0    0  0.10450506188E+03  0.10370520201E+03 -0.17199353738E+03  0.25861719545E+03  0.12500000000E+03 0.  0.
</event>
<event>
 5    0  0.5778875E-005  0.2735281E+03  0.7546771E-02  0.1099277E+00
         21   -1    0    0  502  501  0.00000000000E+00  0.00000000000E+00  0.40508337510E+02  0.40508337510E+02  0.00000000000E+00 0. -1.
         21   -1    0    0  501  502 -0.00000000000E+00 -0.00000000000E+00 -0.18469687997E+04  0.18469687997E+04  0.00000000000E+00 0. -1.
         25    1    1    2    0    0 -0.18649343299E+02  0.52565602077E+02 -0.18969273642E+03  0.23392151414E+03  0.12500000000E+03 0.  0.
         25    1    1    2    0    0  0.11442659675E+03 -0.78003679125E+02 -0.81590208986E+03  0.83695832646E+03  0.12500000000E+03 0.  0.
         25    1    1    2    0    0 -0.95777253448E+02  0.25438077048E+02 -0.80086563594E+03  0.81659729663E+03  0.12500000000E+03 0.  0.
</event>
<event>
 5    0  0.5778875E-005  0.3600906E+03  0.7546771E-02  0.1058548E+00
         21   -1    0    0  502  501  0.00000000000E+00  0.00000000000E+00  0.37991658300E+03  0.37991658300E+03  0.00000000000E+00 0. -1.
         21   -1    0    0  501  502 -0.00000000000E+00 -0.00000000000E+00 -0.34129919696E+03  0.34129919696E+03  0.00000000000E+00 0. -1.
         25    1    1    2    0    0  0.19140360600E+03  0.39130989894E+01  0.17361511692E+03  0.28708511204E+03  0.12500000000E+03 0.  0.
         25    1    1    2    0    0 -0.66060997553E+02 -0.90838255817E+02 -0.16398535689E+03  0.23480170654E+03  0.12500000000E+03 0.  0.
         25    1    1    2    0    0 -0.12534260845E+03  0.86925156828E+02  0.28987626009E+02  0.19932896138E+03  0.12500000000E+03 0.  0.
</event>
<event>
 5    0  0.5778875E-005  0.4430923E+03  0.7546771E-02  0.1029802E+00
         21   -1    0    0  502  501  0.00000000000E+00  0.00000000000E+00  0.39636335956E+03  0.39636335956E+03  0.00000000000E+00 0.  1.
         21   -1    0    0  501  502 -0.00000000000E+00 -0.00000000000E+00 -0.49533039863E+03  0.49533039863E+03  0.00000000000E+00 0.  1.
         25    1    1    2    0    0 -0.13008630896E+03 -0.31965115519E+02  0.15855283142E+03  0.24229778526E+03  0.12500000000E+03 0.  0.
         25    1    1    2    0    0  0.61058597588E+01 -0.16194935165E+03  0.82091598951E+02  0.22051962416E+03  0.12500000000E+03 0.  0.
         25    1    1    2    0    0  0.12398044920E+03  0.19391446717E+03 -0.33961146944E+03  0.42887634877E+03  0.12500000000E+03 0.  0.
</event>
<event>
 5    0  0.5778875E-005  0.3520984E+03  0.7546771E-02  0.1061757E+00
         21   -1    0    0  502  501  0.00000000000E+00  0.00000000000E+00  0.28004489894E+03  0.28004489894E+03  0.00000000000E+00 0.  1.
         21   -1    0    0  501  502 -0.00000000000E+00 -0.00000000000E+00 -0.44269067525E+03  0.44269067525E+03  0.00000000000E+00 0.  1.
         25    1    1    2    0    0 -0.18801358300E+02 -0.15188598534E+02  0.13475247414E+02  0.12802643044E+03  0.12500000000E+03 0.  0.
         25    1    1    2    0    0 -0.70188933996E+02 -0.17438253469E+03  0.81452458702E+02  0.23999012040E+03  0.12500000000E+03 0.  0.
         25    1    1    2    0    0  0.88990292296E+02  0.18957113322E+03 -0.25757348243E+03  0.35471902335E+03  0.12500000000E+03 0.  0.
</event>
<event>
 5    0  0.5778875E-005  0.4142900E+03  0.7546771E-02  0.1038941E+00
         21   -1    0    0  502  501  0.00000000000E+00  0.00000000000E+00  0.59605509830E+02  0.59605509830E+02  0.00000000000E+00 0. -1.
         21   -1    0    0  501  502 -0.00000000000E+00 -0.00000000000E+00 -0.28795362664E+04  0.28795362664E+04  0.00000000000E+00 0. -1.
         25    1    1    2    0    0 -0.86527532892E+02 -0.11191201992E+03 -0.41309372361E+03  0.45418359573E+03  0.12500000000E+03 0.  0.
         25    1    1    2    0    0  0.25362870622E+03  0.13553820615E+03 -0.20253850601E+04  0.20495140321E+04  0.12500000000E+03 0.  0.
         25    1    1    2    0    0 -0.16710117333E+03 -0.23626186224E+02 -0.38145197286E+03  0.43544414843E+03  0.12500000000E+03 0.  0.
</event>
<event>
 5    0  0.5778875E-005  0.2949877E+03  0.7546771E-02  0.1087773E+00
         21   -1    0    0  502  501  0.00000000000E+00  0.00000000000E+00  0.19627647263E+04  0.19627647263E+04  0.00000000000E+00 0. -1.
         21   -1    0    0  501  502 -0.00000000000E+00 -0.00000000000E+00 -0.44334277698E+02  0.44334277698E+02  0.00000000000E+00 0. -1.
         25    1    1    2    0    0  0.17549177516E+03  0.11123769438E+03  0.67798157194E+03  0.72003833209E+03  0.12500000000E+03 0.  0.
         25    1    1    2    0    0 -0.32092732996E+02 -0.70134961969E+02  0.59838265902E+03  0.61614581312E+03  0.12500000000E+03 0.  0.
         25    1    1    2    0    0 -0.14339904216E+03 -0.41102732407E+02  0.64206621766E+03  0.67091485881E+03  0.12500000000E+03 0.  0.
</event>
<event>
 5    0  0.5778875E-005  0.2309779E+03  0.7546771E-02  0.1125953E+00
         21   -1    0    0  502  501  0.00000000000E+00  0.00000000000E+00  0.23175263163E+03  0.23175263163E+03  0.00000000000E+00 0.  1.
         21   -1    0    0  501  502 -0.00000000000E+00 -0.00000000000E+00 -0.23020571639E+03  0.23020571639E+03  0.00000000000E+00 0.  1.
         25    1    1    2    0    0 -0.34826264507E+02 -0.82678484132E+02 -0.40620053282E+02  0.15913387184E+03  0.12500000000E+03 0.  0.
         25    1    1    2    0    0  0.33606428293E+02 -0.28311728227E+02  0.13061123115E+02  0.13314104895E+03  0.12500000000E+03 0.  0.
         25    1    1    2    0    0  0.12198362139E+01  0.11099021236E+03  0.29105845414E+02  0.16968342723E+03  0.12500000000E+03 0.  0.
</event>
<event>
 5    0  0.5778875E-005  0.5123885E+03  0.7546771E-02  0.1010595E+00
         21   -1    0    0  502  501  0.00000000000E+00  0.00000000000E+00  0.93437307737E+02  0.93437307737E+02  0.00000000000E+00 0.  1.
         21   -1    0    0  501  502 -0.00000000000E+00 -0.00000000000E+00 -0.28098196344E+04  0.28098196344E+04  0.00000000000E+00 0.  1.
         25    1    1    2    0    0 -0.65876527802E+01  0.70857871941E+02 -0.20952682746E+03  0.25414705705E+03  0.12500000000E+03 0.  0.
         25    1    1    2    0    0  0.97675894593E+02  0.35738008352E+03 -0.13626982719E+04  0.14176856791E+04  0.12500000000E+03 0.  0.
         25    1    1    2    0    0 -0.91088241813E+02 -0.42823795546E+03 -0.11441572273E+04  0.12314242060E+04  0.12500000000E+03 0.  0.
</event>
<event>
 5    0  0.5778875E-005  0.2427668E+03  0.7546771E-02  0.1117963E+00
         21   -1    0    0  502  501  0.00000000000E+00  0.00000000000E+00  0.37257998640E+02  0.37257998640E+02  0.00000000000E+00 0.  1.
         21   -1    0    0  501  502 -0.00000000000E+00 -0.00000000000E+00 -0.15818269817E+04  0.15818269817E+04  0.00000000000E+00 0.  1.
         25    1    1    2    0    0  0.23007715008E+02  0.10874577456E+03 -0.75514896454E+03  0.77345326754E+03  0.12500000000E+03 0.  0.
         25    1    1    2    0    0 -0.62962112395E+02 -0.39014555764E+02 -0.49423778593E+03  0.51515274647E+03  0.12500000000E+03 0.  0.
         25    1    1    2    0    0  0.39954397386E+02 -0.69731218794E+02 -0.29518223263E+03  0.33047896636E+03  0.12500000000E+03 0.  0.
</event>
<event>
 5    0  0.5778875E-005  0.5045304E+03  0.7546771E-02  0.1012603E+00
         21   -1    0    0  502  501  0.00000000000E+00  0.00000000000E+00  0.52107311359E+03  0.52107311359E+03  0.00000000000E+00 0. -1.
         21   -1    0    0  501  502 -0.00000000000E+00 -0.00000000000E+00 -0.48851289719E+03  0.48851289719E+03  0.00000000000E+00 0. -1.
         25    1    1    2    0    0  0.13926136074E+03 -0.29764048677E+02 -0.17905903287E+03  0.26070435831E+03  0.12500000000E+03 0.  0.
         25    1    1    2    0    0 -0.34082079148E+03  0.18072916437E+03  0.23165799486E+03  0.46702491297E+03  0.12500000000E+03 0.  0.
         25    1    1    2    0    0  0.20155943074E+03 -0.15096511570E+03 -0.20038745579E+02  0.28185673950E+03  0.12500000000E+03 0.  0.
</event>
<event>
 5    0  0.5778875E-005  0.3365172E+03  0.7546771E-02  0.1068289E+00
         21   -1    0    0  502  501  0.00000000000E+00  0.00000000000E+00  0.21785747618E+03  0.21785747618E+03  0.00000000000E+00 0.  1.
         21   -1    0    0  501  502 -0.00000000000E+00 -0.00000000000E+00 -0.51980687843E+03  0.51980687843E+03  0.00000000000E+00 0.  1.
         25    1    1    2    0    0 -0.92578188205E+02  0.33845091720E+02  0.25874015609E+02  0.16127825597E+03  0.12500000000E+03 0.  0.
         25    1    1    2    0    0 -0.12733678232E+03  0.45206346543E+02 -0.22836664276E+03  0.29331654134E+03  0.12500000000E+03 0.  0.
         25    1    1    2    0    0  0.21991497053E+03 -0.79051438263E+02 -0.99456775105E+02  0.28306955730E+03  0.12500000000E+03 0.  0.
</event>
<event>
 5    0  0.5778875E-005  0.2688952E+03  0.7546771E-02  0.1101914E+00
         21   -1    0    0  502  501  0.00000000000E+00  0.00000000000E+00  0.22689751181E+03  0.22689751181E+03  0.00000000000E+00 0.  1.
         21   -1    0    0  501  502 -0.00000000000E+00 -0.00000000000E+00 -0.31866647204E+03  0.31866647204E+03  0.00000000000E+00 0.  1.
         25    1    1    2    0    0 -0.22324999195E+02  0.54563246790E+02 -0.16373893773E+03  0.21426850730E+03  0.12500000000E+03 0.  0.
         25    1    1    2    0    0  0.51410880596E+02 -0.77607231011E+02 -0.38340266931E+02  0.16050214023E+03  0.12500000000E+03 0.  0.
         25    1    1    2    0    0 -0.29085881401E+02  0.23043984221E+02  0.11031024444E+03  0.17079333633E+03  0.12500000000E+03 0.  0.
</event>
<event>
 5    0  0.5778875E-005  0.3220361E+03  0.7546771E-02  0.1074716E+00
         21   -1    0    0  502  501  0.00000000000E+00  0.00000000000E+00  0.23761116832E+03  0.23761116832E+03  0.00000000000E+00 0.  1.
         21   -1    0    0  501  502 -0.00000000000E+00 -0.00000000000E+00 -0.43645786129E+03  0.43645786129E+03  0.00000000000E+00 0.  1.
         25    1    1    2    0    0  0.12790926163E+03 -0.12172533649E+02 -0.59535404076E+02  0.18888730535E+03  0.12500000000E+03 0.  0.
         25    1    1    2    0    0 -0.12036816930E+03  0.79449806867E+02  0.93402215355E+02  0.21248468609E+03  0.12500000000E+03 0.  0.
         25    1    1    2    0    0 -0.75410923294E+01 -0.67277273218E+02 -0.23271350425E+03  0.27269703817E+03  0.12500000000E+03 0.  0.
</event>
<event>
 5    0  0.5778875E-005  0.4605189E+03  0.7546771E-02  0.1024631E+00
         21   -1    0    0  502  501  0.00000000000E+00  0.00000000000E+00  0.84518918073E+02  0.84518918073E+02  0.00000000000E+00 0. -1.
         21   -1    0    0  501  502 -0.00000000000E+00 -0.00000000000E+00 -0.25092330576E+04  0.25092330576E+04  0.00000000000E+00 0. -1.
         25    1    1    2    0    0 -0.73704758217E+02 -0.27133326732E+03 -0.74591420669E+03  0.80688731375E+03  0.12500000000E+03 0.  0.
         25    1    1    2    0    0 -0.20517497591E+03  0.10492522926E+03 -0.79041434871E+03  0.83275801835E+03  0.12500000000E+03 0.  0.
         25    1    1    2    0    0  0.27887973413E+03  0.16640803806E+03 -0.88838558411E+03  0.95410664356E+03  0.12500000000E+03 0.  0.
</event>
<event>
 5    0  0.5778875E-005  0.3630456E+03  0.7546771E-02  0.1057384E+00
         21   -1    0    0  502  501  0.00000000000E+00  0.00000000000E+00  0.52440418138E+03  0.52440418138E+03  0.00000000000E+00 0. -1.
         21   -1    0    0  501  502 -0.00000000000E+00 -0.00000000000E+00 -0.25133683013E+03  0.25133683013E+03  0.00000000000E+00 0. -1.
         25    1    1    2    0    0 -0.12067440864E+02 -0.19623568408E+02  0.20855665956E+03  0.24423674542E+03  0.12500000000E+03 0.  0.
         25    1    1    2    0    0  0.47662887413E+02  0.22934996358E+02 -0.19713187062E+03  0.23934021666E+03  0.12500000000E+03 0.  0.
         25    1    1    2    0    0 -0.35595446549E+02 -0.33114279495E+01  0.26164256230E+03  0.29216404943E+03  0.12500000000E+03 0.  0.
</event>
<event>
 5    0  0.5778875E-005  0.4554074E+03  0.7546771E-02  0.1026122E+00
         21   -1    0    0  502  501  0.00000000000E+00  0.00000000000E+00  0.40850190616E+03  0.40850190616E+03  0.00000000000E+00 0. -1.
         21   -1    0    0  501  502 -0.00000000000E+00 -0.00000000000E+00 -0.50769882442E+03  0.50769882442E+03  0.00000000000E+00 0. -1.
         25    1    1    2    0    0 -0.18367564910E+02 -0.22578622661E+03 -0.14696739366E+03  0.29755873768E+03  0.12500000000E+03 0.  0.
         25    1    1    2    0    0 -0.47138214995E+01 -0.76226576986E+02 -0.17060872034E+03  0.22486673078E+03  0.12500000000E+03 0.  0.
         25    1    1    2    0    0  0.23081386409E+02  0.30201280360E+03  0.21837919574E+03  0.39377526214E+03  0.12500000000E+03 0.  0.
</event>
<event>
 5    0  0.5778875E-005  0.2927476E+03  0.7546771E-02  0.1088923E+00
         21   -1    0    0  502  501  0.00000000000E+00  0.00000000000E+00  0.97367537685E+02  0.97367537685E+02  0.00000000000E+00 0. -1.
         21   -1    0    0  501  502 -0.00000000000E+00 -0.00000000000E+00 -0.88018187250E+03  0.88018187250E+03  0.00000000000E+00 0. -1.
         25    1    1    2    0    0  0.11213199105E+03  0.18177192971E+03 -0.31226066064E+03  0.39842984079E+03  0.12500000000E+03 0.  0.
         25    1    1    2    0    0 -0.60436521359E+02 -0.79653066387E+02 -0.29159429227E+03  0.33264006882E+03  0.12500000000E+03 0.  0.
         25    1    1    2    0    0 -0.51695469695E+02 -0.10211886332E+03 -0.17895938191E+03  0.24647950058E+03  0.12500000000E+03 0.  0.
</event>
<event>
 5    0  0.5778875E-005  0.2995739E+03  0.7546771E-02  0.1085454E+00
         21   -1    0    0  502  501  0.00000000000E+00  0.00000000000E+00  0.30167320427E+03  0.30167320427E+03  0.00000000000E+00 0. -1.
         21   -1    0    0  501  502 -0.00000000000E+00 -0.00000000000E+00 -0.29748915309E+03  0.29748915309E+03  0.00000000000E+00 0. -1.
         25    1    1    2    0    0 -0.11202611053E+03  0.22054774316E+02 -0.39169326448E+02  0.17376852029E+03  0.12500000000E+03 0.  0.
         25    1    1    2    0    0  0.74853936485E+02  0.11575548553E+03  0.11928121889E+03  0.22103269762E+03  0.12500000000E+03 0.  0.
         25    1    1    2    0    0  0.37172174043E+02 -0.13781025985E+03 -0.75927841260E+02  0.20436113946E+03  0.12500000000E+03 0.  0.
</event>
<event>
 5    0  0.5778875E-005  0.2969504E+03  0.7546771E-02  0.1086775E+00
         21   -1    0    0  502  501  0.00000000000E+00  0.00000000000E+00  0.94575965185E+03  0.94575965185E+03  0.00000000000E+00 0.  1.
         21   -1    0    0  501  502 -0.00000000000E+00 -0.00000000000E+00 -0.93236708153E+02  0.93236708153E+02  0.00000000000E+00 0.  1.
         25    1    1    2    0    0 -0.73355656490E+02 -0.10163095248E+03  0.19779832274E+03  0.26544129166E+03  0.12500000000E+03 0.  0.
         25    1    1    2    0    0  0.13405529045E+03  0.11837845752E+03  0.56905724683E+03  0.60945502727E+03  0.12500000000E+03 0.  0.
         25    1    1    2    0    0 -0.60699633961E+02 -0.16747505038E+02  0.85667374128E+02  0.16410004107E+03  0.12500000000E+03 0.  0.
</event>
<event>
 5    0  0.5778875E-005  0.2245656E+03  0.7546771E-02  0.1130524E+00
         21   -1    0    0  502  501  0.00000000000E+00  0.00000000000E+00  0.73781001713E+02  0.73781001713E+02  0.00000000000E+00 0. -1.
         21   -1    0    0  501  502 -0.00000000000E+00 -0.00000000000E+00 -0.68350535641E+03  0.68350535641E+03  0.00000000000E+00 0. -1.
         25    1    1    2    0    0  0.12740390425E+02  0.36322153703E+02 -0.32445204894E+03  0.34982245276E+03  0.12500000000E+03 0.  0.
         25    1    1    2    0    0 -0.33984918012E+02 -0.32306241372E+02 -0.54656151541E+02  0.14426005263E+03  0.12500000000E+03 0.  0.
         25    1    1    2    0    0  0.21244527587E+02 -0.40159123302E+01 -0.23061615422E+03  0.26320385273E+03  0.12500000000E+03 0.  0.
</event>
<event>
 5    0  0.5778875E-005  0.3471271E+03  0.7546771E-02  0.1063800E+00
         21   -1    0    0  502  501  0.00000000000E+00  0.00000000000E+00  0.13109777860E+04  0.13109777860E+04  0.00000000000E+00 0.  1.
         21   -1    0    0  501  502 -0.00000000000E+00 -0.00000000000E+00 -0.91913994757E+02  0.91913994757E+02  0.00000000000E+00 0.  1.
         25    1    1    2    0    0 -0.19665688315E+02 -0.11496679482E+03  0.10322257471E+03  0.19970979730E+03  0.12500000000E+03 0.  0.
         25    1    1    2    0    0  0.17516835614E+03  0.85936234516E+02  0.43178672993E+03  0.49003445750E+03  0.12500000000E+03 0.  0.
         25    1    1    2    0    0 -0.15550266783E+03  0.29030560299E+02  0.68405448662E+03  0.71314752597E+03  0.12500000000E+03 0.  0.
</event>
<event>
 5    0  0.5778875E-005  0.3871406E+03  0.7546771E-02  0.1048326E+00
         21   -1    0    0  502  501  0.00000000000E+00  0.00000000000E+00  0.13731256387E+04  0.13731256387E+04  0.00000000000E+00 0.  1.
         21   -1    0    0  501  502 -0.00000000000E+00 -0.00000000000E+00 -0.10915087828E+03  0.10915087828E+03  0.00000000000E+00 0.  1.
         25    1    1    2    0    0  0.88106052225E+02 -0.36101184027E+02  0.22082282987E+02  0.15867765800E+03  0.12500000000E+03 0.  0.
         25    1    1    2    0    0  0.27090546069E+02 -0.15558926259E+03  0.56718555178E+03  0.60188567558E+03  0.12500000000E+03 0.  0.
         25    1    1    2    0    0 -0.11519659829E+03  0.19169044661E+03  0.67470692564E+03  0.72171318340E+03  0.12500000000E+03 0.  0.
</event>
<event>
 5    0  0.7616182E-005  0.3306824E+03  0.7546771E-02  0.1070835E+00
         21   -1    0    0  502  501  0.00000000000E+00  0.00000000000E+00  0.53130936153E+03  0.53130936153E+03  0.00000000000E+00 0.  1.
         21   -1    0    0  501  502 -0.00000000000E+00 -0.00000000000E+00 -0.20581390220E+03  0.20581390220E+03  0.00000000000E+00 0.  1.
         25    1    1    2    0    0  0.15865088759E+02 -0.67912031118E+02 -0.49645227878E+02  0.15150377442E+03  0.12500000000E+03 0.  0.
         25    1    1    2    0    0  0.14224745320E+03 -0.72869795145E+02  0.18845053292E+03  0.27691686179E+03  0.12500000000E+03 0.  0.
         25    1    1    2    0    0 -0.15811254195E+03  0.14078182626E+03  0.18669015430E+03  0.30870262753E+03  0.12500000000E+03 0.  0.
</event>
<event>
 5    0  0.5778875E-005  0.2605543E+03  0.7546771E-02  0.1106811E+00
         21   -1    0    0  502  501  0.00000000000E+00  0.00000000000E+00  0.68397370141E+03  0.68397370141E+03  0.00000000000E+00 0. -1.
         21   -1    0    0  501  502 -0.00000000000E+00 -0.00000000000E+00 -0.99256102860E+02  0.99256102860E+02  0.00000000000E+00 0. -1.
         25    1    1    2    0    0 -0.80976429861E+01  0.59408360683E+01  0.69610025009E+02  0.14342740651E+03  0.12500000000E+03 0.  0.
         25    1    1    2    0    0  0.12706753217E+03 -0.26777661785E+02  0.14651713242E+03  0.23228316985E+03  0.12500000000E+03 0.  0.
         25    1    1    2    0    0 -0.11896988918E+03  0.20836825716E+02  0.36859044112E+03  0.40751922792E+03  0.12500000000E+03 0.  0.
</event>
<event>
 5    0  0.5778875E-005  0.3434093E+03  0.7546771E-02  0.1065353E+00
         21   -1    0    0  502  501  0.00000000000E+00  0.00000000000E+00  0.13915915245E+04  0.13915915245E+04  0.00000000000E+00 0.  1.
         21   -1    0    0  501  502 -0.00000000000E+00 -0.00000000000E+00 -0.84744662109E+02  0.84744662109E+02  0.00000000000E+00 0.  1.
         25    1    1    2    0    0  0.21158678421E+03 -0.66706755477E+01  0.30150973584E+03  0.38903288547E+03  0.12500000000E+03 0.  0.
         25    1    1    2    0    0 -0.71732527582E+02  0.12371943687E+03  0.39873550175E+03  0.44166396154E+03  0.12500000000E+03 0.  0.
         25    1    1    2    0    0 -0.13985425663E+03 -0.11704876133E+03  0.60660162476E+03  0.64563933956E+03  0.12500000000E+03 0.  0.
</event>
<event>
 5    0  0.6580995E-005  0.3127436E+03  0.7546771E-02  0.1079038E+00
         21   -1    0    0  502  501  0.00000000000E+00  0.00000000000E+00  0.54910825231E+03  0.54910825231E+03  0.00000000000E+00 0.  1.
         21   -1    0    0  501  502 -0.00000000000E+00 -0.00000000000E+00 -0.17812251350E+03  0.17812251350E+03  0.00000000000E+00 0.  1.
         25    1    1    2    0    0  0.20075982486E+02 -0.51978045833E+02  0.33323938570E+03  0.36024748507E+03  0.12500000000E+03 0.  0.
         25    1    1    2    0    0  0.82755352355E+02  0.10910869753E+03 -0.18548972067E+02  0.18633899373E+03  0.12500000000E+03 0.  0.
         25    1    1    2    0    0 -0.10283133484E+03 -0.57130651699E+02  0.56295325186E+02  0.18064428700E+03  0.12500000000E+03 0.  0.
</event>
<event>
 5    0  0.5778875E-005  0.4956003E+03  0.7546771E-02  0.1014934E+00
         21   -1    0    0  502  501  0.00000000000E+00  0.00000000000E+00  0.66782402775E+03  0.66782402775E+03  0.00000000000E+00 0.  1.
         21   -1    0    0  501  502 -0.00000000000E+00 -0.00000000000E+00 -0.36779104270E+03  0.36779104270E+03  0.00000000000E+00 0.  1.
         25    1    1    2    0    0 -0.14414033936E+01  0.71430529523E+02  0.52045269624E+02  0.15309509555E+03  0.12500000000E+03 0.  0.
         25    1    1    2    0    0 -0.18548623702E+03  0.32061839734E+03  0.72008773697E+02  0.39750668463E+03  0.12500000000E+03 0.  0.
         25    1    1    2    0    0  0.18692764041E+03 -0.39204892686E+03  0.17597894173E+03  0.48501329027E+03  0.12500000000E+03 0.  0.
</event>
<event>
 5    0  0.5778875E-005  0.2512998E+03  0.7546771E-02  0.1112486E+00
         21   -1    0    0  502  501  0.00000000000E+00  0.00000000000E+00  0.16729145714E+03  0.16729145714E+03  0.00000000000E+00 0. -1.
         21   -1    0    0  501  502 -0.00000000000E+00 -0.00000000000E+00 -0.37749433311E+03  0.37749433311E+03  0.00000000000E+00 0. -1.
         25    1    1    2    0    0  0.57132587046E+02  0.39280676984E+02  0.21269637740E+02  0.14451471059E+03  0.12500000000E+03 0.  0.
         25    1    1    2    0    0 -0.48719214777E+02 -0.10200312523E+03 -0.60129101329E+02  0.17893772177E+03  0.12500000000E+03 0.  0.
         25    1    1    2    0    0 -0.84133722684E+01  0.62722448245E+02 -0.17134341239E+03  0.22133335789E+03  0.12500000000E+03 0.  0.
</event>
<event>
 5    0  0.5778875E-005  0.2659960E+03  0.7546771E-02  0.1103593E+00
         21   -1    0    0  502  501  0.00000000000E+00  0.00000000000E+00  0.56797227860E+02  0.56797227860E+02  0.00000000000E+00 0.  1.
         21   -1    0    0  501  502 -0.00000000000E+00 -0.00000000000E+00 -0.12457270907E+04  0.12457270907E+04  0.00000000000E+00 0.  1.
         25    1    1    2    0    0 -0.13925114040E+03  0.61246001255E+02 -0.49199826751E+03  0.52993324863E+03  0.12500000000E+03 0.  0.
         25    1    1    2    0    0  0.32014613678E+02  0.13578431052E+02 -0.43739174589E+03  0.45623003918E+03  0.12500000000E+03 0.  0.
         25    1    1    2    0    0  0.10723652672E+03 -0.74824432307E+02 -0.25953984948E+03  0.31636103079E+03  0.12500000000E+03 0.  0.
</event>
<event>
 5    0  0.5778875E-005  0.2809241E+03  0.7546771E-02  0.1095185E+00
         21   -1    0    0  502  501  0.00000000000E+00  0.00000000000E+00  0.15036253217E+03  0.15036253217E+03  0.00000000000E+00 0. -1.
         21   -1    0    0  501  502 -0.00000000000E+00 -0.00000000000E+00 -0.52485387319E+03  0.52485387319E+03  0.00000000000E+00 0. -1.
         25    1    1    2    0    0  0.82205154707E+02  0.29051366728E+02 -0.85037756634E+02  0.17452246108E+03  0.12500000000E+03 0.  0.
         25    1    1    2    0    0  0.42486655747E+02  0.11897761847E+03 -0.13734371863E+03  0.22460874128E+03  0.12500000000E+03 0.  0.
         25    1    1    2    0    0 -0.12469181045E+03 -0.14802898519E+03 -0.15210986576E+03  0.27608520300E+03  0.12500000000E+03 0.  0.
</event>
<event>
 5    0  0.5778875E-005  0.2905346E+03  0.7546771E-02  0.1090070E+00
         21   -1    0    0  502  501  0.00000000000E+00  0.00000000000E+00  0.97871639297E+03  0.97871639297E+03  0.00000000000E+00 0.  1.
         21   -1    0    0  501  502 -0.00000000000E+00 -0.00000000000E+00 -0.86245983421E+02  0.86245983421E+02  0.00000000000E+00 0.  1.
         25    1    1    2    0    0 -0.96723885793E+02 -0.46935155179E+02  0.37890625498E+03  0.41322314666E+03  0.12500000000E+03 0.  0.
         25    1    1    2    0    0 -0.54721162996E+02 -0.86073199964E+02  0.24605744387E+03  0.29423165553E+03  0.12500000000E+03 0.  0.
         25    1    1    2    0    0  0.15144504879E+03  0.13300835514E+03  0.26750671070E+03  0.35750757420E+03  0.12500000000E+03 0.  0.
</event>
<event>
 5    0  0.5778875E-005  0.6014083E+03  0.7546771E-02  0.9902489E-01
         21   -1    0    0  502  501  0.00000000000E+00  0.00000000000E+00  0.11896317469E+04  0.11896317469E+04  0.00000000000E+00 0. -1.
         21   -1    0    0  501  502 -0.00000000000E+00 -0.00000000000E+00 -0.30403692204E+03  0.30403692204E+03  0.00000000000E+00 0. -1.
         25    1    1    2    0    0  0.41556075291E+03 -0.19643903563E+03  0.11681941569E+03  0.49045979444E+03  0.12500000000E+03 0.  0.
         25    1    1    2    0    0 -0.27576513044E+03  0.27688984996E+03  0.64533027918E+03  0.76471600310E+03  0.12500000000E+03 0.  0.
         25    1    1    2    0    0 -0.13979562247E+03 -0.80450814334E+02  0.12344513001E+03  0.23849287141E+03  0.12500000000E+03 0.  0.
</event>
<event>
 5    0  0.5778875E-005  0.3705317E+03  0.7546771E-02  0.1054490E+00
         21   -1    0    0  502  501  0.00000000000E+00  0.00000000000E+00  0.12606677633E+04  0.12606677633E+04  0.00000000000E+00 0. -1.
         21   -1    0    0  501  502 -0.00000000000E+00 -0.00000000000E+00 -0.10890554537E+03  0.10890554537E+03  0.00000000000E+00 0. -1.
         25    1    1    2    0    0 -0.20109720837E+02 -0.21051711290E+03  0.87379903390E+03  0.90767373397E+03  0.12500000000E+03 0.  0.
         25    1    1    2    0    0  0.30715854581E+02  0.96943096185E+01  0.70475736946E+02  0.14706893914E+03  0.12500000000E+03 0.  0.
         25    1    1    2    0    0 -0.10606133744E+02  0.20082280328E+03  0.20748744709E+03  0.31483063557E+03  0.12500000000E+03 0.  0.
</event>
<event>
 5    0  0.5778875E-005  0.2816427E+03  0.7546771E-02  0.1094795E+00
         21   -1    0    0  502  501  0.00000000000E+00  0.00000000000E+00  0.23248000067E+03  0.23248000067E+03  0.00000000000E+00 0. -1.
         21   -1    0    0  501  502 -0.00000000000E+00 -0.00000000000E+00 -0.34120179492E+03  0.34120179492E+03  0.00000000000E+00 0. -1.
         25    1    1    2    0    0 -0.68729173660E+02  0.17177038003E+03  0.36681052636E+02  0.22627254007E+03  0.12500000000E+03 0.  0.
         25    1    1    2    0    0  0.57380728020E+02 -0.99433176686E+02 -0.91706725494E+02  0.19291093301E+03  0.12500000000E+03 0.  0.
         25    1    1    2    0    0  0.11348445640E+02 -0.72337203344E+02 -0.53696121392E+02  0.15449832251E+03  0.12500000000E+03 0.  0.
</event>
<event>
 5    0  0.5778875E-005  0.2303294E+03  0.7546771E-02  0.1126408E+00
         21   -1    0    0  502  501  0.00000000000E+00  0.00000000000E+00  0.38900032767E+02  0.38900032767E+02  0.00000000000E+00 0. -1.
         21   -1    0    0  501  502 -0.00000000000E+00 -0.00000000000E+00 -0.13637942469E+04  0.13637942469E+04  0.00000000000E+00 0. -1.
         25    1    1    2    0    0  0.22992611545E+02  0.11929277588E+03 -0.54763344975E+03  0.57470585680E+03  0.12500000000E+03 0.  0.
         25    1    1    2    0    0 -0.96577247327E+01 -0.90419445683E+02 -0.37701285644E+03  0.40747103177E+03  0.12500000000E+03 0.  0.
         25    1    1    2    0    0 -0.13334886812E+02 -0.28873330197E+02 -0.40024790793E+03  0.42051739108E+03  0.12500000000E+03 0.  0.
</event>
<event>
 5    0  0.5778875E-005  0.3281196E+03  0.7546771E-02  0.1071972E+00
         21   -1    0    0  502  501  0.00000000000E+00  0.00000000000E+00  0.14414444120E+03  0.14414444120E+03  0.00000000000E+00 0. -1.
         21   -1    0    0  501  502 -0.00000000000E+00 -0.00000000000E+00 -0.74690701115E+03  0.74690701115E+03  0.00000000000E+00 0. -1.
         25    1    1    2    0    0  0.41229501917E+02  0.36710066449E+02 -0.22970275564E+03  0.26727487116E+03  0.12500000000E+03 0.  0.
         25    1    1    2    0    0 -0.20548051173E+03 -0.97372572165E+02 -0.10464189560E+03  0.27978310318E+03  0.12500000000E+03 0.  0.
         25    1    1    2    0    0  0.16425100981E+03  0.60662505717E+02 -0.26841791871E+03  0.34399347800E+03  0.12500000000E+03 0.  0.
</event>
<event>
 5    0  0.5778875E-005  0.2619518E+03  0.7546771E-02  0.1105976E+00
         21   -1    0    0  502  501  0.00000000000E+00  0.00000000000E+00  0.69501545749E+02  0.69501545749E+02  0.00000000000E+00 0.  1.
         21   -1    0    0  501  502 -0.00000000000E+00 -0.00000000000E+00 -0.98729798331E+03  0.98729798331E+03  0.00000000000E+00 0.  1.
         25    1    1    2    0    0  0.13382807893E+03  0.31259852925E+02 -0.50411575415E+03  0.53725676050E+03  0.12500000000E+03 0.  0.
         25    1    1    2    0    0 -0.54849209408E+02 -0.77400518410E+02 -0.24086266617E+03  0.28747017232E+03  0.12500000000E+03 0.  0.
         25    1    1    2    0    0 -0.78978869518E+02  0.46140665485E+02 -0.17281801724E+03  0.23207259624E+03  0.12500000000E+03 0.  0.
</event>
<event>
 5    0  0.5778875E-005  0.2712008E+03  0.7546771E-02  0.1100594E+00
         21   -1    0    0  502  501  0.00000000000E+00  0.00000000000E+00  0.22997964470E+03  0.22997964470E+03  0.00000000000E+00 0.  1.
         21   -1    0    0  501  502 -0.00000000000E+00 -0.00000000000E+00 -0.31981038347E+03  0.31981038347E+03  0.00000000000E+00 0.  1.
         25    1    1    2    0    0  0.18514267558E+03  0.39462406098E+02 -0.29634051307E+02  0.22877558613E+03  0.12500000000E+03 0.  0.
         25    1    1    2    0    0 -0.83399604919E+02 -0.14961595181E+02 -0.43418535114E+02  0.15712896812E+03  0.12500000000E+03 0.  0.
         25    1    1    2    0    0 -0.10174307066E+03 -0.24500810917E+02 -0.16778152349E+02  0.16388547391E+03  0.12500000000E+03 0.  0.
</event>
<event>
 5    0  0.5778875E-005  0.2303063E+03  0.7546771E-02  0.1126424E+00
         21   -1    0    0  502  501  0.00000000000E+00  0.00000000000E+00  0.48131014599E+03  0.48131014599E+03  0.00000000000E+00 0. -1.
         21   -1    0    0  501  502 -0.00000000000E+00 -0.00000000000E+00 -0.11020125313E+03  0.11020125313E+03  0.00000000000E+00 0. -1.
         25    1    1    2    0    0  0.27518728120E+02 -0.15814268522E+02  0.28484002792E+03  0.31267589129E+03  0.12500000000E+03 0.  0.
         25    1    1    2    0    0 -0.36990797111E+02  0.25390293445E+02  0.13303732014E+02  0.13347275137E+03  0.12500000000E+03 0.  0.
         25    1    1    2    0    0  0.94720689909E+01 -0.95760249233E+01  0.72965132925E+02  0.14536275647E+03  0.12500000000E+03 0.  0.
</event>
<event>
 5    0  0.5778875E-005  0.2805422E+03  0.7546771E-02  0.1095393E+00
         21   -1    0    0  502  501  0.00000000000E+00  0.00000000000E+00  0.13589027424E+03  0.13589027424E+03  0.00000000000E+00 0. -1.
         21   -1    0    0  501  502 -0.00000000000E+00 -0.00000000000E+00 -0.57917269262E+03  0.57917269262E+03  0.00000000000E+00 0. -1.
         25    1    1    2    0    0 -0.78773412619E+02  0.44402080652E+02 -0.29364464286E+02  0.15704797695E+03  0.12500000000E+03 0.  0.
         25    1    1    2    0    0 -0.25030738113E+02 -0.11352822439E+03 -0.30790711156E+03  0.35206105285E+03  0.12500000000E+03 0.  0.
         25    1    1    2    0    0  0.10380415073E+03  0.69126143742E+02 -0.10601084253E+03  0.20595393706E+03  0.12500000000E+03 0.  0.
</event>
<event>
 5    0  0.5778875E-005  0.4718488E+03  0.7546771E-02  0.1021400E+00
         21   -1    0    0  502  501  0.00000000000E+00  0.00000000000E+00  0.17717925629E+03  0.17717925629E+03  0.00000000000E+00 0.  1.
         21   -1    0    0  501  502 -0.00000000000E+00 -0.00000000000E+00 -0.12565878717E+04  0.12565878717E+04  0.00000000000E+00 0.  1.
         25    1    1    2    0    0 -0.11565821456E+03 -0.36177297009E+03 -0.36466698719E+03  0.54116865766E+03  0.12500000000E+03 0.  0.
         25    1    1    2    0    0  0.11299371572E+03  0.49781427297E+02 -0.37790126837E+03  0.41674949182E+03  0.12500000000E+03 0.  0.
         25    1    1    2    0    0  0.26644988400E+01  0.31199154279E+03 -0.33684035986E+03  0.47584897852E+03  0.12500000000E+03 0.  0.
</event>
<event>
 5    0  0.5778875E-005  0.4406992E+03  0.7546771E-02  0.1030532E+00
         21   -1    0    0  502  501  0.00000000000E+00  0.00000000000E+00  0.72991412087E+03  0.72991412087E+03  0.00000000000E+00 0.  1.
         21   -1    0    0  501  502 -0.00000000000E+00 -0.00000000000E+00 -0.26608036652E+03  0.26608036652E+03  0.00000000000E+00 0.  1.
         25    1    1    2    0    0 -0.45145011303E+02 -0.93917400008E+02  0.13255601326E+03  0.20989198822E+03  0.12500000000E+03 0.  0.
         25    1    1    2    0    0  0.24215622306E+03 -0.11077514461E+03  0.37068697509E+03  0.47322785477E+03  0.12500000000E+03 0.  0.
         25    1    1    2    0    0 -0.19701121175E+03  0.20469254462E+03 -0.39409233993E+02  0.31287464439E+03  0.12500000000E+03 0.  0.
</event>
<event>
 5    0  0.5778875E-005  0.3158604E+03  0.7546771E-02  0.1077570E+00
         21   -1    0    0  502  501  0.00000000000E+00  0.00000000000E+00  0.21615651639E+03  0.21615651639E+03  0.00000000000E+00 0.  1.
         21   -1    0    0  501  502 -0.00000000000E+00 -0.00000000000E+00 -0.46155352439E+03  0.46155352439E+03  0.00000000000E+00 0.  1.
         25    1    1    2    0    0 -0.11343270792E+02  0.37140625882E+02 -0.22222076780E+03  0.25790534218E+03  0.12500000000E+03 0.  0.
         25    1    1    2    0    0  0.12432898589E+03 -0.91105912558E+02 -0.10540083257E+03  0.22470496110E+03  0.12500000000E+03 0.  0.
         25    1    1    2    0    0 -0.11298571510E+03  0.53965286676E+02  0.82224592363E+02  0.19509973750E+03  0.12500000000E+03 0.  0.
</event>
<event>
 5    0  0.5778875E-005  0.2838247E+03  0.7546771E-02  0.1093618E+00
         21   -1    0    0  502  501  0.00000000000E+00  0.00000000000E+00  0.82935741879E+02  0.82935741879E+02  0.00000000000E+00 0. -1.
         21   -1    0    0  501  502 -0.00000000000E+00 -0.00000000000E+00 -0.97131162017E+03  0.97131162017E+03  0.00000000000E+00 0. -1.
         25    1    1    2    0    0 -0.15761255279E+03  0.32946231015E+01 -0.27058162415E+03  0.33718242343E+03  0.12500000000E+03 0.  0.
         25    1    1    2    0    0  0.67589939978E+02  0.17347684516E+02 -0.50534595080E+03  0.52523220783E+03  0.12500000000E+03 0.  0.
         25    1    1    2    0    0  0.90022612813E+02 -0.20642307618E+02 -0.11244830333E+03  0.19183273079E+03  0.12500000000E+03 0.  0.
</event>
<event>
 5    0  0.5778875E-005  0.2832803E+03  0.7546771E-02  0.1093911E+00
         21   -1    0    0  502  501  0.00000000000E+00  0.00000000000E+00  0.12074631454E+03  0.12074631454E+03  0.00000000000E+00 0.  1.
         21   -1    0    0  501  502 -0.00000000000E+00 -0.00000000000E+00 -0.66459757587E+03  0.66459757587E+03  0.00000000000E+00 0.  1.
         25    1    1    2    0    0 -0.11624954725E+03 -0.25674720753E+02 -0.28204015105E+03  0.33067324555E+03  0.12500000000E+03 0.  0.
         25    1    1    2    0    0  0.51893175004E+01  0.11306975489E+03 -0.18673956041E+03  0.25161152976E+03  0.12500000000E+03 0.  0.
         25    1    1    2    0    0  0.11106022975E+03 -0.87395034132E+02 -0.75071549873E+02  0.20305911510E+03  0.12500000000E+03 0.  0.
</event>
<event>
 5    0  0.5778875E-005  0.5538793E+03  0.7546771E-02  0.1000600E+00
         21   -1    0    0  502  501  0.00000000000E+00  0.00000000000E+00  0.35003375176E+03  0.35003375176E+03  0.00000000000E+00 0.  1.
         21   -1    0    0  501  502 -0.00000000000E+00 -0.00000000000E+00 -0.87643629884E+03  0.87643629884E+03  0.00000000000E+00 0.  1.
         25    1    1    2    0    0 -0.13273604077E+03  0.60091789736E+02 -0.25793700209E+03  0.32153751998E+03  0.12500000000E+03 0.  0.
         25    1    1    2    0    0  0.15910191790E+02  0.18587862094E+03 -0.48552777092E+03  0.53494505536E+03  0.12500000000E+03 0.  0.
         25    1    1    2    0    0  0.11682584898E+03 -0.24597041067E+03  0.21706222593E+03  0.36998747525E+03  0.12500000000E+03 0.  0.
</event>
<event>
 5    0  0.5778875E-005  0.3868374E+03  0.7546771E-02  0.1048435E+00
         21   -1    0    0  502  501  0.00000000000E+00  0.00000000000E+00  0.15964487250E+04  0.15964487250E+04  0.00000000000E+00 0.  1.
         21   -1    0    0  501  502 -0.00000000000E+00 -0.00000000000E+00 -0.93735041867E+02  0.93735041867E+02  0.00000000000E+00 0. -1.
         25    1    1    2    0    0 -0.75576151725E+01 -0.32126420232E+03  0.71207945952E+03  0.79116999559E+03  0.12500000000E+03 0.  0.
         25    1    1    2    0    0 -0.54519748876E+02  0.11646022557E+03  0.35855625488E+03  0.40090270026E+03  0.12500000000E+03 0.  0.
         25    1    1    2    0    0  0.62077364048E+02  0.20480397674E+03  0.43207796872E+03  0.49811107101E+03  0.12500000000E+03 0.  0.
</event>
<event>
 5    0  0.5778875E-005  0.3364983E+03  0.7546771E-02  0.1068297E+00
         21   -1    0    0  502  501  0.00000000000E+00  0.00000000000E+00  0.55136641166E+03  0.55136641166E+03  0.00000000000E+00 0.  1.
         21   -1    0    0  501  502 -0.00000000000E+00 -0.00000000000E+00 -0.20536457778E+03  0.20536457778E+03  0.00000000000E+00 0.  1.
         25    1    1    2    0    0 -0.12872409306E+03 -0.36384449911E+02  0.21409520803E+02  0.18432874955E+03  0.12500000000E+03 0.  0.
         25    1    1    2    0    0  0.12528805110E+03  0.17913053189E+03  0.28170296423E+03  0.37784441674E+03  0.12500000000E+03 0.  0.
         25    1    1    2    0    0  0.34360419611E+01 -0.14274608198E+03  0.42889348848E+02  0.19455782315E+03  0.12500000000E+03 0.  0.
</event>
<event>
 5    0  0.5778875E-005  0.2476592E+03  0.7546771E-02  0.1114793E+00
         21   -1    0    0  502  501  0.00000000000E+00  0.00000000000E+00  0.19283471408E+03  0.19283471408E+03  0.00000000000E+00 0.  1.
         21   -1    0    0  501  502 -0.00000000000E+00 -0.00000000000E+00 -0.31807080927E+03  0.31807080927E+03  0.00000000000E+00 0.  1.
         25    1    1    2    0    0  0.36725782451E+02  0.10155918682E+03 -0.47541603298E+02  0.17189606036E+03  0.12500000000E+03 0.  0.
         25    1    1    2    0    0  0.56690156729E+02  0.10823941171E+02 -0.32493220561E+02  0.14146286069E+03  0.12500000000E+03 0.  0.
         25    1    1    2    0    0 -0.93415939180E+02 -0.11238312799E+03 -0.45201271330E+02  0.19754660230E+03  0.12500000000E+03 0.  0.
</event>
<event>
 5    0  0.5778875E-005  0.3118161E+03  0.7546771E-02  0.1079479E+00
         21   -1    0    0  502  501  0.00000000000E+00  0.00000000000E+00  0.75109306578E+03  0.75109306578E+03  0.00000000000E+00 0. -1.
         21   -1    0    0  501  502 -0.00000000000E+00 -0.00000000000E+00 -0.12945037739E+03  0.12945037739E+03  0.00000000000E+00 0. -1.
         25    1    1    2    0    0 -0.21476970903E+02  0.15334206828E+03  0.25351834481E+03  0.32229117478E+03  0.12500000000E+03 0.  0.
         25    1    1    2    0    0 -0.11981181850E+03 -0.20611215939E+02  0.87797031702E+02  0.19522554354E+03  0.12500000000E+03 0.  0.
         25    1    1    2    0    0  0.14128878941E+03 -0.13273085234E+03  0.28032731188E+03  0.36302672486E+03  0.12500000000E+03 0.  0.
</event>
<event>
 5    0  0.5778875E-005  0.4648129E+03  0.7546771E-02  0.1023395E+00
         21   -1    0    0  502  501  0.00000000000E+00  0.00000000000E+00  0.93126239347E+03  0.93126239347E+03  0.00000000000E+00 0. -1.
         21   -1    0    0  501  502 -0.00000000000E+00 -0.00000000000E+00 -0.23199797671E+03  0.23199797671E+03  0.00000000000E+00 0. -1.
         25    1    1    2    0    0  0.33802910113E+03 -0.57050266645E+02  0.62982602449E+03  0.72789025770E+03  0.12500000000E+03 0.  0.
         25    1    1    2    0    0 -0.21195326818E+03  0.41912917660E+02  0.19766155951E+02  0.25039285429E+03  0.12500000000E+03 0.  0.
         25    1    1    2    0    0 -0.12607583294E+03  0.15137348985E+02  0.49672236316E+02  0.18497725819E+03  0.12500000000E+03 0.  0.
</event>
<event>
 5    0  0.5778875E-005  0.2304856E+03  0.7546771E-02  0.1126298E+00
         21   -1    0    0  502  501  0.00000000000E+00  0.00000000000E+00  0.82817554773E+02  0.82817554773E+02  0.00000000000E+00 0. -1.
         21   -1    0    0  501  502 -0.00000000000E+00 -0.00000000000E+00 -0.64145328829E+03  0.64145328829E+03  0.00000000000E+00 0. -1.
         25    1    1    2    0    0 -0.24952496824E+02  0.22426151437E+02 -0.25228817566E+03  0.28354873116E+03  0.12500000000E+03 0.  0.
         25    1    1    2    0    0  0.53370057025E+02  0.83395233553E+01 -0.37419386997E+02  0.14122011599E+03  0.12500000000E+03 0.  0.
         25    1    1    2    0    0 -0.28417560201E+02 -0.30765674793E+02 -0.26892817087E+03  0.29950199592E+03  0.12500000000E+03 0.  0.
</event>
<event>
 5    0  0.5778875E-005  0.2481855E+03  0.7546771E-02  0.1114457E+00
         21   -1    0    0  502  501  0.00000000000E+00  0.00000000000E+00  0.15551361831E+03  0.15551361831E+03  0.00000000000E+00 0. -1.
         21   -1    0    0  501  502 -0.00000000000E+00 -0.00000000000E+00 -0.39608147316E+03  0.39608147316E+03  0.00000000000E+00 0. -1.
         25    1    1    2    0    0  0.26632751743E+02 -0.93570880407E+02 -0.45760248186E+01  0.15846372812E+03  0.12500000000E+03 0.  0.
         25    1    1    2    0    0 -0.24695388790E+02  0.12920462000E+03 -0.16368939239E+03  0.24438271878E+03  0.12500000000E+03 0.  0.
         25    1    1    2    0    0 -0.19373629531E+01 -0.35633739598E+02 -0.72302437644E+02  0.14874864457E+03  0.12500000000E+03 0.  0.
</event>
<event>
 5    0  0.5778875E-005  0.2422637E+03  0.7546771E-02  0.1118294E+00
         21   -1    0    0  502  501  0.00000000000E+00  0.00000000000E+00  0.19882613318E+03  0.19882613318E+03  0.00000000000E+00 0. -1.
         21   -1    0    0  501  502 -0.00000000000E+00 -0.00000000000E+00 -0.29519114467E+03  0.29519114467E+03  0.00000000000E+00 0. -1.
         25    1    1    2    0    0  0.42071301858E+02 -0.81843436200E+02  0.33612635649E+02  0.15881798313E+03  0.12500000000E+03 0.  0.
         25    1    1    2    0    0  0.54917156001E+02  0.59937627220E+02 -0.57701248607E+02  0.15988385557E+03  0.12500000000E+03 0.  0.
         25    1    1    2    0    0 -0.96988457858E+02  0.21905808980E+02 -0.72276398534E+02  0.17531543917E+03  0.12500000000E+03 0.  0.
</event>
<event>
 5    0  0.5778875E-005  0.3399066E+03  0.7546771E-02  0.1066836E+00
         21   -1    0    0  502  501  0.00000000000E+00  0.00000000000E+00  0.30790363254E+03  0.30790363254E+03  0.00000000000E+00 0. -1.
         21   -1    0    0  501  502 -0.00000000000E+00 -0.00000000000E+00 -0.37523591269E+03  0.37523591269E+03  0.00000000000E+00 0. -1.
         25    1    1    2    0    0  0.71478216848E+02  0.15962807226E+03  0.94810845481E+02  0.23495606687E+03  0.12500000000E+03 0.  0.
         25    1    1    2    0    0 -0.14522755909E+03 -0.14374209844E+03 -0.18200404395E+03  0.30083767516E+03  0.12500000000E+03 0.  0.
         25    1    1    2    0    0  0.73749342243E+02 -0.15885973814E+02  0.19860918305E+02  0.14734580320E+03  0.12500000000E+03 0.  0.
</event>
<event>
 5    0  0.5778875E-005  0.3456835E+03  0.7546771E-02  0.1064401E+00
         21   -1    0    0  502  501  0.00000000000E+00  0.00000000000E+00  0.31564642661E+03  0.31564642661E+03  0.00000000000E+00 0.  1.
         21   -1    0    0  501  502 -0.00000000000E+00 -0.00000000000E+00 -0.37857891845E+03  0.37857891845E+03  0.00000000000E+00 0.  1.
         25    1    1    2    0    0 -0.97758296885E+02 -0.21870279716E+03 -0.22164931244E+02  0.27111599413E+03  0.12500000000E+03 0.  0.
         25    1    1    2    0    0 -0.25626764657E+02  0.20919676349E+03 -0.30229335928E+02  0.24689841974E+03  0.12500000000E+03 0.  0.
         25    1    1    2    0    0  0.12338506154E+03  0.95060336765E+01 -0.10538224672E+02  0.17621093118E+03  0.12500000000E+03 0.  0.
</event>
<event>
 5    0  0.5778875E-005  0.5126373E+03  0.7546771E-02  0.1010532E+00
         21   -1    0    0  502  501  0.00000000000E+00  0.00000000000E+00  0.15505510386E+03  0.15505510386E+03  0.00000000000E+00 0.  1.
         21   -1    0    0  501  502 -0.00000000000E+00 -0.00000000000E+00 -0.16948617022E+04  0.16948617022E+04  0.00000000000E+00 0.  1.
         25    1    1    2    0    0  0.18050624530E+03  0.10520735222E+03 -0.41926390706E+03  0.48482812967E+03  0.12500000000E+03 0.  0.
         25    1    1    2    0    0  0.52034909009E+02  0.34710275394E+02 -0.10484434837E+04  0.10577197991E+04  0.12500000000E+03 0.  0.
         25    1    1    2    0    0 -0.23254115431E+03 -0.13991762761E+03 -0.72099207565E+02  0.30736887724E+03  0.12500000000E+03 0.  0.
</event>
<event>
 5    0  0.5778875E-005  0.2665193E+03  0.7546771E-02  0.1103288E+00
         21   -1    0    0  502  501  0.00000000000E+00  0.00000000000E+00  0.76566919996E+02  0.76566919996E+02  0.00000000000E+00 0. -1.
         21   -1    0    0  501  502 -0.00000000000E+00 -0.00000000000E+00 -0.92771847965E+03  0.92771847965E+03  0.00000000000E+00 0. -1.
         25    1    1    2    0    0 -0.85986157985E+02 -0.75475007760E+01 -0.19722559741E+03  0.24894481398E+03  0.12500000000E+03 0.  0.
         25    1    1    2    0    0  0.17588483932E+03  0.39764654849E+02 -0.41172486565E+03  0.46653946185E+03  0.12500000000E+03 0.  0.
         25    1    1    2    0    0 -0.89898681331E+02 -0.32217154073E+02 -0.24220109660E+03  0.28880112381E+03  0.12500000000E+03 0.  0.
</event>
<event>
 5    0  0.5778875E-005  0.4266100E+03  0.7546771E-02  0.1034936E+00
         21   -1    0    0  502  501  0.00000000000E+00  0.00000000000E+00  0.13220911759E+04  0.13220911759E+04  0.00000000000E+00 0.  1.
         21   -1    0    0  501  502 -0.00000000000E+00 -0.00000000000E+00 -0.13765771857E+03  0.13765771857E+03  0.00000000000E+00 0.  1.
         25    1    1    2    0    0  0.18841172792E+03 -0.54575279597E+02  0.56930890258E+02  0.23946516787E+03  0.12500000000E+03 0.  0.
         25    1    1    2    0    0 -0.21478465336E+03  0.65513681753E+01  0.10101436526E+04  0.10402838875E+04  0.12500000000E+03 0.  0.
         25    1    1    2    0    0  0.26372925443E+02  0.48023911422E+02  0.11735891452E+03  0.17999983912E+03  0.12500000000E+03 0.  0.
</event>
<event>
 5    0  0.5778875E-005  0.2839032E+03  0.7546771E-02  0.1093576E+00
         21   -1    0    0  502  501  0.00000000000E+00  0.00000000000E+00  0.12548789578E+03  0.12548789578E+03  0.00000000000E+00 0. -1.
         21   -1    0    0  501  502 -0.00000000000E+00 -0.00000000000E+00 -0.64230104479E+03  0.64230104479E+03  0.00000000000E+00 0. -1.
         25    1    1    2    0    0  0.21927171463E+02 -0.39733106142E+02 -0.20792178890E+03  0.24681165060E+03  0.12500000000E+03 0.  0.
         25    1    1    2    0    0 -0.44682465832E+01  0.12029933249E+03  0.45554092911E+01  0.17360197689E+03  0.12500000000E+03 0.  0.
         25    1    1    2    0    0 -0.17458924880E+02 -0.80566226351E+02 -0.31344676941E+03  0.34737531308E+03  0.12500000000E+03 0.  0.
</event>
<event>
 5    0  0.5778875E-005  0.3159564E+03  0.7546771E-02  0.1077525E+00
         21   -1    0    0  502  501  0.00000000000E+00  0.00000000000E+00  0.62064695826E+03  0.62064695826E+03  0.00000000000E+00 0. -1.
         21   -1    0    0  501  502 -0.00000000000E+00 -0.00000000000E+00 -0.16084579126E+03  0.16084579126E+03  0.00000000000E+00 0. -1.
         25    1    1    2    0    0  0.41334478188E+02 -0.11237582361E+03  0.10078428799E+03  0.20029812162E+03  0.12500000000E+03 0.  0.
         25    1    1    2    0    0 -0.15928895340E+03  0.15274123896E+03  0.30477905815E+03  0.39650741612E+03  0.12500000000E+03 0.  0.
         25    1    1    2    0    0  0.11795447521E+03 -0.40365415348E+02  0.54237820861E+02  0.18468721177E+03  0.12500000000E+03 0.  0.
</event>
<event>
 5    0  0.5778875E-005  0.5585326E+03  0.7546771E-02  0.9995380E-01
         21   -1    0    0  502  501  0.00000000000E+00  0.00000000000E+00  0.11485644883E+04  0.11485644883E+04  0.00000000000E+00 0.  1.
         21   -1    0    0  501  502 -0.00000000000E+00 -0.00000000000E+00 -0.27160749233E+03  0.27160749233E+03  0.00000000000E+00 0.  1.
         25    1    1    2    0    0  0.11610862595E+03  0.56100057293E+01 -0.23648499378E+02  0.17232799165E+03  0.12500000000E+03 0.  0.
         25    1    1    2    0    0  0.14328636962E+03  0.35395773862E+03  0.45350231531E+03  0.60589307179E+03  0.12500000000E+03 0.  0.
         25    1    1    2    0    0 -0.25939499557E+03 -0.35956774435E+03  0.44710318008E+03  0.64195091723E+03  0.12500000000E+03 0.  0.
</event>
<event>
 5    0  0.7019744E-005  0.3089751E+03  0.7546771E-02  0.1080838E+00
         21   -1    0    0  502  501  0.00000000000E+00  0.00000000000E+00  0.61004226895E+03  0.61004226895E+03  0.00000000000E+00 0.  1.
         21   -1    0    0  501  502 -0.00000000000E+00 -0.00000000000E+00 -0.15649012921E+03  0.15649012921E+03  0.00000000000E+00 0.  1.
         25    1    1    2    0    0 -0.52836638952E+02  0.39240171230E+02  0.40921204704E+03  0.43290992238E+03  0.12500000000E+03 0.  0.
         25    1    1    2    0    0 -0.38966700720E+02 -0.97241986329E+02  0.40270748757E+02  0.16799149049E+03  0.12500000000E+03 0.  0.
         25    1    1    2    0    0  0.91803339672E+02  0.58001815099E+02  0.40693439425E+01  0.16563098530E+03  0.12500000000E+03 0.  0.
</event>
<event>
 5    0  0.5778875E-005  0.2602917E+03  0.7546771E-02  0.1106968E+00
         21   -1    0    0  502  501  0.00000000000E+00  0.00000000000E+00  0.91719670245E+02  0.91719670245E+02  0.00000000000E+00 0. -1.
         21   -1    0    0  501  502 -0.00000000000E+00 -0.00000000000E+00 -0.73868305235E+03  0.73868305235E+03  0.00000000000E+00 0. -1.
         25    1    1    2    0    0  0.33037425004E+02  0.74067712291E+02 -0.29911447308E+03  0.33417355590E+03  0.12500000000E+03 0.  0.
         25    1    1    2    0    0  0.86587272176E+02 -0.16676244863E+02 -0.81089598376E+02  0.17313571500E+03  0.12500000000E+03 0.  0.
         25    1    1    2    0    0 -0.11962469718E+03 -0.57391467428E+02 -0.26675931065E+03  0.32309345169E+03  0.12500000000E+03 0.  0.
</event>
<event>
 5    0  0.5778875E-005  0.3387962E+03  0.7546771E-02  0.1067310E+00
         21   -1    0    0  502  501  0.00000000000E+00  0.00000000000E+00  0.11918538452E+04  0.11918538452E+04  0.00000000000E+00 0.  1.
         21   -1    0    0  501  502 -0.00000000000E+00 -0.00000000000E+00 -0.96306164793E+02  0.96306164793E+02  0.00000000000E+00 0.  1.
         25    1    1    2    0    0 -0.20055555919E+02 -0.17504303727E+03  0.72778228950E+03  0.75916687963E+03  0.12500000000E+03 0.  0.
         25    1    1    2    0    0  0.32484617023E+02  0.21132083196E+03  0.21550475503E+03  0.32829718824E+03  0.12500000000E+03 0.  0.
         25    1    1    2    0    0 -0.12429061104E+02 -0.36277794689E+02  0.15226063585E+03  0.20069594211E+03  0.12500000000E+03 0.  0.
</event>
<event>
 5    0  0.5778875E-005  0.2124250E+03  0.7546771E-02  0.1139660E+00
         21   -1    0    0  502  501  0.00000000000E+00  0.00000000000E+00  0.47316277349E+03  0.47316277349E+03  0.00000000000E+00 0. -1.
         21   -1    0    0  501  502 -0.00000000000E+00 -0.00000000000E+00 -0.95367526182E+02  0.95367526182E+02  0.00000000000E+00 0. -1.
         25    1    1    2    0    0  0.43736814045E+01 -0.84083532451E+02  0.16959234559E+03  0.22688264191E+03  0.12500000000E+03 0.  0.
         25    1    1    2    0    0 -0.19738468986E+02  0.16189693523E+02  0.10504975642E+03  0.16526392425E+03  0.12500000000E+03 0.  0.
         25    1    1    2    0    0  0.15364787581E+02  0.67893838928E+02  0.10315314530E+03  0.17638373351E+03  0.12500000000E+03 0.  0.
</event>
<event>
 5    0  0.5778875E-005  0.2748078E+03  0.7546771E-02  0.1098559E+00
         21   -1    0    0  502  501  0.00000000000E+00  0.00000000000E+00  0.47493614288E+03  0.47493614288E+03  0.00000000000E+00 0.  1.
         21   -1    0    0  501  502 -0.00000000000E+00 -0.00000000000E+00 -0.15900939781E+03  0.15900939781E+03  0.00000000000E+00 0.  1.
         25    1    1    2    0    0 -0.85197342857E+02  0.11152470477E+03  0.12514595134E+02  0.18835594521E+03  0.12500000000E+03 0.  0.
         25    1    1    2    0    0  0.72950679672E+02 -0.29959163780E+02  0.24234463503E+03  0.28385784345E+03  0.12500000000E+03 0.  0.
         25    1    1    2    0    0  0.12246663185E+02 -0.81565540994E+02  0.61067514904E+02  0.16173175203E+03  0.12500000000E+03 0.  0.
</event>
<event>
 5    0  0.5778875E-005  0.3115270E+03  0.7546771E-02  0.1079616E+00
         21   -1    0    0  502  501  0.00000000000E+00  0.00000000000E+00  0.20976306935E+04  0.20976306935E+04  0.00000000000E+00 0. -1.
         21   -1    0    0  501  502 -0.00000000000E+00 -0.00000000000E+00 -0.46266041130E+02  0.46266041130E+02  0.00000000000E+00 0. -1.
         25    1    1    2    0    0  0.17332140065E+03 -0.10664525327E+03  0.65292910034E+03  0.69523731779E+03  0.12500000000E+03 0.  0.
         25    1    1    2    0    0 -0.13838788748E+02  0.11984319273E+03  0.58394776814E+03  0.60924042777E+03  0.12500000000E+03 0.  0.
         25    1    1    2    0    0 -0.15948261191E+03 -0.13197939456E+02  0.81448778387E+03  0.83941898905E+03  0.12500000000E+03 0.  0.
</event>
<event>
 5    0  0.5778875E-005  0.2351339E+03  0.7546771E-02  0.1123078E+00
         21   -1    0    0  502  501  0.00000000000E+00  0.00000000000E+00  0.15156469190E+03  0.15156469190E+03  0.00000000000E+00 0. -1.
         21   -1    0    0  501  502 -0.00000000000E+00 -0.00000000000E+00 -0.36478127181E+03  0.36478127181E+03  0.00000000000E+00 0. -1.
         25    1    1    2    0    0  0.84115235594E+02 -0.40510280942E+02 -0.68781829550E+02  0.17050629254E+03  0.12500000000E+03 0.  0.
         25    1    1    2    0    0 -0.11509696145E+03  0.66831014124E+02 -0.77851240322E+02  0.19849309964E+03  0.12500000000E+03 0.  0.
         25    1    1    2    0    0  0.30981725860E+02 -0.26320733182E+02 -0.66583510032E+02  0.14734657153E+03  0.12500000000E+03 0.  0.
</event>
<event>
 5    0  0.5778875E-005  0.2328228E+03  0.7546771E-02  0.1124669E+00
         21   -1    0    0  502  501  0.00000000000E+00  0.00000000000E+00  0.13429646230E+03  0.13429646230E+03  0.00000000000E+00 0. -1.
         21   -1    0    0  501  502 -0.00000000000E+00 -0.00000000000E+00 -0.40363271218E+03  0.40363271218E+03  0.00000000000E+00 0. -1.
         25    1    1    2    0    0 -0.72684430684E+02 -0.13973343775E+02 -0.19872955549E+02  0.14662269661E+03  0.12500000000E+03 0.  0.
         25    1    1    2    0    0  0.78082877573E+02  0.69510363149E+02 -0.15573729641E+03  0.22540570501E+03  0.12500000000E+03 0.  0.
         25    1    1    2    0    0 -0.53984468887E+01 -0.55537019374E+02 -0.93725997912E+02  0.16590077286E+03  0.12500000000E+03 0.  0.
</event>
<event>
 5    0  0.5778875E-005  0.2163202E+03  0.7546771E-02  0.1136657E+00
         21   -1    0    0  502  501  0.00000000000E+00  0.00000000000E+00  0.41553464105E+02  0.41553464105E+02  0.00000000000E+00 0. -1.
         21   -1    0    0  501  502 -0.00000000000E+00 -0.00000000000E+00 -0.11261255485E+04  0.11261255485E+04  0.00000000000E+00 0. -1.
         25    1    1    2    0    0  0.30936016847E+02 -0.81821772660E+02 -0.28503316193E+03  0.32329667957E+03  0.12500000000E+03 0.  0.
         25    1    1    2    0    0 -0.14950417930E+02  0.70809843968E+02 -0.39871405967E+03  0.42407010078E+03  0.12500000000E+03 0.  0.
         25    1    1    2    0    0 -0.15985598917E+02  0.11011928692E+02 -0.40082486275E+03  0.42031223221E+03  0.12500000000E+03 0.  0.
</event>
<event>
 5    0  0.5778875E-005  0.3055886E+03  0.7546771E-02  0.1082480E+00
         21   -1    0    0  502  501  0.00000000000E+00  0.00000000000E+00  0.32076531095E+03  0.32076531095E+03  0.00000000000E+00 0.  1.
         21   -1    0    0  501  502 -0.00000000000E+00 -0.00000000000E+00 -0.29112993167E+03  0.29112993167E+03  0.00000000000E+00 0.  1.
         25    1    1    2    0    0  0.91340527441E+02 -0.86820815149E+00  0.14455123003E+03  0.21181100973E+03  0.12500000000E+03 0.  0.
         25    1    1    2    0    0  0.67389969928E+02 -0.79311473872E+02 -0.23783935824E+02  0.16438489449E+03  0.12500000000E+03 0.  0.
         25    1    1    2    0    0 -0.15873049737E+03  0.80179682023E+02 -0.91131914922E+02  0.23569933840E+03  0.12500000000E+03 0.  0.
</event>
<event>
 5    0  0.5778875E-005  0.2383301E+03  0.7546771E-02  0.1120910E+00
         21   -1    0    0  502  501  0.00000000000E+00  0.00000000000E+00  0.74252841506E+02  0.74252841506E+02  0.00000000000E+00 0.  1.
         21   -1    0    0  501  502 -0.00000000000E+00 -0.00000000000E+00 -0.76497073963E+03  0.76497073963E+03  0.00000000000E+00 0.  1.
         25    1    1    2    0    0 -0.10959932770E+02  0.62589974198E+02 -0.60817617966E+02  0.15284439032E+03  0.12500000000E+03 0.  0.
         25    1    1    2    0    0  0.18769361904E+01 -0.76886524728E+01 -0.20750852830E+03  0.24237868632E+03  0.12500000000E+03 0.  0.
         25    1    1    2    0    0  0.90829965798E+01 -0.54901321726E+02 -0.42239175186E+03  0.44400050449E+03  0.12500000000E+03 0.  0.
</event>
<event>
 5    0  0.5778875E-005  0.2856741E+03  0.7546771E-02  0.1092630E+00
         21   -1    0    0  502  501  0.00000000000E+00  0.00000000000E+00  0.34747005814E+04  0.34747005814E+04  0.00000000000E+00 0. -1.
         21   -1    0    0  501  502 -0.00000000000E+00 -0.00000000000E+00 -0.23486828462E+02  0.23486828462E+02  0.00000000000E+00 0. -1.
         25    1    1    2    0    0 -0.16797701245E+03 -0.63907600721E+01  0.95491850875E+03  0.97762542770E+03  0.12500000000E+03 0.  0.
         25    1    1    2    0    0  0.81006944522E+02  0.90831068645E+02  0.13041573620E+04  0.13157749933E+04  0.12500000000E+03 0.  0.
         25    1    1    2    0    0  0.86970067932E+02 -0.84440308573E+02  0.11921378822E+04  0.12047869889E+04  0.12500000000E+03 0.  0.
</event>
<event>
 5    0  0.5778875E-005  0.3243172E+03  0.7546771E-02  0.1073679E+00
         21   -1    0    0  502  501  0.00000000000E+00  0.00000000000E+00  0.72262420285E+03  0.72262420285E+03  0.00000000000E+00 0. -1.
         21   -1    0    0  501  502 -0.00000000000E+00 -0.00000000000E+00 -0.14555506919E+03  0.14555506919E+03  0.00000000000E+00 0. -1.
         25    1    1    2    0    0 -0.41471816091E+02 -0.68738580950E+02 -0.13219478899E+02  0.14914643363E+03  0.12500000000E+03 0.  0.
         25    1    1    2    0    0 -0.11513566275E+03 -0.25475722627E+02  0.36352840701E+03  0.40209841579E+03  0.12500000000E+03 0.  0.
         25    1    1    2    0    0  0.15660747884E+03  0.94214303578E+02  0.22676020554E+03  0.31693442262E+03  0.12500000000E+03 0.  0.
</event>
<event>
 5    0  0.5778875E-005  0.2463314E+03  0.7546771E-02  0.1115645E+00
         21   -1    0    0  502  501  0.00000000000E+00  0.00000000000E+00  0.22923993441E+03  0.22923993441E+03  0.00000000000E+00 0. -1.
         21   -1    0    0  501  502 -0.00000000000E+00 -0.00000000000E+00 -0.26469720910E+03  0.26469720910E+03  0.00000000000E+00 0. -1.
         25    1    1    2    0    0 -0.10018676451E+03 -0.78176560783E+02 -0.40595838509E+02  0.18281680596E+03  0.12500000000E+03 0.  0.
         25    1    1    2    0    0  0.94877337857E+02  0.30594294732E+02 -0.48258063398E+02  0.16700766687E+03  0.12500000000E+03 0.  0.
         25    1    1    2    0    0  0.53094266483E+01  0.47582266050E+02  0.53396627216E+02  0.14411267068E+03  0.12500000000E+03 0.  0.
</event>
<event>
 5    0  0.5778875E-005  0.3101466E+03  0.7546771E-02  0.1080276E+00
         21   -1    0    0  502  501  0.00000000000E+00  0.00000000000E+00  0.23505380692E+03  0.23505380692E+03  0.00000000000E+00 0.  1.
         21   -1    0    0  501  502 -0.00000000000E+00 -0.00000000000E+00 -0.40922943758E+03  0.40922943758E+03  0.00000000000E+00 0.  1.
         25    1    1    2    0    0  0.25834068734E+02 -0.18970568809E+03 -0.85550477278E+02  0.24413015251E+03  0.12500000000E+03 0.  0.
         25    1    1    2    0    0  0.91441176798E+02  0.13653934036E+03 -0.17836265688E+02  0.20723805793E+03  0.12500000000E+03 0.  0.
         25    1    1    2    0    0 -0.11727524553E+03  0.53166347731E+02 -0.70788887699E+02  0.19291503406E+03  0.12500000000E+03 0.  0.
</event>
<event>
 5    0  0.6760186E-005  0.3351853E+03  0.7546771E-02  0.1068865E+00
         21   -1    0    0  502  501  0.00000000000E+00  0.00000000000E+00  0.53634930422E+03  0.53634930422E+03  0.00000000000E+00 0.  1.
         21   -1    0    0  501  502 -0.00000000000E+00 -0.00000000000E+00 -0.20947017177E+03  0.20947017177E+03  0.00000000000E+00 0.  1.
         25    1    1    2    0    0 -0.13619372287E+03 -0.86820557716E+02  0.20251736816E+03  0.28761923405E+03  0.12500000000E+03 0.  0.
         25    1    1    2    0    0  0.40046211031E+02  0.12176752246E+03  0.20952168177E+03  0.27560000667E+03  0.12500000000E+03 0.  0.
         25    1    1    2    0    0  0.96147511837E+02 -0.34946964741E+02 -0.85159917474E+02  0.18260023527E+03  0.12500000000E+03 0.  0.
</event>
<event>
 5    0  0.5778875E-005  0.2672483E+03  0.7546771E-02  0.1102865E+00
         21   -1    0    0  502  501  0.00000000000E+00  0.00000000000E+00  0.16832628176E+04  0.16832628176E+04  0.00000000000E+00 0.  1.
         21   -1    0    0  501  502 -0.00000000000E+00 -0.00000000000E+00 -0.42430483231E+02  0.42430483231E+02  0.00000000000E+00 0.  1.
         25    1    1    2    0    0  0.15571931947E+03  0.27488913842E+02  0.45924236383E+03  0.50153035360E+03  0.12500000000E+03 0.  0.
         25    1    1    2    0    0 -0.10562480899E+03 -0.39351015391E+02  0.45566731322E+03  0.48576002617E+03  0.12500000000E+03 0.  0.
         25    1    1    2    0    0 -0.50094510482E+02  0.11862101549E+02  0.72592265735E+03  0.73840292110E+03  0.12500000000E+03 0.  0.
</event>
<event>
 5    0  0.5778875E-005  0.4478569E+03  0.7546771E-02  0.1028363E+00
         21   -1    0    0  502  501  0.00000000000E+00  0.00000000000E+00  0.40011782583E+03  0.40011782583E+03  0.00000000000E+00 0.  1.
         21   -1    0    0  501  502 -0.00000000000E+00 -0.00000000000E+00 -0.50129182822E+03  0.50129182822E+03  0.00000000000E+00 0.  1.
         25    1    1    2    0    0 -0.31034916631E+03  0.10067824825E+03 -0.10968162286E+03  0.36620728160E+03  0.12500000000E+03 0.  0.
         25    1    1    2    0    0  0.20929005326E+03  0.10911352641E+03  0.35940664895E+02  0.26948992454E+03  0.12500000000E+03 0.  0.
         25    1    1    2    0    0  0.10105911305E+03 -0.20979177466E+03 -0.27433044422E+02  0.26571244790E+03  0.12500000000E+03 0.  0.
</event>
<event>
 5    0  0.5778875E-005  0.2412316E+03  0.7546771E-02  0.1118975E+00
         21   -1    0    0  502  501  0.00000000000E+00  0.00000000000E+00  0.26587657221E+03  0.26587657221E+03  0.00000000000E+00 0.  1.
         21   -1    0    0  501  502 -0.00000000000E+00 -0.00000000000E+00 -0.21887098357E+03  0.21887098357E+03  0.00000000000E+00 0.  1.
         25    1    1    2    0    0  0.54669035224E+02 -0.61228286443E+02  0.71187631006E+02  0.16562090835E+03  0.12500000000E+03 0.  0.
         25    1    1    2    0    0 -0.32685504903E+02  0.26311946732E+02 -0.10156128062E+03  0.16643423474E+03  0.12500000000E+03 0.  0.
         25    1    1    2    0    0 -0.21983530322E+02  0.34916339710E+02  0.77379238250E+02  0.15269241270E+03  0.12500000000E+03 0.  0.
</event>
<event>
 5    0  0.6152052E-005  0.3655543E+03  0.7546771E-02  0.1056406E+00
         21   -1    0    0  502  501  0.00000000000E+00  0.00000000000E+00  0.39733664257E+03  0.39733664257E+03  0.00000000000E+00 0.  1.
         21   -1    0    0  501  502 -0.00000000000E+00 -0.00000000000E+00 -0.33631413009E+03  0.33631413009E+03  0.00000000000E+00 0.  1.
         25    1    1    2    0    0  0.63290479090E+02 -0.15758312958E+03  0.13402799332E+02  0.21128833972E+03  0.12500000000E+03 0.  0.
         25    1    1    2    0    0 -0.65773666882E+01  0.90518837348E+02 -0.18689907659E+03  0.24247306345E+03  0.12500000000E+03 0.  0.
         25    1    1    2    0    0 -0.56713112401E+02  0.67064292237E+02  0.23451878974E+03  0.27988936949E+03  0.12500000000E+03 0.  0.
</event>
<event>
 5    0  0.5778875E-005  0.2791157E+03  0.7546771E-02  0.1096173E+00
         21   -1    0    0  502  501  0.00000000000E+00  0.00000000000E+00  0.41786668698E+03  0.41786668698E+03  0.00000000000E+00 0. -1.
         21   -1    0    0  501  502 -0.00000000000E+00 -0.00000000000E+00 -0.18643645344E+03  0.18643645344E+03  0.00000000000E+00 0. -1.
         25    1    1    2    0    0 -0.60957324849E+02 -0.81807694052E+02  0.10670505753E+03  0.19344059440E+03  0.12500000000E+03 0.  0.
         25    1    1    2    0    0  0.39409086301E+02  0.55129664603E+01  0.20431365015E+03  0.24280143434E+03  0.12500000000E+03 0.  0.
         25    1    1    2    0    0  0.21548238548E+02  0.76294727591E+02 -0.79588474142E+02  0.16806111168E+03  0.12500000000E+03 0.  0.
</event>
<event>
 5    0  0.5778875E-005  0.2970273E+03  0.7546771E-02  0.1086736E+00
         21   -1    0    0  502  501  0.00000000000E+00  0.00000000000E+00  0.36348037587E+03  0.36348037587E+03  0.00000000000E+00 0. -1.
         21   -1    0    0  501  502 -0.00000000000E+00 -0.00000000000E+00 -0.24272348257E+03  0.24272348257E+03  0.00000000000E+00 0. -1.
         25    1    1    2    0    0 -0.55467488836E+02 -0.17905319394E+03  0.42433957369E+02  0.22926475812E+03  0.12500000000E+03 0.  0.
         25    1    1    2    0    0  0.87665196745E+02  0.13095347049E+03  0.11849207078E+03  0.23345099912E+03  0.12500000000E+03 0.  0.
         25    1    1    2    0    0 -0.32197707909E+02  0.48099723453E+02 -0.40169134848E+02  0.14348810120E+03  0.12500000000E+03 0.  0.
</event>
<event>
 5    0  0.5778875E-005  0.3195154E+03  0.7546771E-02  0.1075873E+00
         21   -1    0    0  502  501  0.00000000000E+00  0.00000000000E+00  0.97676337073E+02  0.97676337073E+02  0.00000000000E+00 0.  1.
         21   -1    0    0  501  502 -0.00000000000E+00 -0.00000000000E+00 -0.10451877048E+04  0.10451877048E+04  0.00000000000E+00 0.  1.
         25    1    1    2    0    0  0.21658883222E+03 -0.55254467796E+02 -0.56419542819E+03  0.61960088738E+03  0.12500000000E+03 0.  0.
         25    1    1    2    0    0 -0.13848121275E+03  0.28372363129E+02 -0.29242321213E+03  0.34802064920E+03  0.12500000000E+03 0.  0.
         25    1    1    2    0    0 -0.78107619470E+02  0.26882104667E+02 -0.90892727428E+02  0.17524250532E+03  0.12500000000E+03 0.  0.
</event>
<event>
 5    0  0.5778875E-005  0.2955113E+03  0.7546771E-02  0.1087506E+00
         21   -1    0    0  502  501  0.00000000000E+00  0.00000000000E+00  0.67195923094E+02  0.67195923094E+02  0.00000000000E+00 0. -1.
         21   -1    0    0  501  502 -0.00000000000E+00 -0.00000000000E+00 -0.12995865014E+04  0.12995865014E+04  0.00000000000E+00 0.  1.
         25    1    1    2    0    0  0.72355477169E+01  0.26473274969E+02 -0.12536394858E+03  0.17914884047E+03  0.12500000000E+03 0.  0.
         25    1    1    2    0    0  0.11114453812E+03  0.86084163675E+02 -0.77128149965E+03  0.79389151859E+03  0.12500000000E+03 0.  0.
         25    1    1    2    0    0 -0.11838008584E+03 -0.11255743864E+03 -0.33574513003E+03  0.39374206539E+03  0.12500000000E+03 0.  0.
</event>
<event>
 5    0  0.5914667E-005  0.3265860E+03  0.7546771E-02  0.1072658E+00
         21   -1    0    0  502  501  0.00000000000E+00  0.00000000000E+00  0.15246795844E+03  0.15246795844E+03  0.00000000000E+00 0.  1.
         21   -1    0    0  501  502 -0.00000000000E+00 -0.00000000000E+00 -0.69954631124E+03  0.69954631124E+03  0.00000000000E+00 0.  1.
         25    1    1    2    0    0  0.77741992514E+02 -0.11593520643E+03 -0.44892960773E+03  0.48646436887E+03  0.12500000000E+03 0.  0.
         25    1    1    2    0    0 -0.81613576222E+02  0.12940415981E+03 -0.12911318270E+03  0.23601149622E+03  0.12500000000E+03 0.  0.
         25    1    1    2    0    0  0.38715837081E+01 -0.13468953375E+02  0.30964437636E+02  0.12953840459E+03  0.12500000000E+03 0.  0.
</event>
<event>
 5    0  0.5778875E-005  0.2266196E+03  0.7546771E-02  0.1129042E+00
         21   -1    0    0  502  501  0.00000000000E+00  0.00000000000E+00  0.24696503264E+03  0.24696503264E+03  0.00000000000E+00 0. -1.
         21   -1    0    0  501  502 -0.00000000000E+00 -0.00000000000E+00 -0.20795033095E+03  0.20795033095E+03  0.00000000000E+00 0. -1.
         25    1    1    2    0    0  0.21217913455E+02  0.83142130807E+02  0.87025129503E+02  0.17481758187E+03  0.12500000000E+03 0.  0.
         25    1    1    2    0    0  0.12136833785E+02 -0.74674040226E+02 -0.20240049991E+02  0.14750652406E+03  0.12500000000E+03 0.  0.
         25    1    1    2    0    0 -0.33354747241E+02 -0.84680905812E+01 -0.27770377824E+02  0.13259125765E+03  0.12500000000E+03 0.  0.
</event>
<event>
 5    0  0.5778875E-005  0.2816804E+03  0.7546771E-02  0.1094775E+00
         21   -1    0    0  502  501  0.00000000000E+00  0.00000000000E+00  0.64912833047E+03  0.64912833047E+03  0.00000000000E+00 0.  1.
         21   -1    0    0  501  502 -0.00000000000E+00 -0.00000000000E+00 -0.12223140244E+03  0.12223140244E+03  0.00000000000E+00 0.  1.
         25    1    1    2    0    0  0.43362527382E+02 -0.88457900933E+02  0.26831016021E+03  0.31196225908E+03  0.12500000000E+03 0.  0.
         25    1    1    2    0    0 -0.29517408036E+02  0.12691773541E+03  0.13272150041E+02  0.18105396683E+03  0.12500000000E+03 0.  0.
         25    1    1    2    0    0 -0.13845119346E+02 -0.38459834474E+02  0.24531461777E+03  0.27834350700E+03  0.12500000000E+03 0.  0.
</event>
<event>
 5    0  0.5778875E-005  0.4173464E+03  0.7546771E-02  0.1037933E+00
         21   -1    0    0  502  501  0.00000000000E+00  0.00000000000E+00  0.10538925785E+04  0.10538925785E+04  0.00000000000E+00 0.  1.
         21   -1    0    0  501  502 -0.00000000000E+00 -0.00000000000E+00 -0.16527115367E+03  0.16527115367E+03  0.00000000000E+00 0.  1.
         25    1    1    2    0    0 -0.10460817186E+01 -0.22693461415E+03  0.36508337519E+03  0.44767318909E+03  0.12500000000E+03 0.  0.
         25    1    1    2    0    0 -0.83680471230E+02 -0.10687796518E+03  0.94549242923E+02  0.20734001072E+03  0.12500000000E+03 0.  0.
         25    1    1    2    0    0  0.84726552949E+02  0.33381257933E+03  0.42898880674E+03  0.56415053239E+03  0.12500000000E+03 0.  0.
</event>
<event>
 5    0  0.5778875E-005  0.2937911E+03  0.7546771E-02  0.1088386E+00
         21   -1    0    0  502  501  0.00000000000E+00  0.00000000000E+00  0.26451294067E+03  0.26451294067E+03  0.00000000000E+00 0. -1.
         21   -1    0    0  501  502 -0.00000000000E+00 -0.00000000000E+00 -0.32630987742E+03  0.32630987742E+03  0.00000000000E+00 0. -1.
         25    1    1    2    0    0 -0.17888219659E+03 -0.30431730063E+02 -0.70120634939E+02  0.23122896422E+03  0.12500000000E+03 0.  0.
         25    1    1    2    0    0  0.30320845896E+02 -0.16595200290E+02  0.73987364162E+02  0.14931136736E+03  0.12500000000E+03 0.  0.
         25    1    1    2    0    0  0.14856135070E+03  0.47026930353E+02 -0.65663665980E+02  0.21028248650E+03  0.12500000000E+03 0.  0.
</event>
<event>
 5    0  0.5778875E-005  0.2461833E+03  0.7546771E-02  0.1115741E+00
         21   -1    0    0  502  501  0.00000000000E+00  0.00000000000E+00  0.51853289540E+03  0.51853289540E+03  0.00000000000E+00 0.  1.
         21   -1    0    0  501  502 -0.00000000000E+00 -0.00000000000E+00 -0.11688014069E+03  0.11688014069E+03  0.00000000000E+00 0.  1.
         25    1    1    2    0    0 -0.31682324950E+01  0.68768694707E+02  0.22540059368E+03  0.26677630836E+03  0.12500000000E+03 0.  0.
         25    1    1    2    0    0  0.60105953521E+02  0.23960350435E+02  0.14094178303E+03  0.19918938286E+03  0.12500000000E+03 0.  0.
         25    1    1    2    0    0 -0.56937721026E+02 -0.92729045143E+02  0.35310377996E+02  0.16944734487E+03  0.12500000000E+03 0.  0.
</event>
<event>
 5    0  0.5778875E-005  0.3113120E+03  0.7546771E-02  0.1079719E+00
         21   -1    0    0  502  501  0.00000000000E+00  0.00000000000E+00  0.12678124777E+03  0.12678124777E+03  0.00000000000E+00 0.  1.
         21   -1    0    0  501  502 -0.00000000000E+00 -0.00000000000E+00 -0.76442826066E+03  0.76442826066E+03  0.00000000000E+00 0.  1.
         25    1    1    2    0    0  0.36753925373E+02 -0.11692221744E+02 -0.95377917925E+02  0.16189350298E+03  0.12500000000E+03 0.  0.
         25    1    1    2    0    0 -0.50810578483E+02 -0.41109607645E+02 -0.57247032139E+03  0.58959221806E+03  0.12500000000E+03 0.  0.
         25    1    1    2    0    0  0.14056653110E+02  0.52801829389E+02  0.30201226426E+02  0.13972378738E+03  0.12500000000E+03 0.  0.
</event>
<event>
 5    0  0.5778875E-005  0.4180988E+03  0.7546771E-02  0.1037687E+00
         21   -1    0    0  502  501  0.00000000000E+00  0.00000000000E+00  0.49741783443E+03  0.49741783443E+03  0.00000000000E+00 0.  1.
         21   -1    0    0  501  502 -0.00000000000E+00 -0.00000000000E+00 -0.35142818638E+03  0.35142818638E+03  0.00000000000E+00 0.  1.
         25    1    1    2    0    0 -0.27377718845E+03  0.32299284468E+02  0.31357756813E+02  0.30431152065E+03  0.12500000000E+03 0.  0.
         25    1    1    2    0    0  0.26171200172E+03  0.46543341893E+02  0.21626576102E+03  0.36476750666E+03  0.12500000000E+03 0.  0.
         25    1    1    2    0    0  0.12065186722E+02 -0.78842626361E+02 -0.10163386978E+03  0.17976699349E+03  0.12500000000E+03 0.  0.
</event>
<event>
 5    0  0.5778875E-005  0.2763100E+03  0.7546771E-02  0.1097722E+00
         21   -1    0    0  502  501  0.00000000000E+00  0.00000000000E+00  0.28205477163E+03  0.28205477163E+03  0.00000000000E+00 0.  1.
         21   -1    0    0  501  502 -0.00000000000E+00 -0.00000000000E+00 -0.27068218007E+03  0.27068218007E+03  0.00000000000E+00 0.  1.
         25    1    1    2    0    0  0.57302942200E+02  0.17321304472E+02 -0.16384452200E+03  0.21460121659E+03  0.12500000000E+03 0.  0.
         25    1    1    2    0    0 -0.62008198436E+02 -0.31016266863E+02  0.30130864433E+02  0.14608180747E+03  0.12500000000E+03 0.  0.
         25    1    1    2    0    0  0.47052562363E+01  0.13694962391E+02  0.14508624914E+03  0.19205392763E+03  0.12500000000E+03 0.  0.
</event>
<event>
 5    0  0.5778875E-005  0.3150986E+03  0.7546771E-02  0.1077927E+00
         21   -1    0    0  502  501  0.00000000000E+00  0.00000000000E+00  0.33457063335E+03  0.33457063335E+03  0.00000000000E+00 0.  1.
         21   -1    0    0  501  502 -0.00000000000E+00 -0.00000000000E+00 -0.29675976035E+03  0.29675976035E+03  0.00000000000E+00 0.  1.
         25    1    1    2    0    0 -0.34438836727E+02 -0.60170270583E+02  0.11308097558E+03  0.18226025890E+03  0.12500000000E+03 0.  0.
         25    1    1    2    0    0 -0.16040507770E+03  0.13697411448E+02 -0.59988232306E+02  0.21246410532E+03  0.12500000000E+03 0.  0.
         25    1    1    2    0    0  0.19484391443E+03  0.46472859135E+02 -0.15281870266E+02  0.23660602948E+03  0.12500000000E+03 0.  0.
</event>
<event>
 5    0  0.5778875E-005  0.3625240E+03  0.7546771E-02  0.1057589E+00
         21   -1    0    0  502  501  0.00000000000E+00  0.00000000000E+00  0.32313020190E+03  0.32313020190E+03  0.00000000000E+00 0.  1.
         21   -1    0    0  501  502 -0.00000000000E+00 -0.00000000000E+00 -0.40672050050E+03  0.40672050050E+03  0.00000000000E+00 0.  1.
         25    1    1    2    0    0  0.51690914795E+02  0.18570289707E+02 -0.58179011155E+01  0.13665889764E+03  0.12500000000E+03 0.  0.
         25    1    1    2    0    0  0.23112644385E+03  0.76275643872E+01  0.30253924633E+02  0.26460898084E+03  0.12500000000E+03 0.  0.
         25    1    1    2    0    0 -0.28281735864E+03 -0.26197854094E+02 -0.10802632211E+03  0.32858282392E+03  0.12500000000E+03 0.  0.
</event>
<event>
 5    0  0.5778875E-005  0.3690102E+03  0.7546771E-02  0.1055072E+00
         21   -1    0    0  502  501  0.00000000000E+00  0.00000000000E+00  0.22653238704E+03  0.22653238704E+03  0.00000000000E+00 0.  1.
         21   -1    0    0  501  502 -0.00000000000E+00 -0.00000000000E+00 -0.60109959217E+03  0.60109959217E+03  0.00000000000E+00 0.  1.
         25    1    1    2    0    0  0.20765291885E+03  0.16466742051E+02 -0.35391836417E+03  0.42927158863E+03  0.12500000000E+03 0.  0.
         25    1    1    2    0    0 -0.31621006523E+02  0.86220898252E+02  0.18112320443E+02  0.15616333597E+03  0.12500000000E+03 0.  0.
         25    1    1    2    0    0 -0.17603191233E+03 -0.10268764030E+03 -0.38761161398E+02  0.24219705461E+03  0.12500000000E+03 0.  0.
</event>
<event>
 5    0  0.5778875E-005  0.2472846E+03  0.7546771E-02  0.1115033E+00
         21   -1    0    0  502  501  0.00000000000E+00  0.00000000000E+00  0.10040261786E+03  0.10040261786E+03  0.00000000000E+00 0. -1.
         21   -1    0    0  501  502 -0.00000000000E+00 -0.00000000000E+00 -0.60904459736E+03  0.60904459736E+03  0.00000000000E+00 0. -1.
         25    1    1    2    0    0 -0.11317878271E+03  0.43438732427E+02 -0.10422348553E+03  0.20293815626E+03  0.12500000000E+03 0.  0.
         25    1    1    2    0    0 -0.91679438152E+01 -0.10702933105E+02 -0.19001299865E+03  0.22787835270E+03  0.12500000000E+03 0.  0.
         25    1    1    2    0    0  0.12234672652E+03 -0.32735799321E+02 -0.21440549531E+03  0.27863070626E+03  0.12500000000E+03 0.  0.
</event>
<event>
 5    0  0.5778875E-005  0.5255130E+03  0.7546771E-02  0.1007326E+00
         21   -1    0    0  502  501  0.00000000000E+00  0.00000000000E+00  0.66024293155E+02  0.66024293155E+02  0.00000000000E+00 0.  1.
         21   -1    0    0  501  502 -0.00000000000E+00 -0.00000000000E+00 -0.41827621603E+04  0.41827621603E+04  0.00000000000E+00 0.  1.
         25    1    1    2    0    0 -0.17624473520E+03 -0.15424175519E+03 -0.65316962242E+03  0.70505906233E+03  0.12500000000E+03 0.  0.
         25    1    1    2    0    0 -0.49276031573E+02 -0.23356108234E+03 -0.95434477453E+03  0.99165410055E+03  0.12500000000E+03 0.  0.
         25    1    1    2    0    0  0.22552076677E+03  0.38780283753E+03 -0.25092234702E+04  0.25520732905E+04  0.12500000000E+03 0.  0.
</event>
<event>
 5    0  0.5778875E-005  0.2875661E+03  0.7546771E-02  0.1091627E+00
         21   -1    0    0  502  501  0.00000000000E+00  0.00000000000E+00  0.11534703763E+04  0.11534703763E+04  0.00000000000E+00 0.  1.
         21   -1    0    0  501  502 -0.00000000000E+00 -0.00000000000E+00 -0.71691684043E+02  0.71691684043E+02  0.00000000000E+00 0.  1.
         25    1    1    2    0    0  0.53527468633E+01  0.10406299869E+03  0.63722374789E+03  0.65767534884E+03  0.12500000000E+03 0.  0.
         25    1    1    2    0    0  0.10697285374E+03 -0.77270289882E+02  0.24840082825E+03  0.30780165791E+03  0.12500000000E+03 0.  0.
         25    1    1    2    0    0 -0.11232560060E+03 -0.26792708812E+02  0.19615411615E+03  0.25968505363E+03  0.12500000000E+03 0.  0.
</event>
<event>
 5    0  0.5778875E-005  0.3442306E+03  0.7546771E-02  0.1065008E+00
         21   -1    0    0  502  501  0.00000000000E+00  0.00000000000E+00  0.32526144822E+03  0.32526144822E+03  0.00000000000E+00 0. -1.
         21   -1    0    0  501  502 -0.00000000000E+00 -0.00000000000E+00 -0.36430601469E+03  0.36430601469E+03  0.00000000000E+00 0. -1.
         25    1    1    2    0    0 -0.52793820113E+02 -0.14191377820E+03  0.11939138577E+03  0.22979558499E+03  0.12500000000E+03 0.  0.
         25    1    1    2    0    0  0.17520279230E+03  0.33878140957E+02 -0.37072626441E+02  0.22100481103E+03  0.12500000000E+03 0.  0.
         25    1    1    2    0    0 -0.12240897219E+03  0.10803563724E+03 -0.12136332580E+03  0.23876706690E+03  0.12500000000E+03 0.  0.
</event>
<event>
 5    0  0.5778875E-005  0.4030112E+03  0.7546771E-02  0.1042742E+00
         21   -1    0    0  502  501  0.00000000000E+00  0.00000000000E+00  0.15679519323E+04  0.15679519323E+04  0.00000000000E+00 0.  1.
         21   -1    0    0  501  502 -0.00000000000E+00 -0.00000000000E+00 -0.10358612642E+03  0.10358612642E+03  0.00000000000E+00 0.  1.
         25    1    1    2    0    0  0.31405982115E+03  0.11166043755E+03  0.68013316155E+03  0.76766382096E+03  0.12500000000E+03 0.  0.
         25    1    1    2    0    0 -0.79595061007E+02 -0.81183131143E+02  0.41393530143E+03  0.44709451830E+03  0.12500000000E+03 0.  0.
         25    1    1    2    0    0 -0.23446476014E+03 -0.30477306406E+02  0.37029734288E+03  0.45677971945E+03  0.12500000000E+03 0.  0.
</event>
<event>
 5    0  0.5778875E-005  0.2254774E+03  0.7546771E-02  0.1129864E+00
         21   -1    0    0  502  501  0.00000000000E+00  0.00000000000E+00  0.34431057652E+03  0.34431057652E+03  0.00000000000E+00 0.  1.
         21   -1    0    0  501  502 -0.00000000000E+00 -0.00000000000E+00 -0.14765751043E+03  0.14765751043E+03  0.00000000000E+00 0.  1.
         25    1    1    2    0    0 -0.43790540505E+02  0.52409210491E+02 -0.19929320578E+02  0.14382807306E+03  0.12500000000E+03 0.  0.
         25    1    1    2    0    0  0.92701557560E+01 -0.49915364535E+02  0.15202587112E+03  0.20325930457E+03  0.12500000000E+03 0.  0.
         25    1    1    2    0    0  0.34520384749E+02 -0.24938459558E+01  0.64556515548E+02  0.14488070931E+03  0.12500000000E+03 0.  0.
</event>
<event>
 5    0  0.5778875E-005  0.2638853E+03  0.7546771E-02  0.1104831E+00
         21   -1    0    0  502  501  0.00000000000E+00  0.00000000000E+00  0.11238885245E+04  0.11238885245E+04  0.00000000000E+00 0.  1.
         21   -1    0    0  501  502 -0.00000000000E+00 -0.00000000000E+00 -0.61959377129E+02  0.61959377129E+02  0.00000000000E+00 0.  1.
         25    1    1    2    0    0  0.28179387464E+02  0.10288339631E+03  0.31520336533E+03  0.35546762529E+03  0.12500000000E+03 0.  0.
         25    1    1    2    0    0 -0.10161129554E+03  0.44258497219E+01  0.21361002708E+03  0.26757931011E+03  0.12500000000E+03 0.  0.
         25    1    1    2    0    0  0.73431908076E+02 -0.10730924603E+03  0.53311575497E+03  0.56280096624E+03  0.12500000000E+03 0.  0.
</event>
<event>
 5    0  0.5778875E-005  0.3760005E+03  0.7546771E-02  0.1052422E+00
         21   -1    0    0  502  501  0.00000000000E+00  0.00000000000E+00  0.22123657821E+04  0.22123657821E+04  0.00000000000E+00 0. -1.
         21   -1    0    0  501  502 -0.00000000000E+00 -0.00000000000E+00 -0.63902813345E+02  0.63902813345E+02  0.00000000000E+00 0. -1.
         25    1    1    2    0    0 -0.13538376800E+03  0.16079604301E+03  0.34257521816E+03  0.42091200052E+03  0.12500000000E+03 0.  0.
         25    1    1    2    0    0  0.14637056247E+03 -0.17604176060E+03  0.15275453299E+04  0.15496563418E+04  0.12500000000E+03 0.  0.
         25    1    1    2    0    0 -0.10986794468E+02  0.15245717584E+02  0.27834242079E+03  0.30570025314E+03  0.12500000000E+03 0.  0.
</event>
<event>
 5    0  0.5778875E-005  0.2802138E+03  0.7546771E-02  0.1095572E+00
         21   -1    0    0  502  501  0.00000000000E+00  0.00000000000E+00  0.68489315983E+02  0.68489315983E+02  0.00000000000E+00 0. -1.
         21   -1    0    0  501  502 -0.00000000000E+00 -0.00000000000E+00 -0.11464532773E+04  0.11464532773E+04  0.00000000000E+00 0. -1.
         25    1    1    2    0    0 -0.31345360037E+02  0.49075926877E+02 -0.18916685353E+03  0.23409416197E+03  0.12500000000E+03 0.  0.
         25    1    1    2    0    0  0.11864097107E+03  0.53076285912E+02 -0.20580880304E+03  0.27363303082E+03  0.12500000000E+03 0.  0.
         25    1    1    2    0    0 -0.87295611036E+02 -0.10215221279E+03 -0.68298830478E+03  0.70721540053E+03  0.12500000000E+03 0.  0.
</event>
<event>
 5    0  0.6682940E-005  0.3491017E+03  0.7546771E-02  0.1062984E+00
         21   -1    0    0  502  501  0.00000000000E+00  0.00000000000E+00  0.77971346282E+03  0.77971346282E+03  0.00000000000E+00 0.  1.
         21   -1    0    0  501  502 -0.00000000000E+00 -0.00000000000E+00 -0.15630359415E+03  0.15630359415E+03  0.00000000000E+00 0.  1.
         25    1    1    2    0    0 -0.19928081300E+03  0.63362603908E+02  0.19277286514E+03  0.31066708796E+03  0.12500000000E+03 0.  0.
         25    1    1    2    0    0  0.15610568689E+03 -0.16064643686E+03  0.14176495976E+03  0.29308457307E+03  0.12500000000E+03 0.  0.
         25    1    1    2    0    0  0.43175126113E+02  0.97283832949E+02  0.28887204377E+03  0.33226539594E+03  0.12500000000E+03 0.  0.
</event>
<event>
 5    0  0.5778875E-005  0.2037471E+03  0.7546771E-02  0.1146616E+00
         21   -1    0    0  502  501  0.00000000000E+00  0.00000000000E+00  0.11431480938E+03  0.11431480938E+03  0.00000000000E+00 0. -1.
         21   -1    0    0  501  502 -0.00000000000E+00 -0.00000000000E+00 -0.36314516831E+03  0.36314516831E+03  0.00000000000E+00 0. -1.
         25    1    1    2    0    0 -0.46369771252E+02 -0.27574998854E+02 -0.11208296345E+03  0.17634661024E+03  0.12500000000E+03 0.  0.
         25    1    1    2    0    0  0.54850032766E+02  0.32180560047E+02 -0.93214414072E+02  0.16839846059E+03  0.12500000000E+03 0.  0.
         25    1    1    2    0    0 -0.84802615149E+01 -0.46055611928E+01 -0.43532981409E+02  0.13271490685E+03  0.12500000000E+03 0.  0.
</event>
<event>
 5    0  0.5778875E-005  0.2455980E+03  0.7546771E-02  0.1116119E+00
         21   -1    0    0  502  501  0.00000000000E+00  0.00000000000E+00  0.12227108536E+03  0.12227108536E+03  0.00000000000E+00 0. -1.
         21   -1    0    0  501  502 -0.00000000000E+00 -0.00000000000E+00 -0.49331677247E+03  0.49331677247E+03  0.00000000000E+00 0. -1.
         25    1    1    2    0    0 -0.39909577805E+02  0.14800618411E+02 -0.22425872995E+01  0.13206764140E+03  0.12500000000E+03 0.  0.
         25    1    1    2    0    0 -0.31811824255E+02 -0.78951587157E+02 -0.21774913332E+03  0.26511324059E+03  0.12500000000E+03 0.  0.
         25    1    1    2    0    0  0.71721402059E+02  0.64150968747E+02 -0.15105396649E+03  0.21840697584E+03  0.12500000000E+03 0.  0.
</event>
<event>
 5    0  0.5778875E-005  0.2748833E+03  0.7546771E-02  0.1098517E+00
         21   -1    0    0  502  501  0.00000000000E+00  0.00000000000E+00  0.21524024943E+03  0.21524024943E+03  0.00000000000E+00 0. -1.
         21   -1    0    0  501  502 -0.00000000000E+00 -0.00000000000E+00 -0.35105355590E+03  0.35105355590E+03  0.00000000000E+00 0. -1.
         25    1    1    2    0    0  0.86068636821E+02  0.71655101532E+02  0.10373308963E+02  0.16815132874E+03  0.12500000000E+03 0.  0.
         25    1    1    2    0    0 -0.45394949283E+02  0.49196262622E+02  0.32561331340E+02  0.14548612984E+03  0.12500000000E+03 0.  0.
         25    1    1    2    0    0 -0.40673687538E+02 -0.12085136415E+03 -0.17874794677E+03  0.25265634675E+03  0.12500000000E+03 0.  0.
</event>
<event>
 5    0  0.5778875E-005  0.2937582E+03  0.7546771E-02  0.1088403E+00
         21   -1    0    0  502  501  0.00000000000E+00  0.00000000000E+00  0.18819352980E+03  0.18819352980E+03  0.00000000000E+00 0. -1.
         21   -1    0    0  501  502 -0.00000000000E+00 -0.00000000000E+00 -0.45853809805E+03  0.45853809805E+03  0.00000000000E+00 0. -1.
         25    1    1    2    0    0 -0.62101746249E+02  0.48805614884E+02 -0.13281755535E+03  0.19875642868E+03  0.12500000000E+03 0.  0.
         25    1    1    2    0    0 -0.60095320631E+02  0.95219447134E+02  0.23782881782E+02  0.16990825801E+03  0.12500000000E+03 0.  0.
         25    1    1    2    0    0  0.12219706688E+03 -0.14402506202E+03 -0.16130989469E+03  0.27806694116E+03  0.12500000000E+03 0.  0.
</event>
<event>
 5    0  0.5778875E-005  0.2923865E+03  0.7546771E-02  0.1089110E+00
         21   -1    0    0  502  501  0.00000000000E+00  0.00000000000E+00  0.16787366185E+04  0.16787366185E+04  0.00000000000E+00 0. -1.
         21   -1    0    0  501  502 -0.00000000000E+00 -0.00000000000E+00 -0.50925106170E+02  0.50925106170E+02  0.00000000000E+00 0. -1.
         25    1    1    2    0    0  0.82121977114E+02  0.15023646333E+03  0.64948353351E+03  0.68320485532E+03  0.12500000000E+03 0.  0.
         25    1    1    2    0    0 -0.26413263093E+02  0.18683209586E+02  0.56362055101E+03  0.57822127971E+03  0.12500000000E+03 0.  0.
         25    1    1    2    0    0 -0.55708714022E+02 -0.16891967292E+03  0.41470742777E+03  0.46823558960E+03  0.12500000000E+03 0.  0.
</event>
<event>
 5    0  0.5778875E-005  0.2263165E+03  0.7546771E-02  0.1129260E+00
         21   -1    0    0  502  501  0.00000000000E+00  0.00000000000E+00  0.32094909759E+02  0.32094909759E+02  0.00000000000E+00 0.  1.
         21   -1    0    0  501  502 -0.00000000000E+00 -0.00000000000E+00 -0.15958659138E+04  0.15958659138E+04  0.00000000000E+00 0.  1.
         25    1    1    2    0    0  0.18780569728E+02 -0.92977468621E+02 -0.72817217178E+03  0.74488739500E+03  0.12500000000E+03 0.  0.
         25    1    1    2    0    0  0.45968235589E+01 -0.19461097512E+01 -0.41891200955E+03  0.43719239458E+03  0.12500000000E+03 0.  0.
         25    1    1    2    0    0 -0.23377393287E+02  0.94923578372E+02 -0.41668682273E+03  0.44588103400E+03  0.12500000000E+03 0.  0.
</event>
<event>
 5    0  0.5778875E-005  0.2787353E+03  0.7546771E-02  0.1096382E+00
         21   -1    0    0  502  501  0.00000000000E+00  0.00000000000E+00  0.98993042084E+02  0.98993042084E+02  0.00000000000E+00 0. -1.
         21   -1    0    0  501  502 -0.00000000000E+00 -0.00000000000E+00 -0.78483683046E+03  0.78483683046E+03  0.00000000000E+00 0. -1.
         25    1    1    2    0    0 -0.80810266233E+01 -0.14894530295E+03 -0.17834581108E+03  0.26397392787E+03  0.12500000000E+03 0.  0.
         25    1    1    2    0    0 -0.19960176979E+01  0.16197375273E+03 -0.41752563366E+03  0.46496466040E+03  0.12500000000E+03 0.  0.
         25    1    1    2    0    0  0.10077044321E+02 -0.13028449775E+02 -0.89972343632E+02  0.15489128428E+03  0.12500000000E+03 0.  0.
</event>
<event>
 5    0  0.5778875E-005  0.4777542E+03  0.7546771E-02  0.1019754E+00
         21   -1    0    0  502  501  0.00000000000E+00  0.00000000000E+00  0.66254814326E+03  0.66254814326E+03  0.00000000000E+00 0.  1.
         21   -1    0    0  501  502 -0.00000000000E+00 -0.00000000000E+00 -0.34450185127E+03  0.34450185127E+03  0.00000000000E+00 0.  1.
         25    1    1    2    0    0 -0.74377279259E+02 -0.18671926410E+03  0.37794586280E+02  0.23968624076E+03  0.12500000000E+03 0.  0.
         25    1    1    2    0    0  0.27617370950E+02 -0.21856580401E+03  0.22180825211E+03  0.33668624945E+03  0.12500000000E+03 0.  0.
         25    1    1    2    0    0  0.46759908309E+02  0.40528506812E+03  0.58443453599E+02  0.43067750433E+03  0.12500000000E+03 0.  0.
</event>
<event>
 5    0  0.5778875E-005  0.2453053E+03  0.7546771E-02  0.1116308E+00
         21   -1    0    0  502  501  0.00000000000E+00  0.00000000000E+00  0.97795040543E+02  0.97795040543E+02  0.00000000000E+00 0.  1.
         21   -1    0    0  501  502 -0.00000000000E+00 -0.00000000000E+00 -0.61531446292E+03  0.61531446292E+03  0.00000000000E+00 0.  1.
         25    1    1    2    0    0  0.55928251739E+02  0.46915079599E+02 -0.23753387457E+03  0.27816602166E+03  0.12500000000E+03 0.  0.
         25    1    1    2    0    0 -0.73264217422E+02 -0.65472384718E+02 -0.41232987655E+02  0.16425418712E+03  0.12500000000E+03 0.  0.
         25    1    1    2    0    0  0.17335965683E+02  0.18557305119E+02 -0.23875256015E+03  0.27068929469E+03  0.12500000000E+03 0.  0.
</event>
<event>
 5    0  0.5778875E-005  0.3732871E+03  0.7546771E-02  0.1053443E+00
         21   -1    0    0  502  501  0.00000000000E+00  0.00000000000E+00  0.14649410651E+04  0.14649410651E+04  0.00000000000E+00 0.  1.
         21   -1    0    0  501  502 -0.00000000000E+00 -0.00000000000E+00 -0.95118681209E+02  0.95118681209E+02  0.00000000000E+00 0.  1.
         25    1    1    2    0    0 -0.78525965155E+02 -0.10581127376E+03  0.36067831462E+03  0.40382694251E+03  0.12500000000E+03 0.  0.
         25    1    1    2    0    0  0.10477725862E+03  0.37801832780E+02  0.34551702375E+02  0.17095634713E+03  0.12500000000E+03 0.  0.
         25    1    1    2    0    0 -0.26251293465E+02  0.68009440976E+02  0.97459236687E+03  0.98527645665E+03  0.12500000000E+03 0.  0.
</event>
<event>
 5    0  0.5778875E-005  0.2489301E+03  0.7546771E-02  0.1113983E+00
         21   -1    0    0  502  501  0.00000000000E+00  0.00000000000E+00  0.80118767382E+02  0.80118767382E+02  0.00000000000E+00 0. -1.
         21   -1    0    0  501  502 -0.00000000000E+00 -0.00000000000E+00 -0.77342931104E+03  0.77342931104E+03  0.00000000000E+00 0. -1.
         25    1    1    2    0    0 -0.11559764032E+03 -0.54281328509E+01 -0.29847087535E+03  0.34365992275E+03  0.12500000000E+03 0.  0.
         25    1    1    2    0    0  0.13092890618E+03 -0.62749552784E+01 -0.15352921142E+03  0.23744046053E+03  0.12500000000E+03 0.  0.
         25    1    1    2    0    0 -0.15331265863E+02  0.11703088129E+02 -0.24131045689E+03  0.27244769514E+03  0.12500000000E+03 0.  0.
</event>
<event>
 5    0  0.5778875E-005  0.2338065E+03  0.7546771E-02  0.1123989E+00
         21   -1    0    0  502  501  0.00000000000E+00  0.00000000000E+00  0.28924658358E+03  0.28924658358E+03  0.00000000000E+00 0. -1.
         21   -1    0    0  501  502 -0.00000000000E+00 -0.00000000000E+00 -0.18899273164E+03  0.18899273164E+03  0.00000000000E+00 0. -1.
         25    1    1    2    0    0 -0.74534627426E+02  0.95521233934E+01 -0.12186597392E+01  0.14585314148E+03  0.12500000000E+03 0.  0.
         25    1    1    2    0    0  0.17017361246E+02 -0.81761062983E+02  0.69284545615E+01  0.15049074884E+03  0.12500000000E+03 0.  0.
         25    1    1    2    0    0  0.57517266180E+02  0.72208939589E+02  0.94544057115E+02  0.18189542490E+03  0.12500000000E+03 0.  0.
</event>
<event>
 5    0  0.6429057E-005  0.5756275E+03  0.7546771E-02  0.9957303E-01
         21   -1    0    0  502  501  0.00000000000E+00  0.00000000000E+00  0.74624225643E+03  0.74624225643E+03  0.00000000000E+00 0.  1.
         21   -1    0    0  501  502 -0.00000000000E+00 -0.00000000000E+00 -0.44402071146E+03  0.44402071146E+03  0.00000000000E+00 0.  1.
         25    1    1    2    0    0  0.16699511333E+03 -0.16980853899E+03 -0.26584354951E+03  0.37817998440E+03  0.12500000000E+03 0.  0.
         25    1    1    2    0    0  0.13104898683E+03 -0.20022583742E+02  0.30098602846E+03  0.35184134228E+03  0.12500000000E+03 0.  0.
         25    1    1    2    0    0 -0.29804410016E+03  0.18983112273E+03  0.26707906601E+03  0.46024164121E+03  0.12500000000E+03 0.  0.
</event>
<event>
 5    0  0.6228096E-005  0.3347995E+03  0.7546771E-02  0.1069033E+00
         21   -1    0    0  502  501  0.00000000000E+00  0.00000000000E+00  0.28990696446E+03  0.28990696446E+03  0.00000000000E+00 0.  1.
         21   -1    0    0  501  502 -0.00000000000E+00 -0.00000000000E+00 -0.38664368418E+03  0.38664368418E+03  0.00000000000E+00 0.  1.
         25    1    1    2    0    0 -0.71199815879E+02  0.10632987020E+03  0.46002442041E+02  0.18470701057E+03  0.12500000000E+03 0.  0.
         25    1    1    2    0    0 -0.16561212724E+02 -0.21194032571E+03  0.16586154339E+02  0.24717013562E+03  0.12500000000E+03 0.  0.
         25    1    1    2    0    0  0.87761028603E+02  0.10561045551E+03 -0.15932531610E+03  0.24467350245E+03  0.12500000000E+03 0.  0.
</event>
<event>
 5    0  0.5778875E-005  0.3264942E+03  0.7546771E-02  0.1072699E+00
         21   -1    0    0  502  501  0.00000000000E+00  0.00000000000E+00  0.84365934823E+03  0.84365934823E+03  0.00000000000E+00 0. -1.
         21   -1    0    0  501  502 -0.00000000000E+00 -0.00000000000E+00 -0.12635249678E+03  0.12635249678E+03  0.00000000000E+00 0. -1.
         25    1    1    2    0    0 -0.69745912483E+02  0.91590958908E+02  0.11077953199E+03  0.20285586206E+03  0.12500000000E+03 0.  0.
         25    1    1    2    0    0  0.19337108443E+03 -0.95116561449E+01  0.48830112716E+03  0.53994984830E+03  0.12500000000E+03 0.  0.
         25    1    1    2    0    0 -0.12362517194E+03 -0.82079302763E+02  0.11822619230E+03  0.22720613466E+03  0.12500000000E+03 0.  0.
</event>
<event>
 5    0  0.5778875E-005  0.3185959E+03  0.7546771E-02  0.1076297E+00
         21   -1    0    0  502  501  0.00000000000E+00  0.00000000000E+00  0.11632574314E+04  0.11632574314E+04  0.00000000000E+00 0.  1.
         21   -1    0    0  501  502 -0.00000000000E+00 -0.00000000000E+00 -0.87257831952E+02  0.87257831952E+02  0.00000000000E+00 0.  1.
         25    1    1    2    0    0 -0.21031968448E+03  0.12141383413E+03  0.54241843565E+03  0.60730424676E+03  0.12500000000E+03 0.  0.
         25    1    1    2    0    0  0.58635832253E+02 -0.57125107792E+02  0.18383502157E+03  0.23690030376E+03  0.12500000000E+03 0.  0.
         25    1    1    2    0    0  0.15168385222E+03 -0.64288726340E+02  0.34974614218E+03  0.40631071280E+03  0.12500000000E+03 0.  0.
</event>
<event>
 5    0  0.5778875E-005  0.4250547E+03  0.7546771E-02  0.1035434E+00
         21   -1    0    0  502  501  0.00000000000E+00  0.00000000000E+00  0.21900967406E+04  0.21900967406E+04  0.00000000000E+00 0.  1.
         21   -1    0    0  501  502 -0.00000000000E+00 -0.00000000000E+00 -0.82494769580E+02  0.82494769580E+02  0.00000000000E+00 0.  1.
         25    1    1    2    0    0  0.33895795356E+03  0.60373392559E+01  0.93907009195E+03  0.10061841687E+04  0.12500000000E+03 0.  0.
         25    1    1    2    0    0 -0.60688904405E+02 -0.10251309602E+02  0.15719598204E+03  0.21005668101E+03  0.12500000000E+03 0.  0.
         25    1    1    2    0    0 -0.27826904915E+03  0.42139703461E+01  0.10113358970E+04  0.10563506605E+04  0.12500000000E+03 0.  0.
</event>
<event>
 5    0  0.5778875E-005  0.3473646E+03  0.7546771E-02  0.1063702E+00
         21   -1    0    0  502  501  0.00000000000E+00  0.00000000000E+00  0.93334241035E+03  0.93334241035E+03  0.00000000000E+00 0. -1.
         21   -1    0    0  501  502 -0.00000000000E+00 -0.00000000000E+00 -0.12927960077E+03  0.12927960077E+03  0.00000000000E+00 0. -1.
         25    1    1    2    0    0 -0.56763758033E+02  0.13395928846E+03  0.15765033593E+03  0.24828581033E+03  0.12500000000E+03 0.  0.
         25    1    1    2    0    0  0.12604602758E+02 -0.26762971909E+03  0.30704139339E+03  0.42624401439E+03  0.12500000000E+03 0.  0.
         25    1    1    2    0    0  0.44159155275E+02  0.13367043063E+03  0.33937108027E+03  0.38809218640E+03  0.12500000000E+03 0.  0.
</event>
<event>
 5    0  0.5778875E-005  0.3149123E+03  0.7546771E-02  0.1078015E+00
         21   -1    0    0  502  501  0.00000000000E+00  0.00000000000E+00  0.85675103323E+03  0.85675103323E+03  0.00000000000E+00 0.  1.
         21   -1    0    0  501  502 -0.00000000000E+00 -0.00000000000E+00 -0.11575099098E+03  0.11575099098E+03  0.00000000000E+00 0.  1.
         25    1    1    2    0    0 -0.94194126036E+02 -0.41567872401E+02  0.16630176335E+02  0.16279430015E+03  0.12500000000E+03 0.  0.
         25    1    1    2    0    0 -0.40119206913E+02  0.31533997015E+02  0.12941314107E+03  0.18702059997E+03  0.12500000000E+03 0.  0.
         25    1    1    2    0    0  0.13431333295E+03  0.10033875386E+02  0.59495672485E+03  0.62268712409E+03  0.12500000000E+03 0.  0.
</event>
<event>
 5    0  0.5778875E-005  0.2209404E+03  0.7546771E-02  0.1133184E+00
         21   -1    0    0  502  501  0.00000000000E+00  0.00000000000E+00  0.38381241366E+03  0.38381241366E+03  0.00000000000E+00 0. -1.
         21   -1    0    0  501  502 -0.00000000000E+00 -0.00000000000E+00 -0.12718361953E+03  0.12718361953E+03  0.00000000000E+00 0. -1.
         25    1    1    2    0    0 -0.42165492463E+01 -0.67904248794E+02  0.12140810721E+03  0.18706601719E+03  0.12500000000E+03 0.  0.
         25    1    1    2    0    0  0.27312846625E+02 -0.32647714068E+02  0.67095905357E+02  0.14811726888E+03  0.12500000000E+03 0.  0.
         25    1    1    2    0    0 -0.23096297379E+02  0.10055196286E+03  0.68124781553E+02  0.17581274712E+03  0.12500000000E+03 0.  0.
</event>
<event>
 5    0  0.5849129E-005  0.3142862E+03  0.7546771E-02  0.1078309E+00
         21   -1    0    0  502  501  0.00000000000E+00  0.00000000000E+00  0.45241502016E+03  0.45241502016E+03  0.00000000000E+00 0.  1.
         21   -1    0    0  501  502 -0.00000000000E+00 -0.00000000000E+00 -0.21833006930E+03  0.21833006930E+03  0.00000000000E+00 0. -1.
         25    1    1    2    0    0 -0.18939122940E+03  0.14044984117E+03  0.55968671586E+02  0.27267689278E+03  0.12500000000E+03 0.  0.
         25    1    1    2    0    0  0.12235999423E+03 -0.71247684621E+02  0.51594052538E+02  0.19579363373E+03  0.12500000000E+03 0.  0.
         25    1    1    2    0    0  0.67031235169E+02 -0.69202156554E+02  0.12652222673E+03  0.20227456295E+03  0.12500000000E+03 0.  0.
</event>
<event>
 5    0  0.5778875E-005  0.3030842E+03  0.7546771E-02  0.1083709E+00
         21   -1    0    0  502  501  0.00000000000E+00  0.00000000000E+00  0.89496764425E+02  0.89496764425E+02  0.00000000000E+00 0. -1.
         21   -1    0    0  501  502 -0.00000000000E+00 -0.00000000000E+00 -0.10264064554E+04  0.10264064554E+04  0.00000000000E+00 0. -1.
         25    1    1    2    0    0  0.17459384073E+03  0.57953557756E+02 -0.31142346019E+03  0.38268942451E+03  0.12500000000E+03 0.  0.
         25    1    1    2    0    0 -0.83518064707E+02 -0.14136478381E+03 -0.31900869116E+03  0.37993527642E+03  0.12500000000E+03 0.  0.
         25    1    1    2    0    0 -0.91075776024E+02  0.83411226056E+02 -0.30647753959E+03  0.35327851885E+03  0.12500000000E+03 0.  0.
</event>
<event>
 5    0  0.5778875E-005  0.2498921E+03  0.7546771E-02  0.1113373E+00
         21   -1    0    0  502  501  0.00000000000E+00  0.00000000000E+00  0.65338891294E+03  0.65338891294E+03  0.00000000000E+00 0.  1.
         21   -1    0    0  501  502 -0.00000000000E+00 -0.00000000000E+00 -0.95572586365E+02  0.95572586365E+02  0.00000000000E+00 0.  1.
         25    1    1    2    0    0 -0.63589911396E+02  0.98871589626E+01  0.22493447875E+03  0.26525827503E+03  0.12500000000E+03 0.  0.
         25    1    1    2    0    0  0.36453034582E+02 -0.14986695309E+01  0.35059948656E+01  0.13026266442E+03  0.12500000000E+03 0.  0.
         25    1    1    2    0    0  0.27136876814E+02 -0.83884894317E+01  0.32937585296E+03  0.35344055986E+03  0.12500000000E+03 0.  0.
</event>
<event>
 5    0  0.5778875E-005  0.4937117E+03  0.7546771E-02  0.1015433E+00
         21   -1    0    0  502  501  0.00000000000E+00  0.00000000000E+00  0.92154996106E+03  0.92154996106E+03  0.00000000000E+00 0. -1.
         21   -1    0    0  501  502 -0.00000000000E+00 -0.00000000000E+00 -0.26450136374E+03  0.26450136374E+03  0.00000000000E+00 0. -1.
         25    1    1    2    0    0 -0.24545281828E+03  0.10826404132E+02  0.17902979320E+03  0.32869585315E+03  0.12500000000E+03 0.  0.
         25    1    1    2    0    0  0.36048549369E+03  0.26835288398E+02  0.38223303527E+02  0.38439035471E+03  0.12500000000E+03 0.  0.
         25    1    1    2    0    0 -0.11503267541E+03 -0.37661692529E+02  0.43979550059E+03  0.47296511693E+03  0.12500000000E+03 0.  0.
</event>
<event>
 5    0  0.5778875E-005  0.2342929E+03  0.7546771E-02  0.1123654E+00
         21   -1    0    0  502  501  0.00000000000E+00  0.00000000000E+00  0.42293357183E+03  0.42293357183E+03  0.00000000000E+00 0. -1.
         21   -1    0    0  501  502 -0.00000000000E+00 -0.00000000000E+00 -0.12979143705E+03  0.12979143705E+03  0.00000000000E+00 0. -1.
         25    1    1    2    0    0 -0.46990087733E+02  0.91312742974E+02  0.12831034787E+03  0.20648155062E+03  0.12500000000E+03 0.  0.
         25    1    1    2    0    0  0.65700060265E+02  0.61130185707E+01  0.51184051509E+02  0.15032855365E+03  0.12500000000E+03 0.  0.
         25    1    1    2    0    0 -0.18709972532E+02 -0.97425761545E+02  0.11364773540E+03  0.19591490460E+03  0.12500000000E+03 0.  0.
</event>
<event>
 5    0  0.5778875E-005  0.4511140E+03  0.7546771E-02  0.1027390E+00
         21   -1    0    0  502  501  0.00000000000E+00  0.00000000000E+00  0.18059057890E+03  0.18059057890E+03  0.00000000000E+00 0. -1.
         21   -1    0    0  501  502 -0.00000000000E+00 -0.00000000000E+00 -0.11268794734E+04  0.11268794734E+04  0.00000000000E+00 0. -1.
         25    1    1    2    0    0 -0.19081999624E+02  0.25179385937E+03 -0.71756136772E+03  0.77089790943E+03  0.12500000000E+03 0.  0.
         25    1    1    2    0    0  0.16123543798E+03 -0.20602204935E+03 -0.15074665780E+03  0.32678969708E+03  0.12500000000E+03 0.  0.
         25    1    1    2    0    0 -0.14215343836E+03 -0.45771810014E+02 -0.77980868960E+02  0.20978244577E+03  0.12500000000E+03 0.  0.
</event>
<event>
 5    0  0.5778875E-005  0.3326332E+03  0.7546771E-02  0.1069978E+00
         21   -1    0    0  502  501  0.00000000000E+00  0.00000000000E+00  0.35109287177E+03  0.35109287177E+03  0.00000000000E+00 0.  1.
         21   -1    0    0  501  502 -0.00000000000E+00 -0.00000000000E+00 -0.31514410270E+03  0.31514410270E+03  0.00000000000E+00 0.  1.
         25    1    1    2    0    0 -0.94015725037E+02  0.30189038711E+02  0.15545976450E+03  0.22258273291E+03  0.12500000000E+03 0.  0.
         25    1    1    2    0    0 -0.10927659488E+03 -0.29681405393E+02 -0.11650011728E+03  0.20498691993E+03  0.12500000000E+03 0.  0.
         25    1    1    2    0    0  0.20329231991E+03 -0.50763331740E+00 -0.30108781461E+01  0.23866732163E+03  0.12500000000E+03 0.  0.
</event>
<event>
 5    0  0.5778875E-005  0.2617318E+03  0.7546771E-02  0.1106107E+00
         21   -1    0    0  502  501  0.00000000000E+00  0.00000000000E+00  0.11129890624E+03  0.11129890624E+03  0.00000000000E+00 0. -1.
         21   -1    0    0  501  502 -0.00000000000E+00 -0.00000000000E+00 -0.61549174384E+03  0.61549174384E+03  0.00000000000E+00 0. -1.
         25    1    1    2    0    0  0.52697053309E+02 -0.72411125116E+02 -0.14428374052E+03  0.21086286597E+03  0.12500000000E+03 0.  0.
         25    1    1    2    0    0 -0.12005612478E+01  0.13019946267E+03 -0.31350950206E+03  0.36175481933E+03  0.12500000000E+03 0.  0.
         25    1    1    2    0    0 -0.51496492061E+02 -0.57788337557E+02 -0.46399595023E+02  0.15417296478E+03  0.12500000000E+03 0.  0.
</event>
<event>
 5    0  0.5778875E-005  0.3996099E+03  0.7546771E-02  0.1043915E+00
         21   -1    0    0  502  501  0.00000000000E+00  0.00000000000E+00  0.19973963454E+04  0.19973963454E+04  0.00000000000E+00 0. -1.
         21   -1    0    0  501  502 -0.00000000000E+00 -0.00000000000E+00 -0.79948096464E+02  0.79948096464E+02  0.00000000000E+00 0. -1.
         25    1    1    2    0    0 -0.18155157488E+03 -0.27515665585E+03  0.91887155550E+03  0.98418600635E+03  0.12500000000E+03 0.  0.
         25    1    1    2    0    0  0.76817706879E+01  0.83990364539E+02  0.44030491491E+03  0.46541036627E+03  0.12500000000E+03 0.  0.
         25    1    1    2    0    0  0.17386980419E+03  0.19116629131E+03  0.55827177857E+03  0.62774806928E+03  0.12500000000E+03 0.  0.
</event>
<event>
 5    0  0.5778875E-005  0.2298688E+03  0.7546771E-02  0.1126732E+00
         21   -1    0    0  502  501  0.00000000000E+00  0.00000000000E+00  0.30447323767E+03  0.30447323767E+03  0.00000000000E+00 0.  1.
         21   -1    0    0  501  502 -0.00000000000E+00 -0.00000000000E+00 -0.17354448250E+03  0.17354448250E+03  0.00000000000E+00 0.  1.
         25    1    1    2    0    0  0.53875964333E+02  0.51183535981E+02  0.38748892874E+02  0.15049535072E+03  0.12500000000E+03 0.  0.
         25    1    1    2    0    0 -0.23981814516E+02  0.27715354331E+02 -0.29716544466E+02  0.13360891178E+03  0.12500000000E+03 0.  0.
         25    1    1    2    0    0 -0.29894149817E+02 -0.78898890312E+02  0.12189640676E+03  0.19391345767E+03  0.12500000000E+03 0.  0.
</event>
<event>
 5    0  0.5778875E-005  0.3405437E+03  0.7546771E-02  0.1066565E+00
         21   -1    0    0  502  501  0.00000000000E+00  0.00000000000E+00  0.31575943332E+03  0.31575943332E+03  0.00000000000E+00 0.  1.
         21   -1    0    0  501  502 -0.00000000000E+00 -0.00000000000E+00 -0.36727335364E+03  0.36727335364E+03  0.00000000000E+00 0.  1.
         25    1    1    2    0    0  0.78008723908E+00 -0.15800457606E+03  0.82740955017E+02  0.21780064331E+03  0.12500000000E+03 0.  0.
         25    1    1    2    0    0 -0.81493322262E+02  0.21944496217E+03 -0.16695920027E+02  0.26589660912E+03  0.12500000000E+03 0.  0.
         25    1    1    2    0    0  0.80713235023E+02 -0.61440386110E+02 -0.11755895531E+03  0.19933553453E+03  0.12500000000E+03 0.  0.
</event>
<event>
 5    0  0.5778875E-005  0.3071054E+03  0.7546771E-02  0.1081742E+00
         21   -1    0    0  502  501  0.00000000000E+00  0.00000000000E+00  0.29378542402E+03  0.29378542402E+03  0.00000000000E+00 0.  1.
         21   -1    0    0  501  502 -0.00000000000E+00 -0.00000000000E+00 -0.32102925558E+03  0.32102925558E+03  0.00000000000E+00 0.  1.
         25    1    1    2    0    0 -0.65448762911E+01  0.62938957882E+01 -0.11925354400E+03  0.17299958464E+03  0.12500000000E+03 0.  0.
         25    1    1    2    0    0  0.80172359939E+02 -0.73119187449E+01 -0.11574338657E+03  0.18842134430E+03  0.12500000000E+03 0.  0.
         25    1    1    2    0    0 -0.73627483648E+02  0.10180229567E+01  0.20775309901E+03  0.25339375065E+03  0.12500000000E+03 0.  0.
</event>
<event>
 5    0  0.5778875E-005  0.3634868E+03  0.7546771E-02  0.1057212E+00
         21   -1    0    0  502  501  0.00000000000E+00  0.00000000000E+00  0.98145637881E+02  0.98145637881E+02  0.00000000000E+00 0. -1.
         21   -1    0    0  501  502 -0.00000000000E+00 -0.00000000000E+00 -0.13461899304E+04  0.13461899304E+04  0.00000000000E+00 0.  1.
         25    1    1    2    0    0 -0.36182168301E+02 -0.40402646587E+02 -0.12220764265E+03  0.18303341519E+03  0.12500000000E+03 0.  0.
         25    1    1    2    0    0 -0.14638814112E+02 -0.22785741441E+03 -0.62951727169E+03  0.68121236890E+03  0.12500000000E+03 0.  0.
         25    1    1    2    0    0  0.50820982413E+02  0.26826006100E+03 -0.49631937822E+03  0.58008978424E+03  0.12500000000E+03 0.  0.
</event>
<event>
 5    0  0.6135958E-005  0.2664814E+03  0.7546771E-02  0.1103310E+00
         21   -1    0    0  502  501  0.00000000000E+00  0.00000000000E+00  0.14969144254E+03  0.14969144254E+03  0.00000000000E+00 0. -1.
         21   -1    0    0  501  502 -0.00000000000E+00 -0.00000000000E+00 -0.47439125468E+03  0.47439125468E+03  0.00000000000E+00 0. -1.
         25    1    1    2    0    0 -0.86154946951E+02 -0.45379918472E+02  0.25243376264E+02  0.16045011664E+03  0.12500000000E+03 0.  0.
         25    1    1    2    0    0  0.48579238768E+02  0.93206322840E+02 -0.16376031300E+03  0.23127862238E+03  0.12500000000E+03 0.  0.
         25    1    1    2    0    0  0.37575708182E+02 -0.47826404368E+02 -0.18618287540E+03  0.23235395821E+03  0.12500000000E+03 0.  0.
</event>
<event>
 5    0  0.6640916E-005  0.3343327E+03  0.7546771E-02  0.1069236E+00
         21   -1    0    0  502  501  0.00000000000E+00  0.00000000000E+00  0.47319096376E+03  0.47319096376E+03  0.00000000000E+00 0. -1.
         21   -1    0    0  501  502 -0.00000000000E+00 -0.00000000000E+00 -0.23622253976E+03  0.23622253976E+03  0.00000000000E+00 0. -1.
         25    1    1    2    0    0 -0.89563040930E+02  0.21270445737E+03  0.43469816840E+01  0.26250451565E+03  0.12500000000E+03 0.  0.
         25    1    1    2    0    0  0.11981646783E+03 -0.79819657198E+02  0.78552394413E+02  0.20621018963E+03  0.12500000000E+03 0.  0.
         25    1    1    2    0    0 -0.30253426904E+02 -0.13288480017E+03  0.15406904790E+03  0.24069879824E+03  0.12500000000E+03 0.  0.
</event>
<event>
 5    0  0.5778875E-005  0.2893088E+03  0.7546771E-02  0.1090711E+00
         21   -1    0    0  502  501  0.00000000000E+00  0.00000000000E+00  0.19341038725E+03  0.19341038725E+03  0.00000000000E+00 0. -1.
         21   -1    0    0  501  502 -0.00000000000E+00 -0.00000000000E+00 -0.43275629086E+03  0.43275629086E+03  0.00000000000E+00 0. -1.
         25    1    1    2    0    0  0.60246287726E+02 -0.14875771750E+03 -0.18753057760E+03  0.27667885940E+03  0.12500000000E+03 0.  0.
         25    1    1    2    0    0  0.50746630679E+02  0.65696342293E+02 -0.62427218629E+02  0.16252196018E+03  0.12500000000E+03 0.  0.
         25    1    1    2    0    0 -0.11099291841E+03  0.83061375211E+02  0.10611892626E+02  0.18696585852E+03  0.12500000000E+03 0.  0.
</event>
<event>
 5    0  0.5778875E-005  0.2735714E+03  0.7546771E-02  0.1099253E+00
         21   -1    0    0  502  501  0.00000000000E+00  0.00000000000E+00  0.92663808224E+03  0.92663808224E+03  0.00000000000E+00 0.  1.
         21   -1    0    0  501  502 -0.00000000000E+00 -0.00000000000E+00 -0.80766496722E+02  0.80766496722E+02  0.00000000000E+00 0.  1.
         25    1    1    2    0    0 -0.62491748247E+02 -0.89854986078E+02  0.54743674513E+03  0.57209363486E+03  0.12500000000E+03 0.  0.
         25    1    1    2    0    0  0.78144250781E+02 -0.14851860296E+02  0.10373587357E+03  0.18086799924E+03  0.12500000000E+03 0.  0.
         25    1    1    2    0    0 -0.15652502534E+02  0.10470684637E+03  0.19469896681E+03  0.25444294486E+03  0.12500000000E+03 0.  0.
</event>
<event>
 5    0  0.5778875E-005  0.5532839E+03  0.7546771E-02  0.1000737E+00
         21   -1    0    0  502  501  0.00000000000E+00  0.00000000000E+00  0.16969197707E+03  0.16969197707E+03  0.00000000000E+00 0.  1.
         21   -1    0    0  501  502 -0.00000000000E+00 -0.00000000000E+00 -0.18039926360E+04  0.18039926360E+04  0.00000000000E+00 0.  1.
         25    1    1    2    0    0  0.16778755796E+03 -0.13377104509E+03 -0.51442664053E+03  0.57123298714E+03  0.12500000000E+03 0.  0.
         25    1    1    2    0    0 -0.33547295634E+02  0.83982047943E+02 -0.11899278680E+04  0.11998882183E+04  0.12500000000E+03 0.  0.
         25    1    1    2    0    0 -0.13424026233E+03  0.49788997143E+02  0.70053849577E+02  0.20256340762E+03  0.12500000000E+03 0.  0.
</event>
<event>
 5    0  0.5778875E-005  0.3600367E+03  0.7546771E-02  0.1058569E+00
         21   -1    0    0  502  501  0.00000000000E+00  0.00000000000E+00  0.11215000732E+04  0.11215000732E+04  0.00000000000E+00 0.  1.
         21   -1    0    0  501  502 -0.00000000000E+00 -0.00000000000E+00 -0.11558310322E+03  0.11558310322E+03  0.00000000000E+00 0.  1.
         25    1    1    2    0    0  0.23822621602E+02  0.42452640682E+02  0.10319173743E+03  0.16924325296E+03  0.12500000000E+03 0.  0.
         25    1    1    2    0    0 -0.26654152738E+03 -0.64496688361E+01  0.49019754293E+03  0.57184317356E+03  0.12500000000E+03 0.  0.
         25    1    1    2    0    0  0.24271890578E+03 -0.36002971846E+02  0.41252768958E+03  0.49599674986E+03  0.12500000000E+03 0.  0.
</event>
<event>
 5    0  0.5778875E-005  0.2904447E+03  0.7546771E-02  0.1090117E+00
         21   -1    0    0  502  501  0.00000000000E+00  0.00000000000E+00  0.33711339766E+03  0.33711339766E+03  0.00000000000E+00 0. -1.
         21   -1    0    0  501  502 -0.00000000000E+00 -0.00000000000E+00 -0.25023668071E+03  0.25023668071E+03  0.00000000000E+00 0. -1.
         25    1    1    2    0    0  0.68219284415E+02 -0.17491654298E+03 -0.27125565660E+02  0.22717936545E+03  0.12500000000E+03 0.  0.
         25    1    1    2    0    0 -0.72464755970E+02  0.13602855597E+03  0.21041277197E+02  0.19955611803E+03  0.12500000000E+03 0.  0.
         25    1    1    2    0    0  0.42454715549E+01  0.38887987011E+02  0.92961005412E+02  0.16061459488E+03  0.12500000000E+03 0.  0.
</event>
<event>
 5    0  0.5778875E-005  0.3584756E+03  0.7546771E-02  0.1059189E+00
         21   -1    0    0  502  501  0.00000000000E+00  0.00000000000E+00  0.15255876506E+04  0.15255876506E+04  0.00000000000E+00 0. -1.
         21   -1    0    0  501  502 -0.00000000000E+00 -0.00000000000E+00 -0.84232963312E+02  0.84232963312E+02  0.00000000000E+00 0. -1.
         25    1    1    2    0    0 -0.13043482863E+03  0.10655034352E+03  0.49961970841E+03  0.54185890530E+03  0.12500000000E+03 0.  0.
         25    1    1    2    0    0  0.22014315837E+03  0.82456446276E+01  0.27381217522E+03  0.37300014495E+03  0.12500000000E+03 0.  0.
         25    1    1    2    0    0 -0.89708329743E+02 -0.11479598814E+03  0.66792280367E+03  0.69496156367E+03  0.12500000000E+03 0.  0.
</event>
<event>
 5    0  0.5778875E-005  0.5751604E+03  0.7546771E-02  0.9958324E-01
         21   -1    0    0  502  501  0.00000000000E+00  0.00000000000E+00  0.17905453472E+03  0.17905453472E+03  0.00000000000E+00 0.  1.
         21   -1    0    0  501  502 -0.00000000000E+00 -0.00000000000E+00 -0.18475345597E+04  0.18475345597E+04  0.00000000000E+00 0.  1.
         25    1    1    2    0    0 -0.95370243238E+02  0.79152951884E+02 -0.38447136845E+03  0.42285210919E+03  0.12500000000E+03 0.  0.
         25    1    1    2    0    0 -0.36493378495E+03 -0.23545243988E+03 -0.51220163071E+03  0.68307395599E+03  0.12500000000E+03 0.  0.
         25    1    1    2    0    0  0.46030402819E+03  0.15629948800E+03 -0.77180702581E+03  0.92066302924E+03  0.12500000000E+03 0.  0.
</event>
<event>
 5    0  0.5778875E-005  0.3312013E+03  0.7546771E-02  0.1070607E+00
         21   -1    0    0  502  501  0.00000000000E+00  0.00000000000E+00  0.83322026042E+03  0.83322026042E+03  0.00000000000E+00 0.  1.
         21   -1    0    0  501  502 -0.00000000000E+00 -0.00000000000E+00 -0.13165100830E+03  0.13165100830E+03  0.00000000000E+00 0.  1.
         25    1    1    2    0    0 -0.28569921020E+02 -0.20745386799E+03  0.10354967951E+03  0.26495449394E+03  0.12500000000E+03 0.  0.
         25    1    1    2    0    0 -0.26239306830E+01  0.14911398594E+03  0.47180746982E+03  0.51036178775E+03  0.12500000000E+03 0.  0.
         25    1    1    2    0    0  0.31193851703E+02  0.58339882048E+02  0.12621210278E+03  0.18955498704E+03  0.12500000000E+03 0.  0.
</event>
<event>
 5    0  0.5778875E-005  0.3037530E+03  0.7546771E-02  0.1083379E+00
         21   -1    0    0  502  501  0.00000000000E+00  0.00000000000E+00  0.94150023463E+03  0.94150023463E+03  0.00000000000E+00 0.  1.
         21   -1    0    0  501  502 -0.00000000000E+00 -0.00000000000E+00 -0.97998795343E+02  0.97998795343E+02  0.00000000000E+00 0.  1.
         25    1    1    2    0    0  0.44834171140E+02  0.17773597358E+03  0.18190879953E+03  0.28690763418E+03  0.12500000000E+03 0.  0.
         25    1    1    2    0    0 -0.23077049702E+02 -0.39273275085E+02  0.45197499561E+03  0.47114895417E+03  0.12500000000E+03 0.  0.
         25    1    1    2    0    0 -0.21757121438E+02 -0.13846269849E+03  0.20961764416E+03  0.28144244163E+03  0.12500000000E+03 0.  0.
</event>
<event>
 5    0  0.5778875E-005  0.5007879E+03  0.7546771E-02  0.1013573E+00
         21   -1    0    0  502  501  0.00000000000E+00  0.00000000000E+00  0.33634577301E+03  0.33634577301E+03  0.00000000000E+00 0.  1.
         21   -1    0    0  501  502 -0.00000000000E+00 -0.00000000000E+00 -0.74562702108E+03  0.74562702108E+03  0.00000000000E+00 0.  1.
         25    1    1    2    0    0 -0.29487204934E+03 -0.49426766267E+02  0.37637434146E+02  0.32624240551E+03  0.12500000000E+03 0.  0.
         25    1    1    2    0    0 -0.10361772459E+03 -0.66555878096E+02 -0.14286720758E+03  0.22627937767E+03  0.12500000000E+03 0.  0.
         25    1    1    2    0    0  0.39848977393E+03  0.11598264436E+03 -0.30405147463E+03  0.52945101090E+03  0.12500000000E+03 0.  0.
</event>
<event>
 5    0  0.5778875E-005  0.2218707E+03  0.7546771E-02  0.1132496E+00
         21   -1    0    0  502  501  0.00000000000E+00  0.00000000000E+00  0.95907453141E+02  0.95907453141E+02  0.00000000000E+00 0.  1.
         21   -1    0    0  501  502 -0.00000000000E+00 -0.00000000000E+00 -0.51327202098E+03  0.51327202098E+03  0.00000000000E+00 0.  1.
         25    1    1    2    0    0 -0.62429961706E+02  0.24173395499E+02 -0.85228906516E+02  0.16544128770E+03  0.12500000000E+03 0.  0.
         25    1    1    2    0    0  0.25212928244E+02  0.29888213075E+02 -0.76422818054E+02  0.15163919068E+03  0.12500000000E+03 0.  0.
         25    1    1    2    0    0  0.37217033462E+02 -0.54061608574E+02 -0.25571284327E+03  0.29209899574E+03  0.12500000000E+03 0.  0.
</event>
<event>
 5    0  0.5778875E-005  0.4298788E+03  0.7546771E-02  0.1033898E+00
         21   -1    0    0  502  501  0.00000000000E+00  0.00000000000E+00  0.41969595299E+03  0.41969595299E+03  0.00000000000E+00 0. -1.
         21   -1    0    0  501  502 -0.00000000000E+00 -0.00000000000E+00 -0.44030860529E+03  0.44030860529E+03  0.00000000000E+00 0. -1.
         25    1    1    2    0    0  0.91903810592E+02  0.10070983444E+02  0.12587561150E+03  0.20004350697E+03  0.12500000000E+03 0.  0.
         25    1    1    2    0    0 -0.17866900419E+03 -0.15996760444E+03  0.13847855530E+03  0.30383146283E+03  0.12500000000E+03 0.  0.
         25    1    1    2    0    0  0.86765193595E+02  0.14989662099E+03 -0.28496681910E+03  0.35612958848E+03  0.12500000000E+03 0.  0.
</event>
<event>
 5    0  0.6686153E-005  0.3551245E+03  0.7546771E-02  0.1060531E+00
         21   -1    0    0  502  501  0.00000000000E+00  0.00000000000E+00  0.67748983694E+03  0.67748983694E+03  0.00000000000E+00 0.  1.
         21   -1    0    0  501  502 -0.00000000000E+00 -0.00000000000E+00 -0.18614808437E+03  0.18614808437E+03  0.00000000000E+00 0.  1.
         25    1    1    2    0    0 -0.10080496344E+03 -0.11779986187E+03  0.22507479843E+02  0.20042463611E+03  0.12500000000E+03 0.  0.
         25    1    1    2    0    0  0.17227592724E+03 -0.54165695742E+02  0.33937541896E+03  0.40424447145E+03  0.12500000000E+03 0.  0.
         25    1    1    2    0    0 -0.71470963802E+02  0.17196555761E+03  0.12945885377E+03  0.25896881374E+03  0.12500000000E+03 0.  0.
</event>
<event>
 5    0  0.5778875E-005  0.2401798E+03  0.7546771E-02  0.1119673E+00
         21   -1    0    0  502  501  0.00000000000E+00  0.00000000000E+00  0.17344845383E+03  0.17344845383E+03  0.00000000000E+00 0. -1.
         21   -1    0    0  501  502 -0.00000000000E+00 -0.00000000000E+00 -0.33258481219E+03  0.33258481219E+03  0.00000000000E+00 0. -1.
         25    1    1    2    0    0  0.43523494363E+02 -0.35608927508E+02 -0.14011669851E+03  0.19601015147E+03  0.12500000000E+03 0.  0.
         25    1    1    2    0    0 -0.54467492722E+02  0.93771350703E+02  0.19050367565E+02  0.16657638032E+03  0.12500000000E+03 0.  0.
         25    1    1    2    0    0  0.10943998359E+02 -0.58162423194E+02 -0.38070027413E+02  0.14344673422E+03  0.12500000000E+03 0.  0.
</event>
<event>
 5    0  0.5778875E-005  0.3476404E+03  0.7546771E-02  0.1063588E+00
         21   -1    0    0  502  501  0.00000000000E+00  0.00000000000E+00  0.73615026007E+03  0.73615026007E+03  0.00000000000E+00 0.  1.
         21   -1    0    0  501  502 -0.00000000000E+00 -0.00000000000E+00 -0.16417008195E+03  0.16417008195E+03  0.00000000000E+00 0.  1.
         25    1    1    2    0    0 -0.18977076559E+03  0.54866253375E+02  0.75484845551E+02  0.24565465829E+03  0.12500000000E+03 0.  0.
         25    1    1    2    0    0  0.19508142526E+03 -0.11938343040E+03  0.42041280307E+03  0.49465249511E+03  0.12500000000E+03 0.  0.
         25    1    1    2    0    0 -0.53106596619E+01  0.64517177021E+02  0.76082529498E+02  0.16001318862E+03  0.12500000000E+03 0.  0.
</event>
<event>
 5    0  0.5778875E-005  0.2698736E+03  0.7546771E-02  0.1101352E+00
         21   -1    0    0  502  501  0.00000000000E+00  0.00000000000E+00  0.39818119679E+03  0.39818119679E+03  0.00000000000E+00 0.  1.
         21   -1    0    0  501  502 -0.00000000000E+00 -0.00000000000E+00 -0.18291115473E+03  0.18291115473E+03  0.00000000000E+00 0.  1.
         25    1    1    2    0    0  0.34755667754E+02  0.44623088573E+02 -0.79788176773E+02  0.15871461693E+03  0.12500000000E+03 0.  0.
         25    1    1    2    0    0 -0.14369348602E+02 -0.10088953567E+03  0.13221418489E+03  0.20854440120E+03  0.12500000000E+03 0.  0.
         25    1    1    2    0    0 -0.20386319153E+02  0.56266447101E+02  0.16284403394E+03  0.21383333339E+03  0.12500000000E+03 0.  0.
</event>
<event>
 5    0  0.5778875E-005  0.2751399E+03  0.7546771E-02  0.1098373E+00
         21   -1    0    0  502  501  0.00000000000E+00  0.00000000000E+00  0.36836915040E+03  0.36836915040E+03  0.00000000000E+00 0.  1.
         21   -1    0    0  501  502 -0.00000000000E+00 -0.00000000000E+00 -0.20550571489E+03  0.20550571489E+03  0.00000000000E+00 0.  1.
         25    1    1    2    0    0  0.39972083157E+01 -0.62393186656E+02  0.14299273573E+03  0.19995201896E+03  0.12500000000E+03 0.  0.
         25    1    1    2    0    0  0.68309248759E+01  0.16306550820E+03 -0.24551527685E+02  0.20703815834E+03  0.12500000000E+03 0.  0.
         25    1    1    2    0    0 -0.10828133192E+02 -0.10067232154E+03  0.44422227470E+02  0.16688468799E+03  0.12500000000E+03 0.  0.
</event>
<event>
 5    0  0.5874805E-005  0.2977735E+03  0.7546771E-02  0.1086359E+00
         21   -1    0    0  502  501  0.00000000000E+00  0.00000000000E+00  0.42070732748E+03  0.42070732748E+03  0.00000000000E+00 0. -1.
         21   -1    0    0  501  502 -0.00000000000E+00 -0.00000000000E+00 -0.21076191177E+03  0.21076191177E+03  0.00000000000E+00 0. -1.
         25    1    1    2    0    0 -0.38771029104E+02  0.10819833476E+03 -0.36320826500E+02  0.17364986260E+03  0.12500000000E+03 0.  0.
         25    1    1    2    0    0  0.41749494790E+02 -0.44299859955E+02  0.28069671583E+03  0.31324294754E+03  0.12500000000E+03 0.  0.
         25    1    1    2    0    0 -0.29784656859E+01 -0.63898474804E+02 -0.34430473617E+02  0.14457642911E+03  0.12500000000E+03 0.  0.
</event>
<event>
 5    0  0.5778875E-005  0.3997351E+03  0.7546771E-02  0.1043871E+00
         21   -1    0    0  502  501  0.00000000000E+00  0.00000000000E+00  0.10105716175E+04  0.10105716175E+04  0.00000000000E+00 0. -1.
         21   -1    0    0  501  502 -0.00000000000E+00 -0.00000000000E+00 -0.15811657721E+03  0.15811657721E+03  0.00000000000E+00 0. -1.
         25    1    1    2    0    0  0.84502313013E+02 -0.58779495622E+01  0.55902152247E+02  0.16101317282E+03  0.12500000000E+03 0.  0.
         25    1    1    2    0    0 -0.13007987000E+03 -0.71547478295E+02  0.82809972563E+03  0.85053745938E+03  0.12500000000E+03 0.  0.
         25    1    1    2    0    0  0.45577556991E+02  0.77425427857E+02 -0.31546837616E+02  0.15713756248E+03  0.12500000000E+03 0.  0.
</event>
<event>
 5    0  0.5778875E-005  0.3115558E+03  0.7546771E-02  0.1079603E+00
         21   -1    0    0  502  501  0.00000000000E+00  0.00000000000E+00  0.55860833892E+02  0.55860833892E+02  0.00000000000E+00 0. -1.
         21   -1    0    0  501  502 -0.00000000000E+00 -0.00000000000E+00 -0.17376578949E+04  0.17376578949E+04  0.00000000000E+00 0. -1.
         25    1    1    2    0    0 -0.31417370595E+02  0.74922066392E+02 -0.90807389343E+03  0.92023016857E+03  0.12500000000E+03 0.  0.
         25    1    1    2    0    0  0.89906598852E+02 -0.17231288188E+03 -0.37823556819E+03  0.44324042102E+03  0.12500000000E+03 0.  0.
         25    1    1    2    0    0 -0.58489228257E+02  0.97390815491E+02 -0.39548759934E+03  0.43004813916E+03  0.12500000000E+03 0.  0.
</event>
<event>
 5    0  0.5778875E-005  0.2850306E+03  0.7546771E-02  0.1092973E+00
         21   -1    0    0  502  501  0.00000000000E+00  0.00000000000E+00  0.44137141943E+03  0.44137141943E+03  0.00000000000E+00 0.  1.
         21   -1    0    0  501  502 -0.00000000000E+00 -0.00000000000E+00 -0.18406818473E+03  0.18406818473E+03  0.00000000000E+00 0.  1.
         25    1    1    2    0    0 -0.82777732576E+02  0.15509307337E+03  0.11873623278E+03  0.24623019188E+03  0.12500000000E+03 0.  0.
         25    1    1    2    0    0  0.87812093334E+02 -0.89820205532E+02 -0.58411520953E+01  0.17730694322E+03  0.12500000000E+03 0.  0.
         25    1    1    2    0    0 -0.50343607579E+01 -0.65272867842E+02  0.14440815402E+03  0.20190246906E+03  0.12500000000E+03 0.  0.
</event>
<event>
 5    0  0.5778875E-005  0.2272204E+03  0.7546771E-02  0.1128612E+00
         21   -1    0    0  502  501  0.00000000000E+00  0.00000000000E+00  0.24135372421E+02  0.24135372421E+02  0.00000000000E+00 0. -1.
         21   -1    0    0  501  502 -0.00000000000E+00 -0.00000000000E+00 -0.21391474813E+04  0.21391474813E+04  0.00000000000E+00 0. -1.
         25    1    1    2    0    0 -0.68951268087E+02  0.91905263713E+01 -0.98593562511E+03  0.99625940397E+03  0.12500000000E+03 0.  0.
         25    1    1    2    0    0 -0.84313689383E+01 -0.38323455670E+02 -0.70921354473E+03  0.72121330220E+03  0.12500000000E+03 0.  0.
         25    1    1    2    0    0  0.77382637025E+02  0.29132929298E+02 -0.41986293906E+03  0.44581014758E+03  0.12500000000E+03 0.  0.
</event>
<event>
 5    0  0.5778875E-005  0.5430001E+03  0.7546771E-02  0.1003127E+00
         21   -1    0    0  502  501  0.00000000000E+00  0.00000000000E+00  0.13416415864E+03  0.13416415864E+03  0.00000000000E+00 0. -1.
         21   -1    0    0  501  502 -0.00000000000E+00 -0.00000000000E+00 -0.21976743717E+04  0.21976743717E+04  0.00000000000E+00 0. -1.
         25    1    1    2    0    0 -0.33598196155E+03  0.18152551629E+03 -0.11495579634E+04  0.12177618416E+04  0.12500000000E+03 0.  0.
         25    1    1    2    0    0  0.39714001236E+03 -0.21133594192E+03 -0.81978217018E+03  0.94342507721E+03  0.12500000000E+03 0.  0.
         25    1    1    2    0    0 -0.61158050804E+02  0.29810425630E+02 -0.94170079446E+02  0.17065161153E+03  0.12500000000E+03 0.  0.
</event>
<event>
 5    0  0.5778875E-005  0.2726066E+03  0.7546771E-02  0.1099797E+00
         21   -1    0    0  502  501  0.00000000000E+00  0.00000000000E+00  0.10918109157E+04  0.10918109157E+04  0.00000000000E+00 0.  1.
         21   -1    0    0  501  502 -0.00000000000E+00 -0.00000000000E+00 -0.68065223580E+02  0.68065223580E+02  0.00000000000E+00 0.  1.
         25    1    1    2    0    0 -0.38508581942E+02 -0.13959343260E+02  0.44423173829E+03  0.46329754095E+03  0.12500000000E+03 0.  0.
         25    1    1    2    0    0  0.68755915944E+02 -0.99340414966E+02  0.13480852451E+03  0.21998689121E+03  0.12500000000E+03 0.  0.
         25    1    1    2    0    0 -0.30247334001E+02  0.11329975823E+03  0.44470542933E+03  0.47659170713E+03  0.12500000000E+03 0.  0.
</event>
<event>
 5    0  0.5778875E-005  0.3499773E+03  0.7546771E-02  0.1062624E+00
         21   -1    0    0  502  501  0.00000000000E+00  0.00000000000E+00  0.15429423976E+04  0.15429423976E+04  0.00000000000E+00 0. -1.
         21   -1    0    0  501  502 -0.00000000000E+00 -0.00000000000E+00 -0.79383467490E+02  0.79383467490E+02  0.00000000000E+00 0. -1.
         25    1    1    2    0    0  0.50791452573E+02  0.26436630630E+00  0.34939739750E+03  0.37454423361E+03  0.12500000000E+03 0.  0.
         25    1    1    2    0    0  0.67680513727E+02  0.23187728952E+03  0.57250636108E+03  0.63382668200E+03  0.12500000000E+03 0.  0.
         25    1    1    2    0    0 -0.11847196630E+03 -0.23214165582E+03  0.54165517155E+03  0.61395494952E+03  0.12500000000E+03 0.  0.
</event>
<event>
 5    0  0.5778875E-005  0.2319154E+03  0.7546771E-02  0.1125299E+00
         21   -1    0    0  502  501  0.00000000000E+00  0.00000000000E+00  0.31785258201E+03  0.31785258201E+03  0.00000000000E+00 0. -1.
         21   -1    0    0  501  502 -0.00000000000E+00 -0.00000000000E+00 -0.16921286699E+03  0.16921286699E+03  0.00000000000E+00 0. -1.
         25    1    1    2    0    0 -0.40631296740E+02 -0.56871954044E+02  0.93209573577E+02  0.17087523530E+03  0.12500000000E+03 0.  0.
         25    1    1    2    0    0 -0.28971683661E+02  0.64527210048E+02 -0.33603514358E+02  0.14750361171E+03  0.12500000000E+03 0.  0.
         25    1    1    2    0    0  0.69602980401E+02 -0.76552560044E+01  0.89033655808E+02  0.16868660199E+03  0.12500000000E+03 0.  0.
</event>
<event>
 5    0  0.5778875E-005  0.2860556E+03  0.7546771E-02  0.1092427E+00
         21   -1    0    0  502  501  0.00000000000E+00  0.00000000000E+00  0.18137400596E+03  0.18137400596E+03  0.00000000000E+00 0.  1.
         21   -1    0    0  501  502 -0.00000000000E+00 -0.00000000000E+00 -0.45115508535E+03  0.45115508535E+03  0.00000000000E+00 0.  1.
         25    1    1    2    0    0 -0.28849088729E+02  0.43443609078E+02 -0.33473357977E+02  0.13951732073E+03  0.12500000000E+03 0.  0.
         25    1    1    2    0    0  0.10333671718E+03  0.12406813093E+02 -0.28634236532E+03  0.32931649869E+03  0.12500000000E+03 0.  0.
         25    1    1    2    0    0 -0.74487628455E+02 -0.55850422171E+02  0.50034643900E+02  0.16369527189E+03  0.12500000000E+03 0.  0.
</event>
<event>
 5    0  0.5778875E-005  0.2286291E+03  0.7546771E-02  0.1127608E+00
         21   -1    0    0  502  501  0.00000000000E+00  0.00000000000E+00  0.60185561858E+03  0.60185561858E+03  0.00000000000E+00 0. -1.
         21   -1    0    0  501  502 -0.00000000000E+00 -0.00000000000E+00 -0.86850193572E+02  0.86850193572E+02  0.00000000000E+00 0. -1.
         25    1    1    2    0    0  0.75777332587E+02  0.30470599909E+02  0.33951152682E+03  0.37089585929E+03  0.12500000000E+03 0.  0.
         25    1    1    2    0    0 -0.28548864835E+02 -0.24528144694E+02  0.75460737437E+02  0.15078458297E+03  0.12500000000E+03 0.  0.
         25    1    1    2    0    0 -0.47228467752E+02 -0.59424552150E+01  0.10003316075E+03  0.16702536990E+03  0.12500000000E+03 0.  0.
</event>
<event>
 5    0  0.5778875E-005  0.3320693E+03  0.7546771E-02  0.1070225E+00
         21   -1    0    0  502  501  0.00000000000E+00  0.00000000000E+00  0.10690441772E+04  0.10690441772E+04  0.00000000000E+00 0.  1.
         21   -1    0    0  501  502 -0.00000000000E+00 -0.00000000000E+00 -0.10314820790E+03  0.10314820790E+03  0.00000000000E+00 0.  1.
         25    1    1    2    0    0 -0.69949960942E+00 -0.85386367059E+02  0.15661687171E+03  0.21781911184E+03  0.12500000000E+03 0.  0.
         25    1    1    2    0    0 -0.47705141877E+02  0.73376712725E+02  0.20229915609E+02  0.15392911361E+03  0.12500000000E+03 0.  0.
         25    1    1    2    0    0  0.48404641486E+02  0.12009654334E+02  0.78904918199E+03  0.80044415965E+03  0.12500000000E+03 0.  0.
</event>
<event>
 5    0  0.5811619E-005  0.3317471E+03  0.7546771E-02  0.1070366E+00
         21   -1    0    0  502  501  0.00000000000E+00  0.00000000000E+00  0.21364822558E+03  0.21364822558E+03  0.00000000000E+00 0.  1.
         21   -1    0    0  501  502 -0.00000000000E+00 -0.00000000000E+00 -0.51512771095E+03  0.51512771095E+03  0.00000000000E+00 0.  1.
         25    1    1    2    0    0 -0.38403484512E+00 -0.13466585869E+03 -0.10163368079E+03  0.20997487005E+03  0.12500000000E+03 0.  0.
         25    1    1    2    0    0 -0.31445657791E+02 -0.10132297501E+03  0.27993818378E+02  0.16632446761E+03  0.12500000000E+03 0.  0.
         25    1    1    2    0    0  0.31829692636E+02  0.23598883370E+03 -0.22783962296E+03  0.35247659888E+03  0.12500000000E+03 0.  0.
</event>
<event>
 5    0  0.5778875E-005  0.3497160E+03  0.7546771E-02  0.1062732E+00
         21   -1    0    0  502  501  0.00000000000E+00  0.00000000000E+00  0.10255680050E+04  0.10255680050E+04  0.00000000000E+00 0. -1.
         21   -1    0    0  501  502 -0.00000000000E+00 -0.00000000000E+00 -0.11925221588E+03  0.11925221588E+03  0.00000000000E+00 0. -1.
         25    1    1    2    0    0 -0.17941147715E+03  0.28144679018E+01  0.26591734330E+03  0.34428684673E+03  0.12500000000E+03 0.  0.
         25    1    1    2    0    0 -0.44630270639E+02  0.55652567398E+02  0.46987794939E+02  0.15139987513E+03  0.12500000000E+03 0.  0.
         25    1    1    2    0    0  0.22404174779E+03 -0.58467035300E+02  0.59341065084E+03  0.64913349898E+03  0.12500000000E+03 0.  0.
</event>
<event>
 5    0  0.5778875E-005  0.2489310E+03  0.7546771E-02  0.1113982E+00
         21   -1    0    0  502  501  0.00000000000E+00  0.00000000000E+00  0.13145623521E+03  0.13145623521E+03  0.00000000000E+00 0.  1.
         21   -1    0    0  501  502 -0.00000000000E+00 -0.00000000000E+00 -0.47138616585E+03  0.47138616585E+03  0.00000000000E+00 0.  1.
         25    1    1    2    0    0 -0.24174701306E+02 -0.11493138920E+03 -0.22965614432E+03  0.28663667775E+03  0.12500000000E+03 0.  0.
         25    1    1    2    0    0  0.27233123374E+02  0.62462483603E+02 -0.15080864550E+01  0.14237443307E+03  0.12500000000E+03 0.  0.
         25    1    1    2    0    0 -0.30584220679E+01  0.52468905598E+02 -0.10876569986E+03  0.17383129024E+03  0.12500000000E+03 0.  0.
</event>
<event>
 5    0  0.5778875E-005  0.3257974E+03  0.7546771E-02  0.1073012E+00
         21   -1    0    0  502  501  0.00000000000E+00  0.00000000000E+00  0.27696587757E+03  0.27696587757E+03  0.00000000000E+00 0. -1.
         21   -1    0    0  501  502 -0.00000000000E+00 -0.00000000000E+00 -0.38323830627E+03  0.38323830627E+03  0.00000000000E+00 0. -1.
         25    1    1    2    0    0  0.16031425845E+03 -0.16994843870E+03 -0.12740165453E+03  0.29400563745E+03  0.12500000000E+03 0.  0.
         25    1    1    2    0    0 -0.93616118099E+02  0.37750760994E+02  0.54313747399E+02  0.16959976616E+03  0.12500000000E+03 0.  0.
         25    1    1    2    0    0 -0.66698140351E+02  0.13219767770E+03 -0.33184521564E+02  0.19659878023E+03  0.12500000000E+03 0.  0.
</event>
<event>
 5    0  0.5778875E-005  0.2224418E+03  0.7546771E-02  0.1132076E+00
         21   -1    0    0  502  501  0.00000000000E+00  0.00000000000E+00  0.11542200258E+03  0.11542200258E+03  0.00000000000E+00 0. -1.
         21   -1    0    0  501  502 -0.00000000000E+00 -0.00000000000E+00 -0.42869065581E+03  0.42869065581E+03  0.00000000000E+00 0. -1.
         25    1    1    2    0    0 -0.44290136791E+01 -0.19554143750E+02 -0.11006991365E+03  0.16775686749E+03  0.12500000000E+03 0.  0.
         25    1    1    2    0    0 -0.74240837294E+02  0.27044584556E+02 -0.16900662064E+03  0.22456925278E+03  0.12500000000E+03 0.  0.
         25    1    1    2    0    0  0.78669850973E+02 -0.74904408057E+01 -0.34192118939E+02  0.15178653812E+03  0.12500000000E+03 0.  0.
</event>
<event>
 5    0  0.5778875E-005  0.3983226E+03  0.7546771E-02  0.1044362E+00
         21   -1    0    0  502  501  0.00000000000E+00  0.00000000000E+00  0.12479483672E+04  0.12479483672E+04  0.00000000000E+00 0. -1.
         21   -1    0    0  501  502 -0.00000000000E+00 -0.00000000000E+00 -0.12713737133E+03  0.12713737133E+03  0.00000000000E+00 0. -1.
         25    1    1    2    0    0 -0.81581938479E+02  0.18540255849E+03  0.11494987857E+03  0.26432592752E+03  0.12500000000E+03 0.  0.
         25    1    1    2    0    0 -0.72482565035E+01  0.85964320028E+02  0.42871117581E+03  0.45481938592E+03  0.12500000000E+03 0.  0.
         25    1    1    2    0    0  0.88830194982E+02 -0.27136687851E+03  0.57714994153E+03  0.65594042512E+03  0.12500000000E+03 0.  0.
</event>
<event>
 5    0  0.5778875E-005  0.2848965E+03  0.7546771E-02  0.1093044E+00
         21   -1    0    0  502  501  0.00000000000E+00  0.00000000000E+00  0.31400556066E+03  0.31400556066E+03  0.00000000000E+00 0.  1.
         21   -1    0    0  501  502 -0.00000000000E+00 -0.00000000000E+00 -0.25848588595E+03  0.25848588595E+03  0.00000000000E+00 0.  1.
         25    1    1    2    0    0  0.98179881742E+02 -0.55134869377E+01 -0.10594116141E+03  0.19109740291E+03  0.12500000000E+03 0.  0.
         25    1    1    2    0    0 -0.80239287524E+02 -0.39495592228E+02 -0.20841103471E+02  0.15510511488E+03  0.12500000000E+03 0.  0.
         25    1    1    2    0    0 -0.17940594219E+02  0.45009079166E+02  0.18230193959E+03  0.22628892882E+03  0.12500000000E+03 0.  0.
</event>
<event>
 5    0  0.5778875E-005  0.2667989E+03  0.7546771E-02  0.1103126E+00
         21   -1    0    0  502  501  0.00000000000E+00  0.00000000000E+00  0.54539269348E+03  0.54539269348E+03  0.00000000000E+00 0. -1.
         21   -1    0    0  501  502 -0.00000000000E+00 -0.00000000000E+00 -0.13051453347E+03  0.13051453347E+03  0.00000000000E+00 0. -1.
         25    1    1    2    0    0  0.50145916389E+02  0.48611834360E+02  0.30747130899E+03  0.33917743030E+03  0.12500000000E+03 0.  0.
         25    1    1    2    0    0 -0.87965902150E+02  0.33490449560E+02  0.92451017172E+02  0.18174652879E+03  0.12500000000E+03 0.  0.
         25    1    1    2    0    0  0.37819985760E+02 -0.82102283920E+02  0.14955833845E+02  0.15498326785E+03  0.12500000000E+03 0.  0.
</event>
<event>
 5    0  0.5778875E-005  0.2420815E+03  0.7546771E-02  0.1118414E+00
         21   -1    0    0  502  501  0.00000000000E+00  0.00000000000E+00  0.24691390031E+03  0.24691390031E+03  0.00000000000E+00 0. -1.
         21   -1    0    0  501  502 -0.00000000000E+00 -0.00000000000E+00 -0.23734361998E+03  0.23734361998E+03  0.00000000000E+00 0. -1.
         25    1    1    2    0    0 -0.10747540708E+03 -0.28149022574E+01 -0.46564656085E+02  0.17132470341E+03  0.12500000000E+03 0.  0.
         25    1    1    2    0    0 -0.97160981680E+01  0.92250575936E+01  0.64436805319E+02  0.14126785243E+03  0.12500000000E+03 0.  0.
         25    1    1    2    0    0  0.11719150525E+03 -0.64101553362E+01 -0.83018689069E+01  0.17166496445E+03  0.12500000000E+03 0.  0.
</event>
<event>
 5    0  0.5778875E-005  0.2384581E+03  0.7546771E-02  0.1120824E+00
         21   -1    0    0  502  501  0.00000000000E+00  0.00000000000E+00  0.94173752268E+03  0.94173752268E+03  0.00000000000E+00 0. -1.
         21   -1    0    0  501  502 -0.00000000000E+00 -0.00000000000E+00 -0.60380177545E+02  0.60380177545E+02  0.00000000000E+00 0. -1.
         25    1    1    2    0    0  0.46045909480E+00  0.66363993912E+02  0.34835757856E+03  0.37600850290E+03  0.12500000000E+03 0.  0.
         25    1    1    2    0    0 -0.74641022470E+01 -0.10443395271E+03  0.42905166453E+03  0.45899073426E+03  0.12500000000E+03 0.  0.
         25    1    1    2    0    0  0.70036431522E+01  0.38069958797E+02  0.10394810205E+03  0.16711846307E+03  0.12500000000E+03 0.  0.
</event>
<event>
 5    0  0.5778875E-005  0.2699918E+03  0.7546771E-02  0.1101284E+00
         21   -1    0    0  502  501  0.00000000000E+00  0.00000000000E+00  0.29067683517E+03  0.29067683517E+03  0.00000000000E+00 0. -1.
         21   -1    0    0  501  502 -0.00000000000E+00 -0.00000000000E+00 -0.25077879251E+03  0.25077879251E+03  0.00000000000E+00 0. -1.
         25    1    1    2    0    0  0.11809476990E+03 -0.30414052791E+01  0.28543131345E+01  0.17201387132E+03  0.12500000000E+03 0.  0.
         25    1    1    2    0    0 -0.17373463543E+03 -0.19082216233E+02  0.71786212559E+02  0.22655267563E+03  0.12500000000E+03 0.  0.
         25    1    1    2    0    0  0.55639865529E+02  0.22123621512E+02 -0.34742483036E+02  0.14288908073E+03  0.12500000000E+03 0.  0.
</event>
<event>
 5    0  0.5778875E-005  0.2938690E+03  0.7546771E-02  0.1088346E+00
         21   -1    0    0  502  501  0.00000000000E+00  0.00000000000E+00  0.88565406401E+03  0.88565406401E+03  0.00000000000E+00 0. -1.
         21   -1    0    0  501  502 -0.00000000000E+00 -0.00000000000E+00 -0.97508683803E+02  0.97508683803E+02  0.00000000000E+00 0. -1.
         25    1    1    2    0    0 -0.45018961433E+02 -0.79474006652E+02  0.28593588659E+03  0.32515712489E+03  0.12500000000E+03 0.  0.
         25    1    1    2    0    0 -0.57993185725E+02 -0.10735175202E+03  0.24832305685E+03  0.30360656912E+03  0.12500000000E+03 0.  0.
         25    1    1    2    0    0  0.10301214716E+03  0.18682575867E+03  0.25388643677E+03  0.35439905381E+03  0.12500000000E+03 0.  0.
</event>
<event>
 5    0  0.5778875E-005  0.2394798E+03  0.7546771E-02  0.1120140E+00
         21   -1    0    0  502  501  0.00000000000E+00  0.00000000000E+00  0.22967320151E+04  0.22967320151E+04  0.00000000000E+00 0. -1.
         21   -1    0    0  501  502 -0.00000000000E+00 -0.00000000000E+00 -0.24970511455E+02  0.24970511455E+02  0.00000000000E+00 0. -1.
         25    1    1    2    0    0 -0.26442421846E+02 -0.39458715030E+02  0.43229056740E+03  0.45250008456E+03  0.12500000000E+03 0.  0.
         25    1    1    2    0    0  0.13406459035E+02  0.98051163327E+02  0.56042587617E+03  0.58266278966E+03  0.12500000000E+03 0.  0.
         25    1    1    2    0    0  0.13035962811E+02 -0.58592448297E+02  0.12790450600E+04  0.12865396523E+04  0.12500000000E+03 0.  0.
</event>
<event>
 5    0  0.5778875E-005  0.2649391E+03  0.7546771E-02  0.1104212E+00
         21   -1    0    0  502  501  0.00000000000E+00  0.00000000000E+00  0.73252047730E+03  0.73252047730E+03  0.00000000000E+00 0.  1.
         21   -1    0    0  501  502 -0.00000000000E+00 -0.00000000000E+00 -0.95823585127E+02  0.95823585127E+02  0.00000000000E+00 0.  1.
         25    1    1    2    0    0  0.32681519301E+02  0.85796052237E+02  0.31970073694E+03  0.35533449802E+03  0.12500000000E+03 0.  0.
         25    1    1    2    0    0  0.92032977154E+02 -0.53885332349E+02  0.10380147660E+03  0.19435391550E+03  0.12500000000E+03 0.  0.
         25    1    1    2    0    0 -0.12471449646E+03 -0.31910719887E+02  0.21319467863E+03  0.27865564891E+03  0.12500000000E+03 0.  0.
</event>
<event>
 5    0  0.5778875E-005  0.2719709E+03  0.7546771E-02  0.1100157E+00
         21   -1    0    0  502  501  0.00000000000E+00  0.00000000000E+00  0.14633202754E+03  0.14633202754E+03  0.00000000000E+00 0.  1.
         21   -1    0    0  501  502 -0.00000000000E+00 -0.00000000000E+00 -0.50548168935E+03  0.50548168935E+03  0.00000000000E+00 0.  1.
         25    1    1    2    0    0  0.14027569105E+03  0.18077630642E+02 -0.39747964711E+02  0.19289626987E+03  0.12500000000E+03 0.  0.
         25    1    1    2    0    0 -0.57837529731E+02 -0.71656407418E+02 -0.22691510103E+03  0.27494596495E+03  0.12500000000E+03 0.  0.
         25    1    1    2    0    0 -0.82438161319E+02  0.53578776776E+02 -0.92486596067E+02  0.18397148207E+03  0.12500000000E+03 0.  0.
</event>
<event>
 5    0  0.5778875E-005  0.2657836E+03  0.7546771E-02  0.1103717E+00
         21   -1    0    0  502  501  0.00000000000E+00  0.00000000000E+00  0.18516815784E+03  0.18516815784E+03  0.00000000000E+00 0.  1.
         21   -1    0    0  501  502 -0.00000000000E+00 -0.00000000000E+00 -0.38149595779E+03  0.38149595779E+03  0.00000000000E+00 0.  1.
         25    1    1    2    0    0 -0.20237896260E+02  0.29335014370E+02 -0.10446753599E+03  0.16675905249E+03  0.12500000000E+03 0.  0.
         25    1    1    2    0    0  0.14761171694E+03 -0.43067870266E+02 -0.97445366457E+02  0.22082721724E+03  0.12500000000E+03 0.  0.
         25    1    1    2    0    0 -0.12737382068E+03  0.13732855895E+02  0.55851024934E+01  0.17907784591E+03  0.12500000000E+03 0.  0.
</event>
<event>
 5    0  0.5778875E-005  0.2318815E+03  0.7546771E-02  0.1125322E+00
         21   -1    0    0  502  501  0.00000000000E+00  0.00000000000E+00  0.37059548418E+03  0.37059548418E+03  0.00000000000E+00 0.  1.
         21   -1    0    0  501  502 -0.00000000000E+00 -0.00000000000E+00 -0.14508817142E+03  0.14508817142E+03  0.00000000000E+00 0.  1.
         25    1    1    2    0    0 -0.58215511403E+02  0.20681361889E+02  0.94056356699E+02  0.16819144667E+03  0.12500000000E+03 0.  0.
         25    1    1    2    0    0 -0.35282544284E+02 -0.48679088589E+02  0.12818689259E+03  0.18886871374E+03  0.12500000000E+03 0.  0.
         25    1    1    2    0    0  0.93498055688E+02  0.27997726701E+02  0.32640634806E+01  0.15862349520E+03  0.12500000000E+03 0.  0.
</event>
