<event>
 5    0  0.5764392E-005  0.3291631E+03  0.7546771E-02  0.1071508E+00
         21   -1    0    0  502  501  0.00000000000E+00  0.00000000000E+00  0.65860923668E+03  0.65860923668E+03  0.00000000000E+00 0.  1.
         21   -1    0    0  501  502 -0.00000000000E+00 -0.00000000000E+00 -0.16451079235E+03  0.16451079235E+03  0.00000000000E+00 0.  1.
         25    1    1    2    0    0  0.16747713240E+02  0.16407128573E+03  0.17840835043E+03  0.27322959614E+03  0.12500000000E+03 0.  0.
         25    1    1    2    0    0  0.10319073953E+03 -0.10475623627E+03  0.31185372124E+03  0.36674233627E+03  0.12500000000E+03 0.  0.
         25    1    1    2    0    0 -0.11993845277E+03 -0.59315049457E+02  0.38363726591E+01  0.18314809663E+03  0.12500000000E+03 0.  0.
</event>
<event>
 5    0  0.5764392E-005  0.4159473E+03  0.7546771E-02  0.1038393E+00
         21   -1    0    0  502  501  0.00000000000E+00  0.00000000000E+00  0.62432676275E+02  0.62432676275E+02  0.00000000000E+00 0.  1.
         21   -1    0    0  501  502 -0.00000000000E+00 -0.00000000000E+00 -0.27711792889E+04  0.27711792889E+04  0.00000000000E+00 0.  1.
         25    1    1    2    0    0 -0.10886104443E+03 -0.25050049611E+03 -0.83096552181E+03  0.88358922808E+03  0.12500000000E+03 0.  0.
         25    1    1    2    0    0 -0.62913064992E+02  0.24616161472E+03 -0.13806039574E+04  0.14093423578E+04  0.12500000000E+03 0.  0.
         25    1    1    2    0    0  0.17177410942E+03  0.43388813868E+01 -0.49717713343E+03  0.54068037930E+03  0.12500000000E+03 0.  0.
</event>
<event>
 5    0  0.5764392E-005  0.3153267E+03  0.7546771E-02  0.1077820E+00
         21   -1    0    0  502  501  0.00000000000E+00  0.00000000000E+00  0.90986644319E+02  0.90986644319E+02  0.00000000000E+00 0.  1.
         21   -1    0    0  501  502 -0.00000000000E+00 -0.00000000000E+00 -0.10928077998E+04  0.10928077998E+04  0.00000000000E+00 0.  1.
         25    1    1    2    0    0  0.15100281603E+02 -0.45275903877E+01 -0.16401751471E+03  0.20682181391E+03  0.12500000000E+03 0.  0.
         25    1    1    2    0    0 -0.17916841003E+03 -0.76583161523E+02 -0.21511225273E+03  0.31601357732E+03  0.12500000000E+03 0.  0.
         25    1    1    2    0    0  0.16406812842E+03  0.81110751911E+02 -0.62269138808E+03  0.66095905292E+03  0.12500000000E+03 0.  0.
</event>
<event>
 5    0  0.5764392E-005  0.2399650E+03  0.7546771E-02  0.1119816E+00
         21   -1    0    0  502  501  0.00000000000E+00  0.00000000000E+00  0.23531253463E+02  0.23531253463E+02  0.00000000000E+00 0. -1.
         21   -1    0    0  501  502 -0.00000000000E+00 -0.00000000000E+00 -0.24470943157E+04  0.24470943157E+04  0.00000000000E+00 0. -1.
         25    1    1    2    0    0  0.13691453005E+02 -0.28077724307E+02 -0.69411007697E+03  0.70596714756E+03  0.12500000000E+03 0.  0.
         25    1    1    2    0    0 -0.12412316809E+03  0.48013825794E+02 -0.87364619225E+03  0.89252146056E+03  0.12500000000E+03 0.  0.
         25    1    1    2    0    0  0.11043171509E+03 -0.19936101487E+02 -0.85580679297E+03  0.87213696099E+03  0.12500000000E+03 0.  0.
</event>
<event>
 5    0  0.5764392E-005  0.2254385E+03  0.7546771E-02  0.1129892E+00
         21   -1    0    0  502  501  0.00000000000E+00  0.00000000000E+00  0.70106790007E+03  0.70106790007E+03  0.00000000000E+00 0. -1.
         21   -1    0    0  501  502 -0.00000000000E+00 -0.00000000000E+00 -0.72492988062E+02  0.72492988062E+02  0.00000000000E+00 0. -1.
         25    1    1    2    0    0  0.56695719301E+02 -0.60752169162E+02  0.11865507091E+03  0.19133545541E+03  0.12500000000E+03 0.  0.
         25    1    1    2    0    0  0.96847921342E+01  0.14188867220E+02  0.29354597585E+03  0.31951425490E+03  0.12500000000E+03 0.  0.
         25    1    1    2    0    0 -0.66380511436E+02  0.46563301943E+02  0.21637386525E+03  0.26271117781E+03  0.12500000000E+03 0.  0.
</event>
<event>
 5    0  0.5764392E-005  0.2735278E+03  0.7546771E-02  0.1099277E+00
         21   -1    0    0  502  501  0.00000000000E+00  0.00000000000E+00  0.45097262169E+03  0.45097262169E+03  0.00000000000E+00 0. -1.
         21   -1    0    0  501  502 -0.00000000000E+00 -0.00000000000E+00 -0.16590247598E+03  0.16590247598E+03  0.00000000000E+00 0. -1.
         25    1    1    2    0    0  0.66499159490E+02 -0.53952631994E+02 -0.26207737199E+02  0.15376888567E+03  0.12500000000E+03 0.  0.
         25    1    1    2    0    0 -0.81539814545E+02  0.43053586626E+02  0.34893179343E+02  0.15920077463E+03  0.12500000000E+03 0.  0.
         25    1    1    2    0    0  0.15040655054E+02  0.10899045368E+02  0.27638470357E+03  0.30390543737E+03  0.12500000000E+03 0.  0.
</event>
<event>
 5    0  0.5981387E-005  0.2705673E+03  0.7546771E-02  0.1100955E+00
         21   -1    0    0  502  501  0.00000000000E+00  0.00000000000E+00  0.97646186108E+02  0.97646186108E+02  0.00000000000E+00 0.  1.
         21   -1    0    0  501  502 -0.00000000000E+00 -0.00000000000E+00 -0.74971358112E+03  0.74971358112E+03  0.00000000000E+00 0.  1.
         25    1    1    2    0    0 -0.38864081736E+02 -0.10319167113E+03 -0.13402290083E+03  0.21388332284E+03  0.12500000000E+03 0.  0.
         25    1    1    2    0    0  0.46621464018E+02  0.15797966284E+03 -0.20169315820E+03  0.28885336218E+03  0.12500000000E+03 0.  0.
         25    1    1    2    0    0 -0.77573822820E+01 -0.54787991711E+02 -0.31635133598E+03  0.34462308221E+03  0.12500000000E+03 0.  0.
</event>
<event>
 5    0  0.5764392E-005  0.3421436E+03  0.7546771E-02  0.1065887E+00
         21   -1    0    0  502  501  0.00000000000E+00  0.00000000000E+00  0.96835011173E+03  0.96835011173E+03  0.00000000000E+00 0. -1.
         21   -1    0    0  501  502 -0.00000000000E+00 -0.00000000000E+00 -0.12088836332E+03  0.12088836332E+03  0.00000000000E+00 0. -1.
         25    1    1    2    0    0 -0.28053234548E+02 -0.21586232886E+03  0.46676981038E+03  0.52998357038E+03  0.12500000000E+03 0.  0.
         25    1    1    2    0    0  0.40703431636E+02  0.14773043881E+03  0.36544742110E+03  0.41552120221E+03  0.12500000000E+03 0.  0.
         25    1    1    2    0    0 -0.12650197088E+02  0.68131890053E+02  0.15244516935E+02  0.14373370247E+03  0.12500000000E+03 0.  0.
</event>
<event>
 5    0  0.5764392E-005  0.7166176E+03  0.7546771E-02  0.9689228E-01
         21   -1    0    0  502  501  0.00000000000E+00  0.00000000000E+00  0.91926969006E+03  0.91926969006E+03  0.00000000000E+00 0.  1.
         21   -1    0    0  501  502 -0.00000000000E+00 -0.00000000000E+00 -0.55864002930E+03  0.55864002930E+03  0.00000000000E+00 0.  1.
         25    1    1    2    0    0  0.88719115088E+02 -0.63178079523E+02  0.76803682596E+02  0.18271933881E+03  0.12500000000E+03 0.  0.
         25    1    1    2    0    0 -0.46652336841E+03  0.10781823521E+03 -0.30632635934E+03  0.58200486557E+03  0.12500000000E+03 0.  0.
         25    1    1    2    0    0  0.37780425332E+03 -0.44640155688E+02  0.59015233750E+03  0.71318551499E+03  0.12500000000E+03 0.  0.
</event>
<event>
 5    0  0.5764392E-005  0.2808175E+03  0.7546771E-02  0.1095243E+00
         21   -1    0    0  502  501  0.00000000000E+00  0.00000000000E+00  0.13147521899E+04  0.13147521899E+04  0.00000000000E+00 0.  1.
         21   -1    0    0  501  502 -0.00000000000E+00 -0.00000000000E+00 -0.59979734059E+02  0.59979734059E+02  0.00000000000E+00 0.  1.
         25    1    1    2    0    0 -0.46153934701E+02 -0.42462458483E+02  0.14407076875E+03  0.20078504047E+03  0.12500000000E+03 0.  0.
         25    1    1    2    0    0  0.11837146809E+03  0.12584592933E+03  0.64037588534E+03  0.67494835129E+03  0.12500000000E+03 0.  0.
         25    1    1    2    0    0 -0.72217533389E+02 -0.83383470845E+02  0.47032580172E+03  0.49899853217E+03  0.12500000000E+03 0.  0.
</event>
<event>
 5    0  0.5764392E-005  0.3116901E+03  0.7546771E-02  0.1079539E+00
         21   -1    0    0  502  501  0.00000000000E+00  0.00000000000E+00  0.43394902168E+03  0.43394902168E+03  0.00000000000E+00 0. -1.
         21   -1    0    0  501  502 -0.00000000000E+00 -0.00000000000E+00 -0.22387586318E+03  0.22387586318E+03  0.00000000000E+00 0. -1.
         25    1    1    2    0    0 -0.21625519788E+01  0.12421210502E+03  0.54065032068E+02  0.18434031397E+03  0.12500000000E+03 0.  0.
         25    1    1    2    0    0  0.14892267096E+03 -0.15868989514E+03  0.95292526886E+02  0.26845131854E+03  0.12500000000E+03 0.  0.
         25    1    1    2    0    0 -0.14676011899E+03  0.34477790126E+02  0.60715599552E+02  0.20503325234E+03  0.12500000000E+03 0.  0.
</event>
<event>
 5    0  0.5764392E-005  0.2991774E+03  0.7546771E-02  0.1085653E+00
         21   -1    0    0  502  501  0.00000000000E+00  0.00000000000E+00  0.12358888159E+03  0.12358888159E+03  0.00000000000E+00 0. -1.
         21   -1    0    0  501  502 -0.00000000000E+00 -0.00000000000E+00 -0.72423252004E+03  0.72423252004E+03  0.00000000000E+00 0. -1.
         25    1    1    2    0    0  0.11155534698E+03  0.82067753997E+02 -0.17319097052E+03  0.25455809544E+03  0.12500000000E+03 0.  0.
         25    1    1    2    0    0  0.37562611579E+01  0.93096521173E+02 -0.10156271877E+03  0.18606734694E+03  0.12500000000E+03 0.  0.
         25    1    1    2    0    0 -0.11531160814E+03 -0.17516427517E+03 -0.32588994916E+03  0.40719595925E+03  0.12500000000E+03 0.  0.
</event>
<event>
 5    0  0.5764392E-005  0.3902923E+03  0.7546771E-02  0.1047194E+00
         21   -1    0    0  502  501  0.00000000000E+00  0.00000000000E+00  0.32426348413E+03  0.32426348413E+03  0.00000000000E+00 0.  1.
         21   -1    0    0  501  502 -0.00000000000E+00 -0.00000000000E+00 -0.46976639813E+03  0.46976639813E+03  0.00000000000E+00 0.  1.
         25    1    1    2    0    0 -0.14478902270E+03  0.84623619023E+02 -0.89004092839E+02  0.22731420222E+03  0.12500000000E+03 0.  0.
         25    1    1    2    0    0 -0.78302022017E+02 -0.22733365016E+03 -0.30950663782E+02  0.27275398940E+03  0.12500000000E+03 0.  0.
         25    1    1    2    0    0  0.22309104471E+03  0.14271003113E+03 -0.25548157379E+02  0.29396169064E+03  0.12500000000E+03 0.  0.
</event>
<event>
 5    0  0.5764392E-005  0.2484677E+03  0.7546771E-02  0.1114277E+00
         21   -1    0    0  502  501  0.00000000000E+00  0.00000000000E+00  0.24046599779E+03  0.24046599779E+03  0.00000000000E+00 0. -1.
         21   -1    0    0  501  502 -0.00000000000E+00 -0.00000000000E+00 -0.25673567445E+03  0.25673567445E+03  0.00000000000E+00 0. -1.
         25    1    1    2    0    0  0.20213681842E+02 -0.80676495007E+02  0.12920553241E+02  0.15069582103E+03  0.12500000000E+03 0.  0.
         25    1    1    2    0    0  0.94998817908E+02  0.32791093627E+01  0.24635065486E+01  0.15705603085E+03  0.12500000000E+03 0.  0.
         25    1    1    2    0    0 -0.11521249975E+03  0.77397385644E+02 -0.31653736445E+02  0.18944982036E+03  0.12500000000E+03 0.  0.
</event>
<event>
 5    0  0.5764392E-005  0.3261270E+03  0.7546771E-02  0.1072864E+00
         21   -1    0    0  502  501  0.00000000000E+00  0.00000000000E+00  0.40719480486E+03  0.40719480486E+03  0.00000000000E+00 0.  1.
         21   -1    0    0  501  502 -0.00000000000E+00 -0.00000000000E+00 -0.26119881242E+03  0.26119881242E+03  0.00000000000E+00 0.  1.
         25    1    1    2    0    0 -0.29678034158E+02  0.71410302581E+02 -0.19406268617E+02  0.14826267328E+03  0.12500000000E+03 0.  0.
         25    1    1    2    0    0 -0.41834098282E+02  0.16608838042E+03  0.41794072756E+02  0.21611845457E+03  0.12500000000E+03 0.  0.
         25    1    1    2    0    0  0.71512132440E+02 -0.23749868300E+03  0.12360818830E+03  0.30401248943E+03  0.12500000000E+03 0.  0.
</event>
<event>
 5    0  0.6293506E-005  0.3451833E+03  0.7546771E-02  0.1064610E+00
         21   -1    0    0  502  501  0.00000000000E+00  0.00000000000E+00  0.48862643953E+03  0.48862643953E+03  0.00000000000E+00 0. -1.
         21   -1    0    0  501  502 -0.00000000000E+00 -0.00000000000E+00 -0.24384993017E+03  0.24384993017E+03  0.00000000000E+00 0. -1.
         25    1    1    2    0    0 -0.74254415817E+02  0.19276032348E+02  0.26144901587E+03  0.29977636930E+03  0.12500000000E+03 0.  0.
         25    1    1    2    0    0 -0.12398298300E+03 -0.11814925225E+02 -0.73959294435E+02  0.19132785935E+03  0.12500000000E+03 0.  0.
         25    1    1    2    0    0  0.19823739881E+03 -0.74611071226E+01  0.57286787926E+02  0.24137214106E+03  0.12500000000E+03 0.  0.
</event>
<event>
 5    0  0.5764392E-005  0.7249945E+03  0.7546771E-02  0.9675418E-01
         21   -1    0    0  502  501  0.00000000000E+00  0.00000000000E+00  0.55685406210E+03  0.55685406210E+03  0.00000000000E+00 0.  1.
         21   -1    0    0  501  502 -0.00000000000E+00 -0.00000000000E+00 -0.94390447664E+03  0.94390447664E+03  0.00000000000E+00 0.  1.
         25    1    1    2    0    0  0.28729339942E+03  0.54728114835E+03 -0.68890112548E+02  0.63436976622E+03  0.12500000000E+03 0.  0.
         25    1    1    2    0    0 -0.37052094757E+03 -0.52379330466E+03 -0.25056532726E+03  0.70003798598E+03  0.12500000000E+03 0.  0.
         25    1    1    2    0    0  0.83227548150E+02 -0.23487843685E+02 -0.67594974735E+02  0.16635078654E+03  0.12500000000E+03 0.  0.
</event>
<event>
 5    0  0.5764392E-005  0.3089227E+03  0.7546771E-02  0.1080863E+00
         21   -1    0    0  502  501  0.00000000000E+00  0.00000000000E+00  0.99789956323E+03  0.99789956323E+03  0.00000000000E+00 0.  1.
         21   -1    0    0  501  502 -0.00000000000E+00 -0.00000000000E+00 -0.95634115237E+02  0.95634115237E+02  0.00000000000E+00 0.  1.
         25    1    1    2    0    0  0.72639107685E+02  0.11225971448E+03  0.21495745590E+03  0.28233028762E+03  0.12500000000E+03 0.  0.
         25    1    1    2    0    0 -0.32769481934E+02 -0.38809221354E+02  0.31735594887E+02  0.13860787348E+03  0.12500000000E+03 0.  0.
         25    1    1    2    0    0 -0.39869625751E+02 -0.73450493130E+02  0.65557239721E+03  0.67259551736E+03  0.12500000000E+03 0.  0.
</event>
<event>
 5    0  0.5764392E-005  0.3593280E+03  0.7546771E-02  0.1058850E+00
         21   -1    0    0  502  501  0.00000000000E+00  0.00000000000E+00  0.20506079531E+03  0.20506079531E+03  0.00000000000E+00 0.  1.
         21   -1    0    0  501  502 -0.00000000000E+00 -0.00000000000E+00 -0.62965033601E+03  0.62965033601E+03  0.00000000000E+00 0.  1.
         25    1    1    2    0    0  0.16660288307E+03 -0.76729814862E+02 -0.37031810403E+03  0.43174585500E+03  0.12500000000E+03 0.  0.
         25    1    1    2    0    0  0.20078922387E+02  0.22338720300E+02 -0.10537609017E+03  0.16622665829E+03  0.12500000000E+03 0.  0.
         25    1    1    2    0    0 -0.18668180545E+03  0.54391094561E+02  0.51104653502E+02  0.23673861803E+03  0.12500000000E+03 0.  0.
</event>
<event>
 5    0  0.5764392E-005  0.2680241E+03  0.7546771E-02  0.1102416E+00
         21   -1    0    0  502  501  0.00000000000E+00  0.00000000000E+00  0.42731897166E+03  0.42731897166E+03  0.00000000000E+00 0. -1.
         21   -1    0    0  501  502 -0.00000000000E+00 -0.00000000000E+00 -0.16811070141E+03  0.16811070141E+03  0.00000000000E+00 0. -1.
         25    1    1    2    0    0  0.19752908093E+02  0.47778054974E+02  0.82954901924E+02  0.15868029389E+03  0.12500000000E+03 0.  0.
         25    1    1    2    0    0  0.48248616557E+02  0.11429358485E+03  0.36805111012E+02  0.17991822791E+03  0.12500000000E+03 0.  0.
         25    1    1    2    0    0 -0.68001524649E+02 -0.16207163983E+03  0.13944825732E+03  0.25683115126E+03  0.12500000000E+03 0.  0.
</event>
<event>
 5    0  0.5764392E-005  0.2517274E+03  0.7546771E-02  0.1112218E+00
         21   -1    0    0  502  501  0.00000000000E+00  0.00000000000E+00  0.16106461917E+03  0.16106461917E+03  0.00000000000E+00 0. -1.
         21   -1    0    0  501  502 -0.00000000000E+00 -0.00000000000E+00 -0.39342410665E+03  0.39342410665E+03  0.00000000000E+00 0. -1.
         25    1    1    2    0    0  0.33997132459E+02 -0.64118048694E+02 -0.88048161749E+02  0.16924658924E+03  0.12500000000E+03 0.  0.
         25    1    1    2    0    0 -0.62539523068E+02  0.23239461759E+02  0.48804696728E+02  0.14986047828E+03  0.12500000000E+03 0.  0.
         25    1    1    2    0    0  0.28542390609E+02  0.40878586935E+02 -0.19311602245E+03  0.23538165829E+03  0.12500000000E+03 0.  0.
</event>
<event>
 5    0  0.5764392E-005  0.2222263E+03  0.7546771E-02  0.1132234E+00
         21   -1    0    0  502  501  0.00000000000E+00  0.00000000000E+00  0.86986203009E+02  0.86986203009E+02  0.00000000000E+00 0. -1.
         21   -1    0    0  501  502 -0.00000000000E+00 -0.00000000000E+00 -0.56772830612E+03  0.56772830612E+03  0.00000000000E+00 0. -1.
         25    1    1    2    0    0 -0.36814685114E+02 -0.79943668369E+02 -0.13950488444E+03  0.20696116528E+03  0.12500000000E+03 0.  0.
         25    1    1    2    0    0  0.21094827984E+02  0.64636072079E+02 -0.26197122658E+03  0.29812201720E+03  0.12500000000E+03 0.  0.
         25    1    1    2    0    0  0.15719857130E+02  0.15307596290E+02 -0.79265992089E+02  0.14963132665E+03  0.12500000000E+03 0.  0.
</event>
<event>
 5    0  0.5764392E-005  0.3165731E+03  0.7546771E-02  0.1077237E+00
         21   -1    0    0  502  501  0.00000000000E+00  0.00000000000E+00  0.73506697969E+03  0.73506697969E+03  0.00000000000E+00 0. -1.
         21   -1    0    0  501  502 -0.00000000000E+00 -0.00000000000E+00 -0.13633933905E+03  0.13633933905E+03  0.00000000000E+00 0. -1.
         25    1    1    2    0    0  0.24359222140E+01  0.50308335668E+02  0.52481451547E+02  0.14462422035E+03  0.12500000000E+03 0.  0.
         25    1    1    2    0    0  0.17779614982E+03  0.32519678836E+02  0.38137856952E+03  0.44016316712E+03  0.12500000000E+03 0.  0.
         25    1    1    2    0    0 -0.18023207203E+03 -0.82828014504E+02  0.16486761957E+03  0.28661893126E+03  0.12500000000E+03 0.  0.
</event>
<event>
 5    0  0.5764392E-005  0.3050158E+03  0.7546771E-02  0.1082760E+00
         21   -1    0    0  502  501  0.00000000000E+00  0.00000000000E+00  0.32100626293E+03  0.32100626293E+03  0.00000000000E+00 0.  1.
         21   -1    0    0  501  502 -0.00000000000E+00 -0.00000000000E+00 -0.28982185537E+03  0.28982185537E+03  0.00000000000E+00 0.  1.
         25    1    1    2    0    0 -0.78131816111E+02 -0.21502190769E+02  0.39449528681E+02  0.15410447823E+03  0.12500000000E+03 0.  0.
         25    1    1    2    0    0 -0.11134152898E+03  0.10189275582E+03 -0.70056963959E+02  0.20811546786E+03  0.12500000000E+03 0.  0.
         25    1    1    2    0    0  0.18947334509E+03 -0.80390565046E+02  0.61791842838E+02  0.24860817221E+03  0.12500000000E+03 0.  0.
</event>
<event>
 5    0  0.5764392E-005  0.2728657E+03  0.7546771E-02  0.1099651E+00
         21   -1    0    0  502  501  0.00000000000E+00  0.00000000000E+00  0.14065893472E+03  0.14065893472E+03  0.00000000000E+00 0.  1.
         21   -1    0    0  501  502 -0.00000000000E+00 -0.00000000000E+00 -0.52933513058E+03  0.52933513058E+03  0.00000000000E+00 0.  1.
         25    1    1    2    0    0 -0.57578767051E+02 -0.25562041778E+02 -0.16175150902E+03  0.21390952075E+03  0.12500000000E+03 0.  0.
         25    1    1    2    0    0 -0.63637938327E+02  0.13104721298E+03 -0.10545389695E+03  0.21901754178E+03  0.12500000000E+03 0.  0.
         25    1    1    2    0    0  0.12121670538E+03 -0.10548517121E+03 -0.12147078989E+03  0.23706700277E+03  0.12500000000E+03 0.  0.
</event>
<event>
 5    0  0.5764392E-005  0.2620900E+03  0.7546771E-02  0.1105894E+00
         21   -1    0    0  502  501  0.00000000000E+00  0.00000000000E+00  0.13784585040E+04  0.13784585040E+04  0.00000000000E+00 0.  1.
         21   -1    0    0  501  502 -0.00000000000E+00 -0.00000000000E+00 -0.49831879513E+02  0.49831879513E+02  0.00000000000E+00 0.  1.
         25    1    1    2    0    0 -0.10698948095E+01 -0.66044883889E+02  0.22311711236E+03  0.26413882181E+03  0.12500000000E+03 0.  0.
         25    1    1    2    0    0 -0.95569555664E+02  0.13849724383E+01  0.28011112807E+03  0.32128290056E+03  0.12500000000E+03 0.  0.
         25    1    1    2    0    0  0.96639450473E+02  0.64659911450E+02  0.82539838408E+03  0.84286866117E+03  0.12500000000E+03 0.  0.
</event>
<event>
 5    0  0.5764392E-005  0.4081274E+03  0.7546771E-02  0.1041001E+00
         21   -1    0    0  502  501  0.00000000000E+00  0.00000000000E+00  0.22023310180E+03  0.22023310180E+03  0.00000000000E+00 0.  1.
         21   -1    0    0  501  502 -0.00000000000E+00 -0.00000000000E+00 -0.75632588987E+03  0.75632588987E+03  0.00000000000E+00 0.  1.
         25    1    1    2    0    0 -0.17914176105E+02  0.92811540678E+02 -0.30646823190E+03  0.34421312722E+03  0.12500000000E+03 0.  0.
         25    1    1    2    0    0  0.15075422913E+03  0.95419075858E+02 -0.29064721503E+03  0.36322505592E+03  0.12500000000E+03 0.  0.
         25    1    1    2    0    0 -0.13284005303E+03 -0.18823061654E+03  0.61022658868E+02  0.26912080853E+03  0.12500000000E+03 0.  0.
</event>
<event>
 5    0  0.5764392E-005  0.3766835E+03  0.7546771E-02  0.1052166E+00
         21   -1    0    0  502  501  0.00000000000E+00  0.00000000000E+00  0.44147106594E+03  0.44147106594E+03  0.00000000000E+00 0. -1.
         21   -1    0    0  501  502 -0.00000000000E+00 -0.00000000000E+00 -0.32140375776E+03  0.32140375776E+03  0.00000000000E+00 0. -1.
         25    1    1    2    0    0  0.13914438877E+03 -0.12171381167E+03  0.60583090554E+02  0.23123737531E+03  0.12500000000E+03 0.  0.
         25    1    1    2    0    0 -0.28865324521E+03  0.85874056960E+02  0.68895771951E+02  0.33326667553E+03  0.12500000000E+03 0.  0.
         25    1    1    2    0    0  0.14950885643E+03  0.35839754710E+02 -0.94115543191E+01  0.19837077286E+03  0.12500000000E+03 0.  0.
</event>
<event>
 5    0  0.5764392E-005  0.2322005E+03  0.7546771E-02  0.1125100E+00
         21   -1    0    0  502  501  0.00000000000E+00  0.00000000000E+00  0.13972657021E+03  0.13972657021E+03  0.00000000000E+00 0.  1.
         21   -1    0    0  501  502 -0.00000000000E+00 -0.00000000000E+00 -0.38587569146E+03  0.38587569146E+03  0.00000000000E+00 0.  1.
         25    1    1    2    0    0  0.73243562127E+02  0.42137303334E+02 -0.75071116482E+02  0.16852550031E+03  0.12500000000E+03 0.  0.
         25    1    1    2    0    0 -0.86685192487E+02 -0.13044177974E+02 -0.13306076495E+02  0.15325313976E+03  0.12500000000E+03 0.  0.
         25    1    1    2    0    0  0.13441630360E+02 -0.29093125360E+02 -0.15777192827E+03  0.20382362160E+03  0.12500000000E+03 0.  0.
</event>
<event>
 5    0  0.5764392E-005  0.3438227E+03  0.7546771E-02  0.1065179E+00
         21   -1    0    0  502  501  0.00000000000E+00  0.00000000000E+00  0.16068130546E+03  0.16068130546E+03  0.00000000000E+00 0.  1.
         21   -1    0    0  501  502 -0.00000000000E+00 -0.00000000000E+00 -0.73570520945E+03  0.73570520945E+03  0.00000000000E+00 0.  1.
         25    1    1    2    0    0 -0.32909526686E+02 -0.11908515382E+02 -0.21842312462E+03  0.25408366940E+03  0.12500000000E+03 0.  0.
         25    1    1    2    0    0  0.79368692377E+01  0.22431150758E+03 -0.28658217886E+03  0.38488048998E+03  0.12500000000E+03 0.  0.
         25    1    1    2    0    0  0.24972657448E+02 -0.21240299220E+03 -0.70018600505E+02  0.25742235554E+03  0.12500000000E+03 0.  0.
</event>
<event>
 5    0  0.5764392E-005  0.2329595E+03  0.7546771E-02  0.1124574E+00
         21   -1    0    0  502  501  0.00000000000E+00  0.00000000000E+00  0.19262296277E+03  0.19262296277E+03  0.00000000000E+00 0.  1.
         21   -1    0    0  501  502 -0.00000000000E+00 -0.00000000000E+00 -0.28174281964E+03  0.28174281964E+03  0.00000000000E+00 0.  1.
         25    1    1    2    0    0  0.83434142588E+01  0.65292691377E+02 -0.92986218797E+02  0.16912771800E+03  0.12500000000E+03 0.  0.
         25    1    1    2    0    0 -0.21449442525E+02 -0.52537463446E+01  0.76441665185E+02  0.14817560059E+03  0.12500000000E+03 0.  0.
         25    1    1    2    0    0  0.13106028266E+02 -0.60038945032E+02 -0.72575303255E+02  0.15706246382E+03  0.12500000000E+03 0.  0.
</event>
<event>
 5    0  0.5764392E-005  0.2816208E+03  0.7546771E-02  0.1094807E+00
         21   -1    0    0  502  501  0.00000000000E+00  0.00000000000E+00  0.13671793925E+04  0.13671793925E+04  0.00000000000E+00 0.  1.
         21   -1    0    0  501  502 -0.00000000000E+00 -0.00000000000E+00 -0.58010164972E+02  0.58010164972E+02  0.00000000000E+00 0.  1.
         25    1    1    2    0    0  0.63455751356E+02  0.11228927988E+03  0.81792148483E+03  0.83741033556E+03  0.12500000000E+03 0.  0.
         25    1    1    2    0    0  0.16424675074E+02  0.13302134215E+02  0.16589382815E+03  0.20878811974E+03  0.12500000000E+03 0.  0.
         25    1    1    2    0    0 -0.79880426430E+02 -0.12559141409E+03  0.32535391459E+03  0.37899110222E+03  0.12500000000E+03 0.  0.
</event>
<event>
 5    0  0.5764392E-005  0.3148330E+03  0.7546771E-02  0.1078052E+00
         21   -1    0    0  502  501  0.00000000000E+00  0.00000000000E+00  0.27360628786E+03  0.27360628786E+03  0.00000000000E+00 0. -1.
         21   -1    0    0  501  502 -0.00000000000E+00 -0.00000000000E+00 -0.36227164960E+03  0.36227164960E+03  0.00000000000E+00 0. -1.
         25    1    1    2    0    0 -0.54210505206E+02 -0.17512426130E+03  0.29955698404E+01  0.22190371608E+03  0.12500000000E+03 0.  0.
         25    1    1    2    0    0  0.51641568223E+02  0.64175331932E+02  0.83862853885E+02  0.17159050982E+03  0.12500000000E+03 0.  0.
         25    1    1    2    0    0  0.25689369831E+01  0.11094892937E+03 -0.17552378547E+03  0.24238371156E+03  0.12500000000E+03 0.  0.
</event>
<event>
 5    0  0.5764392E-005  0.3607251E+03  0.7546771E-02  0.1058297E+00
         21   -1    0    0  502  501  0.00000000000E+00  0.00000000000E+00  0.44101538534E+03  0.44101538534E+03  0.00000000000E+00 0. -1.
         21   -1    0    0  501  502 -0.00000000000E+00 -0.00000000000E+00 -0.29505227380E+03  0.29505227380E+03  0.00000000000E+00 0. -1.
         25    1    1    2    0    0  0.15998151020E+03 -0.94100202871E+02 -0.16070245561E+03  0.27549811437E+03  0.12500000000E+03 0.  0.
         25    1    1    2    0    0 -0.96498364549E+02  0.34413554141E+02  0.63582798146E+02  0.17367786068E+03  0.12500000000E+03 0.  0.
         25    1    1    2    0    0 -0.63483145650E+02  0.59686648729E+02  0.24308276900E+03  0.28689168410E+03  0.12500000000E+03 0.  0.
</event>
<event>
 5    0  0.5764392E-005  0.4573319E+03  0.7546771E-02  0.1025558E+00
         21   -1    0    0  502  501  0.00000000000E+00  0.00000000000E+00  0.47561218042E+03  0.47561218042E+03  0.00000000000E+00 0.  1.
         21   -1    0    0  501  502 -0.00000000000E+00 -0.00000000000E+00 -0.43975425979E+03  0.43975425979E+03  0.00000000000E+00 0.  1.
         25    1    1    2    0    0  0.17414666299E+02 -0.14480793159E+03  0.17952372625E+03  0.26291895318E+03  0.12500000000E+03 0.  0.
         25    1    1    2    0    0  0.13890261046E+03 -0.15085268601E+03 -0.17031239163E+03  0.29441769446E+03  0.12500000000E+03 0.  0.
         25    1    1    2    0    0 -0.15631727676E+03  0.29566061761E+03  0.26646586006E+02  0.35802979256E+03  0.12500000000E+03 0.  0.
</event>
<event>
 5    0  0.5764392E-005  0.3335343E+03  0.7546771E-02  0.1069584E+00
         21   -1    0    0  502  501  0.00000000000E+00  0.00000000000E+00  0.33070759210E+03  0.33070759210E+03  0.00000000000E+00 0.  1.
         21   -1    0    0  501  502 -0.00000000000E+00 -0.00000000000E+00 -0.33638521882E+03  0.33638521882E+03  0.00000000000E+00 0.  1.
         25    1    1    2    0    0 -0.19955192631E+02  0.71466136748E+02  0.11134067281E+03  0.18310478922E+03  0.12500000000E+03 0.  0.
         25    1    1    2    0    0  0.96860710895E+02 -0.19363929350E+03 -0.14800285414E+03  0.29053058038E+03  0.12500000000E+03 0.  0.
         25    1    1    2    0    0 -0.76905518264E+02  0.12217315676E+03  0.30984554614E+02  0.19345744130E+03  0.12500000000E+03 0.  0.
</event>
<event>
 5    0  0.5764392E-005  0.3117850E+03  0.7546771E-02  0.1079493E+00
         21   -1    0    0  502  501  0.00000000000E+00  0.00000000000E+00  0.54613869357E+03  0.54613869357E+03  0.00000000000E+00 0. -1.
         21   -1    0    0  501  502 -0.00000000000E+00 -0.00000000000E+00 -0.17799492203E+03  0.17799492203E+03  0.00000000000E+00 0. -1.
         25    1    1    2    0    0 -0.15780861909E+03 -0.38000459509E+02  0.32937530759E+02  0.20750295447E+03  0.12500000000E+03 0.  0.
         25    1    1    2    0    0  0.18302801052E+03 -0.62778617521E+02  0.18785471025E+03  0.29724535256E+03  0.12500000000E+03 0.  0.
         25    1    1    2    0    0 -0.25219391426E+02  0.10077907703E+03  0.14735153053E+03  0.21938530858E+03  0.12500000000E+03 0.  0.
</event>
<event>
 5    0  0.5764392E-005  0.3184786E+03  0.7546771E-02  0.1076352E+00
         21   -1    0    0  502  501  0.00000000000E+00  0.00000000000E+00  0.56813695478E+03  0.56813695478E+03  0.00000000000E+00 0. -1.
         21   -1    0    0  501  502 -0.00000000000E+00 -0.00000000000E+00 -0.17852844802E+03  0.17852844802E+03  0.00000000000E+00 0. -1.
         25    1    1    2    0    0  0.41141767019E+02 -0.72434469652E+02  0.59603665120E+02  0.16160753164E+03  0.12500000000E+03 0.  0.
         25    1    1    2    0    0  0.16022505665E+03 -0.57745416160E+02  0.12250616227E+03  0.24421171483E+03  0.12500000000E+03 0.  0.
         25    1    1    2    0    0 -0.20136682367E+03  0.13017988581E+03  0.20749867938E+03  0.34084615633E+03  0.12500000000E+03 0.  0.
</event>
<event>
 5    0  0.5764392E-005  0.2832249E+03  0.7546771E-02  0.1093941E+00
         21   -1    0    0  502  501  0.00000000000E+00  0.00000000000E+00  0.89645274479E+02  0.89645274479E+02  0.00000000000E+00 0. -1.
         21   -1    0    0  501  502 -0.00000000000E+00 -0.00000000000E+00 -0.89481937950E+03  0.89481937950E+03  0.00000000000E+00 0. -1.
         25    1    1    2    0    0  0.40853965459E+02 -0.43009867341E-01 -0.65939979673E+02  0.14711264141E+03  0.12500000000E+03 0.  0.
         25    1    1    2    0    0  0.18112179436E+01 -0.39829883641E+02 -0.67048893568E+03  0.68320576184E+03  0.12500000000E+03 0.  0.
         25    1    1    2    0    0 -0.42665183402E+02  0.39872893509E+02 -0.68745189670E+02  0.15414625073E+03  0.12500000000E+03 0.  0.
</event>
<event>
 5    0  0.5764392E-005  0.4107815E+03  0.7546771E-02  0.1040109E+00
         21   -1    0    0  502  501  0.00000000000E+00  0.00000000000E+00  0.22417571768E+04  0.22417571768E+04  0.00000000000E+00 0.  1.
         21   -1    0    0  501  502 -0.00000000000E+00 -0.00000000000E+00 -0.75271957749E+02  0.75271957749E+02  0.00000000000E+00 0.  1.
         25    1    1    2    0    0 -0.10307255386E+03  0.21587576215E+03  0.50655400058E+03  0.57397582836E+03  0.12500000000E+03 0.  0.
         25    1    1    2    0    0 -0.11420563096E+02 -0.22113516864E+03  0.41558408356E+03  0.48720254779E+03  0.12500000000E+03 0.  0.
         25    1    1    2    0    0  0.11449311696E+03  0.52594064842E+01  0.12443471349E+04  0.12558507584E+04  0.12500000000E+03 0.  0.
</event>
<event>
 5    0  0.5764392E-005  0.3731875E+03  0.7546771E-02  0.1053481E+00
         21   -1    0    0  502  501  0.00000000000E+00  0.00000000000E+00  0.96201325088E+03  0.96201325088E+03  0.00000000000E+00 0. -1.
         21   -1    0    0  501  502 -0.00000000000E+00 -0.00000000000E+00 -0.14476814644E+03  0.14476814644E+03  0.00000000000E+00 0. -1.
         25    1    1    2    0    0 -0.12841775894E+02 -0.73207302170E+02  0.30845421988E+02  0.14866290848E+03  0.12500000000E+03 0.  0.
         25    1    1    2    0    0 -0.11700680316E+03 -0.67493834254E+02  0.55409012114E+02  0.19220085398E+03  0.12500000000E+03 0.  0.
         25    1    1    2    0    0  0.12984857905E+03  0.14070113642E+03  0.73099067034E+03  0.76591763486E+03  0.12500000000E+03 0.  0.
</event>
<event>
 5    0  0.5764392E-005  0.4406120E+03  0.7546771E-02  0.1030559E+00
         21   -1    0    0  502  501  0.00000000000E+00  0.00000000000E+00  0.13563373053E+04  0.13563373053E+04  0.00000000000E+00 0.  1.
         21   -1    0    0  501  502 -0.00000000000E+00 -0.00000000000E+00 -0.14313470431E+03  0.14313470431E+03  0.00000000000E+00 0. -1.
         25    1    1    2    0    0 -0.12911093272E+03 -0.66293518188E+02 -0.18715557294E+02  0.19245710064E+03  0.12500000000E+03 0.  0.
         25    1    1    2    0    0  0.13268444909E+03  0.66092761336E+02  0.11276423053E+04  0.11441921101E+04  0.12500000000E+03 0.  0.
         25    1    1    2    0    0 -0.35735163705E+01  0.20075685266E+00  0.10427585307E+03  0.16282279894E+03  0.12500000000E+03 0.  0.
</event>
<event>
 5    0  0.5764392E-005  0.3626406E+03  0.7546771E-02  0.1057543E+00
         21   -1    0    0  502  501  0.00000000000E+00  0.00000000000E+00  0.77811778732E+02  0.77811778732E+02  0.00000000000E+00 0.  1.
         21   -1    0    0  501  502 -0.00000000000E+00 -0.00000000000E+00 -0.16900810535E+04  0.16900810535E+04  0.00000000000E+00 0.  1.
         25    1    1    2    0    0  0.72253727943E+02 -0.11528751419E+03 -0.13739026402E+03  0.23024529697E+03  0.12500000000E+03 0.  0.
         25    1    1    2    0    0 -0.18436333622E+03 -0.33502718237E+01 -0.63395555234E+03  0.67195662539E+03  0.12500000000E+03 0.  0.
         25    1    1    2    0    0  0.11210960828E+03  0.11863778601E+03 -0.84092345844E+03  0.86569090991E+03  0.12500000000E+03 0.  0.
</event>
<event>
 5    0  0.5764392E-005  0.3193151E+03  0.7546771E-02  0.1075965E+00
         21   -1    0    0  502  501  0.00000000000E+00  0.00000000000E+00  0.12391705123E+04  0.12391705123E+04  0.00000000000E+00 0. -1.
         21   -1    0    0  501  502 -0.00000000000E+00 -0.00000000000E+00 -0.82282590824E+02  0.82282590824E+02  0.00000000000E+00 0. -1.
         25    1    1    2    0    0 -0.12125342511E+03  0.25844693288E+02  0.54695711935E+03  0.57459327501E+03  0.12500000000E+03 0.  0.
         25    1    1    2    0    0  0.43987301430E+02 -0.16819870179E+03  0.40007731924E+03  0.45377587788E+03  0.12500000000E+03 0.  0.
         25    1    1    2    0    0  0.77266123679E+02  0.14235400850E+03  0.20985348284E+03  0.29308395020E+03  0.12500000000E+03 0.  0.
</event>
<event>
 5    0  0.5764392E-005  0.2388195E+03  0.7546771E-02  0.1120582E+00
         21   -1    0    0  502  501  0.00000000000E+00  0.00000000000E+00  0.13056155641E+03  0.13056155641E+03  0.00000000000E+00 0. -1.
         21   -1    0    0  501  502 -0.00000000000E+00 -0.00000000000E+00 -0.43684174104E+03  0.43684174104E+03  0.00000000000E+00 0. -1.
         25    1    1    2    0    0 -0.39829293528E+02 -0.47620809448E+02 -0.80982448781E+01  0.13980234506E+03  0.12500000000E+03 0.  0.
         25    1    1    2    0    0  0.40530801453E+02  0.39660396021E+02 -0.43844819811E+02  0.14409393153E+03  0.12500000000E+03 0.  0.
         25    1    1    2    0    0 -0.70150792557E+00  0.79604134275E+01 -0.25433711994E+03  0.28350702085E+03  0.12500000000E+03 0.  0.
</event>
<event>
 5    0  0.5764392E-005  0.3375265E+03  0.7546771E-02  0.1067854E+00
         21   -1    0    0  502  501  0.00000000000E+00  0.00000000000E+00  0.20826911826E+03  0.20826911826E+03  0.00000000000E+00 0.  1.
         21   -1    0    0  501  502 -0.00000000000E+00 -0.00000000000E+00 -0.54700433110E+03  0.54700433110E+03  0.00000000000E+00 0.  1.
         25    1    1    2    0    0 -0.40772995492E+02 -0.22351734023E+03  0.15139866151E+02  0.25976268803E+03  0.12500000000E+03 0.  0.
         25    1    1    2    0    0 -0.17951058989E+02  0.93063885778E+02 -0.16008091139E+03  0.22412948388E+03  0.12500000000E+03 0.  0.
         25    1    1    2    0    0  0.58724054480E+02  0.13045345445E+03 -0.19379416760E+03  0.27138127745E+03  0.12500000000E+03 0.  0.
</event>
<event>
 5    0  0.5937652E-005  0.3243182E+03  0.7546771E-02  0.1073679E+00
         21   -1    0    0  502  501  0.00000000000E+00  0.00000000000E+00  0.26241124248E+03  0.26241124248E+03  0.00000000000E+00 0.  1.
         21   -1    0    0  501  502 -0.00000000000E+00 -0.00000000000E+00 -0.40082992421E+03  0.40082992421E+03  0.00000000000E+00 0.  1.
         25    1    1    2    0    0  0.15905459048E+03 -0.99057076418E+02  0.40110447980E+02  0.22878923746E+03  0.12500000000E+03 0.  0.
         25    1    1    2    0    0 -0.16147785737E+03  0.37606625327E+02  0.45803746811E+00  0.20764047411E+03  0.12500000000E+03 0.  0.
         25    1    1    2    0    0  0.24232668866E+01  0.61450451091E+02 -0.17898716717E+03  0.22681145512E+03  0.12500000000E+03 0.  0.
</event>
<event>
 5    0  0.5764392E-005  0.2939956E+03  0.7546771E-02  0.1088281E+00
         21   -1    0    0  502  501  0.00000000000E+00  0.00000000000E+00  0.12722298523E+03  0.12722298523E+03  0.00000000000E+00 0. -1.
         21   -1    0    0  501  502 -0.00000000000E+00 -0.00000000000E+00 -0.67938515764E+03  0.67938515764E+03  0.00000000000E+00 0. -1.
         25    1    1    2    0    0 -0.46212737444E+02 -0.27692126969E+02 -0.99373027277E+02  0.16853032234E+03  0.12500000000E+03 0.  0.
         25    1    1    2    0    0  0.94313602813E+02  0.16909916246E+03 -0.34664044890E+03  0.41626215686E+03  0.12500000000E+03 0.  0.
         25    1    1    2    0    0 -0.48100865369E+02 -0.14140703549E+03 -0.10614869624E+03  0.22181566367E+03  0.12500000000E+03 0.  0.
</event>
<event>
 5    0  0.5764392E-005  0.2270245E+03  0.7546771E-02  0.1128752E+00
         21   -1    0    0  502  501  0.00000000000E+00  0.00000000000E+00  0.66922848125E+02  0.66922848125E+02  0.00000000000E+00 0. -1.
         21   -1    0    0  501  502 -0.00000000000E+00 -0.00000000000E+00 -0.77014239484E+03  0.77014239484E+03  0.00000000000E+00 0. -1.
         25    1    1    2    0    0  0.31824736064E+02  0.69817704981E+02 -0.22310338567E+03  0.26699709072E+03  0.12500000000E+03 0.  0.
         25    1    1    2    0    0 -0.31884306204E+02  0.15008689171E+02 -0.10959491769E+03  0.16993503381E+03  0.12500000000E+03 0.  0.
         25    1    1    2    0    0  0.59570139739E-01 -0.84826394152E+02 -0.37052124335E+03  0.40013311843E+03  0.12500000000E+03 0.  0.
</event>
<event>
 5    0  0.5768266E-005  0.2653692E+03  0.7546771E-02  0.1103960E+00
         21   -1    0    0  502  501  0.00000000000E+00  0.00000000000E+00  0.44343775570E+03  0.44343775570E+03  0.00000000000E+00 0. -1.
         21   -1    0    0  501  502 -0.00000000000E+00 -0.00000000000E+00 -0.15880652503E+03  0.15880652503E+03  0.00000000000E+00 0. -1.
         25    1    1    2    0    0  0.44044227258E+01 -0.41532917526E+02  0.15202720910E+02  0.13266689452E+03  0.12500000000E+03 0.  0.
         25    1    1    2    0    0 -0.26928945802E+02  0.61757315681E+02  0.30474378090E+03  0.33620366767E+03  0.12500000000E+03 0.  0.
         25    1    1    2    0    0  0.22524523076E+02 -0.20224398155E+02 -0.35315271132E+02  0.13337371853E+03  0.12500000000E+03 0.  0.
</event>
<event>
 5    0  0.5764392E-005  0.3034941E+03  0.7546771E-02  0.1083507E+00
         21   -1    0    0  502  501  0.00000000000E+00  0.00000000000E+00  0.50273077174E+03  0.50273077174E+03  0.00000000000E+00 0.  1.
         21   -1    0    0  501  502 -0.00000000000E+00 -0.00000000000E+00 -0.18321673350E+03  0.18321673350E+03  0.00000000000E+00 0.  1.
         25    1    1    2    0    0  0.68607629336E+01  0.49455868968E+02  0.66397440990E+02  0.15008855124E+03  0.12500000000E+03 0.  0.
         25    1    1    2    0    0  0.44760334926E+02  0.14108647858E+03  0.23050590061E+03  0.30110936922E+03  0.12500000000E+03 0.  0.
         25    1    1    2    0    0 -0.51621097860E+02 -0.19054234754E+03  0.22610696649E+02  0.23474958478E+03  0.12500000000E+03 0.  0.
</event>
<event>
 5    0  0.5764392E-005  0.3015254E+03  0.7546771E-02  0.1084481E+00
         21   -1    0    0  502  501  0.00000000000E+00  0.00000000000E+00  0.44907290839E+02  0.44907290839E+02  0.00000000000E+00 0.  1.
         21   -1    0    0  501  502 -0.00000000000E+00 -0.00000000000E+00 -0.20245617624E+04  0.20245617624E+04  0.00000000000E+00 0.  1.
         25    1    1    2    0    0 -0.64895146248E+02  0.51100984776E+01 -0.21406327187E+03  0.25629197701E+03  0.12500000000E+03 0.  0.
         25    1    1    2    0    0  0.10254590991E+03  0.48563218989E+02 -0.15244018674E+04  0.15337209991E+04  0.12500000000E+03 0.  0.
         25    1    1    2    0    0 -0.37650763665E+02 -0.53673317467E+02 -0.24118933228E+03  0.27945607708E+03  0.12500000000E+03 0.  0.
</event>
<event>
 5    0  0.5764392E-005  0.2713871E+03  0.7546771E-02  0.1100488E+00
         21   -1    0    0  502  501  0.00000000000E+00  0.00000000000E+00  0.89786187348E+02  0.89786187348E+02  0.00000000000E+00 0. -1.
         21   -1    0    0  501  502 -0.00000000000E+00 -0.00000000000E+00 -0.82029266532E+03  0.82029266532E+03  0.00000000000E+00 0. -1.
         25    1    1    2    0    0 -0.68629502623E+02 -0.82111473917E+02 -0.15473003250E+03  0.22587316294E+03  0.12500000000E+03 0.  0.
         25    1    1    2    0    0 -0.24659132061E+02  0.45010403616E+02 -0.47728422777E+03  0.49604359013E+03  0.12500000000E+03 0.  0.
         25    1    1    2    0    0  0.93288634685E+02  0.37101070301E+02 -0.98492217700E+02  0.18816209960E+03  0.12500000000E+03 0.  0.
</event>
<event>
 5    0  0.5764392E-005  0.2229736E+03  0.7546771E-02  0.1131685E+00
         21   -1    0    0  502  501  0.00000000000E+00  0.00000000000E+00  0.50980351201E+02  0.50980351201E+02  0.00000000000E+00 0.  1.
         21   -1    0    0  501  502 -0.00000000000E+00 -0.00000000000E+00 -0.97522308875E+03  0.97522308875E+03  0.00000000000E+00 0.  1.
         25    1    1    2    0    0 -0.55014240355E+02  0.70903683792E+02 -0.35322115477E+03  0.38528441857E+03  0.12500000000E+03 0.  0.
         25    1    1    2    0    0  0.76004849172E+02 -0.68006182958E+02 -0.36417979065E+03  0.39831331629E+03  0.12500000000E+03 0.  0.
         25    1    1    2    0    0 -0.20990608818E+02 -0.28975008339E+01 -0.20684179213E+03  0.24260570509E+03  0.12500000000E+03 0.  0.
</event>
<event>
 5    0  0.5764392E-005  0.4097484E+03  0.7546771E-02  0.1040455E+00
         21   -1    0    0  502  501  0.00000000000E+00  0.00000000000E+00  0.95101704091E+03  0.95101704091E+03  0.00000000000E+00 0.  1.
         21   -1    0    0  501  502 -0.00000000000E+00 -0.00000000000E+00 -0.17654129311E+03  0.17654129311E+03  0.00000000000E+00 0.  1.
         25    1    1    2    0    0  0.87627627481E+02  0.89972459087E+02  0.19703398745E+03  0.26499252197E+03  0.12500000000E+03 0.  0.
         25    1    1    2    0    0 -0.30796402719E+03 -0.17999782389E+02  0.47495430030E+03  0.57997622501E+03  0.12500000000E+03 0.  0.
         25    1    1    2    0    0  0.22033639971E+03 -0.71972676698E+02  0.10248746006E+03  0.28258958703E+03  0.12500000000E+03 0.  0.
</event>
<event>
 5    0  0.5764392E-005  0.2302576E+03  0.7546771E-02  0.1126459E+00
         21   -1    0    0  502  501  0.00000000000E+00  0.00000000000E+00  0.29560120444E+03  0.29560120444E+03  0.00000000000E+00 0. -1.
         21   -1    0    0  501  502 -0.00000000000E+00 -0.00000000000E+00 -0.17935833622E+03  0.17935833622E+03  0.00000000000E+00 0. -1.
         25    1    1    2    0    0  0.79035463834E+02 -0.52232598188E+02 -0.36743258269E+02  0.16108977586E+03  0.12500000000E+03 0.  0.
         25    1    1    2    0    0 -0.22413980156E+02  0.44464600165E+02  0.94907399479E+02  0.16465692105E+03  0.12500000000E+03 0.  0.
         25    1    1    2    0    0 -0.56621483678E+02  0.77679980229E+01  0.58078727010E+02  0.14921284374E+03  0.12500000000E+03 0.  0.
</event>
<event>
 5    0  0.5764392E-005  0.2665971E+03  0.7546771E-02  0.1103243E+00
         21   -1    0    0  502  501  0.00000000000E+00  0.00000000000E+00  0.19266222734E+04  0.19266222734E+04  0.00000000000E+00 0. -1.
         21   -1    0    0  501  502 -0.00000000000E+00 -0.00000000000E+00 -0.36890484490E+02  0.36890484490E+02  0.00000000000E+00 0. -1.
         25    1    1    2    0    0 -0.17478400747E+02 -0.63797642761E+02  0.46174928698E+03  0.48292135771E+03  0.12500000000E+03 0.  0.
         25    1    1    2    0    0  0.33657351150E+01  0.17880838791E+03  0.71708358900E+03  0.74954495620E+03  0.12500000000E+03 0.  0.
         25    1    1    2    0    0  0.14112665632E+02 -0.11501074515E+03  0.71089891297E+03  0.73104644401E+03  0.12500000000E+03 0.  0.
</event>
<event>
 5    0  0.6339782E-005  0.3733627E+03  0.7546771E-02  0.1053415E+00
         21   -1    0    0  502  501  0.00000000000E+00  0.00000000000E+00  0.85746438180E+03  0.85746438180E+03  0.00000000000E+00 0. -1.
         21   -1    0    0  501  502 -0.00000000000E+00 -0.00000000000E+00 -0.16257197249E+03  0.16257197249E+03  0.00000000000E+00 0. -1.
         25    1    1    2    0    0  0.24454532662E+03  0.44917559367E+02  0.21350438131E+03  0.35075507801E+03  0.12500000000E+03 0.  0.
         25    1    1    2    0    0 -0.13565664431E+03 -0.10924688615E+03  0.77474537626E+02  0.22795813489E+03  0.12500000000E+03 0.  0.
         25    1    1    2    0    0 -0.10888868231E+03  0.64329326787E+02  0.40391349038E+03  0.44132314139E+03  0.12500000000E+03 0.  0.
</event>
<event>
 5    0  0.5764392E-005  0.4839113E+03  0.7546771E-02  0.1018066E+00
         21   -1    0    0  502  501  0.00000000000E+00  0.00000000000E+00  0.26206670348E+03  0.26206670348E+03  0.00000000000E+00 0.  1.
         21   -1    0    0  501  502 -0.00000000000E+00 -0.00000000000E+00 -0.89355165948E+03  0.89355165948E+03  0.00000000000E+00 0.  1.
         25    1    1    2    0    0 -0.23452258824E+03  0.22356736829E+03  0.32071774826E+02  0.34876469331E+03  0.12500000000E+03 0.  0.
         25    1    1    2    0    0  0.11582339883E+03 -0.67862837561E+02 -0.46988673212E+03  0.50441943406E+03  0.12500000000E+03 0.  0.
         25    1    1    2    0    0  0.11869918941E+03 -0.15570453073E+03 -0.19366999870E+03  0.30243423559E+03  0.12500000000E+03 0.  0.
</event>
<event>
 5    0  0.5764392E-005  0.4301103E+03  0.7546771E-02  0.1033825E+00
         21   -1    0    0  502  501  0.00000000000E+00  0.00000000000E+00  0.30539562759E+03  0.30539562759E+03  0.00000000000E+00 0. -1.
         21   -1    0    0  501  502 -0.00000000000E+00 -0.00000000000E+00 -0.60575475725E+03  0.60575475725E+03  0.00000000000E+00 0. -1.
         25    1    1    2    0    0  0.91325345674E+02  0.18523222046E+03  0.94054354265E+02  0.25908013396E+03  0.12500000000E+03 0.  0.
         25    1    1    2    0    0 -0.56589774576E+02  0.10383886252E+03 -0.25089144662E+03  0.30423088263E+03  0.12500000000E+03 0.  0.
         25    1    1    2    0    0 -0.34735571098E+02 -0.28907108298E+03 -0.14352203730E+03  0.34783936825E+03  0.12500000000E+03 0.  0.
</event>
<event>
 5    0  0.5764392E-005  0.1996504E+03  0.7546771E-02  0.1150034E+00
         21   -1    0    0  502  501  0.00000000000E+00  0.00000000000E+00  0.28909600292E+03  0.28909600292E+03  0.00000000000E+00 0. -1.
         21   -1    0    0  501  502 -0.00000000000E+00 -0.00000000000E+00 -0.13787909730E+03  0.13787909730E+03  0.00000000000E+00 0. -1.
         25    1    1    2    0    0 -0.23629965304E+02 -0.13976929753E+02  0.58253918424E+01  0.12811192378E+03  0.12500000000E+03 0.  0.
         25    1    1    2    0    0  0.49902397180E+01  0.40150135659E+02  0.62679131687E+02  0.14556994688E+03  0.12500000000E+03 0.  0.
         25    1    1    2    0    0  0.18639725586E+02 -0.26173205905E+02  0.82712382082E+02  0.15329322955E+03  0.12500000000E+03 0.  0.
</event>
<event>
 5    0  0.7743273E-005  0.3505395E+03  0.7546771E-02  0.1062394E+00
         21   -1    0    0  502  501  0.00000000000E+00  0.00000000000E+00  0.20880815321E+03  0.20880815321E+03  0.00000000000E+00 0.  1.
         21   -1    0    0  501  502 -0.00000000000E+00 -0.00000000000E+00 -0.58847290264E+03  0.58847290264E+03  0.00000000000E+00 0.  1.
         25    1    1    2    0    0  0.18841110722E+03  0.32586738953E+02 -0.26696220126E+03  0.35136086547E+03  0.12500000000E+03 0.  0.
         25    1    1    2    0    0 -0.82889431864E+02 -0.15009972517E+03  0.57186362360E+01  0.21226937653E+03  0.12500000000E+03 0.  0.
         25    1    1    2    0    0 -0.10552167536E+03  0.11751298622E+03 -0.11842118440E+03  0.23365081385E+03  0.12500000000E+03 0.  0.
</event>
<event>
 5    0  0.5764392E-005  0.3317952E+03  0.7546771E-02  0.1070345E+00
         21   -1    0    0  502  501  0.00000000000E+00  0.00000000000E+00  0.55103771700E+03  0.55103771700E+03  0.00000000000E+00 0. -1.
         21   -1    0    0  501  502 -0.00000000000E+00 -0.00000000000E+00 -0.19978316775E+03  0.19978316775E+03  0.00000000000E+00 0. -1.
         25    1    1    2    0    0 -0.43697390838E+02  0.12167721368E+03  0.21214439096E+03  0.27810977853E+03  0.12500000000E+03 0.  0.
         25    1    1    2    0    0 -0.10558815681E+03  0.69161383170E+02  0.73788091610E+02  0.19235861885E+03  0.12500000000E+03 0.  0.
         25    1    1    2    0    0  0.14928554765E+03 -0.19083859685E+03  0.65322066671E+02  0.28035248738E+03  0.12500000000E+03 0.  0.
</event>
<event>
 5    0  0.5764392E-005  0.2613897E+03  0.7546771E-02  0.1106311E+00
         21   -1    0    0  502  501  0.00000000000E+00  0.00000000000E+00  0.76775695771E+03  0.76775695771E+03  0.00000000000E+00 0.  1.
         21   -1    0    0  501  502 -0.00000000000E+00 -0.00000000000E+00 -0.88992468829E+02  0.88992468829E+02  0.00000000000E+00 0.  1.
         25    1    1    2    0    0  0.16446505997E+03 -0.27227940521E+02  0.28297946962E+03  0.35141499245E+03  0.12500000000E+03 0.  0.
         25    1    1    2    0    0 -0.61484921848E+02  0.44563425262E+02  0.23266174843E+03  0.27481408928E+03  0.12500000000E+03 0.  0.
         25    1    1    2    0    0 -0.10298013812E+03 -0.17335484742E+02  0.16312327083E+03  0.23052034480E+03  0.12500000000E+03 0.  0.
</event>
<event>
 5    0  0.5764392E-005  0.7194197E+03  0.7546771E-02  0.9684586E-01
         21   -1    0    0  502  501  0.00000000000E+00  0.00000000000E+00  0.90545649608E+03  0.90545649608E+03  0.00000000000E+00 0.  1.
         21   -1    0    0  501  502 -0.00000000000E+00 -0.00000000000E+00 -0.57160640128E+03  0.57160640128E+03  0.00000000000E+00 0.  1.
         25    1    1    2    0    0 -0.16344838121E+03  0.44081142629E+03 -0.32796624583E+03  0.58670004711E+03  0.12500000000E+03 0.  0.
         25    1    1    2    0    0 -0.25224820954E+02 -0.59678627490E+02  0.24126018278E+03  0.27933726204E+03  0.12500000000E+03 0.  0.
         25    1    1    2    0    0  0.18867320217E+03 -0.38113279880E+03  0.42055615786E+03  0.61102558821E+03  0.12500000000E+03 0.  0.
</event>
<event>
 5    0  0.5764392E-005  0.3481222E+03  0.7546771E-02  0.1063388E+00
         21   -1    0    0  502  501  0.00000000000E+00  0.00000000000E+00  0.42940407880E+03  0.42940407880E+03  0.00000000000E+00 0. -1.
         21   -1    0    0  501  502 -0.00000000000E+00 -0.00000000000E+00 -0.28222616187E+03  0.28222616187E+03  0.00000000000E+00 0. -1.
         25    1    1    2    0    0 -0.55428937952E+02  0.11067976101E+03 -0.15003830821E+03  0.23121174406E+03  0.12500000000E+03 0.  0.
         25    1    1    2    0    0  0.76635836242E+02 -0.17855806899E+03  0.15539507958E+03  0.27843969932E+03  0.12500000000E+03 0.  0.
         25    1    1    2    0    0 -0.21206898290E+02  0.67878307980E+02  0.14182114556E+03  0.20197879730E+03  0.12500000000E+03 0.  0.
</event>
<event>
 5    0  0.5764392E-005  0.3800771E+03  0.7546771E-02  0.1050905E+00
         21   -1    0    0  502  501  0.00000000000E+00  0.00000000000E+00  0.11295022973E+03  0.11295022973E+03  0.00000000000E+00 0.  1.
         21   -1    0    0  501  502 -0.00000000000E+00 -0.00000000000E+00 -0.12789581408E+04  0.12789581408E+04  0.00000000000E+00 0.  1.
         25    1    1    2    0    0  0.31463135545E+02  0.22448727855E+03 -0.50375985785E+03  0.56637749029E+03  0.12500000000E+03 0.  0.
         25    1    1    2    0    0 -0.62356076736E+02  0.71624023567E+02 -0.13391770530E+03  0.20634251343E+03  0.12500000000E+03 0.  0.
         25    1    1    2    0    0  0.30892941191E+02 -0.29611130212E+03 -0.52833034794E+03  0.61918836682E+03  0.12500000000E+03 0.  0.
</event>
<event>
 5    0  0.5764392E-005  0.3356758E+03  0.7546771E-02  0.1068653E+00
         21   -1    0    0  502  501  0.00000000000E+00  0.00000000000E+00  0.44872265648E+04  0.44872265648E+04  0.00000000000E+00 0.  1.
         21   -1    0    0  501  502 -0.00000000000E+00 -0.00000000000E+00 -0.25110893204E+02  0.25110893204E+02  0.00000000000E+00 0.  1.
         25    1    1    2    0    0 -0.11472536027E+03 -0.15506268407E+03  0.10026016281E+04  0.10286113790E+04  0.12500000000E+03 0.  0.
         25    1    1    2    0    0 -0.70326928245E+00 -0.30981413524E+02  0.63158873672E+03  0.64458488574E+03  0.12500000000E+03 0.  0.
         25    1    1    2    0    0  0.11542862955E+03  0.18604409759E+03  0.28279253067E+04  0.28391411932E+04  0.12500000000E+03 0.  0.
</event>
<event>
 5    0  0.5764392E-005  0.4191774E+03  0.7546771E-02  0.1037334E+00
         21   -1    0    0  502  501  0.00000000000E+00  0.00000000000E+00  0.12699084434E+03  0.12699084434E+03  0.00000000000E+00 0. -1.
         21   -1    0    0  501  502 -0.00000000000E+00 -0.00000000000E+00 -0.13836403368E+04  0.13836403368E+04  0.00000000000E+00 0. -1.
         25    1    1    2    0    0  0.42326068525E+02  0.81723288460E+02 -0.12546559550E+03  0.19959160205E+03  0.12500000000E+03 0.  0.
         25    1    1    2    0    0  0.49503526666E+02  0.13591288637E+03 -0.50404804646E+02  0.19770826023E+03  0.12500000000E+03 0.  0.
         25    1    1    2    0    0 -0.91829595191E+02 -0.21763617483E+03 -0.10807790923E+04  0.11133313188E+04  0.12500000000E+03 0.  0.
</event>
<event>
 5    0  0.5764392E-005  0.3317683E+03  0.7546771E-02  0.1070357E+00
         21   -1    0    0  502  501  0.00000000000E+00  0.00000000000E+00  0.55061372844E+03  0.55061372844E+03  0.00000000000E+00 0.  1.
         21   -1    0    0  501  502 -0.00000000000E+00 -0.00000000000E+00 -0.19990462195E+03  0.19990462195E+03  0.00000000000E+00 0.  1.
         25    1    1    2    0    0 -0.46445590472E+02  0.17306711928E+03  0.36133630544E+03  0.42225388841E+03  0.12500000000E+03 0.  0.
         25    1    1    2    0    0  0.79605137887E+02 -0.10737797866E+03 -0.35890594000E+01  0.18304340913E+03  0.12500000000E+03 0.  0.
         25    1    1    2    0    0 -0.33159547415E+02 -0.65689140625E+02 -0.70381395466E+01  0.14522105284E+03  0.12500000000E+03 0.  0.
</event>
<event>
 5    0  0.5764392E-005  0.3027111E+03  0.7546771E-02  0.1083893E+00
         21   -1    0    0  502  501  0.00000000000E+00  0.00000000000E+00  0.93897821503E+03  0.93897821503E+03  0.00000000000E+00 0. -1.
         21   -1    0    0  501  502 -0.00000000000E+00 -0.00000000000E+00 -0.97589082408E+02  0.97589082408E+02  0.00000000000E+00 0. -1.
         25    1    1    2    0    0 -0.38625895602E+02  0.12614377762E+03  0.48606047761E+03  0.51892581391E+03  0.12500000000E+03 0.  0.
         25    1    1    2    0    0 -0.81831647981E+02 -0.17485065908E+02  0.23818723895E+03  0.28170961456E+03  0.12500000000E+03 0.  0.
         25    1    1    2    0    0  0.12045754358E+03 -0.10865871171E+03  0.11714141606E+03  0.23593186897E+03  0.12500000000E+03 0.  0.
</event>
<event>
 5    0  0.5764392E-005  0.3034189E+03  0.7546771E-02  0.1083544E+00
         21   -1    0    0  502  501  0.00000000000E+00  0.00000000000E+00  0.97437280383E+02  0.97437280383E+02  0.00000000000E+00 0. -1.
         21   -1    0    0  501  502 -0.00000000000E+00 -0.00000000000E+00 -0.94484380174E+03  0.94484380174E+03  0.00000000000E+00 0. -1.
         25    1    1    2    0    0 -0.26498974863E+02 -0.12231408764E+02 -0.19514641267E+03  0.23357852086E+03  0.12500000000E+03 0.  0.
         25    1    1    2    0    0 -0.18780443873E+03  0.12715684899E+02 -0.36344222313E+03  0.42795729390E+03  0.12500000000E+03 0.  0.
         25    1    1    2    0    0  0.21430341359E+03 -0.48427613441E+00 -0.28881788556E+03  0.38074526736E+03  0.12500000000E+03 0.  0.
</event>
<event>
 5    0  0.5764392E-005  0.4085854E+03  0.7546771E-02  0.1040847E+00
         21   -1    0    0  502  501  0.00000000000E+00  0.00000000000E+00  0.15737994906E+03  0.15737994906E+03  0.00000000000E+00 0. -1.
         21   -1    0    0  501  502 -0.00000000000E+00 -0.00000000000E+00 -0.10607579299E+04  0.10607579299E+04  0.00000000000E+00 0. -1.
         25    1    1    2    0    0  0.14489725660E+02 -0.12679323956E+03 -0.89926881451E+03  0.91684015973E+03  0.12500000000E+03 0.  0.
         25    1    1    2    0    0 -0.30314014287E+02  0.10321314290E+02  0.80179022962E+01  0.12928555893E+03  0.12500000000E+03 0.  0.
         25    1    1    2    0    0  0.15824288627E+02  0.11647192527E+03 -0.12127068605E+02  0.17201216027E+03  0.12500000000E+03 0.  0.
</event>
<event>
 5    0  0.5764392E-005  0.2881964E+03  0.7546771E-02  0.1091295E+00
         21   -1    0    0  502  501  0.00000000000E+00  0.00000000000E+00  0.62029952021E+03  0.62029952021E+03  0.00000000000E+00 0. -1.
         21   -1    0    0  501  502 -0.00000000000E+00 -0.00000000000E+00 -0.13389846570E+03  0.13389846570E+03  0.00000000000E+00 0. -1.
         25    1    1    2    0    0 -0.10907707210E+03 -0.53465017232E+02  0.17196252366E+03  0.24485184351E+03  0.12500000000E+03 0.  0.
         25    1    1    2    0    0  0.71598018153E+02 -0.63832432121E+02  0.98976580395E+01  0.15787279445E+03  0.12500000000E+03 0.  0.
         25    1    1    2    0    0  0.37479053943E+02  0.11729744935E+03  0.30454087281E+03  0.35147334795E+03  0.12500000000E+03 0.  0.
</event>
<event>
 5    0  0.5764392E-005  0.3943218E+03  0.7546771E-02  0.1045764E+00
         21   -1    0    0  502  501  0.00000000000E+00  0.00000000000E+00  0.12429150473E+03  0.12429150473E+03  0.00000000000E+00 0.  1.
         21   -1    0    0  501  502 -0.00000000000E+00 -0.00000000000E+00 -0.12510079847E+04  0.12510079847E+04  0.00000000000E+00 0.  1.
         25    1    1    2    0    0  0.21854458357E+03  0.15649782582E+03 -0.38738678530E+03  0.48779793554E+03  0.12500000000E+03 0.  0.
         25    1    1    2    0    0 -0.14348447194E+03  0.14023888364E+02 -0.11198933331E+03  0.22124889584E+03  0.12500000000E+03 0.  0.
         25    1    1    2    0    0 -0.75060111632E+02 -0.17052171418E+03 -0.62734036141E+03  0.66625265810E+03  0.12500000000E+03 0.  0.
</event>
<event>
 5    0  0.5764392E-005  0.3783671E+03  0.7546771E-02  0.1051539E+00
         21   -1    0    0  502  501  0.00000000000E+00  0.00000000000E+00  0.30259049530E+03  0.30259049530E+03  0.00000000000E+00 0.  1.
         21   -1    0    0  501  502 -0.00000000000E+00 -0.00000000000E+00 -0.47312022238E+03  0.47312022238E+03  0.00000000000E+00 0.  1.
         25    1    1    2    0    0 -0.85750272163E+02 -0.60545906293E+02 -0.13176652247E+03  0.20977686333E+03  0.12500000000E+03 0.  0.
         25    1    1    2    0    0  0.44429553820E+02 -0.21853116349E+03 -0.71337675158E+01  0.25574546977E+03  0.12500000000E+03 0.  0.
         25    1    1    2    0    0  0.41320718342E+02  0.27907706978E+03 -0.31629437091E+02  0.31018838459E+03  0.12500000000E+03 0.  0.
</event>
<event>
 5    0  0.5764392E-005  0.2503546E+03  0.7546771E-02  0.1113081E+00
         21   -1    0    0  502  501  0.00000000000E+00  0.00000000000E+00  0.29047441534E+03  0.29047441534E+03  0.00000000000E+00 0.  1.
         21   -1    0    0  501  502 -0.00000000000E+00 -0.00000000000E+00 -0.21577611851E+03  0.21577611851E+03  0.00000000000E+00 0.  1.
         25    1    1    2    0    0  0.34675058764E+02 -0.44542600821E+02 -0.23474690513E+02  0.13914907144E+03  0.12500000000E+03 0.  0.
         25    1    1    2    0    0  0.44547111543E+02 -0.79174158892E+02  0.78181311443E+02  0.17317710600E+03  0.12500000000E+03 0.  0.
         25    1    1    2    0    0 -0.79222170307E+02  0.12371675971E+03  0.19991675901E+02  0.19392435641E+03  0.12500000000E+03 0.  0.
</event>
<event>
 5    0  0.5764392E-005  0.6468320E+03  0.7546771E-02  0.9812742E-01
         21   -1    0    0  502  501  0.00000000000E+00  0.00000000000E+00  0.46887860063E+03  0.46887860063E+03  0.00000000000E+00 0.  1.
         21   -1    0    0  501  502 -0.00000000000E+00 -0.00000000000E+00 -0.89232407135E+03  0.89232407135E+03  0.00000000000E+00 0.  1.
         25    1    1    2    0    0  0.39172593713E+02  0.55772903542E+03 -0.95287777002E+02  0.58077614405E+03  0.12500000000E+03 0.  0.
         25    1    1    2    0    0  0.12242647385E+03 -0.33516578675E+03 -0.73199288930E+02  0.38510710459E+03  0.12500000000E+03 0.  0.
         25    1    1    2    0    0 -0.16159906756E+03 -0.22256324867E+03 -0.25495840478E+03  0.39531942334E+03  0.12500000000E+03 0.  0.
</event>
<event>
 5    0  0.6942000E-005  0.2699048E+03  0.7546771E-02  0.1101334E+00
         21   -1    0    0  502  501  0.00000000000E+00  0.00000000000E+00  0.27693085116E+03  0.27693085116E+03  0.00000000000E+00 0.  1.
         21   -1    0    0  501  502 -0.00000000000E+00 -0.00000000000E+00 -0.26305707085E+03  0.26305707085E+03  0.00000000000E+00 0.  1.
         25    1    1    2    0    0  0.76615312803E+02  0.93876987392E+02 -0.10894849206E+03  0.20537178199E+03  0.12500000000E+03 0.  0.
         25    1    1    2    0    0 -0.85381696368E+02 -0.71728372149E+02  0.15636383918E+02  0.16823938287E+03  0.12500000000E+03 0.  0.
         25    1    1    2    0    0  0.87663835649E+01 -0.22148615242E+02  0.10718588844E+03  0.16637675715E+03  0.12500000000E+03 0.  0.
</event>
<event>
 5    0  0.5764392E-005  0.2542867E+03  0.7546771E-02  0.1110625E+00
         21   -1    0    0  502  501  0.00000000000E+00  0.00000000000E+00  0.40782290942E+03  0.40782290942E+03  0.00000000000E+00 0. -1.
         21   -1    0    0  501  502 -0.00000000000E+00 -0.00000000000E+00 -0.15855346177E+03  0.15855346177E+03  0.00000000000E+00 0. -1.
         25    1    1    2    0    0 -0.23237769214E+02 -0.81723166083E+01  0.23699567434E+01  0.12742604668E+03  0.12500000000E+03 0.  0.
         25    1    1    2    0    0  0.13309575384E+03 -0.77116411628E+01  0.70387411036E+02  0.19584007949E+03  0.12500000000E+03 0.  0.
         25    1    1    2    0    0 -0.10985798463E+03  0.15883957771E+02  0.17651207987E+03  0.24311024503E+03  0.12500000000E+03 0.  0.
</event>
<event>
 5    0  0.5764392E-005  0.3930203E+03  0.7546771E-02  0.1046224E+00
         21   -1    0    0  502  501  0.00000000000E+00  0.00000000000E+00  0.75808554822E+03  0.75808554822E+03  0.00000000000E+00 0. -1.
         21   -1    0    0  501  502 -0.00000000000E+00 -0.00000000000E+00 -0.20375666362E+03  0.20375666362E+03  0.00000000000E+00 0. -1.
         25    1    1    2    0    0 -0.14359738266E+03  0.41418569050E+01 -0.90797281259E+02  0.21096565969E+03  0.12500000000E+03 0.  0.
         25    1    1    2    0    0  0.88946976798E+02  0.45140204923E+02  0.56066301104E+03  0.58302419738E+03  0.12500000000E+03 0.  0.
         25    1    1    2    0    0  0.54650405864E+02 -0.49282061828E+02  0.84463154820E+02  0.16785235477E+03  0.12500000000E+03 0.  0.
</event>
<event>
 5    0  0.5764392E-005  0.2167053E+03  0.7546771E-02  0.1136363E+00
         21   -1    0    0  502  501  0.00000000000E+00  0.00000000000E+00  0.16683405224E+03  0.16683405224E+03  0.00000000000E+00 0. -1.
         21   -1    0    0  501  502 -0.00000000000E+00 -0.00000000000E+00 -0.28148443292E+03  0.28148443292E+03  0.00000000000E+00 0. -1.
         25    1    1    2    0    0  0.69459218802E+02  0.92180000656E+01 -0.65049429389E+02  0.15737211591E+03  0.12500000000E+03 0.  0.
         25    1    1    2    0    0 -0.52168192206E+02 -0.44978282256E+02  0.17201485680E+02  0.14375485127E+03  0.12500000000E+03 0.  0.
         25    1    1    2    0    0 -0.17291026595E+02  0.35760282191E+02 -0.66802436968E+02  0.14719151799E+03  0.12500000000E+03 0.  0.
</event>
<event>
 5    0  0.5764392E-005  0.5012778E+03  0.7546771E-02  0.1013446E+00
         21   -1    0    0  502  501  0.00000000000E+00  0.00000000000E+00  0.32171966944E+03  0.32171966944E+03  0.00000000000E+00 0.  1.
         21   -1    0    0  501  502 -0.00000000000E+00 -0.00000000000E+00 -0.78105100237E+03  0.78105100237E+03  0.00000000000E+00 0.  1.
         25    1    1    2    0    0 -0.12319420915E+03 -0.37847474590E+03 -0.24565417188E+03  0.48413935867E+03  0.12500000000E+03 0.  0.
         25    1    1    2    0    0  0.57120440653E+02  0.37336264367E+03 -0.25337736516E+03  0.47168580391E+03  0.12500000000E+03 0.  0.
         25    1    1    2    0    0  0.66073768499E+02  0.51121022246E+01  0.39700204123E+02  0.14694550922E+03  0.12500000000E+03 0.  0.
</event>
<event>
 5    0  0.5913355E-005  0.2907396E+03  0.7546771E-02  0.1089964E+00
         21   -1    0    0  502  501  0.00000000000E+00  0.00000000000E+00  0.10089478905E+03  0.10089478905E+03  0.00000000000E+00 0. -1.
         21   -1    0    0  501  502 -0.00000000000E+00 -0.00000000000E+00 -0.83779833232E+03  0.83779833232E+03  0.00000000000E+00 0. -1.
         25    1    1    2    0    0 -0.19117494678E+02  0.13197771869E+03 -0.17116723401E+03  0.25041329604E+03  0.12500000000E+03 0.  0.
         25    1    1    2    0    0 -0.29578732627E+02 -0.17698815358E+02 -0.42955707810E+02  0.13659554283E+03  0.12500000000E+03 0.  0.
         25    1    1    2    0    0  0.48696227305E+02 -0.11427890333E+03 -0.52278060145E+03  0.55168428250E+03  0.12500000000E+03 0.  0.
</event>
<event>
 5    0  0.5764392E-005  0.3016209E+03  0.7546771E-02  0.1084433E+00
         21   -1    0    0  502  501  0.00000000000E+00  0.00000000000E+00  0.12426706851E+04  0.12426706851E+04  0.00000000000E+00 0.  1.
         21   -1    0    0  501  502 -0.00000000000E+00 -0.00000000000E+00 -0.73209400895E+02  0.73209400895E+02  0.00000000000E+00 0.  1.
         25    1    1    2    0    0  0.17294112185E+03 -0.65694762985E+02  0.71322432210E+03  0.74735424475E+03  0.12500000000E+03 0.  0.
         25    1    1    2    0    0 -0.10646688784E+03 -0.24800689276E+01  0.14160457365E+03  0.21683681474E+03  0.12500000000E+03 0.  0.
         25    1    1    2    0    0 -0.66474234010E+02  0.68174831913E+02  0.31463238841E+03  0.35168902646E+03  0.12500000000E+03 0.  0.
</event>
<event>
 5    0  0.5764392E-005  0.3486717E+03  0.7546771E-02  0.1063162E+00
         21   -1    0    0  502  501  0.00000000000E+00  0.00000000000E+00  0.12907455266E+03  0.12907455266E+03  0.00000000000E+00 0.  1.
         21   -1    0    0  501  502 -0.00000000000E+00 -0.00000000000E+00 -0.94187412540E+03  0.94187412540E+03  0.00000000000E+00 0.  1.
         25    1    1    2    0    0 -0.29233634243E+02  0.10219325911E+03  0.13963800987E+02  0.16467560632E+03  0.12500000000E+03 0.  0.
         25    1    1    2    0    0 -0.86882187374E+02  0.18519525184E+02 -0.25560417096E+03  0.29807713684E+03  0.12500000000E+03 0.  0.
         25    1    1    2    0    0  0.11611582162E+03 -0.12071278429E+03 -0.57115920277E+03  0.60819593491E+03  0.12500000000E+03 0.  0.
</event>
<event>
 5    0  0.5764392E-005  0.3801771E+03  0.7546771E-02  0.1050868E+00
         21   -1    0    0  502  501  0.00000000000E+00  0.00000000000E+00  0.30726260062E+03  0.30726260062E+03  0.00000000000E+00 0. -1.
         21   -1    0    0  501  502 -0.00000000000E+00 -0.00000000000E+00 -0.47039442594E+03  0.47039442594E+03  0.00000000000E+00 0. -1.
         25    1    1    2    0    0  0.84571486566E+02  0.34891026565E+02 -0.16041858415E+03  0.22299964623E+03  0.12500000000E+03 0.  0.
         25    1    1    2    0    0  0.14998567782E+03  0.13559018720E+03 -0.19064173250E+02  0.23847189587E+03  0.12500000000E+03 0.  0.
         25    1    1    2    0    0 -0.23455716439E+03 -0.17048121377E+03  0.16350932085E+02  0.31618548448E+03  0.12500000000E+03 0.  0.
</event>
<event>
 5    0  0.5764392E-005  0.2309633E+03  0.7546771E-02  0.1125964E+00
         21   -1    0    0  502  501  0.00000000000E+00  0.00000000000E+00  0.24077511385E+03  0.24077511385E+03  0.00000000000E+00 0. -1.
         21   -1    0    0  501  502 -0.00000000000E+00 -0.00000000000E+00 -0.22155129615E+03  0.22155129615E+03  0.00000000000E+00 0. -1.
         25    1    1    2    0    0  0.67275620541E+02 -0.20586719935E+02  0.80202173068E+02  0.16433870731E+03  0.12500000000E+03 0.  0.
         25    1    1    2    0    0 -0.20204768230E+02 -0.53318507847E+02 -0.13149259158E+02  0.13801811097E+03  0.12500000000E+03 0.  0.
         25    1    1    2    0    0 -0.47070852311E+02  0.73905227783E+02 -0.47829096202E+02  0.15996959172E+03  0.12500000000E+03 0.  0.
</event>
<event>
 5    0  0.5764392E-005  0.3965211E+03  0.7546771E-02  0.1044991E+00
         21   -1    0    0  502  501  0.00000000000E+00  0.00000000000E+00  0.76389984415E+03  0.76389984415E+03  0.00000000000E+00 0.  1.
         21   -1    0    0  501  502 -0.00000000000E+00 -0.00000000000E+00 -0.20582406301E+03  0.20582406301E+03  0.00000000000E+00 0.  1.
         25    1    1    2    0    0  0.14302193507E+03 -0.18465860738E+02  0.14155886806E+03  0.23761349930E+03  0.12500000000E+03 0.  0.
         25    1    1    2    0    0 -0.99068921341E+02  0.16982053758E+02  0.53242404156E+03  0.55606060942E+03  0.12500000000E+03 0.  0.
         25    1    1    2    0    0 -0.43953013730E+02  0.14838069794E+01 -0.11590712847E+03  0.17604979844E+03  0.12500000000E+03 0.  0.
</event>
<event>
 5    0  0.5764392E-005  0.2626237E+03  0.7546771E-02  0.1105577E+00
         21   -1    0    0  502  501  0.00000000000E+00  0.00000000000E+00  0.12392981988E+04  0.12392981988E+04  0.00000000000E+00 0. -1.
         21   -1    0    0  501  502 -0.00000000000E+00 -0.00000000000E+00 -0.55653459183E+02  0.55653459183E+02  0.00000000000E+00 0. -1.
         25    1    1    2    0    0 -0.31530824676E+01  0.14091413255E+03  0.54871756223E+03  0.58015747670E+03  0.12500000000E+03 0.  0.
         25    1    1    2    0    0 -0.29375456353E+02 -0.12653734583E+03  0.47904417057E+03  0.51184268548E+03  0.12500000000E+03 0.  0.
         25    1    1    2    0    0  0.32528538821E+02 -0.14376786715E+02  0.15588300686E+03  0.20295149584E+03  0.12500000000E+03 0.  0.
</event>
<event>
 5    0  0.5764392E-005  0.3402047E+03  0.7546771E-02  0.1066709E+00
         21   -1    0    0  502  501  0.00000000000E+00  0.00000000000E+00  0.50588088245E+02  0.50588088245E+02  0.00000000000E+00 0.  1.
         21   -1    0    0  501  502 -0.00000000000E+00 -0.00000000000E+00 -0.22878747799E+04  0.22878747799E+04  0.00000000000E+00 0.  1.
         25    1    1    2    0    0 -0.18536801192E+03  0.19757145020E+03 -0.95969072550E+03  0.10050010281E+04  0.12500000000E+03 0.  0.
         25    1    1    2    0    0  0.61218080090E+02 -0.44416521948E+02 -0.42118744877E+03  0.44580752321E+03  0.12500000000E+03 0.  0.
         25    1    1    2    0    0  0.12414993183E+03 -0.15315492826E+03 -0.85640851737E+03  0.88765431686E+03  0.12500000000E+03 0.  0.
</event>
<event>
 5    0  0.5764392E-005  0.3874880E+03  0.7546771E-02  0.1048200E+00
         21   -1    0    0  502  501  0.00000000000E+00  0.00000000000E+00  0.16547336039E+03  0.16547336039E+03  0.00000000000E+00 0. -1.
         21   -1    0    0  501  502 -0.00000000000E+00 -0.00000000000E+00 -0.90737861545E+03  0.90737861545E+03  0.00000000000E+00 0. -1.
         25    1    1    2    0    0 -0.12926790660E+03  0.13911389099E+03 -0.10188760387E+03  0.24913640875E+03  0.12500000000E+03 0.  0.
         25    1    1    2    0    0  0.24910390328E+03 -0.18521924911E+03 -0.46787525255E+03  0.57523141154E+03  0.12500000000E+03 0.  0.
         25    1    1    2    0    0 -0.11983599669E+03  0.46105358115E+02 -0.17214239864E+03  0.24848415555E+03  0.12500000000E+03 0.  0.
</event>
<event>
 5    0  0.6707539E-005  0.3254822E+03  0.7546771E-02  0.1073154E+00
         21   -1    0    0  502  501  0.00000000000E+00  0.00000000000E+00  0.37610702723E+03  0.37610702723E+03  0.00000000000E+00 0. -1.
         21   -1    0    0  501  502 -0.00000000000E+00 -0.00000000000E+00 -0.28167166075E+03  0.28167166075E+03  0.00000000000E+00 0. -1.
         25    1    1    2    0    0  0.21229454956E+03  0.81748314391E+01  0.41680232867E+01  0.24653230226E+03  0.12500000000E+03 0.  0.
         25    1    1    2    0    0 -0.62333041445E+02 -0.46340591614E+02  0.14326591430E+03  0.20538495731E+03  0.12500000000E+03 0.  0.
         25    1    1    2    0    0 -0.14996150812E+03  0.38165760175E+02 -0.52998571109E+02  0.20586142841E+03  0.12500000000E+03 0.  0.
</event>
<event>
 5    0  0.5764392E-005  0.4231705E+03  0.7546771E-02  0.1036039E+00
         21   -1    0    0  502  501  0.00000000000E+00  0.00000000000E+00  0.81360557090E+03  0.81360557090E+03  0.00000000000E+00 0.  1.
         21   -1    0    0  501  502 -0.00000000000E+00 -0.00000000000E+00 -0.22009834254E+03  0.22009834254E+03  0.00000000000E+00 0.  1.
         25    1    1    2    0    0 -0.24859268162E+03  0.26189045229E+03  0.32121360018E+03  0.49918744705E+03  0.12500000000E+03 0.  0.
         25    1    1    2    0    0  0.34814637744E+02 -0.10186723633E+03  0.10425027480E+03  0.19514638771E+03  0.12500000000E+03 0.  0.
         25    1    1    2    0    0  0.21377804388E+03 -0.16002321596E+03  0.16804335339E+03  0.33937007868E+03  0.12500000000E+03 0.  0.
</event>
<event>
 5    0  0.5764392E-005  0.2267859E+03  0.7546771E-02  0.1128923E+00
         21   -1    0    0  502  501  0.00000000000E+00  0.00000000000E+00  0.15183350893E+03  0.15183350893E+03  0.00000000000E+00 0.  1.
         21   -1    0    0  501  502 -0.00000000000E+00 -0.00000000000E+00 -0.33873838129E+03  0.33873838129E+03  0.00000000000E+00 0.  1.
         25    1    1    2    0    0  0.41380004446E+02  0.78718009772E+02 -0.10209605235E+03  0.18427542900E+03  0.12500000000E+03 0.  0.
         25    1    1    2    0    0 -0.67878851939E+02 -0.63814854022E+02 -0.72236629694E+01  0.15606747080E+03  0.12500000000E+03 0.  0.
         25    1    1    2    0    0  0.26498847493E+02 -0.14903155749E+02 -0.77585157045E+02  0.15022899042E+03  0.12500000000E+03 0.  0.
</event>
<event>
 5    0  0.5764392E-005  0.2816989E+03  0.7546771E-02  0.1094765E+00
         21   -1    0    0  502  501  0.00000000000E+00  0.00000000000E+00  0.63793725391E+03  0.63793725391E+03  0.00000000000E+00 0.  1.
         21   -1    0    0  501  502 -0.00000000000E+00 -0.00000000000E+00 -0.12439196931E+03  0.12439196931E+03  0.00000000000E+00 0.  1.
         25    1    1    2    0    0 -0.48863287339E+02 -0.46432751246E+02  0.18798889155E+03  0.23560230174E+03  0.12500000000E+03 0.  0.
         25    1    1    2    0    0 -0.60772967982E+02 -0.41980438022E+02 -0.61190218931E+01  0.14532086307E+03  0.12500000000E+03 0.  0.
         25    1    1    2    0    0  0.10963625532E+03  0.88413189268E+02  0.33167541494E+03  0.38140605841E+03  0.12500000000E+03 0.  0.
</event>
<event>
 5    0  0.5764392E-005  0.4942765E+03  0.7546771E-02  0.1015284E+00
         21   -1    0    0  502  501  0.00000000000E+00  0.00000000000E+00  0.33969557635E+03  0.33969557635E+03  0.00000000000E+00 0. -1.
         21   -1    0    0  501  502 -0.00000000000E+00 -0.00000000000E+00 -0.71920073014E+03  0.71920073014E+03  0.00000000000E+00 0. -1.
         25    1    1    2    0    0 -0.14826237423E+03 -0.34527652346E+03 -0.19130199443E+03  0.43979434096E+03  0.12500000000E+03 0.  0.
         25    1    1    2    0    0  0.21722242157E+03  0.59522541244E+02 -0.20711542661E+02  0.25842306659E+03  0.12500000000E+03 0.  0.
         25    1    1    2    0    0 -0.68960047337E+02  0.28575398221E+03 -0.16749161670E+03  0.36067889894E+03  0.12500000000E+03 0.  0.
</event>
<event>
 5    0  0.5764392E-005  0.3570057E+03  0.7546771E-02  0.1059776E+00
         21   -1    0    0  502  501  0.00000000000E+00  0.00000000000E+00  0.75778281364E+03  0.75778281364E+03  0.00000000000E+00 0.  1.
         21   -1    0    0  501  502 -0.00000000000E+00 -0.00000000000E+00 -0.16819212123E+03  0.16819212123E+03  0.00000000000E+00 0.  1.
         25    1    1    2    0    0 -0.88480936961E+01 -0.37253042878E+02  0.84021186097E+02  0.15540475436E+03  0.12500000000E+03 0.  0.
         25    1    1    2    0    0  0.39069641695E+02  0.27299406343E+03  0.33916874385E+03  0.45465660929E+03  0.12500000000E+03 0.  0.
         25    1    1    2    0    0 -0.30221547999E+02 -0.23574102055E+03  0.16640076246E+03  0.31591357122E+03  0.12500000000E+03 0.  0.
</event>
<event>
 5    0  0.5764392E-005  0.2747332E+03  0.7546771E-02  0.1098601E+00
         21   -1    0    0  502  501  0.00000000000E+00  0.00000000000E+00  0.40222893619E+03  0.40222893619E+03  0.00000000000E+00 0.  1.
         21   -1    0    0  501  502 -0.00000000000E+00 -0.00000000000E+00 -0.18765011967E+03  0.18765011967E+03  0.00000000000E+00 0.  1.
         25    1    1    2    0    0  0.81283073543E+02  0.61695844781E+02 -0.57460990157E+01  0.16146619758E+03  0.12500000000E+03 0.  0.
         25    1    1    2    0    0 -0.10907287056E+03  0.14709826380E+02  0.51593639214E+01  0.16662799621E+03  0.12500000000E+03 0.  0.
         25    1    1    2    0    0  0.27789797018E+02 -0.76405671160E+02  0.21516555162E+03  0.26178486207E+03  0.12500000000E+03 0.  0.
</event>
<event>
 5    0  0.5764392E-005  0.4049703E+03  0.7546771E-02  0.1042072E+00
         21   -1    0    0  502  501  0.00000000000E+00  0.00000000000E+00  0.52104581553E+03  0.52104581553E+03  0.00000000000E+00 0.  1.
         21   -1    0    0  501  502 -0.00000000000E+00 -0.00000000000E+00 -0.31475339553E+03  0.31475339553E+03  0.00000000000E+00 0.  1.
         25    1    1    2    0    0  0.18653753111E+03  0.19283574984E+03  0.30467174222E+03  0.42477258320E+03  0.12500000000E+03 0.  0.
         25    1    1    2    0    0 -0.15713360508E+02 -0.26968188600E+02 -0.47628915845E+02  0.13735977038E+03  0.12500000000E+03 0.  0.
         25    1    1    2    0    0 -0.17082417060E+03 -0.16586756124E+03 -0.50750406376E+02  0.27366685748E+03  0.12500000000E+03 0.  0.
</event>
<event>
 5    0  0.5764392E-005  0.2779792E+03  0.7546771E-02  0.1096798E+00
         21   -1    0    0  502  501  0.00000000000E+00  0.00000000000E+00  0.86279440827E+02  0.86279440827E+02  0.00000000000E+00 0.  1.
         21   -1    0    0  501  502 -0.00000000000E+00 -0.00000000000E+00 -0.89560633158E+03  0.89560633158E+03  0.00000000000E+00 0.  1.
         25    1    1    2    0    0 -0.11957433818E+01  0.86662802850E+02 -0.26695980239E+03  0.30725300208E+03  0.12500000000E+03 0.  0.
         25    1    1    2    0    0 -0.71580146065E+02 -0.30544692628E+02 -0.48880271402E+03  0.51049954828E+03  0.12500000000E+03 0.  0.
         25    1    1    2    0    0  0.72775889446E+02 -0.56118110222E+02 -0.53564374347E+02  0.16413322204E+03  0.12500000000E+03 0.  0.
</event>
<event>
 5    0  0.5764392E-005  0.2818875E+03  0.7546771E-02  0.1094662E+00
         21   -1    0    0  502  501  0.00000000000E+00  0.00000000000E+00  0.39217216083E+02  0.39217216083E+02  0.00000000000E+00 0. -1.
         21   -1    0    0  501  502 -0.00000000000E+00 -0.00000000000E+00 -0.20261648417E+04  0.20261648417E+04  0.00000000000E+00 0. -1.
         25    1    1    2    0    0  0.29139153041E+02 -0.11630353304E+03 -0.24666931820E+03  0.30140729019E+03  0.12500000000E+03 0.  0.
         25    1    1    2    0    0 -0.19663277664E+02  0.46544924390E+02 -0.10737905140E+04  0.10822218545E+04  0.12500000000E+03 0.  0.
         25    1    1    2    0    0 -0.94758753769E+01  0.69758608645E+02 -0.66648779345E+03  0.68175291309E+03  0.12500000000E+03 0.  0.
</event>
<event>
 5    0  0.5764392E-005  0.3538395E+03  0.7546771E-02  0.1061050E+00
         21   -1    0    0  502  501  0.00000000000E+00  0.00000000000E+00  0.12204886475E+04  0.12204886475E+04  0.00000000000E+00 0.  1.
         21   -1    0    0  501  502 -0.00000000000E+00 -0.00000000000E+00 -0.10258383270E+03  0.10258383270E+03  0.00000000000E+00 0.  1.
         25    1    1    2    0    0  0.42108475465E+02 -0.17877008100E+03  0.65839223838E+03  0.69486488264E+03  0.12500000000E+03 0.  0.
         25    1    1    2    0    0  0.81253223372E+02  0.14114702879E+03  0.10454838485E+03  0.23039083059E+03  0.12500000000E+03 0.  0.
         25    1    1    2    0    0 -0.12336169884E+03  0.37623052212E+02  0.35496419161E+03  0.39781676702E+03  0.12500000000E+03 0.  0.
</event>
<event>
 5    0  0.5764392E-005  0.3685096E+03  0.7546771E-02  0.1055264E+00
         21   -1    0    0  502  501  0.00000000000E+00  0.00000000000E+00  0.19739811965E+03  0.19739811965E+03  0.00000000000E+00 0. -1.
         21   -1    0    0  501  502 -0.00000000000E+00 -0.00000000000E+00 -0.68794622948E+03  0.68794622948E+03  0.00000000000E+00 0. -1.
         25    1    1    2    0    0 -0.19651626005E+03 -0.10512005569E+02 -0.18595070864E+03  0.29821436714E+03  0.12500000000E+03 0.  0.
         25    1    1    2    0    0  0.22192761697E+03 -0.13558295365E+03 -0.25936266620E+03  0.38798015041E+03  0.12500000000E+03 0.  0.
         25    1    1    2    0    0 -0.25411356913E+02  0.14609495922E+03 -0.45234734994E+02  0.19914983158E+03  0.12500000000E+03 0.  0.
</event>
<event>
 5    0  0.5764392E-005  0.2570485E+03  0.7546771E-02  0.1108930E+00
         21   -1    0    0  502  501  0.00000000000E+00  0.00000000000E+00  0.64010879063E+02  0.64010879063E+02  0.00000000000E+00 0.  1.
         21   -1    0    0  501  502 -0.00000000000E+00 -0.00000000000E+00 -0.10322297457E+04  0.10322297457E+04  0.00000000000E+00 0.  1.
         25    1    1    2    0    0 -0.35906194557E+02 -0.11725448860E+03 -0.20149167587E+03  0.26694899391E+03  0.12500000000E+03 0.  0.
         25    1    1    2    0    0 -0.42044188162E+02  0.37656276128E+02 -0.23807097428E+03  0.27475170187E+03  0.12500000000E+03 0.  0.
         25    1    1    2    0    0  0.77950382720E+02  0.79598212473E+02 -0.52865621645E+03  0.55453992894E+03  0.12500000000E+03 0.  0.
</event>
<event>
 5    0  0.5764392E-005  0.2626943E+03  0.7546771E-02  0.1105535E+00
         21   -1    0    0  502  501  0.00000000000E+00  0.00000000000E+00  0.10820058478E+03  0.10820058478E+03  0.00000000000E+00 0. -1.
         21   -1    0    0  501  502 -0.00000000000E+00 -0.00000000000E+00 -0.63778108485E+03  0.63778108485E+03  0.00000000000E+00 0. -1.
         25    1    1    2    0    0  0.21974001888E+02 -0.10317744748E+03 -0.46174856941E+02  0.16995752364E+03  0.12500000000E+03 0.  0.
         25    1    1    2    0    0 -0.67682510402E+02  0.85265475668E+02 -0.18267611556E+03  0.24667121184E+03  0.12500000000E+03 0.  0.
         25    1    1    2    0    0  0.45708508514E+02  0.17911971814E+02 -0.30072952756E+03  0.32935293415E+03  0.12500000000E+03 0.  0.
</event>
<event>
 5    0  0.5764392E-005  0.3131657E+03  0.7546771E-02  0.1078838E+00
         21   -1    0    0  502  501  0.00000000000E+00  0.00000000000E+00  0.54631862573E+02  0.54631862573E+02  0.00000000000E+00 0.  1.
         21   -1    0    0  501  502 -0.00000000000E+00 -0.00000000000E+00 -0.17951563900E+04  0.17951563900E+04  0.00000000000E+00 0.  1.
         25    1    1    2    0    0  0.15346818241E+03 -0.30114331969E+02 -0.29131579901E+03  0.35348161304E+03  0.12500000000E+03 0.  0.
         25    1    1    2    0    0 -0.19411474171E+03 -0.13980353023E+02 -0.98775744290E+03  0.10144780674E+04  0.12500000000E+03 0.  0.
         25    1    1    2    0    0  0.40646559301E+02  0.44094684992E+02 -0.46145128547E+03  0.48182857210E+03  0.12500000000E+03 0.  0.
</event>
<event>
 5    0  0.5764392E-005  0.4871015E+03  0.7546771E-02  0.1017202E+00
         21   -1    0    0  502  501  0.00000000000E+00  0.00000000000E+00  0.65963388845E+03  0.65963388845E+03  0.00000000000E+00 0. -1.
         21   -1    0    0  501  502 -0.00000000000E+00 -0.00000000000E+00 -0.35969634933E+03  0.35969634933E+03  0.00000000000E+00 0. -1.
         25    1    1    2    0    0 -0.25713073155E+03  0.24762318434E+03  0.19038220745E+02  0.37870953035E+03  0.12500000000E+03 0.  0.
         25    1    1    2    0    0  0.57921347712E+02 -0.23452100706E+03  0.29921784158E+03  0.40436530760E+03  0.12500000000E+03 0.  0.
         25    1    1    2    0    0  0.19920938384E+03 -0.13102177282E+02 -0.18318523203E+02  0.23625539984E+03  0.12500000000E+03 0.  0.
</event>
<event>
 5    0  0.5764392E-005  0.5624503E+03  0.7546771E-02  0.9986526E-01
         21   -1    0    0  502  501  0.00000000000E+00  0.00000000000E+00  0.42355729947E+03  0.42355729947E+03  0.00000000000E+00 0.  1.
         21   -1    0    0  501  502 -0.00000000000E+00 -0.00000000000E+00 -0.74688900298E+03  0.74688900298E+03  0.00000000000E+00 0.  1.
         25    1    1    2    0    0  0.35858011713E+02  0.24285687097E+03  0.29809535175E+03  0.40589542436E+03  0.12500000000E+03 0.  0.
         25    1    1    2    0    0 -0.37207854923E+02 -0.24779962718E+03 -0.26012742519E+03  0.38220460101E+03  0.12500000000E+03 0.  0.
         25    1    1    2    0    0  0.13498432099E+01  0.49427562090E+01 -0.36129963007E+03  0.38234627709E+03  0.12500000000E+03 0.  0.
</event>
<event>
 5    0  0.5764392E-005  0.5811758E+03  0.7546771E-02  0.9945249E-01
         21   -1    0    0  502  501  0.00000000000E+00  0.00000000000E+00  0.13905146258E+04  0.13905146258E+04  0.00000000000E+00 0.  1.
         21   -1    0    0  501  502 -0.00000000000E+00 -0.00000000000E+00 -0.24290667192E+03  0.24290667192E+03  0.00000000000E+00 0.  1.
         25    1    1    2    0    0 -0.26463173923E+03  0.28475669282E+03  0.18682607662E+03  0.44904934519E+03  0.12500000000E+03 0.  0.
         25    1    1    2    0    0  0.62023394821E+02 -0.74388556763E+02 -0.14361351102E+02  0.15878226377E+03  0.12500000000E+03 0.  0.
         25    1    1    2    0    0  0.20260834441E+03 -0.21036813605E+03  0.97514322840E+03  0.10255896888E+04  0.12500000000E+03 0.  0.
</event>
<event>
 5    0  0.5764392E-005  0.5070382E+03  0.7546771E-02  0.1011958E+00
         21   -1    0    0  502  501  0.00000000000E+00  0.00000000000E+00  0.13206659533E+04  0.13206659533E+04  0.00000000000E+00 0.  1.
         21   -1    0    0  501  502 -0.00000000000E+00 -0.00000000000E+00 -0.19466519557E+03  0.19466519557E+03  0.00000000000E+00 0.  1.
         25    1    1    2    0    0  0.27199613433E+02 -0.24606284280E+03  0.30027432432E+03  0.40874981520E+03  0.12500000000E+03 0.  0.
         25    1    1    2    0    0  0.10503434276E+03 -0.11998738719E+03  0.20649273984E+02  0.20366781474E+03  0.12500000000E+03 0.  0.
         25    1    1    2    0    0 -0.13223395620E+03  0.36605022999E+03  0.80507715944E+03  0.90291351895E+03  0.12500000000E+03 0.  0.
</event>
<event>
 5    0  0.5764392E-005  0.3813556E+03  0.7546771E-02  0.1050434E+00
         21   -1    0    0  502  501  0.00000000000E+00  0.00000000000E+00  0.53084693842E+03  0.53084693842E+03  0.00000000000E+00 0. -1.
         21   -1    0    0  501  502 -0.00000000000E+00 -0.00000000000E+00 -0.27396236990E+03  0.27396236990E+03  0.00000000000E+00 0. -1.
         25    1    1    2    0    0  0.14147157292E+03 -0.22326409004E+03  0.21020928377E+03  0.36010276704E+03  0.12500000000E+03 0.  0.
         25    1    1    2    0    0 -0.70825164342E+02 -0.33897511807E+02  0.20155779375E+02  0.14898490076E+03  0.12500000000E+03 0.  0.
         25    1    1    2    0    0 -0.70646408580E+02  0.25716160185E+03  0.26519505370E+02  0.29572164052E+03  0.12500000000E+03 0.  0.
</event>
<event>
 5    0  0.5764392E-005  0.3159205E+03  0.7546771E-02  0.1077542E+00
         21   -1    0    0  502  501  0.00000000000E+00  0.00000000000E+00  0.10983548901E+03  0.10983548901E+03  0.00000000000E+00 0. -1.
         21   -1    0    0  501  502 -0.00000000000E+00 -0.00000000000E+00 -0.90868406141E+03  0.90868406141E+03  0.00000000000E+00 0. -1.
         25    1    1    2    0    0 -0.12883086941E+03  0.12284654645E+03 -0.36724449654E+03  0.42682805335E+03  0.12500000000E+03 0.  0.
         25    1    1    2    0    0  0.50545003792E+02 -0.13357423827E+03 -0.39667442481E+03  0.43974137153E+03  0.12500000000E+03 0.  0.
         25    1    1    2    0    0  0.78285865617E+02  0.10727691814E+02 -0.34929651043E+02  0.15195012553E+03  0.12500000000E+03 0.  0.
</event>
<event>
 5    0  0.5764392E-005  0.3325240E+03  0.7546771E-02  0.1070025E+00
         21   -1    0    0  502  501  0.00000000000E+00  0.00000000000E+00  0.82478413686E+03  0.82478413686E+03  0.00000000000E+00 0.  1.
         21   -1    0    0  501  502 -0.00000000000E+00 -0.00000000000E+00 -0.13406202222E+03  0.13406202222E+03  0.00000000000E+00 0.  1.
         25    1    1    2    0    0 -0.11529572816E+03 -0.10948512895E+03  0.57307115914E+03  0.60771346195E+03  0.12500000000E+03 0.  0.
         25    1    1    2    0    0  0.11112221799E+03  0.11579161645E+03  0.53065412356E+02  0.21023031123E+03  0.12500000000E+03 0.  0.
         25    1    1    2    0    0  0.41735101676E+01 -0.63064874952E+01  0.64585543146E+02  0.14090238591E+03  0.12500000000E+03 0.  0.
</event>
<event>
 5    0  0.5764392E-005  0.2692038E+03  0.7546771E-02  0.1101736E+00
         21   -1    0    0  502  501  0.00000000000E+00  0.00000000000E+00  0.38284534498E+03  0.38284534498E+03  0.00000000000E+00 0. -1.
         21   -1    0    0  501  502 -0.00000000000E+00 -0.00000000000E+00 -0.18929497006E+03  0.18929497006E+03  0.00000000000E+00 0. -1.
         25    1    1    2    0    0  0.80246272482E+02 -0.35523659202E+02  0.29169330513E+02  0.15549033556E+03  0.12500000000E+03 0.  0.
         25    1    1    2    0    0 -0.15800072285E+03 -0.56220901054E+02  0.97025850383E+02  0.23057327204E+03  0.12500000000E+03 0.  0.
         25    1    1    2    0    0  0.77754450366E+02  0.91744560256E+02  0.67355194033E+02  0.18607670744E+03  0.12500000000E+03 0.  0.
</event>
<event>
 5    0  0.5764392E-005  0.2834778E+03  0.7546771E-02  0.1093804E+00
         21   -1    0    0  502  501  0.00000000000E+00  0.00000000000E+00  0.54673089194E+03  0.54673089194E+03  0.00000000000E+00 0.  1.
         21   -1    0    0  501  502 -0.00000000000E+00 -0.00000000000E+00 -0.14698215268E+03  0.14698215268E+03  0.00000000000E+00 0.  1.
         25    1    1    2    0    0  0.83269354581E+01 -0.11195262232E+03  0.19735100248E+03  0.25918168469E+03  0.12500000000E+03 0.  0.
         25    1    1    2    0    0 -0.17318111663E+00 -0.72821932208E+02  0.14326274352E+03  0.20359832387E+03  0.12500000000E+03 0.  0.
         25    1    1    2    0    0 -0.81537543415E+01  0.18477455453E+03  0.59134993259E+02  0.23093303605E+03  0.12500000000E+03 0.  0.
</event>
<event>
 5    0  0.5764392E-005  0.2697418E+03  0.7546771E-02  0.1101427E+00
         21   -1    0    0  502  501  0.00000000000E+00  0.00000000000E+00  0.90411686345E+02  0.90411686345E+02  0.00000000000E+00 0. -1.
         21   -1    0    0  501  502 -0.00000000000E+00 -0.00000000000E+00 -0.80477009366E+03  0.80477009366E+03  0.00000000000E+00 0. -1.
         25    1    1    2    0    0  0.86739687424E+02  0.42247984735E+02 -0.10486786307E+03  0.18955456811E+03  0.12500000000E+03 0.  0.
         25    1    1    2    0    0  0.74095808392E+02 -0.17780235817E+02 -0.30708471930E+03  0.34019457731E+03  0.12500000000E+03 0.  0.
         25    1    1    2    0    0 -0.16083549582E+03 -0.24467748918E+02 -0.30240582495E+03  0.36543263458E+03  0.12500000000E+03 0.  0.
</event>
<event>
 5    0  0.5764392E-005  0.4265829E+03  0.7546771E-02  0.1034945E+00
         21   -1    0    0  502  501  0.00000000000E+00  0.00000000000E+00  0.19767312196E+03  0.19767312196E+03  0.00000000000E+00 0. -1.
         21   -1    0    0  501  502 -0.00000000000E+00 -0.00000000000E+00 -0.92057538923E+03  0.92057538923E+03  0.00000000000E+00 0. -1.
         25    1    1    2    0    0 -0.56169753218E+02 -0.45517382074E+02 -0.16451822581E+03  0.21890207827E+03  0.12500000000E+03 0.  0.
         25    1    1    2    0    0 -0.21125410360E+03 -0.94501774663E+02 -0.50347957020E+03  0.56804538491E+03  0.12500000000E+03 0.  0.
         25    1    1    2    0    0  0.26742385682E+03  0.14001915674E+03 -0.54904471256E+02  0.33130104801E+03  0.12500000000E+03 0.  0.
</event>
<event>
 5    0  0.5764392E-005  0.3129734E+03  0.7546771E-02  0.1078929E+00
         21   -1    0    0  502  501  0.00000000000E+00  0.00000000000E+00  0.17092383082E+04  0.17092383082E+04  0.00000000000E+00 0. -1.
         21   -1    0    0  501  502 -0.00000000000E+00 -0.00000000000E+00 -0.57307619899E+02  0.57307619899E+02  0.00000000000E+00 0. -1.
         25    1    1    2    0    0 -0.47282793064E+02 -0.11103457980E+03  0.45162723468E+03  0.48389719935E+03  0.12500000000E+03 0.  0.
         25    1    1    2    0    0 -0.14929715510E+03  0.79234832464E+02  0.45669542175E+03  0.50275591239E+03  0.12500000000E+03 0.  0.
         25    1    1    2    0    0  0.19657994816E+03  0.31799747331E+02  0.74360803183E+03  0.77989281633E+03  0.12500000000E+03 0.  0.
</event>
<event>
 5    0  0.5764392E-005  0.2741482E+03  0.7546771E-02  0.1098929E+00
         21   -1    0    0  502  501  0.00000000000E+00  0.00000000000E+00  0.49605093608E+02  0.49605093608E+02  0.00000000000E+00 0.  1.
         21   -1    0    0  501  502 -0.00000000000E+00 -0.00000000000E+00 -0.15151109286E+04  0.15151109286E+04  0.00000000000E+00 0.  1.
         25    1    1    2    0    0  0.10834337614E+03 -0.43004118912E+02 -0.53481868727E+03  0.56146564423E+03  0.12500000000E+03 0.  0.
         25    1    1    2    0    0  0.12231067640E+02  0.24202287513E+02 -0.12500742706E+03  0.17884967586E+03  0.12500000000E+03 0.  0.
         25    1    1    2    0    0 -0.12057444378E+03  0.18801831399E+02 -0.80567972066E+03  0.82440070211E+03  0.12500000000E+03 0.  0.
</event>
<event>
 5    0  0.5764392E-005  0.2800549E+03  0.7546771E-02  0.1095659E+00
         21   -1    0    0  502  501  0.00000000000E+00  0.00000000000E+00  0.28160731203E+03  0.28160731203E+03  0.00000000000E+00 0. -1.
         21   -1    0    0  501  502 -0.00000000000E+00 -0.00000000000E+00 -0.27851107792E+03  0.27851107792E+03  0.00000000000E+00 0. -1.
         25    1    1    2    0    0  0.15787941178E+03 -0.17571288391E+02  0.98711289941E+02  0.22495238963E+03  0.12500000000E+03 0.  0.
         25    1    1    2    0    0 -0.38623905498E+02  0.59084539414E+02 -0.43559274236E+02  0.15001732982E+03  0.12500000000E+03 0.  0.
         25    1    1    2    0    0 -0.11925550628E+03 -0.41513251023E+02 -0.52055781597E+02  0.18514867050E+03  0.12500000000E+03 0.  0.
</event>
<event>
 5    0  0.5764392E-005  0.2770429E+03  0.7546771E-02  0.1097315E+00
         21   -1    0    0  502  501  0.00000000000E+00  0.00000000000E+00  0.19955236424E+03  0.19955236424E+03  0.00000000000E+00 0.  1.
         21   -1    0    0  501  502 -0.00000000000E+00 -0.00000000000E+00 -0.38462478537E+03  0.38462478537E+03  0.00000000000E+00 0.  1.
         25    1    1    2    0    0 -0.60826521237E+02 -0.16826581915E+03 -0.87180206330E+02  0.23502901939E+03  0.12500000000E+03 0.  0.
         25    1    1    2    0    0  0.65361258049E+02  0.65448210289E+02 -0.10407167012E+03  0.18711353453E+03  0.12500000000E+03 0.  0.
         25    1    1    2    0    0 -0.45347368123E+01  0.10281760886E+03  0.61794553261E+01  0.16203459568E+03  0.12500000000E+03 0.  0.
</event>
<event>
 5    0  0.5764392E-005  0.2977255E+03  0.7546771E-02  0.1086383E+00
         21   -1    0    0  502  501  0.00000000000E+00  0.00000000000E+00  0.64191971850E+03  0.64191971850E+03  0.00000000000E+00 0.  1.
         21   -1    0    0  501  502 -0.00000000000E+00 -0.00000000000E+00 -0.13808657982E+03  0.13808657982E+03  0.00000000000E+00 0.  1.
         25    1    1    2    0    0  0.93030228264E+02  0.12287084982E+03  0.56738572937E+02  0.20638831063E+03  0.12500000000E+03 0.  0.
         25    1    1    2    0    0 -0.11385461094E+03  0.15253072189E+02  0.24391471164E+03  0.29717825492E+03  0.12500000000E+03 0.  0.
         25    1    1    2    0    0  0.20824382672E+02 -0.13812392201E+03  0.20317985410E+03  0.27643973278E+03  0.12500000000E+03 0.  0.
</event>
<event>
 5    0  0.5764392E-005  0.3561025E+03  0.7546771E-02  0.1060138E+00
         21   -1    0    0  502  501  0.00000000000E+00  0.00000000000E+00  0.32578349999E+03  0.32578349999E+03  0.00000000000E+00 0.  1.
         21   -1    0    0  501  502 -0.00000000000E+00 -0.00000000000E+00 -0.38924318272E+03  0.38924318272E+03  0.00000000000E+00 0.  1.
         25    1    1    2    0    0  0.76400160016E+02  0.19943904606E+03 -0.14146134652E+03  0.28504250578E+03  0.12500000000E+03 0.  0.
         25    1    1    2    0    0 -0.69777855332E+01 -0.21928201726E+03  0.12010758040E+03  0.27961424044E+03  0.12500000000E+03 0.  0.
         25    1    1    2    0    0 -0.69422374483E+02  0.19842971202E+02 -0.42105916610E+02  0.15036993649E+03  0.12500000000E+03 0.  0.
</event>
<event>
 5    0  0.5764392E-005  0.5766051E+03  0.7546771E-02  0.9955168E-01
         21   -1    0    0  502  501  0.00000000000E+00  0.00000000000E+00  0.23883548041E+03  0.23883548041E+03  0.00000000000E+00 0. -1.
         21   -1    0    0  501  502 -0.00000000000E+00 -0.00000000000E+00 -0.13920605182E+04  0.13920605182E+04  0.00000000000E+00 0. -1.
         25    1    1    2    0    0  0.63798455243E+02  0.41726217117E+03 -0.48731531806E+03  0.65671849494E+03  0.12500000000E+03 0.  0.
         25    1    1    2    0    0  0.43454529006E+01 -0.32250153681E+03 -0.71667147367E+03  0.79578208410E+03  0.12500000000E+03 0.  0.
         25    1    1    2    0    0 -0.68143908144E+02 -0.94760634367E+02  0.50761753972E+02  0.17839541953E+03  0.12500000000E+03 0.  0.
</event>
<event>
 5    0  0.6585126E-005  0.4197640E+03  0.7546771E-02  0.1037143E+00
         21   -1    0    0  502  501  0.00000000000E+00  0.00000000000E+00  0.37225921173E+03  0.37225921173E+03  0.00000000000E+00 0.  1.
         21   -1    0    0  501  502 -0.00000000000E+00 -0.00000000000E+00 -0.47333107190E+03  0.47333107190E+03  0.00000000000E+00 0.  1.
         25    1    1    2    0    0  0.63442657180E+01  0.33716111233E+01  0.18892227557E+03  0.22664563459E+03  0.12500000000E+03 0.  0.
         25    1    1    2    0    0 -0.22756121255E+03 -0.62268873717E+02 -0.22740515968E+03  0.35071302334E+03  0.12500000000E+03 0.  0.
         25    1    1    2    0    0  0.22121694683E+03  0.58897262594E+02 -0.62588976060E+02  0.26823162571E+03  0.12500000000E+03 0.  0.
</event>
<event>
 5    0  0.5764392E-005  0.2862524E+03  0.7546771E-02  0.1092322E+00
         21   -1    0    0  502  501  0.00000000000E+00  0.00000000000E+00  0.19505090570E+03  0.19505090570E+03  0.00000000000E+00 0.  1.
         21   -1    0    0  501  502 -0.00000000000E+00 -0.00000000000E+00 -0.42009781538E+03  0.42009781538E+03  0.00000000000E+00 0.  1.
         25    1    1    2    0    0  0.44652122395E+02  0.14628610136E+02 -0.40219915812E+02  0.13946486976E+03  0.12500000000E+03 0.  0.
         25    1    1    2    0    0  0.59564316867E+02  0.31196380563E+02  0.78916266188E+02  0.16240042818E+03  0.12500000000E+03 0.  0.
         25    1    1    2    0    0 -0.10421643926E+03 -0.45824990699E+02 -0.26374326006E+03  0.31328342314E+03  0.12500000000E+03 0.  0.
</event>
<event>
 5    0  0.5764392E-005  0.3319552E+03  0.7546771E-02  0.1070275E+00
         21   -1    0    0  502  501  0.00000000000E+00  0.00000000000E+00  0.66506921836E+02  0.66506921836E+02  0.00000000000E+00 0.  1.
         21   -1    0    0  501  502 -0.00000000000E+00 -0.00000000000E+00 -0.16568840549E+04  0.16568840549E+04  0.00000000000E+00 0.  1.
         25    1    1    2    0    0  0.43597644774E+02 -0.20665240781E+02 -0.25026133530E+03  0.28387240576E+03  0.12500000000E+03 0.  0.
         25    1    1    2    0    0  0.84868318319E+02 -0.81896973011E+02 -0.13971572446E+03  0.22148415136E+03  0.12500000000E+03 0.  0.
         25    1    1    2    0    0 -0.12846596309E+03  0.10256221379E+03 -0.12004000733E+04  0.12180344196E+04  0.12500000000E+03 0.  0.
</event>
<event>
 5    0  0.5764392E-005  0.3838535E+03  0.7546771E-02  0.1049519E+00
         21   -1    0    0  502  501  0.00000000000E+00  0.00000000000E+00  0.41571481851E+03  0.41571481851E+03  0.00000000000E+00 0.  1.
         21   -1    0    0  501  502 -0.00000000000E+00 -0.00000000000E+00 -0.35443409168E+03  0.35443409168E+03  0.00000000000E+00 0.  1.
         25    1    1    2    0    0 -0.33400956345E+02  0.19399590260E+03  0.26409885157E+02  0.23467534200E+03  0.12500000000E+03 0.  0.
         25    1    1    2    0    0 -0.12830902832E+03  0.34011929949E+01 -0.11631298469E+03  0.21360825188E+03  0.12500000000E+03 0.  0.
         25    1    1    2    0    0  0.16170998466E+03 -0.19739709559E+03  0.15118382637E+03  0.32186531631E+03  0.12500000000E+03 0.  0.
</event>
<event>
 5    0  0.5764392E-005  0.2685805E+03  0.7546771E-02  0.1102095E+00
         21   -1    0    0  502  501  0.00000000000E+00  0.00000000000E+00  0.10808201537E+04  0.10808201537E+04  0.00000000000E+00 0.  1.
         21   -1    0    0  501  502 -0.00000000000E+00 -0.00000000000E+00 -0.66741427779E+02  0.66741427779E+02  0.00000000000E+00 0.  1.
         25    1    1    2    0    0 -0.25752933293E+02  0.11166044498E+03  0.64930884811E+03  0.67108736300E+03  0.12500000000E+03 0.  0.
         25    1    1    2    0    0  0.98118440527E+01 -0.94039096370E+02  0.28795802252E+03  0.32784820674E+03  0.12500000000E+03 0.  0.
         25    1    1    2    0    0  0.15941089241E+02 -0.17621348608E+02  0.76811855302E+02  0.14862601175E+03  0.12500000000E+03 0.  0.
</event>
<event>
 5    0  0.5764392E-005  0.2721365E+03  0.7546771E-02  0.1100063E+00
         21   -1    0    0  502  501  0.00000000000E+00  0.00000000000E+00  0.65549020045E+02  0.65549020045E+02  0.00000000000E+00 0. -1.
         21   -1    0    0  501  502 -0.00000000000E+00 -0.00000000000E+00 -0.11298153120E+04  0.11298153120E+04  0.00000000000E+00 0.  1.
         25    1    1    2    0    0  0.98424887531E+02 -0.95913204231E+02 -0.55484055866E+03  0.58511524229E+03  0.12500000000E+03 0.  0.
         25    1    1    2    0    0 -0.19204240408E+02 -0.17594702591E+02 -0.10656938139E+03  0.16631418899E+03  0.12500000000E+03 0.  0.
         25    1    1    2    0    0 -0.79220647123E+02  0.11350790682E+03 -0.40285635188E+03  0.44393490074E+03  0.12500000000E+03 0.  0.
</event>
<event>
 5    0  0.5764392E-005  0.2567881E+03  0.7546771E-02  0.1109089E+00
         21   -1    0    0  502  501  0.00000000000E+00  0.00000000000E+00  0.13499067060E+04  0.13499067060E+04  0.00000000000E+00 0.  1.
         21   -1    0    0  501  502 -0.00000000000E+00 -0.00000000000E+00 -0.48847899978E+02  0.48847899978E+02  0.00000000000E+00 0.  1.
         25    1    1    2    0    0  0.13144753236E+02 -0.49360560820E+02  0.52503118129E+03  0.54211805986E+03  0.12500000000E+03 0.  0.
         25    1    1    2    0    0 -0.55636279079E+02  0.11888291795E+03  0.24322275339E+03  0.30333290540E+03  0.12500000000E+03 0.  0.
         25    1    1    2    0    0  0.42491525842E+02 -0.69522357130E+02  0.53280487137E+03  0.55330364074E+03  0.12500000000E+03 0.  0.
</event>
<event>
 5    0  0.5764392E-005  0.3055627E+03  0.7546771E-02  0.1082492E+00
         21   -1    0    0  502  501  0.00000000000E+00  0.00000000000E+00  0.15854221313E+03  0.15854221313E+03  0.00000000000E+00 0. -1.
         21   -1    0    0  501  502 -0.00000000000E+00 -0.00000000000E+00 -0.58891936797E+03  0.58891936797E+03  0.00000000000E+00 0. -1.
         25    1    1    2    0    0  0.21526737853E+02 -0.22544605001E+03 -0.24021561833E+03  0.35301255671E+03  0.12500000000E+03 0.  0.
         25    1    1    2    0    0 -0.28460287928E+02  0.10682283910E+03 -0.13089455394E+03  0.21208368912E+03  0.12500000000E+03 0.  0.
         25    1    1    2    0    0  0.69335500754E+01  0.11862321091E+03 -0.59266982581E+02  0.18236533527E+03  0.12500000000E+03 0.  0.
</event>
<event>
 5    0  0.5764392E-005  0.2658883E+03  0.7546771E-02  0.1103656E+00
         21   -1    0    0  502  501  0.00000000000E+00  0.00000000000E+00  0.71140705762E+02  0.71140705762E+02  0.00000000000E+00 0. -1.
         21   -1    0    0  501  502 -0.00000000000E+00 -0.00000000000E+00 -0.99375708291E+03  0.99375708291E+03  0.00000000000E+00 0. -1.
         25    1    1    2    0    0  0.99602053646E+02 -0.24336587984E+02 -0.32169410673E+03  0.36003463293E+03  0.12500000000E+03 0.  0.
         25    1    1    2    0    0  0.51373902810E+02 -0.68110003825E+02 -0.26242720551E+03  0.30293776375E+03  0.12500000000E+03 0.  0.
         25    1    1    2    0    0 -0.15097595646E+03  0.92446591809E+02 -0.33849506491E+03  0.40192539200E+03  0.12500000000E+03 0.  0.
</event>
<event>
 5    0  0.5764392E-005  0.3649261E+03  0.7546771E-02  0.1056650E+00
         21   -1    0    0  502  501  0.00000000000E+00  0.00000000000E+00  0.24120010869E+03  0.24120010869E+03  0.00000000000E+00 0.  1.
         21   -1    0    0  501  502 -0.00000000000E+00 -0.00000000000E+00 -0.55211857931E+03  0.55211857931E+03  0.00000000000E+00 0.  1.
         25    1    1    2    0    0  0.28467589755E+03 -0.62274413546E+02 -0.19268843472E+03  0.37104218372E+03  0.12500000000E+03 0.  0.
         25    1    1    2    0    0 -0.19144300645E+03  0.76113132999E+02 -0.30718273959E+02  0.24292436290E+03  0.12500000000E+03 0.  0.
         25    1    1    2    0    0 -0.93232891101E+02 -0.13838719453E+02 -0.87511761949E+02  0.17935214138E+03  0.12500000000E+03 0.  0.
</event>
<event>
 5    0  0.5764392E-005  0.3098887E+03  0.7546771E-02  0.1080399E+00
         21   -1    0    0  502  501  0.00000000000E+00  0.00000000000E+00  0.15464752462E+03  0.15464752462E+03  0.00000000000E+00 0.  1.
         21   -1    0    0  501  502 -0.00000000000E+00 -0.00000000000E+00 -0.62096687274E+03  0.62096687274E+03  0.00000000000E+00 0.  1.
         25    1    1    2    0    0 -0.15946771858E+02  0.47331296653E+02 -0.35087767697E+03  0.37581204793E+03  0.12500000000E+03 0.  0.
         25    1    1    2    0    0 -0.66688908326E+02  0.85929208964E+02  0.51986193087E+01  0.16578077419E+03  0.12500000000E+03 0.  0.
         25    1    1    2    0    0  0.82635680184E+02 -0.13326050562E+03 -0.12064029046E+03  0.23402157524E+03  0.12500000000E+03 0.  0.
</event>
<event>
 5    0  0.6122326E-005  0.3157758E+03  0.7546771E-02  0.1077610E+00
         21   -1    0    0  502  501  0.00000000000E+00  0.00000000000E+00  0.42780515535E+03  0.42780515535E+03  0.00000000000E+00 0. -1.
         21   -1    0    0  501  502 -0.00000000000E+00 -0.00000000000E+00 -0.23308354769E+03  0.23308354769E+03  0.00000000000E+00 0. -1.
         25    1    1    2    0    0 -0.90412175595E+02  0.43358137367E+02  0.23378853681E+03  0.28343671166E+03  0.12500000000E+03 0.  0.
         25    1    1    2    0    0 -0.25855983771E+02  0.92162684156E+02 -0.14542502885E+02  0.15811064682E+03  0.12500000000E+03 0.  0.
         25    1    1    2    0    0  0.11626815937E+03 -0.13552082152E+03 -0.24524426263E+02  0.21934134456E+03  0.12500000000E+03 0.  0.
</event>
<event>
 5    0  0.5764392E-005  0.2363232E+03  0.7546771E-02  0.1122267E+00
         21   -1    0    0  502  501  0.00000000000E+00  0.00000000000E+00  0.21324292084E+03  0.21324292084E+03  0.00000000000E+00 0.  1.
         21   -1    0    0  501  502 -0.00000000000E+00 -0.00000000000E+00 -0.26190155533E+03  0.26190155533E+03  0.00000000000E+00 0.  1.
         25    1    1    2    0    0  0.12678827987E+02 -0.17201925668E+02  0.11091835384E+02  0.12729763446E+03  0.12500000000E+03 0.  0.
         25    1    1    2    0    0  0.42736326403E+02 -0.48867029378E+02  0.61331410684E+02  0.15362591608E+03  0.12500000000E+03 0.  0.
         25    1    1    2    0    0 -0.55415154391E+02  0.66068955045E+02 -0.12108188056E+03  0.19422092564E+03  0.12500000000E+03 0.  0.
</event>
<event>
 5    0  0.5764392E-005  0.2978749E+03  0.7546771E-02  0.1086308E+00
         21   -1    0    0  502  501  0.00000000000E+00  0.00000000000E+00  0.48655039885E+02  0.48655039885E+02  0.00000000000E+00 0.  1.
         21   -1    0    0  501  502 -0.00000000000E+00 -0.00000000000E+00 -0.18236436939E+04  0.18236436939E+04  0.00000000000E+00 0.  1.
         25    1    1    2    0    0 -0.36361092486E+02 -0.36397831003E+02 -0.27802568521E+03  0.30914432356E+03  0.12500000000E+03 0.  0.
         25    1    1    2    0    0  0.19386584061E+03 -0.40605242965E+02 -0.81752169431E+03  0.85041135375E+03  0.12500000000E+03 0.  0.
         25    1    1    2    0    0 -0.15750474813E+03  0.77003073968E+02 -0.67944127449E+03  0.71274305648E+03  0.12500000000E+03 0.  0.
</event>
<event>
 5    0  0.5764392E-005  0.2588716E+03  0.7546771E-02  0.1107823E+00
         21   -1    0    0  502  501  0.00000000000E+00  0.00000000000E+00  0.14265051558E+04  0.14265051558E+04  0.00000000000E+00 0. -1.
         21   -1    0    0  501  502 -0.00000000000E+00 -0.00000000000E+00 -0.46978120153E+02  0.46978120153E+02  0.00000000000E+00 0. -1.
         25    1    1    2    0    0  0.33279386092E+02 -0.17841499127E+02  0.49277186966E+03  0.50977931712E+03  0.12500000000E+03 0.  0.
         25    1    1    2    0    0  0.17994968264E+02 -0.90637276656E+02  0.66149464308E+03  0.67951386861E+03  0.12500000000E+03 0.  0.
         25    1    1    2    0    0 -0.51274354356E+02  0.10847877578E+03  0.22526052293E+03  0.28419009026E+03  0.12500000000E+03 0.  0.
</event>
<event>
 5    0  0.5764392E-005  0.2393734E+03  0.7546771E-02  0.1120211E+00
         21   -1    0    0  502  501  0.00000000000E+00  0.00000000000E+00  0.20439704379E+03  0.20439704379E+03  0.00000000000E+00 0. -1.
         21   -1    0    0  501  502 -0.00000000000E+00 -0.00000000000E+00 -0.28033481216E+03  0.28033481216E+03  0.00000000000E+00 0. -1.
         25    1    1    2    0    0  0.52775461341E+02  0.83144970569E+02 -0.12848368153E+02  0.15965091924E+03  0.12500000000E+03 0.  0.
         25    1    1    2    0    0 -0.18152775143E+02 -0.12967030396E+03 -0.32208151120E+02  0.18386483071E+03  0.12500000000E+03 0.  0.
         25    1    1    2    0    0 -0.34622686198E+02  0.46525333392E+02 -0.30881249090E+02  0.14121610599E+03  0.12500000000E+03 0.  0.
</event>
<event>
 5    0  0.5764392E-005  0.3383712E+03  0.7546771E-02  0.1067492E+00
         21   -1    0    0  502  501  0.00000000000E+00  0.00000000000E+00  0.17654595119E+03  0.17654595119E+03  0.00000000000E+00 0. -1.
         21   -1    0    0  501  502 -0.00000000000E+00 -0.00000000000E+00 -0.64852861908E+03  0.64852861908E+03  0.00000000000E+00 0. -1.
         25    1    1    2    0    0  0.86883832166E+02 -0.35851482311E+02 -0.10579163977E+03  0.18881472432E+03  0.12500000000E+03 0.  0.
         25    1    1    2    0    0  0.15586159302E+03 -0.38037126160E+02 -0.26886367623E+03  0.33712362056E+03  0.12500000000E+03 0.  0.
         25    1    1    2    0    0 -0.24274542519E+03  0.73888608471E+02 -0.97327351893E+02  0.29913622539E+03  0.12500000000E+03 0.  0.
</event>
<event>
 5    0  0.5764392E-005  0.2553357E+03  0.7546771E-02  0.1109978E+00
         21   -1    0    0  502  501  0.00000000000E+00  0.00000000000E+00  0.64692683537E+02  0.64692683537E+02  0.00000000000E+00 0. -1.
         21   -1    0    0  501  502 -0.00000000000E+00 -0.00000000000E+00 -0.10077851174E+04  0.10077851174E+04  0.00000000000E+00 0. -1.
         25    1    1    2    0    0 -0.10865991061E+03  0.31818162589E+02 -0.24693343310E+03  0.29903259358E+03  0.12500000000E+03 0.  0.
         25    1    1    2    0    0  0.12171129685E+03 -0.39587949761E+01 -0.22344798948E+03  0.28351951581E+03  0.12500000000E+03 0.  0.
         25    1    1    2    0    0 -0.13051386243E+02 -0.27859367613E+02 -0.47271101126E+03  0.48992569153E+03  0.12500000000E+03 0.  0.
</event>
<event>
 5    0  0.5764392E-005  0.3662382E+03  0.7546771E-02  0.1056141E+00
         21   -1    0    0  502  501  0.00000000000E+00  0.00000000000E+00  0.18292177544E+04  0.18292177544E+04  0.00000000000E+00 0. -1.
         21   -1    0    0  501  502 -0.00000000000E+00 -0.00000000000E+00 -0.73326638480E+02  0.73326638480E+02  0.00000000000E+00 0. -1.
         25    1    1    2    0    0 -0.20429785555E+03 -0.14937684780E+03  0.10182629259E+04  0.10566624072E+04  0.12500000000E+03 0.  0.
         25    1    1    2    0    0  0.12368225719E+03  0.17338454921E+03  0.33650979023E+03  0.41740069666E+03  0.12500000000E+03 0.  0.
         25    1    1    2    0    0  0.80615598366E+02 -0.24007701415E+02  0.40111839975E+03  0.42848128903E+03  0.12500000000E+03 0.  0.
</event>
<event>
 5    0  0.5764392E-005  0.4038516E+03  0.7546771E-02  0.1042454E+00
         21   -1    0    0  502  501  0.00000000000E+00  0.00000000000E+00  0.21436857809E+03  0.21436857809E+03  0.00000000000E+00 0. -1.
         21   -1    0    0  501  502 -0.00000000000E+00 -0.00000000000E+00 -0.76082108001E+03  0.76082108001E+03  0.00000000000E+00 0. -1.
         25    1    1    2    0    0  0.16605345262E+03 -0.64231151521E+02 -0.31745159079E+03  0.38483750135E+03  0.12500000000E+03 0.  0.
         25    1    1    2    0    0 -0.55221417097E+02  0.13894979668E+03  0.96090008565E+02  0.21728953185E+03  0.12500000000E+03 0.  0.
         25    1    1    2    0    0 -0.11083203552E+03 -0.74718645158E+02 -0.32509091969E+03  0.37306262490E+03  0.12500000000E+03 0.  0.
</event>
<event>
 5    0  0.5767983E-005  0.2768566E+03  0.7546771E-02  0.1097418E+00
         21   -1    0    0  502  501  0.00000000000E+00  0.00000000000E+00  0.69057128219E+02  0.69057128219E+02  0.00000000000E+00 0.  1.
         21   -1    0    0  501  502 -0.00000000000E+00 -0.00000000000E+00 -0.11099441619E+04  0.11099441619E+04  0.00000000000E+00 0.  1.
         25    1    1    2    0    0  0.23885479628E+02  0.64987595373E+02 -0.12499630125E+03  0.18984988548E+03  0.12500000000E+03 0.  0.
         25    1    1    2    0    0  0.10472098175E+03 -0.44760143625E+02 -0.27055768078E+03  0.31905550160E+03  0.12500000000E+03 0.  0.
         25    1    1    2    0    0 -0.12860646138E+03 -0.20227451749E+02 -0.64533305167E+03  0.67009590306E+03  0.12500000000E+03 0.  0.
</event>
<event>
 5    0  0.5764392E-005  0.3784119E+03  0.7546771E-02  0.1051522E+00
         21   -1    0    0  502  501  0.00000000000E+00  0.00000000000E+00  0.21966562939E+03  0.21966562939E+03  0.00000000000E+00 0. -1.
         21   -1    0    0  501  502 -0.00000000000E+00 -0.00000000000E+00 -0.65187974635E+03  0.65187974635E+03  0.00000000000E+00 0. -1.
         25    1    1    2    0    0 -0.39065686134E+02 -0.14924916418E+03 -0.20035110169E+02  0.19956915212E+03  0.12500000000E+03 0.  0.
         25    1    1    2    0    0  0.25335746724E+02  0.30477754819E+03 -0.24533698736E+03  0.41151730378E+03  0.12500000000E+03 0.  0.
         25    1    1    2    0    0  0.13729939409E+02 -0.15552838402E+03 -0.16684201944E+03  0.26045891983E+03  0.12500000000E+03 0.  0.
</event>
<event>
 5    0  0.5764392E-005  0.2977288E+03  0.7546771E-02  0.1086381E+00
         21   -1    0    0  502  501  0.00000000000E+00  0.00000000000E+00  0.20202358823E+03  0.20202358823E+03  0.00000000000E+00 0.  1.
         21   -1    0    0  501  502 -0.00000000000E+00 -0.00000000000E+00 -0.43877278772E+03  0.43877278772E+03  0.00000000000E+00 0.  1.
         25    1    1    2    0    0  0.11398387332E+03  0.54593572857E+02 -0.22353479864E+03  0.28559689735E+03  0.12500000000E+03 0.  0.
         25    1    1    2    0    0  0.23799413756E+02  0.52634688582E+02 -0.25829623135E+02  0.14010350448E+03  0.12500000000E+03 0.  0.
         25    1    1    2    0    0 -0.13778328708E+03 -0.10722826144E+03  0.12615222285E+02  0.21509597412E+03  0.12500000000E+03 0.  0.
</event>
<event>
 5    0  0.5764392E-005  0.3121909E+03  0.7546771E-02  0.1079300E+00
         21   -1    0    0  502  501  0.00000000000E+00  0.00000000000E+00  0.55116958324E+02  0.55116958324E+02  0.00000000000E+00 0. -1.
         21   -1    0    0  501  502 -0.00000000000E+00 -0.00000000000E+00 -0.17682974291E+04  0.17682974291E+04  0.00000000000E+00 0. -1.
         25    1    1    2    0    0  0.10163341110E+03  0.10001064111E+03 -0.37225588676E+03  0.41776898379E+03  0.12500000000E+03 0.  0.
         25    1    1    2    0    0 -0.20730954034E+03 -0.75171167805E+02 -0.73354923919E+03  0.77611045368E+03  0.12500000000E+03 0.  0.
         25    1    1    2    0    0  0.10567612924E+03 -0.24839473304E+02 -0.60737534484E+03  0.62953494998E+03  0.12500000000E+03 0.  0.
</event>
<event>
 5    0  0.5955118E-005  0.3808879E+03  0.7546771E-02  0.1050606E+00
         21   -1    0    0  502  501  0.00000000000E+00  0.00000000000E+00  0.42982970399E+03  0.42982970399E+03  0.00000000000E+00 0.  1.
         21   -1    0    0  501  502 -0.00000000000E+00 -0.00000000000E+00 -0.33751878421E+03  0.33751878421E+03  0.00000000000E+00 0.  1.
         25    1    1    2    0    0  0.15976428063E+03 -0.66597863277E+02  0.15196361042E+03  0.26206457153E+03  0.12500000000E+03 0.  0.
         25    1    1    2    0    0  0.11851600815E+03 -0.40377379352E+02 -0.21703772972E+01  0.17693526356E+03  0.12500000000E+03 0.  0.
         25    1    1    2    0    0 -0.27828028878E+03  0.10697524263E+03 -0.57482313344E+02  0.32834865312E+03  0.12500000000E+03 0.  0.
</event>
<event>
 5    0  0.5764392E-005  0.2683816E+03  0.7546771E-02  0.1102209E+00
         21   -1    0    0  502  501  0.00000000000E+00  0.00000000000E+00  0.91960284744E+02  0.91960284744E+02  0.00000000000E+00 0.  1.
         21   -1    0    0  501  502 -0.00000000000E+00 -0.00000000000E+00 -0.78325847389E+03  0.78325847389E+03  0.00000000000E+00 0.  1.
         25    1    1    2    0    0 -0.18571264671E+02  0.70130264125E+02 -0.80295735965E+02  0.16533466373E+03  0.12500000000E+03 0.  0.
         25    1    1    2    0    0 -0.10439840326E+03  0.16196617697E+02 -0.31855816450E+03  0.35814195677E+03  0.12500000000E+03 0.  0.
         25    1    1    2    0    0  0.12296966793E+03 -0.86326881822E+02 -0.29244428868E+03  0.35174213813E+03  0.12500000000E+03 0.  0.
</event>
<event>
 5    0  0.5764392E-005  0.3918073E+03  0.7546771E-02  0.1046654E+00
         21   -1    0    0  502  501  0.00000000000E+00  0.00000000000E+00  0.76169338859E+03  0.76169338859E+03  0.00000000000E+00 0.  1.
         21   -1    0    0  501  502 -0.00000000000E+00 -0.00000000000E+00 -0.20154166093E+03  0.20154166093E+03  0.00000000000E+00 0.  1.
         25    1    1    2    0    0  0.82982239770E+02  0.24896189764E+03  0.12378076285E+03  0.31593473352E+03  0.12500000000E+03 0.  0.
         25    1    1    2    0    0 -0.13236448583E+03 -0.26916549891E+03  0.38044211712E+03  0.50033151749E+03  0.12500000000E+03 0.  0.
         25    1    1    2    0    0  0.49382246064E+02  0.20203601269E+02  0.55928847702E+02  0.14696879851E+03  0.12500000000E+03 0.  0.
</event>
<event>
 5    0  0.5764392E-005  0.2362940E+03  0.7546771E-02  0.1122287E+00
         21   -1    0    0  502  501  0.00000000000E+00  0.00000000000E+00  0.12262922830E+03  0.12262922830E+03  0.00000000000E+00 0. -1.
         21   -1    0    0  501  502 -0.00000000000E+00 -0.00000000000E+00 -0.45531436100E+03  0.45531436100E+03  0.00000000000E+00 0. -1.
         25    1    1    2    0    0 -0.63349677314E+01 -0.81127972426E+02 -0.27658482602E+02  0.15169664263E+03  0.12500000000E+03 0.  0.
         25    1    1    2    0    0 -0.17017700754E+02  0.67941276744E+02 -0.24765755270E+03  0.28612039884E+03  0.12500000000E+03 0.  0.
         25    1    1    2    0    0  0.23352668486E+02  0.13186695683E+02 -0.57369097400E+02  0.14012654782E+03  0.12500000000E+03 0.  0.
</event>
<event>
 5    0  0.5764392E-005  0.3226612E+03  0.7546771E-02  0.1074431E+00
         21   -1    0    0  502  501  0.00000000000E+00  0.00000000000E+00  0.12997762601E+03  0.12997762601E+03  0.00000000000E+00 0.  1.
         21   -1    0    0  501  502 -0.00000000000E+00 -0.00000000000E+00 -0.80098592614E+03  0.80098592614E+03  0.00000000000E+00 0.  1.
         25    1    1    2    0    0  0.14512476879E+03  0.77230332708E+02 -0.79215349878E+02  0.22119175948E+03  0.12500000000E+03 0.  0.
         25    1    1    2    0    0 -0.82459338503E+02  0.87942342931E+02 -0.23008097813E+03  0.28826316914E+03  0.12500000000E+03 0.  0.
         25    1    1    2    0    0 -0.62665430289E+02 -0.16517267564E+03 -0.36171197212E+03  0.42150862352E+03  0.12500000000E+03 0.  0.
</event>
<event>
 5    0  0.5764392E-005  0.2427182E+03  0.7546771E-02  0.1117995E+00
         21   -1    0    0  502  501  0.00000000000E+00  0.00000000000E+00  0.76596208644E+02  0.76596208644E+02  0.00000000000E+00 0.  1.
         21   -1    0    0  501  502 -0.00000000000E+00 -0.00000000000E+00 -0.76912589409E+03  0.76912589409E+03  0.00000000000E+00 0.  1.
         25    1    1    2    0    0  0.20268848423E+02  0.90056299318E+02 -0.46760279986E+03  0.49274571708E+03  0.12500000000E+03 0.  0.
         25    1    1    2    0    0 -0.34688972276E+01 -0.40712483712E+02 -0.14484359665E+03  0.19563794895E+03  0.12500000000E+03 0.  0.
         25    1    1    2    0    0 -0.16799951195E+02 -0.49343815605E+02 -0.80083288938E+02  0.15733843671E+03  0.12500000000E+03 0.  0.
</event>
<event>
 5    0  0.5764392E-005  0.2979557E+03  0.7546771E-02  0.1086267E+00
         21   -1    0    0  502  501  0.00000000000E+00  0.00000000000E+00  0.11033985387E+03  0.11033985387E+03  0.00000000000E+00 0. -1.
         21   -1    0    0  501  502 -0.00000000000E+00 -0.00000000000E+00 -0.80458349886E+03  0.80458349886E+03  0.00000000000E+00 0. -1.
         25    1    1    2    0    0 -0.61579549520E+02 -0.25304081907E+02 -0.10186504202E+03  0.17445292851E+03  0.12500000000E+03 0.  0.
         25    1    1    2    0    0 -0.10217936508E+03 -0.73817986377E+02 -0.11597154942E+03  0.21204744289E+03  0.12500000000E+03 0.  0.
         25    1    1    2    0    0  0.16375891460E+03  0.99122068284E+02 -0.47640705354E+03  0.52842298133E+03  0.12500000000E+03 0.  0.
</event>
<event>
 5    0  0.5764392E-005  0.2701803E+03  0.7546771E-02  0.1101176E+00
         21   -1    0    0  502  501  0.00000000000E+00  0.00000000000E+00  0.29082951641E+03  0.29082951641E+03  0.00000000000E+00 0.  1.
         21   -1    0    0  501  502 -0.00000000000E+00 -0.00000000000E+00 -0.25099718902E+03  0.25099718902E+03  0.00000000000E+00 0.  1.
         25    1    1    2    0    0 -0.42244092320E+02 -0.31795796707E+01 -0.69851407361E+02  0.14932813591E+03  0.12500000000E+03 0.  0.
         25    1    1    2    0    0  0.18746750817E+02  0.60311707839E+02  0.18656014166E+03  0.23327800845E+03  0.12500000000E+03 0.  0.
         25    1    1    2    0    0  0.23497341504E+02 -0.57132128168E+02 -0.76876406913E+02  0.15922056107E+03  0.12500000000E+03 0.  0.
</event>
<event>
 5    0  0.5764392E-005  0.2815816E+03  0.7546771E-02  0.1094828E+00
         21   -1    0    0  502  501  0.00000000000E+00  0.00000000000E+00  0.19046735766E+03  0.19046735766E+03  0.00000000000E+00 0. -1.
         21   -1    0    0  501  502 -0.00000000000E+00 -0.00000000000E+00 -0.41628229324E+03  0.41628229324E+03  0.00000000000E+00 0. -1.
         25    1    1    2    0    0 -0.18153495937E+02 -0.30564302292E+02 -0.18282985999E+02  0.13123640336E+03  0.12500000000E+03 0.  0.
         25    1    1    2    0    0 -0.87905035175E+02  0.82806834256E+02 -0.24406008160E+03  0.29962408188E+03  0.12500000000E+03 0.  0.
         25    1    1    2    0    0  0.10605853111E+03 -0.52242531963E+02  0.36528132024E+02  0.17588916566E+03  0.12500000000E+03 0.  0.
</event>
<event>
 5    0  0.5764392E-005  0.2694665E+03  0.7546771E-02  0.1101585E+00
         21   -1    0    0  502  501  0.00000000000E+00  0.00000000000E+00  0.48464153242E+03  0.48464153242E+03  0.00000000000E+00 0.  1.
         21   -1    0    0  501  502 -0.00000000000E+00 -0.00000000000E+00 -0.14982665555E+03  0.14982665555E+03  0.00000000000E+00 0.  1.
         25    1    1    2    0    0 -0.13380548811E+02 -0.84503302022E+02  0.12705326658E+03  0.19770528493E+03  0.12500000000E+03 0.  0.
         25    1    1    2    0    0 -0.11113347069E+03  0.71536157744E+02  0.27125205768E+02  0.18392619976E+03  0.12500000000E+03 0.  0.
         25    1    1    2    0    0  0.12451401950E+03  0.12967144279E+02  0.18063640452E+03  0.25283670327E+03  0.12500000000E+03 0.  0.
</event>
<event>
 5    0  0.7052982E-005  0.3014698E+03  0.7546771E-02  0.1084508E+00
         21   -1    0    0  502  501  0.00000000000E+00  0.00000000000E+00  0.65193219855E+03  0.65193219855E+03  0.00000000000E+00 0. -1.
         21   -1    0    0  501  502 -0.00000000000E+00 -0.00000000000E+00 -0.13940722364E+03  0.13940722364E+03  0.00000000000E+00 0. -1.
         25    1    1    2    0    0 -0.61852199917E+02 -0.20138562462E+03  0.19962873858E+03  0.31600395204E+03  0.12500000000E+03 0.  0.
         25    1    1    2    0    0 -0.27040673004E+02  0.92738204017E+02  0.20430057644E+03  0.25825432816E+03  0.12500000000E+03 0.  0.
         25    1    1    2    0    0  0.88892872921E+02  0.10864742060E+03  0.10859565989E+03  0.21708114199E+03  0.12500000000E+03 0.  0.
</event>
<event>
 5    0  0.5764392E-005  0.2838223E+03  0.7546771E-02  0.1093619E+00
         21   -1    0    0  502  501  0.00000000000E+00  0.00000000000E+00  0.19827614302E+03  0.19827614302E+03  0.00000000000E+00 0. -1.
         21   -1    0    0  501  502 -0.00000000000E+00 -0.00000000000E+00 -0.40627721413E+03  0.40627721413E+03  0.00000000000E+00 0. -1.
         25    1    1    2    0    0  0.20934697167E+02  0.12299605722E+02  0.86399165586E+02  0.15388098538E+03  0.12500000000E+03 0.  0.
         25    1    1    2    0    0  0.12106225057E+02 -0.34674322851E+02 -0.29165196475E+03  0.31942876810E+03  0.12500000000E+03 0.  0.
         25    1    1    2    0    0 -0.33040922224E+02  0.22374717129E+02 -0.27482719517E+01  0.13124360368E+03  0.12500000000E+03 0.  0.
</event>
<event>
 5    0  0.5764392E-005  0.2770240E+03  0.7546771E-02  0.1097326E+00
         21   -1    0    0  502  501  0.00000000000E+00  0.00000000000E+00  0.31746502146E+04  0.31746502146E+04  0.00000000000E+00 0. -1.
         21   -1    0    0  501  502 -0.00000000000E+00 -0.00000000000E+00 -0.24173464283E+02  0.24173464283E+02  0.00000000000E+00 0. -1.
         25    1    1    2    0    0 -0.13526413003E+03  0.13771949679E+02  0.10087710149E+04  0.10255388885E+04  0.12500000000E+03 0.  0.
         25    1    1    2    0    0  0.16179411050E+03 -0.48468099327E+01  0.80949785680E+03  0.83493269544E+03  0.12500000000E+03 0.  0.
         25    1    1    2    0    0 -0.26529980477E+02 -0.89251397468E+01  0.13322078786E+04  0.13383520949E+04  0.12500000000E+03 0.  0.
</event>
<event>
 5    0  0.5764392E-005  0.2876196E+03  0.7546771E-02  0.1091599E+00
         21   -1    0    0  502  501  0.00000000000E+00  0.00000000000E+00  0.21037624166E+03  0.21037624166E+03  0.00000000000E+00 0. -1.
         21   -1    0    0  501  502 -0.00000000000E+00 -0.00000000000E+00 -0.39322426923E+03  0.39322426923E+03  0.00000000000E+00 0. -1.
         25    1    1    2    0    0  0.38218240332E+02 -0.88998456216E+02 -0.14366407684E+03  0.21364860420E+03  0.12500000000E+03 0.  0.
         25    1    1    2    0    0 -0.14159337652E+03  0.11197012662E+03  0.71922828182E+01  0.21968778405E+03  0.12500000000E+03 0.  0.
         25    1    1    2    0    0  0.10337513619E+03 -0.22971670405E+02 -0.46376233549E+02  0.17026412265E+03  0.12500000000E+03 0.  0.
</event>
<event>
 5    0  0.5764392E-005  0.3063722E+03  0.7546771E-02  0.1082098E+00
         21   -1    0    0  502  501  0.00000000000E+00  0.00000000000E+00  0.15866876401E+03  0.15866876401E+03  0.00000000000E+00 0. -1.
         21   -1    0    0  501  502 -0.00000000000E+00 -0.00000000000E+00 -0.59157144911E+03  0.59157144911E+03  0.00000000000E+00 0. -1.
         25    1    1    2    0    0 -0.92491509786E+02  0.75913196359E+01 -0.38131689381E+03  0.41187362264E+03  0.12500000000E+03 0.  0.
         25    1    1    2    0    0 -0.44032721940E+02  0.46283064114E+02 -0.73466092379E+01  0.14057017924E+03  0.12500000000E+03 0.  0.
         25    1    1    2    0    0  0.13652423173E+03 -0.53874383750E+02 -0.44239182046E+02  0.19779641124E+03  0.12500000000E+03 0.  0.
</event>
<event>
 5    0  0.5764392E-005  0.2514499E+03  0.7546771E-02  0.1112392E+00
         21   -1    0    0  502  501  0.00000000000E+00  0.00000000000E+00  0.14212910154E+04  0.14212910154E+04  0.00000000000E+00 0.  1.
         21   -1    0    0  501  502 -0.00000000000E+00 -0.00000000000E+00 -0.44485655201E+02  0.44485655201E+02  0.00000000000E+00 0.  1.
         25    1    1    2    0    0  0.66882133068E+02  0.61458500286E+02  0.54934349206E+03  0.57066070414E+03  0.12500000000E+03 0.  0.
         25    1    1    2    0    0 -0.44942768648E+02 -0.12585028301E+03  0.32591384716E+03  0.37376862088E+03  0.12500000000E+03 0.  0.
         25    1    1    2    0    0 -0.21939364420E+02  0.64391782722E+02  0.50154802103E+03  0.52134734562E+03  0.12500000000E+03 0.  0.
</event>
<event>
 5    0  0.5764392E-005  0.2697533E+03  0.7546771E-02  0.1101421E+00
         21   -1    0    0  502  501  0.00000000000E+00  0.00000000000E+00  0.50873321736E+02  0.50873321736E+02  0.00000000000E+00 0.  1.
         21   -1    0    0  501  502 -0.00000000000E+00 -0.00000000000E+00 -0.14303540982E+04  0.14303540982E+04  0.00000000000E+00 0.  1.
         25    1    1    2    0    0 -0.50143206922E+01 -0.42329418007E+02 -0.73571328863E+03  0.74747305376E+03  0.12500000000E+03 0.  0.
         25    1    1    2    0    0  0.71420358323E+02 -0.15561945432E+01 -0.11397451046E+03  0.18362591963E+03  0.12500000000E+03 0.  0.
         25    1    1    2    0    0 -0.66406037631E+02  0.43885612550E+02 -0.52979297740E+03  0.55012844657E+03  0.12500000000E+03 0.  0.
</event>
<event>
 5    0  0.5764392E-005  0.3287363E+03  0.7546771E-02  0.1071697E+00
         21   -1    0    0  502  501  0.00000000000E+00  0.00000000000E+00  0.78878359225E+03  0.78878359225E+03  0.00000000000E+00 0.  1.
         21   -1    0    0  501  502 -0.00000000000E+00 -0.00000000000E+00 -0.13700535725E+03  0.13700535725E+03  0.00000000000E+00 0.  1.
         25    1    1    2    0    0  0.69718856425E+01 -0.44293854864E+02  0.26476757591E+03  0.29620503375E+03  0.12500000000E+03 0.  0.
         25    1    1    2    0    0  0.15610734079E+02  0.19749190114E+03  0.35892739784E+03  0.42860310657E+03  0.12500000000E+03 0.  0.
         25    1    1    2    0    0 -0.22582619721E+02 -0.15319804628E+03  0.28083261251E+02  0.20098080918E+03  0.12500000000E+03 0.  0.
</event>
<event>
 5    0  0.5764392E-005  0.3264264E+03  0.7546771E-02  0.1072729E+00
         21   -1    0    0  502  501  0.00000000000E+00  0.00000000000E+00  0.25979146100E+03  0.25979146100E+03  0.00000000000E+00 0.  1.
         21   -1    0    0  501  502 -0.00000000000E+00 -0.00000000000E+00 -0.41015289792E+03  0.41015289792E+03  0.00000000000E+00 0.  1.
         25    1    1    2    0    0  0.61441182153E+02  0.70514247429E+02  0.47419193644E+02  0.16315899571E+03  0.12500000000E+03 0.  0.
         25    1    1    2    0    0 -0.56768664227E+02 -0.19163426497E+03  0.96877794352E+01  0.23593479146E+03  0.12500000000E+03 0.  0.
         25    1    1    2    0    0 -0.46725179266E+01  0.12112001754E+03 -0.20746841000E+03  0.27085057176E+03  0.12500000000E+03 0.  0.
</event>
<event>
 5    0  0.6548130E-005  0.3493340E+03  0.7546771E-02  0.1062889E+00
         21   -1    0    0  502  501  0.00000000000E+00  0.00000000000E+00  0.18529778045E+03  0.18529778045E+03  0.00000000000E+00 0. -1.
         21   -1    0    0  501  502 -0.00000000000E+00 -0.00000000000E+00 -0.65858465470E+03  0.65858465470E+03  0.00000000000E+00 0. -1.
         25    1    1    2    0    0 -0.22024984796E+03  0.89424495546E+02 -0.28380478480E+03  0.39073890490E+03  0.12500000000E+03 0.  0.
         25    1    1    2    0    0  0.12277065204E+03 -0.14083299992E+03 -0.17685357263E+03  0.28602229462E+03  0.12500000000E+03 0.  0.
         25    1    1    2    0    0  0.97479195922E+02  0.51408504374E+02 -0.12628516818E+02  0.16712123562E+03  0.12500000000E+03 0.  0.
</event>
<event>
 5    0  0.5764392E-005  0.2902596E+03  0.7546771E-02  0.1090214E+00
         21   -1    0    0  502  501  0.00000000000E+00  0.00000000000E+00  0.82161863747E+02  0.82161863747E+02  0.00000000000E+00 0.  1.
         21   -1    0    0  501  502 -0.00000000000E+00 -0.00000000000E+00 -0.10254229819E+04  0.10254229819E+04  0.00000000000E+00 0.  1.
         25    1    1    2    0    0  0.51948418531E+02 -0.27318731253E+02 -0.50124193210E+02  0.14690944833E+03  0.12500000000E+03 0.  0.
         25    1    1    2    0    0  0.81062498005E+02  0.56132946277E+02 -0.52740034974E+03  0.55090667554E+03  0.12500000000E+03 0.  0.
         25    1    1    2    0    0 -0.13301091654E+03 -0.28814215024E+02 -0.36573657517E+03  0.40976872175E+03  0.12500000000E+03 0.  0.
</event>
<event>
 5    0  0.5764392E-005  0.2897758E+03  0.7546771E-02  0.1090466E+00
         21   -1    0    0  502  501  0.00000000000E+00  0.00000000000E+00  0.24213797033E+03  0.24213797033E+03  0.00000000000E+00 0.  1.
         21   -1    0    0  501  502 -0.00000000000E+00 -0.00000000000E+00 -0.34678593203E+03  0.34678593203E+03  0.00000000000E+00 0.  1.
         25    1    1    2    0    0 -0.91722012793E+02 -0.61630885401E+01  0.27854003841E+02  0.15764439990E+03  0.12500000000E+03 0.  0.
         25    1    1    2    0    0 -0.92145674639E+01 -0.69630887725E+01  0.91474144095E+02  0.15532518114E+03  0.12500000000E+03 0.  0.
         25    1    1    2    0    0  0.10093658026E+03  0.13126177313E+02 -0.22397610964E+03  0.27595432132E+03  0.12500000000E+03 0.  0.
</event>
<event>
 5    0  0.5764392E-005  0.3252828E+03  0.7546771E-02  0.1073243E+00
         21   -1    0    0  502  501  0.00000000000E+00  0.00000000000E+00  0.33118477889E+03  0.33118477889E+03  0.00000000000E+00 0.  1.
         21   -1    0    0  501  502 -0.00000000000E+00 -0.00000000000E+00 -0.31948592022E+03  0.31948592022E+03  0.00000000000E+00 0.  1.
         25    1    1    2    0    0 -0.32680261821E+02 -0.24798071521E+02  0.10650049050E+03  0.16926399009E+03  0.12500000000E+03 0.  0.
         25    1    1    2    0    0  0.10883747836E+03  0.87212498857E+02 -0.21267093665E+03  0.28338232822E+03  0.12500000000E+03 0.  0.
         25    1    1    2    0    0 -0.76157216543E+02 -0.62414427337E+02  0.11786930481E+03  0.19802438079E+03  0.12500000000E+03 0.  0.
</event>
<event>
 5    0  0.5764392E-005  0.5421459E+03  0.7546771E-02  0.1003328E+00
         21   -1    0    0  502  501  0.00000000000E+00  0.00000000000E+00  0.68736249924E+03  0.68736249924E+03  0.00000000000E+00 0. -1.
         21   -1    0    0  501  502 -0.00000000000E+00 -0.00000000000E+00 -0.42760876334E+03  0.42760876334E+03  0.00000000000E+00 0. -1.
         25    1    1    2    0    0  0.14852385163E+03  0.42385702081E+02 -0.15160529830E+03  0.24993008766E+03  0.12500000000E+03 0.  0.
         25    1    1    2    0    0 -0.11000866460E+03 -0.17958645668E+03 -0.13993797569E+03  0.28206530937E+03  0.12500000000E+03 0.  0.
         25    1    1    2    0    0 -0.38515187024E+02  0.13720075460E+03  0.55129700990E+03  0.58297586555E+03  0.12500000000E+03 0.  0.
</event>
<event>
 5    0  0.5764392E-005  0.3755784E+03  0.7546771E-02  0.1052580E+00
         21   -1    0    0  502  501  0.00000000000E+00  0.00000000000E+00  0.13114898465E+03  0.13114898465E+03  0.00000000000E+00 0. -1.
         21   -1    0    0  501  502 -0.00000000000E+00 -0.00000000000E+00 -0.10755638365E+04  0.10755638365E+04  0.00000000000E+00 0. -1.
         25    1    1    2    0    0 -0.80139135703E+02 -0.93045201505E+02 -0.22682476983E+03  0.28662548178E+03  0.12500000000E+03 0.  0.
         25    1    1    2    0    0  0.15826996651E+03  0.24591920048E+03 -0.59554773781E+03  0.67515016365E+03  0.12500000000E+03 0.  0.
         25    1    1    2    0    0 -0.78130830808E+02 -0.15287399898E+03 -0.12204234426E+03  0.24493717578E+03  0.12500000000E+03 0.  0.
</event>
<event>
 5    0  0.5764392E-005  0.2452408E+03  0.7546771E-02  0.1116350E+00
         21   -1    0    0  502  501  0.00000000000E+00  0.00000000000E+00  0.12344595035E+04  0.12344595035E+04  0.00000000000E+00 0. -1.
         21   -1    0    0  501  502 -0.00000000000E+00 -0.00000000000E+00 -0.48720140299E+02  0.48720140299E+02  0.00000000000E+00 0. -1.
         25    1    1    2    0    0 -0.11769317204E+03 -0.23220795025E+02  0.65607762302E+03  0.67856741412E+03  0.12500000000E+03 0.  0.
         25    1    1    2    0    0  0.53736535823E+02 -0.28305938224E+02  0.21186559961E+03  0.25337891332E+03  0.12500000000E+03 0.  0.
         25    1    1    2    0    0  0.63956636219E+02  0.51526733249E+02  0.31779614053E+03  0.35123331632E+03  0.12500000000E+03 0.  0.
</event>
<event>
 5    0  0.5764392E-005  0.2119599E+03  0.7546771E-02  0.1140023E+00
         21   -1    0    0  502  501  0.00000000000E+00  0.00000000000E+00  0.36036342211E+03  0.36036342211E+03  0.00000000000E+00 0.  1.
         21   -1    0    0  501  502 -0.00000000000E+00 -0.00000000000E+00 -0.12467140747E+03  0.12467140747E+03  0.00000000000E+00 0.  1.
         25    1    1    2    0    0 -0.74753487158E+02  0.30778228672E+02  0.74903888428E+02  0.16664625920E+03  0.12500000000E+03 0.  0.
         25    1    1    2    0    0  0.16318087695E+02 -0.47695027147E+02  0.92773891055E+02  0.16362484671E+03  0.12500000000E+03 0.  0.
         25    1    1    2    0    0  0.58435399463E+02  0.16916798476E+02  0.68014235148E+02  0.15476372367E+03  0.12500000000E+03 0.  0.
</event>
<event>
 5    0  0.5764392E-005  0.3121275E+03  0.7546771E-02  0.1079331E+00
         21   -1    0    0  502  501  0.00000000000E+00  0.00000000000E+00  0.63826365096E+03  0.63826365096E+03  0.00000000000E+00 0. -1.
         21   -1    0    0  501  502 -0.00000000000E+00 -0.00000000000E+00 -0.15263841812E+03  0.15263841812E+03  0.00000000000E+00 0. -1.
         25    1    1    2    0    0 -0.27329768316E+02  0.11904201185E+03  0.43644892380E+03  0.47013889427E+03  0.12500000000E+03 0.  0.
         25    1    1    2    0    0  0.20743657084E+02  0.12460956461E+02  0.55977848289E+02  0.13908304801E+03  0.12500000000E+03 0.  0.
         25    1    1    2    0    0  0.65861112322E+01 -0.13150296831E+03 -0.68015392600E+01  0.18168012679E+03  0.12500000000E+03 0.  0.
</event>
<event>
 5    0  0.5764392E-005  0.2779838E+03  0.7546771E-02  0.1096795E+00
         21   -1    0    0  502  501  0.00000000000E+00  0.00000000000E+00  0.33403893036E+03  0.33403893036E+03  0.00000000000E+00 0.  1.
         21   -1    0    0  501  502 -0.00000000000E+00 -0.00000000000E+00 -0.23133523669E+03  0.23133523669E+03  0.00000000000E+00 0.  1.
         25    1    1    2    0    0  0.84868089191E+02  0.48621285031E+02  0.97903614655E+02  0.18648522645E+03  0.12500000000E+03 0.  0.
         25    1    1    2    0    0  0.10620318018E+02  0.10118367362E+03  0.11354907833E+02  0.16156998761E+03  0.12500000000E+03 0.  0.
         25    1    1    2    0    0 -0.95488407210E+02 -0.14980495866E+03 -0.65548288194E+01  0.21731895299E+03  0.12500000000E+03 0.  0.
</event>
<event>
 5    0  0.5764392E-005  0.4423279E+03  0.7546771E-02  0.1030035E+00
         21   -1    0    0  502  501  0.00000000000E+00  0.00000000000E+00  0.59919727924E+03  0.59919727924E+03  0.00000000000E+00 0. -1.
         21   -1    0    0  501  502 -0.00000000000E+00 -0.00000000000E+00 -0.32652681339E+03  0.32652681339E+03  0.00000000000E+00 0. -1.
         25    1    1    2    0    0 -0.32157190767E+03  0.84789225918E+02  0.24551920446E+03  0.43185921825E+03  0.12500000000E+03 0.  0.
         25    1    1    2    0    0  0.23793066413E+03  0.64918034164E+02 -0.17344626339E+02  0.27704004792E+03  0.12500000000E+03 0.  0.
         25    1    1    2    0    0  0.83641243543E+02 -0.14970726008E+03  0.44495887737E+02  0.21682482646E+03  0.12500000000E+03 0.  0.
</event>
<event>
 5    0  0.5764392E-005  0.2723424E+03  0.7546771E-02  0.1099946E+00
         21   -1    0    0  502  501  0.00000000000E+00  0.00000000000E+00  0.19250165286E+03  0.19250165286E+03  0.00000000000E+00 0. -1.
         21   -1    0    0  501  502 -0.00000000000E+00 -0.00000000000E+00 -0.38529743573E+03  0.38529743573E+03  0.00000000000E+00 0. -1.
         25    1    1    2    0    0 -0.97905717567E+02  0.81019568155E+02 -0.18031338353E+02  0.17916425179E+03  0.12500000000E+03 0.  0.
         25    1    1    2    0    0  0.46023035189E+02  0.53119796860E+02 -0.50997459303E+01  0.14349508701E+03  0.12500000000E+03 0.  0.
         25    1    1    2    0    0  0.51882682378E+02 -0.13413936502E+03 -0.16966469858E+03  0.25513974979E+03  0.12500000000E+03 0.  0.
</event>
<event>
 5    0  0.5764392E-005  0.4214560E+03  0.7546771E-02  0.1036593E+00
         21   -1    0    0  502  501  0.00000000000E+00  0.00000000000E+00  0.36842585530E+03  0.36842585530E+03  0.00000000000E+00 0.  1.
         21   -1    0    0  501  502 -0.00000000000E+00 -0.00000000000E+00 -0.48211915623E+03  0.48211915623E+03  0.00000000000E+00 0.  1.
         25    1    1    2    0    0 -0.12559838237E+03  0.14884970684E+03  0.13538657649E+03  0.26811511329E+03  0.12500000000E+03 0.  0.
         25    1    1    2    0    0  0.22509097853E+03 -0.99875455451E+01 -0.26568142276E+03  0.37010446915E+03  0.12500000000E+03 0.  0.
         25    1    1    2    0    0 -0.99492596155E+02 -0.13886216130E+03  0.16601545331E+02  0.21232542909E+03  0.12500000000E+03 0.  0.
</event>
<event>
 5    0  0.6932955E-005  0.2886750E+03  0.7546771E-02  0.1091043E+00
         21   -1    0    0  502  501  0.00000000000E+00  0.00000000000E+00  0.15825633358E+03  0.15825633358E+03  0.00000000000E+00 0.  1.
         21   -1    0    0  501  502 -0.00000000000E+00 -0.00000000000E+00 -0.52657126931E+03  0.52657126931E+03  0.00000000000E+00 0.  1.
         25    1    1    2    0    0 -0.45269071792E+02  0.15134395332E+03 -0.29630092378E+03  0.35829250411E+03  0.12500000000E+03 0.  0.
         25    1    1    2    0    0  0.71371927764E+02 -0.42596940508E+02 -0.44484243788E+02  0.15656404236E+03  0.12500000000E+03 0.  0.
         25    1    1    2    0    0 -0.26102855971E+02 -0.10874701281E+03 -0.27529768167E+02  0.16997105642E+03  0.12500000000E+03 0.  0.
</event>
<event>
 5    0  0.5764392E-005  0.4098585E+03  0.7546771E-02  0.1040418E+00
         21   -1    0    0  502  501  0.00000000000E+00  0.00000000000E+00  0.36925465183E+03  0.36925465183E+03  0.00000000000E+00 0. -1.
         21   -1    0    0  501  502 -0.00000000000E+00 -0.00000000000E+00 -0.45492721702E+03  0.45492721702E+03  0.00000000000E+00 0. -1.
         25    1    1    2    0    0 -0.16176372357E+03 -0.11277047593E+03 -0.10629863454E+03  0.25653280923E+03  0.12500000000E+03 0.  0.
         25    1    1    2    0    0  0.23890195224E+03 -0.59435516203E+02 -0.12013887953E+03  0.30110641598E+03  0.12500000000E+03 0.  0.
         25    1    1    2    0    0 -0.77138228662E+02  0.17220599213E+03  0.14076494887E+03  0.26654264364E+03  0.12500000000E+03 0.  0.
</event>
<event>
 5    0  0.5764392E-005  0.3279371E+03  0.7546771E-02  0.1072053E+00
         21   -1    0    0  502  501  0.00000000000E+00  0.00000000000E+00  0.22402635315E+03  0.22402635315E+03  0.00000000000E+00 0.  1.
         21   -1    0    0  501  502 -0.00000000000E+00 -0.00000000000E+00 -0.48004511710E+03  0.48004511710E+03  0.00000000000E+00 0.  1.
         25    1    1    2    0    0  0.30210028866E+02 -0.21621600042E+03 -0.18692219401E+03  0.31341172808E+03  0.12500000000E+03 0.  0.
         25    1    1    2    0    0 -0.10778552455E+03  0.14949834542E+03 -0.47263832993E+02  0.22765400171E+03  0.12500000000E+03 0.  0.
         25    1    1    2    0    0  0.77575495688E+02  0.66717655005E+02 -0.21832736946E+02  0.16300574046E+03  0.12500000000E+03 0.  0.
</event>
<event>
 5    0  0.5764392E-005  0.2294174E+03  0.7546771E-02  0.1127050E+00
         21   -1    0    0  502  501  0.00000000000E+00  0.00000000000E+00  0.16367448723E+02  0.16367448723E+02  0.00000000000E+00 0. -1.
         21   -1    0    0  501  502 -0.00000000000E+00 -0.00000000000E+00 -0.32156721297E+04  0.32156721297E+04  0.00000000000E+00 0. -1.
         25    1    1    2    0    0  0.33509188456E+02  0.34541434709E+02 -0.11814918669E+04  0.11890601364E+04  0.12500000000E+03 0.  0.
         25    1    1    2    0    0 -0.32253049530E+02  0.67480336854E+02 -0.67707126413E+03  0.69256360847E+03  0.12500000000E+03 0.  0.
         25    1    1    2    0    0 -0.12561389265E+01 -0.10202177156E+03 -0.13407415499E+04  0.13504158335E+04  0.12500000000E+03 0.  0.
</event>
<event>
 5    0  0.5764392E-005  0.3690083E+03  0.7546771E-02  0.1055073E+00
         21   -1    0    0  502  501  0.00000000000E+00  0.00000000000E+00  0.12898201008E+03  0.12898201008E+03  0.00000000000E+00 0. -1.
         21   -1    0    0  501  502 -0.00000000000E+00 -0.00000000000E+00 -0.10557061748E+04  0.10557061748E+04  0.00000000000E+00 0. -1.
         25    1    1    2    0    0  0.94383473492E+02 -0.10403712730E+03 -0.11727739798E+03  0.22160990953E+03  0.12500000000E+03 0.  0.
         25    1    1    2    0    0  0.11095206894E+03  0.17570463448E+03 -0.55551801707E+03  0.60614168927E+03  0.12500000000E+03 0.  0.
         25    1    1    2    0    0 -0.20533554243E+03 -0.71667507185E+02 -0.25392874963E+03  0.35693658605E+03  0.12500000000E+03 0.  0.
</event>
<event>
 5    0  0.5764392E-005  0.4436027E+03  0.7546771E-02  0.1029647E+00
         21   -1    0    0  502  501  0.00000000000E+00  0.00000000000E+00  0.38494757771E+03  0.38494757771E+03  0.00000000000E+00 0. -1.
         21   -1    0    0  501  502 -0.00000000000E+00 -0.00000000000E+00 -0.51119515466E+03  0.51119515466E+03  0.00000000000E+00 0. -1.
         25    1    1    2    0    0 -0.33961474400E+03 -0.37090799153E+02  0.13854495033E+02  0.36404786603E+03  0.12500000000E+03 0.  0.
         25    1    1    2    0    0  0.33356326234E+03  0.23374115427E+02 -0.19123048441E+02  0.35749334292E+03  0.12500000000E+03 0.  0.
         25    1    1    2    0    0  0.60514816657E+01  0.13716683726E+02 -0.12097902355E+03  0.17460152342E+03  0.12500000000E+03 0.  0.
</event>
<event>
 5    0  0.5764392E-005  0.3406044E+03  0.7546771E-02  0.1066539E+00
         21   -1    0    0  502  501  0.00000000000E+00  0.00000000000E+00  0.28572259428E+03  0.28572259428E+03  0.00000000000E+00 0.  1.
         21   -1    0    0  501  502 -0.00000000000E+00 -0.00000000000E+00 -0.40602799153E+03  0.40602799153E+03  0.00000000000E+00 0.  1.
         25    1    1    2    0    0 -0.58938902940E+02  0.36560081173E+01 -0.77453934193E+02  0.15846536718E+03  0.12500000000E+03 0.  0.
         25    1    1    2    0    0 -0.16604400242E+03  0.55464232871E+02 -0.13456801180E+03  0.25373301257E+03  0.12500000000E+03 0.  0.
         25    1    1    2    0    0  0.22498290536E+03 -0.59120240988E+02  0.91716548743E+02  0.27955220606E+03  0.12500000000E+03 0.  0.
</event>
<event>
 5    0  0.6185337E-005  0.2901704E+03  0.7546771E-02  0.1090260E+00
         21   -1    0    0  502  501  0.00000000000E+00  0.00000000000E+00  0.20029584453E+03  0.20029584453E+03  0.00000000000E+00 0.  1.
         21   -1    0    0  501  502 -0.00000000000E+00 -0.00000000000E+00 -0.42037253676E+03  0.42037253676E+03  0.00000000000E+00 0.  1.
         25    1    1    2    0    0 -0.30256687615E+02 -0.13264889300E+03 -0.58699684949E+02  0.19386038526E+03  0.12500000000E+03 0.  0.
         25    1    1    2    0    0  0.22265418546E+02  0.13058294665E+01  0.60088566826E+02  0.14047451697E+03  0.12500000000E+03 0.  0.
         25    1    1    2    0    0  0.79912690685E+01  0.13134306353E+03 -0.22146557411E+03  0.28633347907E+03  0.12500000000E+03 0.  0.
</event>
<event>
 5    0  0.5764392E-005  0.2939521E+03  0.7546771E-02  0.1088304E+00
         21   -1    0    0  502  501  0.00000000000E+00  0.00000000000E+00  0.26613233858E+03  0.26613233858E+03  0.00000000000E+00 0. -1.
         21   -1    0    0  501  502 -0.00000000000E+00 -0.00000000000E+00 -0.32468000933E+03  0.32468000933E+03  0.00000000000E+00 0. -1.
         25    1    1    2    0    0  0.45645187872E+02  0.11514621387E+03  0.76859359361E+02  0.19202732843E+03  0.12500000000E+03 0.  0.
         25    1    1    2    0    0 -0.95654696509E+01 -0.13606535969E+03  0.29866375513E+02  0.18740939331E+03  0.12500000000E+03 0.  0.
         25    1    1    2    0    0 -0.36079718221E+02  0.20919145820E+02 -0.16527340562E+03  0.21137562616E+03  0.12500000000E+03 0.  0.
</event>
<event>
 5    0  0.5764392E-005  0.2816126E+03  0.7546771E-02  0.1094811E+00
         21   -1    0    0  502  501  0.00000000000E+00  0.00000000000E+00  0.38958841379E+03  0.38958841379E+03  0.00000000000E+00 0. -1.
         21   -1    0    0  501  502 -0.00000000000E+00 -0.00000000000E+00 -0.20356267613E+03  0.20356267613E+03  0.00000000000E+00 0. -1.
         25    1    1    2    0    0 -0.13689313215E+03 -0.87094889027E+02  0.32371964671E+02  0.20736005744E+03  0.12500000000E+03 0.  0.
         25    1    1    2    0    0  0.85973795058E+02  0.12677783673E+03  0.14434982511E+03  0.24479784585E+03  0.12500000000E+03 0.  0.
         25    1    1    2    0    0  0.50919337095E+02 -0.39682947707E+02  0.93039478781E+01  0.14099318663E+03  0.12500000000E+03 0.  0.
</event>
<event>
 5    0  0.5764392E-005  0.2464487E+03  0.7546771E-02  0.1115570E+00
         21   -1    0    0  502  501  0.00000000000E+00  0.00000000000E+00  0.65588977431E+02  0.65588977431E+02  0.00000000000E+00 0. -1.
         21   -1    0    0  501  502 -0.00000000000E+00 -0.00000000000E+00 -0.92602411234E+03  0.92602411234E+03  0.00000000000E+00 0. -1.
         25    1    1    2    0    0 -0.33523737000E+02  0.30007078985E+02 -0.42110241676E+03  0.44156144661E+03  0.12500000000E+03 0.  0.
         25    1    1    2    0    0 -0.62140415784E+02  0.21713873758E+02 -0.10206701518E+03  0.17428596953E+03  0.12500000000E+03 0.  0.
         25    1    1    2    0    0  0.95664152784E+02 -0.51720952743E+02 -0.33726570296E+03  0.37576567363E+03  0.12500000000E+03 0.  0.
</event>
<event>
 5    0  0.5764392E-005  0.4807341E+03  0.7546771E-02  0.1018934E+00
         21   -1    0    0  502  501  0.00000000000E+00  0.00000000000E+00  0.50724593570E+03  0.50724593570E+03  0.00000000000E+00 0.  1.
         21   -1    0    0  501  502 -0.00000000000E+00 -0.00000000000E+00 -0.45560801061E+03  0.45560801061E+03  0.00000000000E+00 0.  1.
         25    1    1    2    0    0 -0.48290449426E+02  0.14006731860E+03 -0.19933721626E+03  0.27804882132E+03  0.12500000000E+03 0.  0.
         25    1    1    2    0    0 -0.90721515909E+02 -0.33294914221E+03  0.12150605081E+03  0.38661899220E+03  0.12500000000E+03 0.  0.
         25    1    1    2    0    0  0.13901196534E+03  0.19288182361E+03  0.12946909055E+03  0.29818613280E+03  0.12500000000E+03 0.  0.
</event>
<event>
 5    0  0.7233482E-005  0.2688372E+03  0.7546771E-02  0.1101947E+00
         21   -1    0    0  502  501  0.00000000000E+00  0.00000000000E+00  0.24290493525E+03  0.24290493525E+03  0.00000000000E+00 0. -1.
         21   -1    0    0  501  502 -0.00000000000E+00 -0.00000000000E+00 -0.29753794648E+03  0.29753794648E+03  0.00000000000E+00 0. -1.
         25    1    1    2    0    0 -0.30263925979E+02  0.86093081686E+02  0.82266406799E+01  0.15498581079E+03  0.12500000000E+03 0.  0.
         25    1    1    2    0    0  0.55293317978E+02 -0.17641882802E+03 -0.23999639322E+02  0.22445920917E+03  0.12500000000E+03 0.  0.
         25    1    1    2    0    0 -0.25029391999E+02  0.90325746335E+02 -0.38860012587E+02  0.16099786177E+03  0.12500000000E+03 0.  0.
</event>
<event>
 5    0  0.5764392E-005  0.2269030E+03  0.7546771E-02  0.1128839E+00
         21   -1    0    0  502  501  0.00000000000E+00  0.00000000000E+00  0.59559632544E+03  0.59559632544E+03  0.00000000000E+00 0. -1.
         21   -1    0    0  501  502 -0.00000000000E+00 -0.00000000000E+00 -0.86442692883E+02  0.86442692883E+02  0.00000000000E+00 0. -1.
         25    1    1    2    0    0 -0.55909696175E+02  0.66836221374E+02  0.78773803828E+02  0.17153217419E+03  0.12500000000E+03 0.  0.
         25    1    1    2    0    0  0.24360933001E+00 -0.37049471729E+02  0.16350071906E+03  0.20911768896E+03  0.12500000000E+03 0.  0.
         25    1    1    2    0    0  0.55666086845E+02 -0.29786749645E+02  0.26687910966E+03  0.30138915517E+03  0.12500000000E+03 0.  0.
</event>
<event>
 5    0  0.5800644E-005  0.3062535E+03  0.7546771E-02  0.1082156E+00
         21   -1    0    0  502  501  0.00000000000E+00  0.00000000000E+00  0.12260219911E+04  0.12260219911E+04  0.00000000000E+00 0. -1.
         21   -1    0    0  501  502 -0.00000000000E+00 -0.00000000000E+00 -0.76500420211E+02  0.76500420211E+02  0.00000000000E+00 0. -1.
         25    1    1    2    0    0 -0.61026185748E+02 -0.38153644037E+01  0.65228940024E+03  0.66696717611E+03  0.12500000000E+03 0.  0.
         25    1    1    2    0    0  0.90835637285E+02 -0.84876200557E+02  0.43153378027E+03  0.46615607465E+03  0.12500000000E+03 0.  0.
         25    1    1    2    0    0 -0.29809451538E+02  0.88691564960E+02  0.65698390391E+02  0.16939916055E+03  0.12500000000E+03 0.  0.
</event>
<event>
 5    0  0.5764392E-005  0.1010771E+04  0.7546771E-02  0.9296809E-01
         21   -1    0    0  502  501  0.00000000000E+00  0.00000000000E+00  0.20203813317E+04  0.20203813317E+04  0.00000000000E+00 0. -1.
         21   -1    0    0  501  502 -0.00000000000E+00 -0.00000000000E+00 -0.50567610696E+03  0.50567610696E+03  0.00000000000E+00 0. -1.
         25    1    1    2    0    0  0.38878281965E+03  0.65298624856E+03  0.22160249057E+03  0.80142110372E+03  0.12500000000E+03 0.  0.
         25    1    1    2    0    0 -0.29516709023E+03  0.10989917851E+03  0.24152372850E+03  0.41612516389E+03  0.12500000000E+03 0.  0.
         25    1    1    2    0    0 -0.93615729424E+02 -0.76288542707E+03  0.10515790057E+04  0.13085111711E+04  0.12500000000E+03 0.  0.
</event>
<event>
 5    0  0.5764392E-005  0.2683588E+03  0.7546771E-02  0.1102223E+00
         21   -1    0    0  502  501  0.00000000000E+00  0.00000000000E+00  0.33122787255E+03  0.33122787255E+03  0.00000000000E+00 0. -1.
         21   -1    0    0  501  502 -0.00000000000E+00 -0.00000000000E+00 -0.21742271353E+03  0.21742271353E+03  0.00000000000E+00 0. -1.
         25    1    1    2    0    0  0.18344544035E+02  0.70213755763E+02 -0.16669132175E+02  0.14549692011E+03  0.12500000000E+03 0.  0.
         25    1    1    2    0    0 -0.89366391218E+01 -0.12604037998E+03  0.18403216964E+03  0.25584933138E+03  0.12500000000E+03 0.  0.
         25    1    1    2    0    0 -0.94079049130E+01  0.55826624212E+02 -0.53557878443E+02  0.14730433459E+03  0.12500000000E+03 0.  0.
</event>
<event>
 5    0  0.5764392E-005  0.3627658E+03  0.7546771E-02  0.1057494E+00
         21   -1    0    0  502  501  0.00000000000E+00  0.00000000000E+00  0.27263117463E+03  0.27263117463E+03  0.00000000000E+00 0.  1.
         21   -1    0    0  501  502 -0.00000000000E+00 -0.00000000000E+00 -0.48269994842E+03  0.48269994842E+03  0.00000000000E+00 0.  1.
         25    1    1    2    0    0  0.21111425554E+03  0.33912391380E+02 -0.23644453869E+03  0.34241831005E+03  0.12500000000E+03 0.  0.
         25    1    1    2    0    0 -0.47325196382E+02  0.20663690601E+02  0.11934595724E+03  0.18037494236E+03  0.12500000000E+03 0.  0.
         25    1    1    2    0    0 -0.16378905916E+03 -0.54576081980E+02 -0.92970192334E+02  0.23253787065E+03  0.12500000000E+03 0.  0.
</event>
<event>
 5    0  0.5764392E-005  0.2042942E+03  0.7546771E-02  0.1146166E+00
         21   -1    0    0  502  501  0.00000000000E+00  0.00000000000E+00  0.18027208133E+03  0.18027208133E+03  0.00000000000E+00 0.  1.
         21   -1    0    0  501  502 -0.00000000000E+00 -0.00000000000E+00 -0.23151730607E+03  0.23151730607E+03  0.00000000000E+00 0.  1.
         25    1    1    2    0    0 -0.12534386536E+02  0.19534805408E+02 -0.13061870249E+02  0.12780583681E+03  0.12500000000E+03 0.  0.
         25    1    1    2    0    0  0.29920048406E+02 -0.91619359614E+00  0.39691581986E+02  0.13452312213E+03  0.12500000000E+03 0.  0.
         25    1    1    2    0    0 -0.17385661870E+02 -0.18618611812E+02 -0.77874936470E+02  0.14946042846E+03  0.12500000000E+03 0.  0.
</event>
<event>
 5    0  0.5764392E-005  0.2654661E+03  0.7546771E-02  0.1103903E+00
         21   -1    0    0  502  501  0.00000000000E+00  0.00000000000E+00  0.96675989070E+03  0.96675989070E+03  0.00000000000E+00 0. -1.
         21   -1    0    0  501  502 -0.00000000000E+00 -0.00000000000E+00 -0.72895315485E+02  0.72895315485E+02  0.00000000000E+00 0. -1.
         25    1    1    2    0    0 -0.91601399330E+01 -0.56502683780E+02  0.14051763507E+03  0.19658755608E+03  0.12500000000E+03 0.  0.
         25    1    1    2    0    0  0.86863850112E+02 -0.63582747842E+02  0.20732230354E+03  0.26494458256E+03  0.12500000000E+03 0.  0.
         25    1    1    2    0    0 -0.77703710179E+02  0.12008543162E+03  0.54602463660E+03  0.57812306755E+03  0.12500000000E+03 0.  0.
</event>
<event>
 5    0  0.5764392E-005  0.3521136E+03  0.7546771E-02  0.1061751E+00
         21   -1    0    0  502  501  0.00000000000E+00  0.00000000000E+00  0.32677556968E+03  0.32677556968E+03  0.00000000000E+00 0. -1.
         21   -1    0    0  501  502 -0.00000000000E+00 -0.00000000000E+00 -0.37941628748E+03  0.37941628748E+03  0.00000000000E+00 0. -1.
         25    1    1    2    0    0  0.25477791742E+02  0.76598345578E+02 -0.12357491370E+03  0.19342229373E+03  0.12500000000E+03 0.  0.
         25    1    1    2    0    0 -0.18420434264E+03  0.52795098703E+02 -0.63917973306E+02  0.23754803642E+03  0.12500000000E+03 0.  0.
         25    1    1    2    0    0  0.15872655090E+03 -0.12939344428E+03  0.13485216921E+03  0.27522152700E+03  0.12500000000E+03 0.  0.
</event>
<event>
 5    0  0.5764392E-005  0.2771852E+03  0.7546771E-02  0.1097236E+00
         21   -1    0    0  502  501  0.00000000000E+00  0.00000000000E+00  0.40138846741E+04  0.40138846741E+04  0.00000000000E+00 0. -1.
         21   -1    0    0  501  502 -0.00000000000E+00 -0.00000000000E+00 -0.19141467874E+02  0.19141467874E+02  0.00000000000E+00 0. -1.
         25    1    1    2    0    0  0.12978437719E+03  0.67634903299E+02  0.10841748240E+04  0.11011260208E+04  0.12500000000E+03 0.  0.
         25    1    1    2    0    0 -0.89163107193E+02 -0.94176209654E+02  0.22867810639E+04  0.22938639568E+04  0.12500000000E+03 0.  0.
         25    1    1    2    0    0 -0.40621269993E+02  0.26541306355E+02  0.62378731827E+03  0.63803616430E+03  0.12500000000E+03 0.  0.
</event>
<event>
 5    0  0.5764392E-005  0.2576899E+03  0.7546771E-02  0.1108539E+00
         21   -1    0    0  502  501  0.00000000000E+00  0.00000000000E+00  0.19220882271E+03  0.19220882271E+03  0.00000000000E+00 0.  1.
         21   -1    0    0  501  502 -0.00000000000E+00 -0.00000000000E+00 -0.34547889935E+03  0.34547889935E+03  0.00000000000E+00 0.  1.
         25    1    1    2    0    0  0.90541780120E+02 -0.65320789403E+02 -0.20875929646E+02  0.16889471251E+03  0.12500000000E+03 0.  0.
         25    1    1    2    0    0 -0.11524702816E+03 -0.24662306384E+02 -0.12530912115E+03  0.21264402813E+03  0.12500000000E+03 0.  0.
         25    1    1    2    0    0  0.24705248043E+02  0.89983095787E+02 -0.70850258417E+01  0.15614898142E+03  0.12500000000E+03 0.  0.
</event>
<event>
 5    0  0.5764392E-005  0.3385539E+03  0.7546771E-02  0.1067414E+00
         21   -1    0    0  502  501  0.00000000000E+00  0.00000000000E+00  0.25793947896E+03  0.25793947896E+03  0.00000000000E+00 0. -1.
         21   -1    0    0  501  502 -0.00000000000E+00 -0.00000000000E+00 -0.44436292309E+03  0.44436292309E+03  0.00000000000E+00 0. -1.
         25    1    1    2    0    0  0.25616184097E+03  0.37374346495E+02 -0.17787114855E+03  0.33805158783E+03  0.12500000000E+03 0.  0.
         25    1    1    2    0    0 -0.14002625340E+03 -0.24689921878E+02  0.21501211341E+02  0.19053673130E+03  0.12500000000E+03 0.  0.
         25    1    1    2    0    0 -0.11613558757E+03 -0.12684424617E+02 -0.30053506920E+02  0.17371408293E+03  0.12500000000E+03 0.  0.
</event>
<event>
 5    0  0.5764392E-005  0.2409837E+03  0.7546771E-02  0.1119139E+00
         21   -1    0    0  502  501  0.00000000000E+00  0.00000000000E+00  0.42371814580E+03  0.42371814580E+03  0.00000000000E+00 0. -1.
         21   -1    0    0  501  502 -0.00000000000E+00 -0.00000000000E+00 -0.13705603917E+03  0.13705603917E+03  0.00000000000E+00 0. -1.
         25    1    1    2    0    0 -0.11442736947E+02  0.59118576596E+02  0.10562659459E+03  0.17437866788E+03  0.12500000000E+03 0.  0.
         25    1    1    2    0    0  0.67771212519E+02 -0.39803998658E+02 -0.12775031712E+02  0.14820761448E+03  0.12500000000E+03 0.  0.
         25    1    1    2    0    0 -0.56328475572E+02 -0.19314577938E+02  0.19381054375E+03  0.23818790261E+03  0.12500000000E+03 0.  0.
</event>
<event>
 5    0  0.5764392E-005  0.5793446E+03  0.7546771E-02  0.9949211E-01
         21   -1    0    0  502  501  0.00000000000E+00  0.00000000000E+00  0.10487992674E+04  0.10487992674E+04  0.00000000000E+00 0.  1.
         21   -1    0    0  501  502 -0.00000000000E+00 -0.00000000000E+00 -0.32002328124E+03  0.32002328124E+03  0.00000000000E+00 0.  1.
         25    1    1    2    0    0 -0.42259729625E+02  0.15337532597E+03  0.36525694722E+02  0.20559426485E+03  0.12500000000E+03 0.  0.
         25    1    1    2    0    0  0.35444940249E+03  0.20377042074E+03  0.21388469528E+03  0.47804646863E+03  0.12500000000E+03 0.  0.
         25    1    1    2    0    0 -0.31218967286E+03 -0.35714574671E+03  0.47836559617E+03  0.68518181517E+03  0.12500000000E+03 0.  0.
</event>
<event>
 5    0  0.5764392E-005  0.3931594E+03  0.7546771E-02  0.1046174E+00
         21   -1    0    0  502  501  0.00000000000E+00  0.00000000000E+00  0.25754316776E+03  0.25754316776E+03  0.00000000000E+00 0.  1.
         21   -1    0    0  501  502 -0.00000000000E+00 -0.00000000000E+00 -0.60018808590E+03  0.60018808590E+03  0.00000000000E+00 0.  1.
         25    1    1    2    0    0  0.54421992246E+02 -0.79547263208E+02  0.81341961904E+02  0.17756980343E+03  0.12500000000E+03 0.  0.
         25    1    1    2    0    0 -0.16461688407E+03 -0.78795693105E+02 -0.38920413118E+03  0.44767436324E+03  0.12500000000E+03 0.  0.
         25    1    1    2    0    0  0.11019489183E+03  0.15834295631E+03 -0.34782748867E+02  0.23248708699E+03  0.12500000000E+03 0.  0.
</event>
<event>
 5    0  0.5764392E-005  0.3046733E+03  0.7546771E-02  0.1082928E+00
         21   -1    0    0  502  501  0.00000000000E+00  0.00000000000E+00  0.17211104256E+04  0.17211104256E+04  0.00000000000E+00 0. -1.
         21   -1    0    0  501  502 -0.00000000000E+00 -0.00000000000E+00 -0.53933676832E+02  0.53933676832E+02  0.00000000000E+00 0. -1.
         25    1    1    2    0    0  0.15448336220E+00 -0.19476893561E+02  0.13552585548E+03  0.18539587576E+03  0.12500000000E+03 0.  0.
         25    1    1    2    0    0  0.66627492126E+02 -0.89027784922E+02  0.28651677093E+03  0.33178611969E+03  0.12500000000E+03 0.  0.
         25    1    1    2    0    0 -0.66781975488E+02  0.10850467848E+03  0.12451341224E+04  0.12578621070E+04  0.12500000000E+03 0.  0.
</event>
<event>
 5    0  0.5764392E-005  0.3176539E+03  0.7546771E-02  0.1076734E+00
         21   -1    0    0  502  501  0.00000000000E+00  0.00000000000E+00  0.44708558157E+03  0.44708558157E+03  0.00000000000E+00 0. -1.
         21   -1    0    0  501  502 -0.00000000000E+00 -0.00000000000E+00 -0.22569279576E+03  0.22569279576E+03  0.00000000000E+00 0. -1.
         25    1    1    2    0    0 -0.73055101582E+02 -0.30409897823E+02 -0.55434323949E+02  0.15798662609E+03  0.12500000000E+03 0.  0.
         25    1    1    2    0    0 -0.30274375395E+02  0.17065519524E+03  0.18056913032E+03  0.27976766127E+03  0.12500000000E+03 0.  0.
         25    1    1    2    0    0  0.10332947698E+03 -0.14024529742E+03  0.96257979438E+02  0.23502408997E+03  0.12500000000E+03 0.  0.
</event>
<event>
 5    0  0.5764392E-005  0.2601912E+03  0.7546771E-02  0.1107028E+00
         21   -1    0    0  502  501  0.00000000000E+00  0.00000000000E+00  0.57359270890E+03  0.57359270890E+03  0.00000000000E+00 0.  1.
         21   -1    0    0  501  502 -0.00000000000E+00 -0.00000000000E+00 -0.11802707857E+03  0.11802707857E+03  0.00000000000E+00 0.  1.
         25    1    1    2    0    0 -0.16544852441E+02  0.26197521737E+02  0.35568140472E+02  0.13360439702E+03  0.12500000000E+03 0.  0.
         25    1    1    2    0    0  0.17839438028E+02 -0.85171180012E+02  0.45704057092E+02  0.15901646546E+03  0.12500000000E+03 0.  0.
         25    1    1    2    0    0 -0.12945855868E+01  0.58973658275E+02  0.37429343277E+03  0.39899892498E+03  0.12500000000E+03 0.  0.
</event>
<event>
 5    0  0.5764392E-005  0.2723873E+03  0.7546771E-02  0.1099921E+00
         21   -1    0    0  502  501  0.00000000000E+00  0.00000000000E+00  0.46759091029E+02  0.46759091029E+02  0.00000000000E+00 0. -1.
         21   -1    0    0  501  502 -0.00000000000E+00 -0.00000000000E+00 -0.15867465285E+04  0.15867465285E+04  0.00000000000E+00 0. -1.
         25    1    1    2    0    0  0.37516312704E+01 -0.46356556343E+02 -0.15132469649E+03  0.20171060662E+03  0.12500000000E+03 0.  0.
         25    1    1    2    0    0  0.35922220776E+02  0.47601123325E+02 -0.11596186232E+04  0.11678598478E+04  0.12500000000E+03 0.  0.
         25    1    1    2    0    0 -0.39673852047E+02 -0.12445669817E+01 -0.22904411780E+03  0.26393516511E+03  0.12500000000E+03 0.  0.
</event>
<event>
 5    0  0.5764392E-005  0.2923589E+03  0.7546771E-02  0.1089124E+00
         21   -1    0    0  502  501  0.00000000000E+00  0.00000000000E+00  0.23955514629E+04  0.23955514629E+04  0.00000000000E+00 0. -1.
         21   -1    0    0  501  502 -0.00000000000E+00 -0.00000000000E+00 -0.35680183234E+02  0.35680183234E+02  0.00000000000E+00 0. -1.
         25    1    1    2    0    0  0.14119777104E+03  0.68552959691E+02  0.49143296828E+03  0.53081793596E+03  0.12500000000E+03 0.  0.
         25    1    1    2    0    0 -0.10637001874E+03 -0.53847865200E+02  0.57465530923E+03  0.60005657892E+03  0.12500000000E+03 0.  0.
         25    1    1    2    0    0 -0.34827752304E+02 -0.14705094490E+02  0.12937830021E+04  0.13003571312E+04  0.12500000000E+03 0.  0.
</event>
<event>
 5    0  0.5764392E-005  0.4492835E+03  0.7546771E-02  0.1027936E+00
         21   -1    0    0  502  501  0.00000000000E+00  0.00000000000E+00  0.16352171532E+04  0.16352171532E+04  0.00000000000E+00 0.  1.
         21   -1    0    0  501  502 -0.00000000000E+00 -0.00000000000E+00 -0.12344275011E+03  0.12344275011E+03  0.00000000000E+00 0.  1.
         25    1    1    2    0    0  0.49390103593E+02 -0.14852615337E+03 -0.30323227325E+01  0.20033371046E+03  0.12500000000E+03 0.  0.
         25    1    1    2    0    0 -0.37370051459E+02  0.91954026649E+02  0.34147069438E+03  0.37693407764E+03  0.12500000000E+03 0.  0.
         25    1    1    2    0    0 -0.12020052135E+02  0.56572126720E+02  0.11733360314E+04  0.11813921152E+04  0.12500000000E+03 0.  0.
</event>
<event>
 5    0  0.5764392E-005  0.2750344E+03  0.7546771E-02  0.1098432E+00
         21   -1    0    0  502  501  0.00000000000E+00  0.00000000000E+00  0.12762058337E+04  0.12762058337E+04  0.00000000000E+00 0. -1.
         21   -1    0    0  501  502 -0.00000000000E+00 -0.00000000000E+00 -0.59272527794E+02  0.59272527794E+02  0.00000000000E+00 0. -1.
         25    1    1    2    0    0  0.14585402072E+03 -0.11456373727E+03  0.42926429966E+03  0.48403624267E+03  0.12500000000E+03 0.  0.
         25    1    1    2    0    0 -0.40757980264E+02  0.77732609969E+02  0.31678049992E+03  0.35167948012E+03  0.12500000000E+03 0.  0.
         25    1    1    2    0    0 -0.10509604045E+03  0.36831127301E+02  0.47088850636E+03  0.49976263874E+03  0.12500000000E+03 0.  0.
</event>
<event>
 5    0  0.5764392E-005  0.3061592E+03  0.7546771E-02  0.1082202E+00
         21   -1    0    0  502  501  0.00000000000E+00  0.00000000000E+00  0.10842194394E+03  0.10842194394E+03  0.00000000000E+00 0. -1.
         21   -1    0    0  501  502 -0.00000000000E+00 -0.00000000000E+00 -0.86452455653E+03  0.86452455653E+03  0.00000000000E+00 0. -1.
         25    1    1    2    0    0  0.10095853329E+03  0.33762233387E+02 -0.39936271625E+03  0.43179635591E+03  0.12500000000E+03 0.  0.
         25    1    1    2    0    0  0.10312003323E+03  0.32151942052E+01 -0.11310042622E+03  0.19763801542E+03  0.12500000000E+03 0.  0.
         25    1    1    2    0    0 -0.20407856652E+03 -0.36977427592E+02 -0.24363947012E+03  0.34351212914E+03  0.12500000000E+03 0.  0.
</event>
<event>
 5    0  0.5764392E-005  0.3631588E+03  0.7546771E-02  0.1057340E+00
         21   -1    0    0  502  501  0.00000000000E+00  0.00000000000E+00  0.53421772978E+02  0.53421772978E+02  0.00000000000E+00 0.  1.
         21   -1    0    0  501  502 -0.00000000000E+00 -0.00000000000E+00 -0.24687368418E+04  0.24687368418E+04  0.00000000000E+00 0.  1.
         25    1    1    2    0    0  0.18353432184E+03 -0.49720628589E+02 -0.79179272369E+03  0.82384325298E+03  0.12500000000E+03 0.  0.
         25    1    1    2    0    0 -0.16743170319E+03  0.32868545459E+02 -0.15191673865E+04  0.15338214579E+04  0.12500000000E+03 0.  0.
         25    1    1    2    0    0 -0.16102618652E+02  0.16852083130E+02 -0.10435495869E+03  0.16449390395E+03  0.12500000000E+03 0.  0.
</event>
<event>
 5    0  0.5764392E-005  0.3609477E+03  0.7546771E-02  0.1058209E+00
         21   -1    0    0  502  501  0.00000000000E+00  0.00000000000E+00  0.60747440800E+03  0.60747440800E+03  0.00000000000E+00 0.  1.
         21   -1    0    0  501  502 -0.00000000000E+00 -0.00000000000E+00 -0.21446701259E+03  0.21446701259E+03  0.00000000000E+00 0.  1.
         25    1    1    2    0    0  0.70588717010E+02 -0.96049099803E+01 -0.77053386657E+02  0.16320920826E+03  0.12500000000E+03 0.  0.
         25    1    1    2    0    0 -0.12013149550E+03  0.14780678414E+03  0.38636357448E+03  0.44853119550E+03  0.12500000000E+03 0.  0.
         25    1    1    2    0    0  0.49542778487E+02 -0.13820187416E+03  0.83697207584E+02  0.21020101684E+03  0.12500000000E+03 0.  0.
</event>
<event>
 5    0  0.5764392E-005  0.3159137E+03  0.7546771E-02  0.1077545E+00
         21   -1    0    0  502  501  0.00000000000E+00  0.00000000000E+00  0.61342936613E+02  0.61342936613E+02  0.00000000000E+00 0.  1.
         21   -1    0    0  501  502 -0.00000000000E+00 -0.00000000000E+00 -0.16269432802E+04  0.16269432802E+04  0.00000000000E+00 0.  1.
         25    1    1    2    0    0  0.86127179314E+02 -0.95549227227E+02 -0.38293960161E+03  0.42286556294E+03  0.12500000000E+03 0.  0.
         25    1    1    2    0    0  0.39811030890E+02  0.12840893483E+03 -0.22251857312E+03  0.28846713523E+03  0.12500000000E+03 0.  0.
         25    1    1    2    0    0 -0.12593821020E+03 -0.32859707598E+02 -0.96014216886E+03  0.97695351865E+03  0.12500000000E+03 0.  0.
</event>
<event>
 5    0  0.5764392E-005  0.2409428E+03  0.7546771E-02  0.1119166E+00
         21   -1    0    0  502  501  0.00000000000E+00  0.00000000000E+00  0.28812066815E+03  0.28812066815E+03  0.00000000000E+00 0.  1.
         21   -1    0    0  501  502 -0.00000000000E+00 -0.00000000000E+00 -0.20148994745E+03  0.20148994745E+03  0.00000000000E+00 0.  1.
         25    1    1    2    0    0 -0.17957526237E+02 -0.53297636364E+02  0.19353597527E+02  0.13842930516E+03  0.12500000000E+03 0.  0.
         25    1    1    2    0    0  0.66357382171E+02  0.41356008578E+02 -0.66216945915E+02  0.16162705696E+03  0.12500000000E+03 0.  0.
         25    1    1    2    0    0 -0.48399855934E+02  0.11941627785E+02  0.13349406909E+03  0.18955425347E+03  0.12500000000E+03 0.  0.
</event>
<event>
 5    0  0.5764392E-005  0.3730256E+03  0.7546771E-02  0.1053542E+00
         21   -1    0    0  502  501  0.00000000000E+00  0.00000000000E+00  0.18913709949E+03  0.18913709949E+03  0.00000000000E+00 0.  1.
         21   -1    0    0  501  502 -0.00000000000E+00 -0.00000000000E+00 -0.73569958465E+03  0.73569958465E+03  0.00000000000E+00 0.  1.
         25    1    1    2    0    0 -0.99783512389E+02 -0.97008237028E+02 -0.26568119779E+03  0.32492898648E+03  0.12500000000E+03 0.  0.
         25    1    1    2    0    0 -0.91542949242E+02 -0.13401136127E+03 -0.99223337544E+02  0.22761684300E+03  0.12500000000E+03 0.  0.
         25    1    1    2    0    0  0.19132646163E+03  0.23101959830E+03 -0.18165794983E+03  0.37229085465E+03  0.12500000000E+03 0.  0.
</event>
<event>
 5    0  0.5764392E-005  0.3040088E+03  0.7546771E-02  0.1083254E+00
         21   -1    0    0  502  501  0.00000000000E+00  0.00000000000E+00  0.33104283390E+03  0.33104283390E+03  0.00000000000E+00 0.  1.
         21   -1    0    0  501  502 -0.00000000000E+00 -0.00000000000E+00 -0.27918240494E+03  0.27918240494E+03  0.00000000000E+00 0.  1.
         25    1    1    2    0    0 -0.36165727529E+02  0.12586964946E+03 -0.16688537704E+02  0.18180933912E+03  0.12500000000E+03 0.  0.
         25    1    1    2    0    0  0.10908476402E+03 -0.18795520207E+03  0.96220456716E+02  0.26853308924E+03  0.12500000000E+03 0.  0.
         25    1    1    2    0    0 -0.72919036489E+02  0.62085552613E+02 -0.27671490056E+02  0.15988281048E+03  0.12500000000E+03 0.  0.
</event>
<event>
 5    0  0.5764392E-005  0.4542499E+03  0.7546771E-02  0.1026462E+00
         21   -1    0    0  502  501  0.00000000000E+00  0.00000000000E+00  0.26642197234E+03  0.26642197234E+03  0.00000000000E+00 0. -1.
         21   -1    0    0  501  502 -0.00000000000E+00 -0.00000000000E+00 -0.77449691454E+03  0.77449691454E+03  0.00000000000E+00 0. -1.
         25    1    1    2    0    0  0.26559938645E+03  0.23984715065E+03 -0.16565545641E+03  0.41368637879E+03  0.12500000000E+03 0.  0.
         25    1    1    2    0    0 -0.16199347065E+03  0.24961375698E+02 -0.19365614039E+03  0.28282972885E+03  0.12500000000E+03 0.  0.
         25    1    1    2    0    0 -0.10360591579E+03 -0.26480852635E+03 -0.14876334541E+03  0.34440277925E+03  0.12500000000E+03 0.  0.
</event>
<event>
 5    0  0.5764392E-005  0.4144647E+03  0.7546771E-02  0.1038883E+00
         21   -1    0    0  502  501  0.00000000000E+00  0.00000000000E+00  0.87119507147E+03  0.87119507147E+03  0.00000000000E+00 0. -1.
         21   -1    0    0  501  502 -0.00000000000E+00 -0.00000000000E+00 -0.19717852593E+03  0.19717852593E+03  0.00000000000E+00 0. -1.
         25    1    1    2    0    0 -0.59186273945E+02 -0.91629308995E+02 -0.96410756720E+02  0.19188272278E+03  0.12500000000E+03 0.  0.
         25    1    1    2    0    0 -0.10904500388E+03 -0.35696999703E+02  0.36794406490E+03  0.40518258052E+03  0.12500000000E+03 0.  0.
         25    1    1    2    0    0  0.16823127783E+03  0.12732630870E+03  0.40248323736E+03  0.47130829410E+03  0.12500000000E+03 0.  0.
</event>
<event>
 5    0  0.5764392E-005  0.3509928E+03  0.7546771E-02  0.1062208E+00
         21   -1    0    0  502  501  0.00000000000E+00  0.00000000000E+00  0.44721658848E+03  0.44721658848E+03  0.00000000000E+00 0.  1.
         21   -1    0    0  501  502 -0.00000000000E+00 -0.00000000000E+00 -0.27547266915E+03  0.27547266915E+03  0.00000000000E+00 0.  1.
         25    1    1    2    0    0  0.15765779496E+03 -0.15875574589E+02  0.42552208895E+02  0.20626125342E+03  0.12500000000E+03 0.  0.
         25    1    1    2    0    0 -0.20666597385E+03 -0.31582245407E+02  0.23542812824E+03  0.33876196147E+03  0.12500000000E+03 0.  0.
         25    1    1    2    0    0  0.49008178897E+02  0.47457819997E+02 -0.10623641781E+03  0.17766604275E+03  0.12500000000E+03 0.  0.
</event>
<event>
 5    0  0.5764392E-005  0.4452123E+03  0.7546771E-02  0.1029159E+00
         21   -1    0    0  502  501  0.00000000000E+00  0.00000000000E+00  0.21447450380E+03  0.21447450380E+03  0.00000000000E+00 0. -1.
         21   -1    0    0  501  502 -0.00000000000E+00 -0.00000000000E+00 -0.92418456138E+03  0.92418456138E+03  0.00000000000E+00 0. -1.
         25    1    1    2    0    0 -0.24784858516E+03 -0.16329080410E+03 -0.32248022351E+03  0.45575355448E+03  0.12500000000E+03 0.  0.
         25    1    1    2    0    0 -0.83687409188E+02  0.14285831228E+03 -0.15037469170E+03  0.25622183308E+03  0.12500000000E+03 0.  0.
         25    1    1    2    0    0  0.33153599435E+03  0.20432491817E+02 -0.23685514238E+03  0.42668367762E+03  0.12500000000E+03 0.  0.
</event>
<event>
 5    0  0.5764392E-005  0.3360021E+03  0.7546771E-02  0.1068512E+00
         21   -1    0    0  502  501  0.00000000000E+00  0.00000000000E+00  0.60244131666E+02  0.60244131666E+02  0.00000000000E+00 0.  1.
         21   -1    0    0  501  502 -0.00000000000E+00 -0.00000000000E+00 -0.18739980259E+04  0.18739980259E+04  0.00000000000E+00 0.  1.
         25    1    1    2    0    0 -0.15298735112E+03  0.27145471397E+01 -0.43183744472E+03  0.47489059480E+03  0.12500000000E+03 0.  0.
         25    1    1    2    0    0 -0.17297205289E+02  0.11613207801E+03 -0.25939320780E+03  0.31095930459E+03  0.12500000000E+03 0.  0.
         25    1    1    2    0    0  0.17028455641E+03 -0.11884662515E+03 -0.11225232418E+04  0.11483922582E+04  0.12500000000E+03 0.  0.
</event>
<event>
 5    0  0.5764392E-005  0.2433077E+03  0.7546771E-02  0.1117609E+00
         21   -1    0    0  502  501  0.00000000000E+00  0.00000000000E+00  0.17140454225E+04  0.17140454225E+04  0.00000000000E+00 0. -1.
         21   -1    0    0  501  502 -0.00000000000E+00 -0.00000000000E+00 -0.34537389215E+02  0.34537389215E+02  0.00000000000E+00 0. -1.
         25    1    1    2    0    0  0.41480354768E+02 -0.82979774166E+02  0.52707605859E+03  0.54958205420E+03  0.12500000000E+03 0.  0.
         25    1    1    2    0    0  0.19330962250E+02  0.95468533045E+02  0.86594314906E+03  0.88032406778E+03  0.12500000000E+03 0.  0.
         25    1    1    2    0    0 -0.60811317019E+02 -0.12488758879E+02  0.28648882567E+03  0.31867668978E+03  0.12500000000E+03 0.  0.
</event>
<event>
 5    0  0.5764392E-005  0.3783075E+03  0.7546771E-02  0.1051561E+00
         21   -1    0    0  502  501  0.00000000000E+00  0.00000000000E+00  0.17042864962E+04  0.17042864962E+04  0.00000000000E+00 0. -1.
         21   -1    0    0  501  502 -0.00000000000E+00 -0.00000000000E+00 -0.83974463180E+02  0.83974463180E+02  0.00000000000E+00 0. -1.
         25    1    1    2    0    0 -0.96549020787E+02  0.40147921633E+02  0.18844494680E+03  0.24913865016E+03  0.12500000000E+03 0.  0.
         25    1    1    2    0    0 -0.19559231019E+03 -0.18763170604E+02  0.77303340486E+03  0.80735001914E+03  0.12500000000E+03 0.  0.
         25    1    1    2    0    0  0.29214133098E+03 -0.21384751029E+02  0.65883368135E+03  0.73177229007E+03  0.12500000000E+03 0.  0.
</event>
<event>
 5    0  0.5764392E-005  0.2580999E+03  0.7546771E-02  0.1108290E+00
         21   -1    0    0  502  501  0.00000000000E+00  0.00000000000E+00  0.10790787913E+03  0.10790787913E+03  0.00000000000E+00 0. -1.
         21   -1    0    0  501  502 -0.00000000000E+00 -0.00000000000E+00 -0.61733710633E+03  0.61733710633E+03  0.00000000000E+00 0. -1.
         25    1    1    2    0    0 -0.56813410249E+02  0.15735665523E+02 -0.31921590729E+02  0.14184273936E+03  0.12500000000E+03 0.  0.
         25    1    1    2    0    0  0.29210768662E+02 -0.11499933865E+03 -0.22543076559E+03  0.28376424541E+03  0.12500000000E+03 0.  0.
         25    1    1    2    0    0  0.27602641587E+02  0.99263673132E+02 -0.25207687089E+03  0.29963800070E+03  0.12500000000E+03 0.  0.
</event>
<event>
 5    0  0.5764392E-005  0.2331585E+03  0.7546771E-02  0.1124436E+00
         21   -1    0    0  502  501  0.00000000000E+00  0.00000000000E+00  0.21565867929E+03  0.21565867929E+03  0.00000000000E+00 0. -1.
         21   -1    0    0  501  502 -0.00000000000E+00 -0.00000000000E+00 -0.25207829803E+03  0.25207829803E+03  0.00000000000E+00 0. -1.
         25    1    1    2    0    0  0.19556116395E+02 -0.75711116674E+02 -0.25532504556E+02  0.14963797535E+03  0.12500000000E+03 0.  0.
         25    1    1    2    0    0 -0.23633070043E+02  0.11295887302E+03 -0.57419407649E+02  0.17955561080E+03  0.12500000000E+03 0.  0.
         25    1    1    2    0    0  0.40769536488E+01 -0.37247756347E+02  0.46532293459E+02  0.13854339118E+03  0.12500000000E+03 0.  0.
</event>
<event>
 5    0  0.5764392E-005  0.5957632E+03  0.7546771E-02  0.9914235E-01
         21   -1    0    0  502  501  0.00000000000E+00  0.00000000000E+00  0.43728132430E+03  0.43728132430E+03  0.00000000000E+00 0.  1.
         21   -1    0    0  501  502 -0.00000000000E+00 -0.00000000000E+00 -0.81168286898E+03  0.81168286898E+03  0.00000000000E+00 0.  1.
         25    1    1    2    0    0 -0.43651620481E+02 -0.17905750847E+03  0.13304746285E+03  0.25941025940E+03  0.12500000000E+03 0.  0.
         25    1    1    2    0    0 -0.16600415708E+02 -0.28219019112E+03 -0.28665748819E+02  0.31040876747E+03  0.12500000000E+03 0.  0.
         25    1    1    2    0    0  0.60252036188E+02  0.46124769959E+03 -0.47878325871E+03  0.67914516642E+03  0.12500000000E+03 0.  0.
</event>
<event>
 5    0  0.5764392E-005  0.2458095E+03  0.7546771E-02  0.1115982E+00
         21   -1    0    0  502  501  0.00000000000E+00  0.00000000000E+00  0.22290790327E+03  0.22290790327E+03  0.00000000000E+00 0.  1.
         21   -1    0    0  501  502 -0.00000000000E+00 -0.00000000000E+00 -0.27106410624E+03  0.27106410624E+03  0.00000000000E+00 0.  1.
         25    1    1    2    0    0 -0.13059198764E+03 -0.30825317447E+02 -0.25373146455E+02  0.18513039727E+03  0.12500000000E+03 0.  0.
         25    1    1    2    0    0  0.11465178369E+03  0.56810591394E+02 -0.21552674774E+02  0.18017211934E+03  0.12500000000E+03 0.  0.
         25    1    1    2    0    0  0.15940203949E+02 -0.25985273947E+02 -0.12303817394E+01  0.12866949290E+03  0.12500000000E+03 0.  0.
</event>
<event>
 5    0  0.5764392E-005  0.2679644E+03  0.7546771E-02  0.1102450E+00
         21   -1    0    0  502  501  0.00000000000E+00  0.00000000000E+00  0.65838682250E+03  0.65838682250E+03  0.00000000000E+00 0.  1.
         21   -1    0    0  501  502 -0.00000000000E+00 -0.00000000000E+00 -0.10906188473E+03  0.10906188473E+03  0.00000000000E+00 0.  1.
         25    1    1    2    0    0  0.86777333963E+02  0.52243462068E+02  0.29221526131E+03  0.33357824264E+03  0.12500000000E+03 0.  0.
         25    1    1    2    0    0 -0.78065656503E+02  0.58410874197E+02  0.46952277947E+02  0.16533479172E+03  0.12500000000E+03 0.  0.
         25    1    1    2    0    0 -0.87116774600E+01 -0.11065433626E+03  0.21015739851E+03  0.26853567288E+03  0.12500000000E+03 0.  0.
</event>
<event>
 5    0  0.5764392E-005  0.2633136E+03  0.7546771E-02  0.1105169E+00
         21   -1    0    0  502  501  0.00000000000E+00  0.00000000000E+00  0.14206349566E+03  0.14206349566E+03  0.00000000000E+00 0. -1.
         21   -1    0    0  501  502 -0.00000000000E+00 -0.00000000000E+00 -0.48804964011E+03  0.48804964011E+03  0.00000000000E+00 0. -1.
         25    1    1    2    0    0 -0.11663938200E+03 -0.27017360478E+02 -0.79204586953E+02  0.19034980902E+03  0.12500000000E+03 0.  0.
         25    1    1    2    0    0  0.45664136695E+02 -0.74468891120E+02 -0.49847991893E+02  0.16043893362E+03  0.12500000000E+03 0.  0.
         25    1    1    2    0    0  0.70975245301E+02  0.10148625160E+03 -0.21693356561E+03  0.27932439313E+03  0.12500000000E+03 0.  0.
</event>
<event>
 5    0  0.5764392E-005  0.5733955E+03  0.7546771E-02  0.9962193E-01
         21   -1    0    0  502  501  0.00000000000E+00  0.00000000000E+00  0.11577359562E+04  0.11577359562E+04  0.00000000000E+00 0. -1.
         21   -1    0    0  501  502 -0.00000000000E+00 -0.00000000000E+00 -0.28398733091E+03  0.28398733091E+03  0.00000000000E+00 0. -1.
         25    1    1    2    0    0 -0.16142212441E+03  0.26112755179E+03  0.34295171246E+03  0.47695448171E+03  0.12500000000E+03 0.  0.
         25    1    1    2    0    0  0.73534673789E+02  0.67191756987E+02  0.57788700321E+03  0.59958357961E+03  0.12500000000E+03 0.  0.
         25    1    1    2    0    0  0.87887450622E+02 -0.32831930877E+03 -0.47090090407E+02  0.36518522575E+03  0.12500000000E+03 0.  0.
</event>
<event>
 5    0  0.5764392E-005  0.2707868E+03  0.7546771E-02  0.1100830E+00
         21   -1    0    0  502  501  0.00000000000E+00  0.00000000000E+00  0.16530334338E+03  0.16530334338E+03  0.00000000000E+00 0. -1.
         21   -1    0    0  501  502 -0.00000000000E+00 -0.00000000000E+00 -0.44358152128E+03  0.44358152128E+03  0.00000000000E+00 0. -1.
         25    1    1    2    0    0  0.38736964140E+02 -0.46995932813E+02 -0.25234382669E+03  0.28811729723E+03  0.12500000000E+03 0.  0.
         25    1    1    2    0    0 -0.78396881682E+02  0.72871524268E+02 -0.71665865190E+02  0.17949185592E+03  0.12500000000E+03 0.  0.
         25    1    1    2    0    0  0.39659917542E+02 -0.25875591455E+02  0.45731513987E+02  0.14127571152E+03  0.12500000000E+03 0.  0.
</event>
<event>
 5    0  0.5764392E-005  0.3899720E+03  0.7546771E-02  0.1047308E+00
         21   -1    0    0  502  501  0.00000000000E+00  0.00000000000E+00  0.30539726265E+03  0.30539726265E+03  0.00000000000E+00 0. -1.
         21   -1    0    0  501  502 -0.00000000000E+00 -0.00000000000E+00 -0.49796826279E+03  0.49796826279E+03  0.00000000000E+00 0. -1.
         25    1    1    2    0    0 -0.13376267309E+03  0.12836908582E+03 -0.15796438716E+03  0.27376782594E+03  0.12500000000E+03 0.  0.
         25    1    1    2    0    0 -0.13326657295E+03 -0.14172708961E+03 -0.38550788276E+02  0.23443060950E+03  0.12500000000E+03 0.  0.
         25    1    1    2    0    0  0.26702924603E+03  0.13358003790E+02  0.39441752976E+01  0.29516709000E+03  0.12500000000E+03 0.  0.
</event>
<event>
 5    0  0.5764392E-005  0.3495194E+03  0.7546771E-02  0.1062812E+00
         21   -1    0    0  502  501  0.00000000000E+00  0.00000000000E+00  0.15259382631E+04  0.15259382631E+04  0.00000000000E+00 0. -1.
         21   -1    0    0  501  502 -0.00000000000E+00 -0.00000000000E+00 -0.80058144127E+02  0.80058144127E+02  0.00000000000E+00 0. -1.
         25    1    1    2    0    0 -0.47681777411E+02 -0.12657200482E+03  0.19900811883E+03  0.27115172074E+03  0.12500000000E+03 0.  0.
         25    1    1    2    0    0 -0.29011176418E+02 -0.12896136047E+03  0.48174557694E+03  0.51495289275E+03  0.12500000000E+03 0.  0.
         25    1    1    2    0    0  0.76692953829E+02  0.25553336529E+03  0.76512642318E+03  0.81989179371E+03  0.12500000000E+03 0.  0.
</event>
<event>
 5    0  0.5764392E-005  0.3234432E+03  0.7546771E-02  0.1074075E+00
         21   -1    0    0  502  501  0.00000000000E+00  0.00000000000E+00  0.19076496923E+04  0.19076496923E+04  0.00000000000E+00 0. -1.
         21   -1    0    0  501  502 -0.00000000000E+00 -0.00000000000E+00 -0.54840004648E+02  0.54840004648E+02  0.00000000000E+00 0. -1.
         25    1    1    2    0    0  0.10323422081E+03 -0.32527371932E+02  0.87642289488E+03  0.89188419929E+03  0.12500000000E+03 0.  0.
         25    1    1    2    0    0  0.29491830112E+02 -0.13029855142E+03  0.54352531823E+03  0.57349128337E+03  0.12500000000E+03 0.  0.
         25    1    1    2    0    0 -0.13272605092E+03  0.16282592335E+03  0.43286147454E+03  0.49711421429E+03  0.12500000000E+03 0.  0.
</event>
<event>
 5    0  0.5764392E-005  0.2843837E+03  0.7546771E-02  0.1093318E+00
         21   -1    0    0  502  501  0.00000000000E+00  0.00000000000E+00  0.22479062530E+04  0.22479062530E+04  0.00000000000E+00 0. -1.
         21   -1    0    0  501  502 -0.00000000000E+00 -0.00000000000E+00 -0.35977507117E+02  0.35977507117E+02  0.00000000000E+00 0. -1.
         25    1    1    2    0    0 -0.27435288420E+02  0.12186903806E+03  0.10401555377E+04  0.10550608040E+04  0.12500000000E+03 0.  0.
         25    1    1    2    0    0  0.11236249408E+03 -0.52853670945E+02  0.83394317804E+03  0.85235266458E+03  0.12500000000E+03 0.  0.
         25    1    1    2    0    0 -0.84927205660E+02 -0.69015367119E+02  0.33783003011E+03  0.37647029153E+03  0.12500000000E+03 0.  0.
</event>
<event>
 5    0  0.5764392E-005  0.2668722E+03  0.7546771E-02  0.1103083E+00
         21   -1    0    0  502  501  0.00000000000E+00  0.00000000000E+00  0.37835420388E+03  0.37835420388E+03  0.00000000000E+00 0.  1.
         21   -1    0    0  501  502 -0.00000000000E+00 -0.00000000000E+00 -0.18823833473E+03  0.18823833473E+03  0.00000000000E+00 0.  1.
         25    1    1    2    0    0 -0.13428074951E+03 -0.12955211297E+02 -0.18265420467E+01  0.18392252022E+03  0.12500000000E+03 0.  0.
         25    1    1    2    0    0 -0.27965741454E+01 -0.35396323808E+02  0.34109947689E+02  0.13434734496E+03  0.12500000000E+03 0.  0.
         25    1    1    2    0    0  0.13707732365E+03  0.48351535105E+02  0.15783246350E+03  0.24832267343E+03  0.12500000000E+03 0.  0.
</event>
<event>
 5    0  0.5810081E-005  0.2608904E+03  0.7546771E-02  0.1106609E+00
         21   -1    0    0  502  501  0.00000000000E+00  0.00000000000E+00  0.67514863936E+03  0.67514863936E+03  0.00000000000E+00 0.  1.
         21   -1    0    0  501  502 -0.00000000000E+00 -0.00000000000E+00 -0.10081303208E+03  0.10081303208E+03  0.00000000000E+00 0.  1.
         25    1    1    2    0    0  0.21832187485E+02 -0.74650738332E+02  0.83189668813E+02  0.16910026062E+03  0.12500000000E+03 0.  0.
         25    1    1    2    0    0  0.69471912743E+02 -0.50518408823E+02  0.15982115014E+03  0.22033215000E+03  0.12500000000E+03 0.  0.
         25    1    1    2    0    0 -0.91304100228E+02  0.12516914716E+03  0.33132478832E+03  0.38652926083E+03  0.12500000000E+03 0.  0.
</event>
<event>
 5    0  0.5764392E-005  0.2625257E+03  0.7546771E-02  0.1105635E+00
         21   -1    0    0  502  501  0.00000000000E+00  0.00000000000E+00  0.17548125603E+04  0.17548125603E+04  0.00000000000E+00 0. -1.
         21   -1    0    0  501  502 -0.00000000000E+00 -0.00000000000E+00 -0.39274691922E+02  0.39274691922E+02  0.00000000000E+00 0. -1.
         25    1    1    2    0    0 -0.39077895812E+02  0.78565832836E+02  0.52386363998E+03  0.54567186598E+03  0.12500000000E+03 0.  0.
         25    1    1    2    0    0  0.77313086029E+01  0.60570833224E+02  0.23472013349E+03  0.27285003213E+03  0.12500000000E+03 0.  0.
         25    1    1    2    0    0  0.31346587209E+02 -0.13913666606E+03  0.95695409495E+03  0.97556535415E+03  0.12500000000E+03 0.  0.
</event>
<event>
 5    0  0.5764392E-005  0.2838140E+03  0.7546771E-02  0.1093624E+00
         21   -1    0    0  502  501  0.00000000000E+00  0.00000000000E+00  0.37184125524E+03  0.37184125524E+03  0.00000000000E+00 0.  1.
         21   -1    0    0  501  502 -0.00000000000E+00 -0.00000000000E+00 -0.21662575470E+03  0.21662575470E+03  0.00000000000E+00 0.  1.
         25    1    1    2    0    0 -0.48446448159E+02  0.98841282410E+02 -0.25302166216E+02  0.16846915760E+03  0.12500000000E+03 0.  0.
         25    1    1    2    0    0 -0.26292141091E+02 -0.11354995609E+03 -0.19631071450E+02  0.17203269508E+03  0.12500000000E+03 0.  0.
         25    1    1    2    0    0  0.74738589250E+02  0.14708673683E+02  0.20014873821E+03  0.24796515725E+03  0.12500000000E+03 0.  0.
</event>
<event>
 5    0  0.5764392E-005  0.3935400E+03  0.7546771E-02  0.1046040E+00
         21   -1    0    0  502  501  0.00000000000E+00  0.00000000000E+00  0.57196613829E+03  0.57196613829E+03  0.00000000000E+00 0.  1.
         21   -1    0    0  501  502 -0.00000000000E+00 -0.00000000000E+00 -0.27077431450E+03  0.27077431450E+03  0.00000000000E+00 0.  1.
         25    1    1    2    0    0 -0.11760417548E+03 -0.39586155148E+02 -0.14915341824E+03  0.23080196694E+03  0.12500000000E+03 0.  0.
         25    1    1    2    0    0  0.12069297297E+03 -0.10738664490E+03  0.14412853378E+03  0.24999343887E+03  0.12500000000E+03 0.  0.
         25    1    1    2    0    0 -0.30887974899E+01  0.14697280005E+03  0.30621670826E+03  0.36194504699E+03  0.12500000000E+03 0.  0.
</event>
<event>
 5    0  0.5764392E-005  0.3034591E+03  0.7546771E-02  0.1083524E+00
         21   -1    0    0  502  501  0.00000000000E+00  0.00000000000E+00  0.15060074776E+03  0.15060074776E+03  0.00000000000E+00 0. -1.
         21   -1    0    0  501  502 -0.00000000000E+00 -0.00000000000E+00 -0.61146732496E+03  0.61146732496E+03  0.00000000000E+00 0. -1.
         25    1    1    2    0    0  0.79329087127E+02  0.17887527367E+03 -0.11820430574E+03  0.26055081172E+03  0.12500000000E+03 0.  0.
         25    1    1    2    0    0 -0.69231195817E+02 -0.16856832359E+03 -0.13574911992E+03  0.25934737661E+03  0.12500000000E+03 0.  0.
         25    1    1    2    0    0 -0.10097891310E+02 -0.10306950077E+02 -0.20691315154E+03  0.24216988440E+03  0.12500000000E+03 0.  0.
</event>
<event>
 5    0  0.5764392E-005  0.2767673E+03  0.7546771E-02  0.1097468E+00
         21   -1    0    0  502  501  0.00000000000E+00  0.00000000000E+00  0.43700379544E+03  0.43700379544E+03  0.00000000000E+00 0.  1.
         21   -1    0    0  501  502 -0.00000000000E+00 -0.00000000000E+00 -0.17528486173E+03  0.17528486173E+03  0.00000000000E+00 0.  1.
         25    1    1    2    0    0 -0.86754909447E+02 -0.74957389140E+02  0.58693223009E+02  0.17948514960E+03  0.12500000000E+03 0.  0.
         25    1    1    2    0    0 -0.81762994059E+01  0.15387274968E+03  0.63102241994E+02  0.20820799195E+03  0.12500000000E+03 0.  0.
         25    1    1    2    0    0  0.94931208853E+02 -0.78915360542E+02  0.13992346870E+03  0.22459551562E+03  0.12500000000E+03 0.  0.
</event>
<event>
 5    0  0.5764392E-005  0.2940407E+03  0.7546771E-02  0.1088258E+00
         21   -1    0    0  502  501  0.00000000000E+00  0.00000000000E+00  0.90185260622E+02  0.90185260622E+02  0.00000000000E+00 0.  1.
         21   -1    0    0  501  502 -0.00000000000E+00 -0.00000000000E+00 -0.95869275589E+03  0.95869275589E+03  0.00000000000E+00 0.  1.
         25    1    1    2    0    0 -0.10014434133E+03 -0.98122542115E+02 -0.35814928393E+03  0.40441665637E+03  0.12500000000E+03 0.  0.
         25    1    1    2    0    0 -0.87049826401E+02  0.65020215177E+02 -0.22932768425E+03  0.28288069467E+03  0.12500000000E+03 0.  0.
         25    1    1    2    0    0  0.18719416773E+03  0.33102326938E+02 -0.28103052710E+03  0.36158066547E+03  0.12500000000E+03 0.  0.
</event>
<event>
 5    0  0.5764392E-005  0.3009649E+03  0.7546771E-02  0.1084759E+00
         21   -1    0    0  502  501  0.00000000000E+00  0.00000000000E+00  0.16249619790E+04  0.16249619790E+04  0.00000000000E+00 0.  1.
         21   -1    0    0  501  502 -0.00000000000E+00 -0.00000000000E+00 -0.55742781746E+02  0.55742781746E+02  0.00000000000E+00 0.  1.
         25    1    1    2    0    0 -0.86879122207E+02  0.42983328682E+02  0.39030236804E+03  0.42113713552E+03  0.12500000000E+03 0.  0.
         25    1    1    2    0    0  0.12335477814E+03 -0.15262483459E+03  0.92540969707E+03  0.95421111335E+03  0.12500000000E+03 0.  0.
         25    1    1    2    0    0 -0.36475655929E+02  0.10964150591E+03  0.25350713218E+03  0.30535651190E+03  0.12500000000E+03 0.  0.
</event>
<event>
 5    0  0.5764392E-005  0.3237805E+03  0.7546771E-02  0.1073922E+00
         21   -1    0    0  502  501  0.00000000000E+00  0.00000000000E+00  0.26285916089E+03  0.26285916089E+03  0.00000000000E+00 0. -1.
         21   -1    0    0  501  502 -0.00000000000E+00 -0.00000000000E+00 -0.39882121929E+03  0.39882121929E+03  0.00000000000E+00 0. -1.
         25    1    1    2    0    0 -0.16895870560E+03  0.11555199960E+03 -0.63122434967E+02  0.24800957765E+03  0.12500000000E+03 0.  0.
         25    1    1    2    0    0  0.55528506747E+02  0.32503009110E+02 -0.11930593092E+03  0.18438754246E+03  0.12500000000E+03 0.  0.
         25    1    1    2    0    0  0.11343019886E+03 -0.14805500871E+03  0.46466307478E+02  0.22928326007E+03  0.12500000000E+03 0.  0.
</event>
<event>
 5    0  0.5764392E-005  0.3256678E+03  0.7546771E-02  0.1073070E+00
         21   -1    0    0  502  501  0.00000000000E+00  0.00000000000E+00  0.55427371392E+03  0.55427371392E+03  0.00000000000E+00 0.  1.
         21   -1    0    0  501  502 -0.00000000000E+00 -0.00000000000E+00 -0.19134868271E+03  0.19134868271E+03  0.00000000000E+00 0.  1.
         25    1    1    2    0    0 -0.54262881609E+02 -0.11092916440E+03  0.11919458029E+03  0.21232542901E+03  0.12500000000E+03 0.  0.
         25    1    1    2    0    0  0.33841188841E+02  0.71407468546E+02 -0.90718769894E+02  0.17349105982E+03  0.12500000000E+03 0.  0.
         25    1    1    2    0    0  0.20421692769E+02  0.39521695853E+02  0.33444922082E+03  0.35980590780E+03  0.12500000000E+03 0.  0.
</event>
<event>
 5    0  0.5764392E-005  0.2506771E+03  0.7546771E-02  0.1112878E+00
         21   -1    0    0  502  501  0.00000000000E+00  0.00000000000E+00  0.21385439533E+04  0.21385439533E+04  0.00000000000E+00 0. -1.
         21   -1    0    0  501  502 -0.00000000000E+00 -0.00000000000E+00 -0.29384020402E+02  0.29384020402E+02  0.00000000000E+00 0. -1.
         25    1    1    2    0    0  0.29484225079E+02  0.87987835559E+02  0.34144058030E+03  0.37525704339E+03  0.12500000000E+03 0.  0.
         25    1    1    2    0    0 -0.51075778628E+02 -0.39617829696E+02  0.56277065587E+03  0.58009836985E+03  0.12500000000E+03 0.  0.
         25    1    1    2    0    0  0.21591553549E+02 -0.48370005864E+02  0.12049486967E+04  0.12125725604E+04  0.12500000000E+03 0.  0.
</event>
<event>
 5    0  0.5764392E-005  0.2540559E+03  0.7546771E-02  0.1110768E+00
         21   -1    0    0  502  501  0.00000000000E+00  0.00000000000E+00  0.15774308300E+03  0.15774308300E+03  0.00000000000E+00 0.  1.
         21   -1    0    0  501  502 -0.00000000000E+00 -0.00000000000E+00 -0.40917431313E+03  0.40917431313E+03  0.00000000000E+00 0.  1.
         25    1    1    2    0    0  0.13691224904E+03 -0.21278555053E+02 -0.25742932684E+02  0.18837579310E+03  0.12500000000E+03 0.  0.
         25    1    1    2    0    0 -0.66217226528E+02 -0.37637296415E+02 -0.86321326124E+02  0.16993427704E+03  0.12500000000E+03 0.  0.
         25    1    1    2    0    0 -0.70695022511E+02  0.58915851468E+02 -0.13936697133E+03  0.20860732599E+03  0.12500000000E+03 0.  0.
</event>
<event>
 5    0  0.5764392E-005  0.3210864E+03  0.7546771E-02  0.1075150E+00
         21   -1    0    0  502  501  0.00000000000E+00  0.00000000000E+00  0.34247606546E+03  0.34247606546E+03  0.00000000000E+00 0. -1.
         21   -1    0    0  501  502 -0.00000000000E+00 -0.00000000000E+00 -0.30103261869E+03  0.30103261869E+03  0.00000000000E+00 0. -1.
         25    1    1    2    0    0 -0.20792434525E+02  0.16369028430E+03  0.13501078148E+03  0.24714316827E+03  0.12500000000E+03 0.  0.
         25    1    1    2    0    0 -0.91781966468E+02 -0.15102695371E+03 -0.52529388029E+02  0.22274965033E+03  0.12500000000E+03 0.  0.
         25    1    1    2    0    0  0.11257440099E+03 -0.12663330590E+02 -0.41037946684E+02  0.17361586554E+03  0.12500000000E+03 0.  0.
</event>
<event>
 5    0  0.5764392E-005  0.3851098E+03  0.7546771E-02  0.1049061E+00
         21   -1    0    0  502  501  0.00000000000E+00  0.00000000000E+00  0.64698844005E+03  0.64698844005E+03  0.00000000000E+00 0.  1.
         21   -1    0    0  501  502 -0.00000000000E+00 -0.00000000000E+00 -0.22923066336E+03  0.22923066336E+03  0.00000000000E+00 0.  1.
         25    1    1    2    0    0  0.20680620481E+02 -0.12693291080E+03  0.24379407497E+03  0.30265525421E+03  0.12500000000E+03 0.  0.
         25    1    1    2    0    0 -0.11630911363E+03  0.27487350097E+03  0.14861041980E+03  0.35608048012E+03  0.12500000000E+03 0.  0.
         25    1    1    2    0    0  0.95628493151E+02 -0.14794059017E+03  0.25353281912E+02  0.21748336908E+03  0.12500000000E+03 0.  0.
</event>
<event>
 5    0  0.5764392E-005  0.3377424E+03  0.7546771E-02  0.1067762E+00
         21   -1    0    0  502  501  0.00000000000E+00  0.00000000000E+00  0.35475398217E+03  0.35475398217E+03  0.00000000000E+00 0. -1.
         21   -1    0    0  501  502 -0.00000000000E+00 -0.00000000000E+00 -0.32154653374E+03  0.32154653374E+03  0.00000000000E+00 0. -1.
         25    1    1    2    0    0 -0.31272339331E+02  0.25050079553E+02 -0.17302876171E+03  0.21718521605E+03  0.12500000000E+03 0.  0.
         25    1    1    2    0    0 -0.82889838097E+02 -0.14007296933E+03  0.11201634935E+03  0.23380296088E+03  0.12500000000E+03 0.  0.
         25    1    1    2    0    0  0.11416217743E+03  0.11502288978E+03  0.94219860790E+02  0.22531233898E+03  0.12500000000E+03 0.  0.
</event>
<event>
 5    0  0.5764392E-005  0.4554109E+03  0.7546771E-02  0.1026121E+00
         21   -1    0    0  502  501  0.00000000000E+00  0.00000000000E+00  0.25799821071E+04  0.25799821071E+04  0.00000000000E+00 0. -1.
         21   -1    0    0  501  502 -0.00000000000E+00 -0.00000000000E+00 -0.80387815778E+02  0.80387815778E+02  0.00000000000E+00 0. -1.
         25    1    1    2    0    0 -0.13109921819E+03 -0.92119440100E+02  0.47246692311E+03  0.51431798499E+03  0.12500000000E+03 0.  0.
         25    1    1    2    0    0 -0.24110589180E+03 -0.68540657410E+02  0.82794321488E+03  0.87403938117E+03  0.12500000000E+03 0.  0.
         25    1    1    2    0    0  0.37220510999E+03  0.16066009751E+03  0.11991841534E+04  0.12720125568E+04  0.12500000000E+03 0.  0.
</event>
<event>
 5    0  0.5764392E-005  0.3585697E+03  0.7546771E-02  0.1059152E+00
         21   -1    0    0  502  501  0.00000000000E+00  0.00000000000E+00  0.46053903856E+03  0.46053903856E+03  0.00000000000E+00 0.  1.
         21   -1    0    0  501  502 -0.00000000000E+00 -0.00000000000E+00 -0.27917767768E+03  0.27917767768E+03  0.00000000000E+00 0.  1.
         25    1    1    2    0    0 -0.79212742868E+01  0.93211521536E+02  0.11072350801E+03  0.19140488385E+03  0.12500000000E+03 0.  0.
         25    1    1    2    0    0  0.65049116994E+01 -0.12885506165E+03  0.26157820554E+03  0.31732333416E+03  0.12500000000E+03 0.  0.
         25    1    1    2    0    0  0.14163625874E+01  0.35643540118E+02 -0.19094035267E+03  0.23098849823E+03  0.12500000000E+03 0.  0.
</event>
<event>
 5    0  0.5764392E-005  0.3956139E+03  0.7546771E-02  0.1045309E+00
         21   -1    0    0  502  501  0.00000000000E+00  0.00000000000E+00  0.92499523915E+02  0.92499523915E+02  0.00000000000E+00 0.  1.
         21   -1    0    0  501  502 -0.00000000000E+00 -0.00000000000E+00 -0.16920122607E+04  0.16920122607E+04  0.00000000000E+00 0.  1.
         25    1    1    2    0    0  0.17558055115E+03  0.29714255785E+02 -0.39778152642E+03  0.45339454089E+03  0.12500000000E+03 0.  0.
         25    1    1    2    0    0  0.14590277404E+03  0.40783349170E+02 -0.26084444874E+03  0.32652063867E+03  0.12500000000E+03 0.  0.
         25    1    1    2    0    0 -0.32148332520E+03 -0.70497604955E+02 -0.94088676158E+03  0.10045966050E+04  0.12500000000E+03 0.  0.
</event>
<event>
 5    0  0.5764392E-005  0.2416362E+03  0.7546771E-02  0.1118708E+00
         21   -1    0    0  502  501  0.00000000000E+00  0.00000000000E+00  0.31522602793E+03  0.31522602793E+03  0.00000000000E+00 0. -1.
         21   -1    0    0  501  502 -0.00000000000E+00 -0.00000000000E+00 -0.18522593891E+03  0.18522593891E+03  0.00000000000E+00 0. -1.
         25    1    1    2    0    0  0.35184465866E+02  0.10520603367E+02 -0.44055084675E+02  0.13752992481E+03  0.12500000000E+03 0.  0.
         25    1    1    2    0    0  0.24707279274E+02 -0.67905996422E+02  0.16423344342E+02  0.14531483145E+03  0.12500000000E+03 0.  0.
         25    1    1    2    0    0 -0.59891745140E+02  0.57385393054E+02  0.15763182935E+03  0.21760721058E+03  0.12500000000E+03 0.  0.
</event>
<event>
 5    0  0.5764392E-005  0.3748558E+03  0.7546771E-02  0.1052852E+00
         21   -1    0    0  502  501  0.00000000000E+00  0.00000000000E+00  0.10497411835E+04  0.10497411835E+04  0.00000000000E+00 0.  1.
         21   -1    0    0  501  502 -0.00000000000E+00 -0.00000000000E+00 -0.13385860293E+03  0.13385860293E+03  0.00000000000E+00 0.  1.
         25    1    1    2    0    0  0.22174288893E+03 -0.69676384167E+01  0.19742423671E+03  0.32221077886E+03  0.12500000000E+03 0.  0.
         25    1    1    2    0    0 -0.21253616035E+03 -0.44337698351E+02  0.67366688300E+03  0.71874162271E+03  0.12500000000E+03 0.  0.
         25    1    1    2    0    0 -0.92067285732E+01  0.51305336767E+02  0.44791460810E+02  0.14264738481E+03  0.12500000000E+03 0.  0.
</event>
<event>
 5    0  0.5764392E-005  0.3530058E+03  0.7546771E-02  0.1061388E+00
         21   -1    0    0  502  501  0.00000000000E+00  0.00000000000E+00  0.11025819632E+03  0.11025819632E+03  0.00000000000E+00 0.  1.
         21   -1    0    0  501  502 -0.00000000000E+00 -0.00000000000E+00 -0.11301931899E+04  0.11301931899E+04  0.00000000000E+00 0.  1.
         25    1    1    2    0    0 -0.10021166978E+03  0.15976516640E+03 -0.12903296243E+03  0.26046457062E+03  0.12500000000E+03 0.  0.
         25    1    1    2    0    0 -0.63299256817E+02 -0.12797391821E+03 -0.31687829378E+03  0.36935209858E+03  0.12500000000E+03 0.  0.
         25    1    1    2    0    0  0.16351092660E+03 -0.31791248183E+02 -0.57402373734E+03  0.61063471700E+03  0.12500000000E+03 0.  0.
</event>
<event>
 5    0  0.5764392E-005  0.3501799E+03  0.7546771E-02  0.1062541E+00
         21   -1    0    0  502  501  0.00000000000E+00  0.00000000000E+00  0.27236828589E+03  0.27236828589E+03  0.00000000000E+00 0.  1.
         21   -1    0    0  501  502 -0.00000000000E+00 -0.00000000000E+00 -0.45022119124E+03  0.45022119124E+03  0.00000000000E+00 0.  1.
         25    1    1    2    0    0 -0.88153847879E+02  0.15453506673E+03 -0.81555886981E+02  0.23222521492E+03  0.12500000000E+03 0.  0.
         25    1    1    2    0    0 -0.12955547269E+03  0.86220969916E+01 -0.19619050273E+02  0.18129773356E+03  0.12500000000E+03 0.  0.
         25    1    1    2    0    0  0.21770932057E+03 -0.16315716372E+03 -0.76677968091E+02  0.30906652864E+03  0.12500000000E+03 0.  0.
</event>
<event>
 5    0  0.5764392E-005  0.2686337E+03  0.7546771E-02  0.1102064E+00
         21   -1    0    0  502  501  0.00000000000E+00  0.00000000000E+00  0.22699733398E+03  0.22699733398E+03  0.00000000000E+00 0. -1.
         21   -1    0    0  501  502 -0.00000000000E+00 -0.00000000000E+00 -0.31790719001E+03  0.31790719001E+03  0.00000000000E+00 0. -1.
         25    1    1    2    0    0  0.12113620006E+03  0.31735396846E+02 -0.55097572595E+02  0.18531556028E+03  0.12500000000E+03 0.  0.
         25    1    1    2    0    0 -0.10698028748E+03 -0.61004247510E+02 -0.11339012314E+03  0.20892252188E+03  0.12500000000E+03 0.  0.
         25    1    1    2    0    0 -0.14155912583E+02  0.29268850664E+02  0.77577839710E+02  0.15066644183E+03  0.12500000000E+03 0.  0.
</event>
<event>
 5    0  0.5764392E-005  0.3189256E+03  0.7546771E-02  0.1076145E+00
         21   -1    0    0  502  501  0.00000000000E+00  0.00000000000E+00  0.26103248439E+04  0.26103248439E+04  0.00000000000E+00 0. -1.
         21   -1    0    0  501  502 -0.00000000000E+00 -0.00000000000E+00 -0.38965856145E+02  0.38965856145E+02  0.00000000000E+00 0. -1.
         25    1    1    2    0    0  0.53943235133E+00 -0.52349769212E+02  0.14484007797E+04  0.14547269875E+04  0.12500000000E+03 0.  0.
         25    1    1    2    0    0  0.13572337919E+03 -0.55861511428E+02  0.55601571667E+03  0.58848944026E+03  0.12500000000E+03 0.  0.
         25    1    1    2    0    0 -0.13626281154E+03  0.10821128064E+03  0.56694249137E+03  0.60607427233E+03  0.12500000000E+03 0.  0.
</event>
<event>
 5    0  0.5764392E-005  0.3287308E+03  0.7546771E-02  0.1071700E+00
         21   -1    0    0  502  501  0.00000000000E+00  0.00000000000E+00  0.96193050219E+02  0.96193050219E+02  0.00000000000E+00 0. -1.
         21   -1    0    0  501  502 -0.00000000000E+00 -0.00000000000E+00 -0.11234066852E+04  0.11234066852E+04  0.00000000000E+00 0. -1.
         25    1    1    2    0    0 -0.53884567997E+02 -0.61137313922E+02 -0.10646428808E+02  0.14959834313E+03  0.12500000000E+03 0.  0.
         25    1    1    2    0    0  0.40998719576E+02 -0.31208840761E+02 -0.74218724984E+03  0.75440161756E+03  0.12500000000E+03 0.  0.
         25    1    1    2    0    0  0.12885848421E+02  0.92346154683E+02 -0.27437995638E+03  0.31559977477E+03  0.12500000000E+03 0.  0.
</event>
<event>
 5    0  0.5764392E-005  0.2083470E+03  0.7546771E-02  0.1142882E+00
         21   -1    0    0  502  501  0.00000000000E+00  0.00000000000E+00  0.24107515989E+02  0.24107515989E+02  0.00000000000E+00 0. -1.
         21   -1    0    0  501  502 -0.00000000000E+00 -0.00000000000E+00 -0.18006196667E+04  0.18006196667E+04  0.00000000000E+00 0. -1.
         25    1    1    2    0    0  0.29329171675E+02  0.50213887256E+02 -0.75056167773E+03  0.76311825222E+03  0.12500000000E+03 0.  0.
         25    1    1    2    0    0 -0.54173139622E+02 -0.27939910957E+02 -0.43614043772E+03  0.45777598135E+03  0.12500000000E+03 0.  0.
         25    1    1    2    0    0  0.24843967947E+02 -0.22273976299E+02 -0.58981003527E+03  0.60383294914E+03  0.12500000000E+03 0.  0.
</event>
<event>
 5    0  0.5764392E-005  0.3138799E+03  0.7546771E-02  0.1078501E+00
         21   -1    0    0  502  501  0.00000000000E+00  0.00000000000E+00  0.48964840906E+03  0.48964840906E+03  0.00000000000E+00 0.  1.
         21   -1    0    0  501  502 -0.00000000000E+00 -0.00000000000E+00 -0.20120678205E+03  0.20120678205E+03  0.00000000000E+00 0.  1.
         25    1    1    2    0    0 -0.64125261747E+02 -0.15800707286E+03  0.15871177084E+03  0.26437229521E+03  0.12500000000E+03 0.  0.
         25    1    1    2    0    0  0.13193145497E+03 -0.14566111025E+02  0.66827784648E+02  0.19418813867E+03  0.12500000000E+03 0.  0.
         25    1    1    2    0    0 -0.67806193219E+02  0.17257318389E+03  0.62902071517E+02  0.23229475723E+03  0.12500000000E+03 0.  0.
</event>
<event>
 5    0  0.5764392E-005  0.5315423E+03  0.7546771E-02  0.1005859E+00
         21   -1    0    0  502  501  0.00000000000E+00  0.00000000000E+00  0.55387967920E+03  0.55387967920E+03  0.00000000000E+00 0.  1.
         21   -1    0    0  501  502 -0.00000000000E+00 -0.00000000000E+00 -0.51010578392E+03  0.51010578392E+03  0.00000000000E+00 0.  1.
         25    1    1    2    0    0  0.20062905312E+02  0.27406044324E+03 -0.56795204738E+01  0.30194188790E+03  0.12500000000E+03 0.  0.
         25    1    1    2    0    0  0.10062966888E+03  0.14597909908E+03 -0.15195486904E+03  0.26486130305E+03  0.12500000000E+03 0.  0.
         25    1    1    2    0    0 -0.12069257419E+03 -0.42003954232E+03  0.20140828480E+03  0.49718227217E+03  0.12500000000E+03 0.  0.
</event>
<event>
 5    0  0.5764392E-005  0.3152419E+03  0.7546771E-02  0.1077860E+00
         21   -1    0    0  502  501  0.00000000000E+00  0.00000000000E+00  0.45423083734E+03  0.45423083734E+03  0.00000000000E+00 0. -1.
         21   -1    0    0  501  502 -0.00000000000E+00 -0.00000000000E+00 -0.21878177894E+03  0.21878177894E+03  0.00000000000E+00 0. -1.
         25    1    1    2    0    0 -0.58910782004E+02 -0.15712706385E+03  0.94998826563E+02  0.22980246187E+03  0.12500000000E+03 0.  0.
         25    1    1    2    0    0 -0.13267989725E+02  0.19920196602E+03 -0.27701697058E+01  0.23556344508E+03  0.12500000000E+03 0.  0.
         25    1    1    2    0    0  0.72178771729E+02 -0.42074902163E+02  0.14322040154E+03  0.20764670933E+03  0.12500000000E+03 0.  0.
</event>
<event>
 5    0  0.5764392E-005  0.4205300E+03  0.7546771E-02  0.1036894E+00
         21   -1    0    0  502  501  0.00000000000E+00  0.00000000000E+00  0.10241803320E+04  0.10241803320E+04  0.00000000000E+00 0.  1.
         21   -1    0    0  501  502 -0.00000000000E+00 -0.00000000000E+00 -0.17267024079E+03  0.17267024079E+03  0.00000000000E+00 0.  1.
         25    1    1    2    0    0  0.11278414202E+03 -0.10537465809E+03  0.34584798645E+03  0.39882315754E+03  0.12500000000E+03 0.  0.
         25    1    1    2    0    0 -0.46537148743E+02  0.24981562440E+03  0.52336771080E+03  0.59507336784E+03  0.12500000000E+03 0.  0.
         25    1    1    2    0    0 -0.66246993278E+02 -0.14444096631E+03 -0.17705606049E+02  0.20295404739E+03  0.12500000000E+03 0.  0.
</event>
<event>
 5    0  0.5764392E-005  0.2176975E+03  0.7546771E-02  0.1135611E+00
         21   -1    0    0  502  501  0.00000000000E+00  0.00000000000E+00  0.86345019699E+03  0.86345019699E+03  0.00000000000E+00 0.  1.
         21   -1    0    0  501  502 -0.00000000000E+00 -0.00000000000E+00 -0.54887005175E+02  0.54887005175E+02  0.00000000000E+00 0.  1.
         25    1    1    2    0    0 -0.17608529592E+01  0.20811121162E+02  0.39412347085E+03  0.41399820488E+03  0.12500000000E+03 0.  0.
         25    1    1    2    0    0  0.47432627072E+02  0.40287715216E+02  0.22651901708E+03  0.26609926570E+03  0.12500000000E+03 0.  0.
         25    1    1    2    0    0 -0.45671774113E+02 -0.61098836378E+02  0.18792070389E+03  0.23823973159E+03  0.12500000000E+03 0.  0.
</event>
<event>
 5    0  0.5764392E-005  0.3054464E+03  0.7546771E-02  0.1082549E+00
         21   -1    0    0  502  501  0.00000000000E+00  0.00000000000E+00  0.26944000077E+04  0.26944000077E+04  0.00000000000E+00 0.  1.
         21   -1    0    0  501  502 -0.00000000000E+00 -0.00000000000E+00 -0.34626439445E+02  0.34626439445E+02  0.00000000000E+00 0.  1.
         25    1    1    2    0    0 -0.81932535740E+02 -0.23247108721E+02  0.13995600123E+04  0.14077096989E+04  0.12500000000E+03 0.  0.
         25    1    1    2    0    0  0.42472575599E+02 -0.43809530518E+02  0.16306371686E+03  0.21433144986E+03  0.12500000000E+03 0.  0.
         25    1    1    2    0    0  0.39459960141E+02  0.67056639238E+02  0.10971498391E+04  0.11069852983E+04  0.12500000000E+03 0.  0.
</event>
<event>
 5    0  0.5764392E-005  0.3209187E+03  0.7546771E-02  0.1075227E+00
         21   -1    0    0  502  501  0.00000000000E+00  0.00000000000E+00  0.73303022690E+03  0.73303022690E+03  0.00000000000E+00 0.  1.
         21   -1    0    0  501  502 -0.00000000000E+00 -0.00000000000E+00 -0.14049739460E+03  0.14049739460E+03  0.00000000000E+00 0.  1.
         25    1    1    2    0    0 -0.70324030823E+02 -0.37884439719E+02 -0.13576075223E+02  0.14896311591E+03  0.12500000000E+03 0.  0.
         25    1    1    2    0    0  0.82398153687E+02  0.13675181372E+02  0.57308450360E+03  0.59247558142E+03  0.12500000000E+03 0.  0.
         25    1    1    2    0    0 -0.12074122864E+02  0.24209258346E+02  0.33024403937E+02  0.13208892417E+03  0.12500000000E+03 0.  0.
</event>
<event>
 5    0  0.5764392E-005  0.3288638E+03  0.7546771E-02  0.1071641E+00
         21   -1    0    0  502  501  0.00000000000E+00  0.00000000000E+00  0.13135391426E+04  0.13135391426E+04  0.00000000000E+00 0. -1.
         21   -1    0    0  501  502 -0.00000000000E+00 -0.00000000000E+00 -0.82335855198E+02  0.82335855198E+02  0.00000000000E+00 0. -1.
         25    1    1    2    0    0 -0.11574990896E+03 -0.14769051328E+02  0.60924150398E+03  0.63278462092E+03  0.12500000000E+03 0.  0.
         25    1    1    2    0    0 -0.59769903876E+02  0.12462381240E+03  0.17900556189E+03  0.25840187154E+03  0.12500000000E+03 0.  0.
         25    1    1    2    0    0  0.17551981283E+03 -0.10985476108E+03  0.44295622153E+03  0.50468850534E+03  0.12500000000E+03 0.  0.
</event>
<event>
 5    0  0.5910035E-005  0.3015771E+03  0.7546771E-02  0.1084455E+00
         21   -1    0    0  502  501  0.00000000000E+00  0.00000000000E+00  0.10103126581E+03  0.10103126581E+03  0.00000000000E+00 0. -1.
         21   -1    0    0  501  502 -0.00000000000E+00 -0.00000000000E+00 -0.90020370057E+03  0.90020370057E+03  0.00000000000E+00 0. -1.
         25    1    1    2    0    0  0.38621128058E+02  0.20449190048E+03 -0.24015130630E+03  0.34147646890E+03  0.12500000000E+03 0.  0.
         25    1    1    2    0    0  0.14117756762E+02 -0.14314977154E+03 -0.23053435568E+03  0.29910241941E+03  0.12500000000E+03 0.  0.
         25    1    1    2    0    0 -0.52738884819E+02 -0.61342128934E+02 -0.32848677278E+03  0.36065607807E+03  0.12500000000E+03 0.  0.
</event>
<event>
 5    0  0.5764392E-005  0.2460142E+03  0.7546771E-02  0.1115850E+00
         21   -1    0    0  502  501  0.00000000000E+00  0.00000000000E+00  0.18675014733E+03  0.18675014733E+03  0.00000000000E+00 0.  1.
         21   -1    0    0  501  502 -0.00000000000E+00 -0.00000000000E+00 -0.32408544469E+03  0.32408544469E+03  0.00000000000E+00 0.  1.
         25    1    1    2    0    0 -0.35896619151E+02 -0.31840677982E+02  0.41163260212E+02  0.14007787131E+03  0.12500000000E+03 0.  0.
         25    1    1    2    0    0  0.67738319924E+02 -0.61176411443E+02 -0.39977541291E+02  0.15985692700E+03  0.12500000000E+03 0.  0.
         25    1    1    2    0    0 -0.31841700773E+02  0.93017089425E+02 -0.13852101628E+03  0.21090079370E+03  0.12500000000E+03 0.  0.
</event>
<event>
 5    0  0.5764392E-005  0.4092509E+03  0.7546771E-02  0.1040623E+00
         21   -1    0    0  502  501  0.00000000000E+00  0.00000000000E+00  0.31878718222E+03  0.31878718222E+03  0.00000000000E+00 0.  1.
         21   -1    0    0  501  502 -0.00000000000E+00 -0.00000000000E+00 -0.52538590931E+03  0.52538590931E+03  0.00000000000E+00 0.  1.
         25    1    1    2    0    0  0.32513448664E+02 -0.15681910566E+02 -0.10505098646E+03  0.16722367183E+03  0.12500000000E+03 0.  0.
         25    1    1    2    0    0  0.24598321009E+03 -0.15214603803E+03 -0.92851754409E+02  0.32848531905E+03  0.12500000000E+03 0.  0.
         25    1    1    2    0    0 -0.27849665876E+03  0.16782794859E+03 -0.86959862228E+01  0.34846410065E+03  0.12500000000E+03 0.  0.
</event>
<event>
 5    0  0.5764392E-005  0.2435197E+03  0.7546771E-02  0.1117470E+00
         21   -1    0    0  502  501  0.00000000000E+00  0.00000000000E+00  0.36714634755E+03  0.36714634755E+03  0.00000000000E+00 0. -1.
         21   -1    0    0  501  502 -0.00000000000E+00 -0.00000000000E+00 -0.16152104353E+03  0.16152104353E+03  0.00000000000E+00 0. -1.
         25    1    1    2    0    0 -0.28206587662E+02 -0.73417846118E+02 -0.38493533361E+02  0.15261894976E+03  0.12500000000E+03 0.  0.
         25    1    1    2    0    0 -0.54073007444E+01  0.14326219217E+02  0.18072439780E+03  0.22027434581E+03  0.12500000000E+03 0.  0.
         25    1    1    2    0    0  0.33613888407E+02  0.59091626901E+02  0.63394439571E+02  0.15577409551E+03  0.12500000000E+03 0.  0.
</event>
<event>
 5    0  0.5764392E-005  0.2219501E+03  0.7546771E-02  0.1132437E+00
         21   -1    0    0  502  501  0.00000000000E+00  0.00000000000E+00  0.42843486563E+02  0.42843486563E+02  0.00000000000E+00 0. -1.
         21   -1    0    0  501  502 -0.00000000000E+00 -0.00000000000E+00 -0.11498097419E+04  0.11498097419E+04  0.00000000000E+00 0. -1.
         25    1    1    2    0    0  0.99913410161E+02 -0.48024751378E+01 -0.50267710302E+03  0.52755570625E+03  0.12500000000E+03 0.  0.
         25    1    1    2    0    0 -0.22932565591E+02 -0.94999120665E+01 -0.23283436897E+03  0.26542982927E+03  0.12500000000E+03 0.  0.
         25    1    1    2    0    0 -0.76980844570E+02  0.14302387204E+02 -0.37145478339E+03  0.39966769298E+03  0.12500000000E+03 0.  0.
</event>
<event>
 5    0  0.5764392E-005  0.2320835E+03  0.7546771E-02  0.1125182E+00
         21   -1    0    0  502  501  0.00000000000E+00  0.00000000000E+00  0.86117395989E+02  0.86117395989E+02  0.00000000000E+00 0.  1.
         21   -1    0    0  501  502 -0.00000000000E+00 -0.00000000000E+00 -0.62545743228E+03  0.62545743228E+03  0.00000000000E+00 0.  1.
         25    1    1    2    0    0  0.19025162973E+02 -0.90566426360E+02 -0.25764786238E+03  0.30095125086E+03  0.12500000000E+03 0.  0.
         25    1    1    2    0    0 -0.22004157821E+02  0.59465014088E+02 -0.23491165737E+03  0.27354845572E+03  0.12500000000E+03 0.  0.
         25    1    1    2    0    0  0.29789948481E+01  0.31101412272E+02 -0.46780516548E+02  0.13707512168E+03  0.12500000000E+03 0.  0.
</event>
<event>
 5    0  0.5764392E-005  0.3069062E+03  0.7546771E-02  0.1081838E+00
         21   -1    0    0  502  501  0.00000000000E+00  0.00000000000E+00  0.10231911705E+03  0.10231911705E+03  0.00000000000E+00 0.  1.
         21   -1    0    0  501  502 -0.00000000000E+00 -0.00000000000E+00 -0.92056507105E+03  0.92056507105E+03  0.00000000000E+00 0.  1.
         25    1    1    2    0    0  0.61787540620E+02  0.56709719327E+02 -0.91699726787E+02  0.17625984323E+03  0.12500000000E+03 0.  0.
         25    1    1    2    0    0 -0.47571331974E+02 -0.12302359139E+02 -0.69720314397E+03  0.71002225572E+03  0.12500000000E+03 0.  0.
         25    1    1    2    0    0 -0.14216208646E+02 -0.44407360188E+02 -0.29343083245E+02  0.13660208915E+03  0.12500000000E+03 0.  0.
</event>
<event>
 5    0  0.5764392E-005  0.2644678E+03  0.7546771E-02  0.1104488E+00
         21   -1    0    0  502  501  0.00000000000E+00  0.00000000000E+00  0.43407848082E+03  0.43407848082E+03  0.00000000000E+00 0. -1.
         21   -1    0    0  501  502 -0.00000000000E+00 -0.00000000000E+00 -0.16113036356E+03  0.16113036356E+03  0.00000000000E+00 0. -1.
         25    1    1    2    0    0  0.62336370354E+02  0.44955690908E+02  0.23285426373E+03  0.27523252960E+03  0.12500000000E+03 0.  0.
         25    1    1    2    0    0  0.56307992101E+02  0.68905267798E+01  0.11538745960E+02  0.13775417232E+03  0.12500000000E+03 0.  0.
         25    1    1    2    0    0 -0.11864436246E+03 -0.51846217688E+02  0.28555107564E+02  0.18222214245E+03  0.12500000000E+03 0.  0.
</event>
<event>
 5    0  0.5764392E-005  0.2754733E+03  0.7546771E-02  0.1098187E+00
         21   -1    0    0  502  501  0.00000000000E+00  0.00000000000E+00  0.14552832793E+03  0.14552832793E+03  0.00000000000E+00 0.  1.
         21   -1    0    0  501  502 -0.00000000000E+00 -0.00000000000E+00 -0.52144860278E+03  0.52144860278E+03  0.00000000000E+00 0.  1.
         25    1    1    2    0    0 -0.16365415944E+03 -0.61789774144E+02 -0.91215436858E+02  0.23355067119E+03  0.12500000000E+03 0.  0.
         25    1    1    2    0    0  0.18640610822E+02  0.10844586481E+02 -0.13391889617E+03  0.18445690060E+03  0.12500000000E+03 0.  0.
         25    1    1    2    0    0  0.14501354862E+03  0.50945187663E+02 -0.15078594182E+03  0.24896935891E+03  0.12500000000E+03 0.  0.
</event>
<event>
 5    0  0.5764392E-005  0.3938297E+03  0.7546771E-02  0.1045937E+00
         21   -1    0    0  502  501  0.00000000000E+00  0.00000000000E+00  0.43553507042E+03  0.43553507042E+03  0.00000000000E+00 0. -1.
         21   -1    0    0  501  502 -0.00000000000E+00 -0.00000000000E+00 -0.35611784351E+03  0.35611784351E+03  0.00000000000E+00 0. -1.
         25    1    1    2    0    0 -0.64231703203E+02  0.24225096278E+03 -0.14393727085E+03  0.31488756502E+03  0.12500000000E+03 0.  0.
         25    1    1    2    0    0 -0.61826356641E+02 -0.91932188688E+02  0.16955156621E+03  0.23800579677E+03  0.12500000000E+03 0.  0.
         25    1    1    2    0    0  0.12605805984E+03 -0.15031877409E+03  0.53802931554E+02  0.23875955214E+03  0.12500000000E+03 0.  0.
</event>
<event>
 5    0  0.5764392E-005  0.3918396E+03  0.7546771E-02  0.1046643E+00
         21   -1    0    0  502  501  0.00000000000E+00  0.00000000000E+00  0.54560251701E+03  0.54560251701E+03  0.00000000000E+00 0. -1.
         21   -1    0    0  501  502 -0.00000000000E+00 -0.00000000000E+00 -0.28141051792E+03  0.28141051792E+03  0.00000000000E+00 0. -1.
         25    1    1    2    0    0 -0.24594811987E+03  0.13926731404E+03  0.13116045184E+03  0.33572894804E+03  0.12500000000E+03 0.  0.
         25    1    1    2    0    0  0.59315754539E+02 -0.95674322381E+02 -0.73004236249E+02  0.18337544331E+03  0.12500000000E+03 0.  0.
         25    1    1    2    0    0  0.18663236533E+03 -0.43592991657E+02  0.20603578349E+03  0.30790864358E+03  0.12500000000E+03 0.  0.
</event>
<event>
 5    0  0.5764392E-005  0.3272750E+03  0.7546771E-02  0.1072349E+00
         21   -1    0    0  502  501  0.00000000000E+00  0.00000000000E+00  0.36208938382E+04  0.36208938382E+04  0.00000000000E+00 0.  1.
         21   -1    0    0  501  502 -0.00000000000E+00 -0.00000000000E+00 -0.29580791915E+02  0.29580791915E+02  0.00000000000E+00 0.  1.
         25    1    1    2    0    0 -0.90332582975E+02 -0.49472840682E+02  0.97981279556E+03  0.99310908357E+03  0.12500000000E+03 0.  0.
         25    1    1    2    0    0  0.16787605087E+03  0.17916578875E+03  0.11382003608E+04  0.11710712231E+04  0.12500000000E+03 0.  0.
         25    1    1    2    0    0 -0.77543467890E+02 -0.12969294806E+03  0.14732998899E+04  0.14862943234E+04  0.12500000000E+03 0.  0.
</event>
<event>
 5    0  0.6151275E-005  0.2957053E+03  0.7546771E-02  0.1087407E+00
         21   -1    0    0  502  501  0.00000000000E+00  0.00000000000E+00  0.39647202711E+03  0.39647202711E+03  0.00000000000E+00 0.  1.
         21   -1    0    0  501  502 -0.00000000000E+00 -0.00000000000E+00 -0.22054928302E+03  0.22054928302E+03  0.00000000000E+00 0.  1.
         25    1    1    2    0    0  0.16639784636E+03  0.56360847029E+02  0.14847294864E+03  0.26179000139E+03  0.12500000000E+03 0.  0.
         25    1    1    2    0    0 -0.14562948030E+03  0.89984594952E+01  0.73036716293E+02  0.20554386328E+03  0.12500000000E+03 0.  0.
         25    1    1    2    0    0 -0.20768366065E+02 -0.65359306524E+02 -0.45586920834E+02  0.14968744546E+03  0.12500000000E+03 0.  0.
</event>
<event>
 5    0  0.5764392E-005  0.2343887E+03  0.7546771E-02  0.1123588E+00
         21   -1    0    0  502  501  0.00000000000E+00  0.00000000000E+00  0.88922253024E+02  0.88922253024E+02  0.00000000000E+00 0.  1.
         21   -1    0    0  501  502 -0.00000000000E+00 -0.00000000000E+00 -0.61782131995E+03  0.61782131995E+03  0.00000000000E+00 0.  1.
         25    1    1    2    0    0 -0.82570276692E+01 -0.42916514421E+02 -0.22919129474E+03  0.26469540098E+03  0.12500000000E+03 0.  0.
         25    1    1    2    0    0 -0.75886376326E+02  0.80804139735E+02 -0.18249617605E+03  0.24742252400E+03  0.12500000000E+03 0.  0.
         25    1    1    2    0    0  0.84143403996E+02 -0.37887625314E+02 -0.11721159614E+03  0.19462564800E+03  0.12500000000E+03 0.  0.
</event>
<event>
 5    0  0.5764392E-005  0.4473376E+03  0.7546771E-02  0.1028519E+00
         21   -1    0    0  502  501  0.00000000000E+00  0.00000000000E+00  0.13356564445E+03  0.13356564445E+03  0.00000000000E+00 0. -1.
         21   -1    0    0  501  502 -0.00000000000E+00 -0.00000000000E+00 -0.14982214036E+04  0.14982214036E+04  0.00000000000E+00 0. -1.
         25    1    1    2    0    0 -0.30565446516E+03 -0.27104330131E+02 -0.68231825068E+03  0.75851334332E+03  0.12500000000E+03 0.  0.
         25    1    1    2    0    0  0.53698391867E+02 -0.36036213867E+02 -0.52772107955E+03  0.54616541798E+03  0.12500000000E+03 0.  0.
         25    1    1    2    0    0  0.25195607329E+03  0.63140543998E+02 -0.15461642891E+03  0.32710828674E+03  0.12500000000E+03 0.  0.
</event>
<event>
 5    0  0.5764392E-005  0.3457935E+03  0.7546771E-02  0.1064355E+00
         21   -1    0    0  502  501  0.00000000000E+00  0.00000000000E+00  0.15271256940E+03  0.15271256940E+03  0.00000000000E+00 0. -1.
         21   -1    0    0  501  502 -0.00000000000E+00 -0.00000000000E+00 -0.78299457871E+03  0.78299457871E+03  0.00000000000E+00 0. -1.
         25    1    1    2    0    0  0.14215469245E+02  0.24245215750E+03 -0.15800470922E+03  0.31555604317E+03  0.12500000000E+03 0.  0.
         25    1    1    2    0    0  0.79830575365E+02 -0.15647035960E+03 -0.19687106352E+03  0.29195737677E+03  0.12500000000E+03 0.  0.
         25    1    1    2    0    0 -0.94046044609E+02 -0.85981797899E+02 -0.27540623656E+03  0.32819372818E+03  0.12500000000E+03 0.  0.
</event>
<event>
 5    0  0.5764392E-005  0.3272821E+03  0.7546771E-02  0.1072346E+00
         21   -1    0    0  502  501  0.00000000000E+00  0.00000000000E+00  0.88486553927E+03  0.88486553927E+03  0.00000000000E+00 0.  1.
         21   -1    0    0  501  502 -0.00000000000E+00 -0.00000000000E+00 -0.12105070223E+03  0.12105070223E+03  0.00000000000E+00 0.  1.
         25    1    1    2    0    0 -0.17649746731E+03 -0.15815444186E+02  0.31483408331E+03  0.38229175279E+03  0.12500000000E+03 0.  0.
         25    1    1    2    0    0  0.21925542882E+03  0.36892124760E+02  0.41244613726E+03  0.48494410820E+03  0.12500000000E+03 0.  0.
         25    1    1    2    0    0 -0.42757961517E+02 -0.21076680574E+02  0.36534616470E+02  0.13868038051E+03  0.12500000000E+03 0.  0.
</event>
<event>
 5    0  0.5764392E-005  0.2448699E+03  0.7546771E-02  0.1116591E+00
         21   -1    0    0  502  501  0.00000000000E+00  0.00000000000E+00  0.10851715555E+04  0.10851715555E+04  0.00000000000E+00 0. -1.
         21   -1    0    0  501  502 -0.00000000000E+00 -0.00000000000E+00 -0.55255089375E+02  0.55255089375E+02  0.00000000000E+00 0. -1.
         25    1    1    2    0    0 -0.61142257673E+01  0.23506348978E+02  0.17962442358E+03  0.22018143824E+03  0.12500000000E+03 0.  0.
         25    1    1    2    0    0 -0.27424677677E+02 -0.50533283185E+02  0.13472270062E+03  0.19256409768E+03  0.12500000000E+03 0.  0.
         25    1    1    2    0    0  0.33538903444E+02  0.27026934206E+02  0.71556934192E+03  0.72768110894E+03  0.12500000000E+03 0.  0.
</event>
<event>
 5    0  0.5764392E-005  0.4628058E+03  0.7546771E-02  0.1023971E+00
         21   -1    0    0  502  501  0.00000000000E+00  0.00000000000E+00  0.19837906313E+03  0.19837906313E+03  0.00000000000E+00 0.  1.
         21   -1    0    0  501  502 -0.00000000000E+00 -0.00000000000E+00 -0.10796964405E+04  0.10796964405E+04  0.00000000000E+00 0.  1.
         25    1    1    2    0    0 -0.15631594971E+03 -0.10925609897E+02 -0.10485556238E+03  0.22621612243E+03  0.12500000000E+03 0.  0.
         25    1    1    2    0    0  0.15936599565E+03  0.18984391144E+03 -0.78578616061E+03  0.83338053822E+03  0.12500000000E+03 0.  0.
         25    1    1    2    0    0 -0.30500459447E+01 -0.17891830154E+03  0.93243456219E+01  0.21847884298E+03  0.12500000000E+03 0.  0.
</event>
<event>
 5    0  0.6805862E-005  0.4706901E+03  0.7546771E-02  0.1021726E+00
         21   -1    0    0  502  501  0.00000000000E+00  0.00000000000E+00  0.45883698609E+03  0.45883698609E+03  0.00000000000E+00 0.  1.
         21   -1    0    0  501  502 -0.00000000000E+00 -0.00000000000E+00 -0.48284946107E+03  0.48284946107E+03  0.00000000000E+00 0.  1.
         25    1    1    2    0    0  0.10893690610E+03  0.86431926586E+02 -0.21212928530E+03  0.28277475334E+03  0.12500000000E+03 0.  0.
         25    1    1    2    0    0  0.12888666729E+03 -0.17803463080E+03  0.26352157922E+03  0.36520778399E+03  0.12500000000E+03 0.  0.
         25    1    1    2    0    0 -0.23782357339E+03  0.91602704217E+02 -0.75404768898E+02  0.29370390983E+03  0.12500000000E+03 0.  0.
</event>
<event>
 5    0  0.5764392E-005  0.3085132E+03  0.7546771E-02  0.1081061E+00
         21   -1    0    0  502  501  0.00000000000E+00  0.00000000000E+00  0.81893807003E+03  0.81893807003E+03  0.00000000000E+00 0.  1.
         21   -1    0    0  501  502 -0.00000000000E+00 -0.00000000000E+00 -0.11622415911E+03  0.11622415911E+03  0.00000000000E+00 0.  1.
         25    1    1    2    0    0 -0.17836414826E+03  0.47897221570E+01  0.39448916340E+03  0.45064776806E+03  0.12500000000E+03 0.  0.
         25    1    1    2    0    0  0.12437714708E+03 -0.19977090943E+02  0.29836783834E+03  0.34715576595E+03  0.12500000000E+03 0.  0.
         25    1    1    2    0    0  0.53987001181E+02  0.15187368786E+02  0.98569091930E+01  0.13735869512E+03  0.12500000000E+03 0.  0.
</event>
<event>
 5    0  0.5764392E-005  0.3105180E+03  0.7546771E-02  0.1080098E+00
         21   -1    0    0  502  501  0.00000000000E+00  0.00000000000E+00  0.14978097647E+03  0.14978097647E+03  0.00000000000E+00 0.  1.
         21   -1    0    0  501  502 -0.00000000000E+00 -0.00000000000E+00 -0.64374959367E+03  0.64374959367E+03  0.00000000000E+00 0.  1.
         25    1    1    2    0    0  0.18072869587E+03  0.49409809985E+02 -0.81498287530E+02  0.23952277909E+03  0.12500000000E+03 0.  0.
         25    1    1    2    0    0 -0.12478994014E+03  0.29834464288E+02 -0.33024089867E+03  0.37569492354E+03  0.12500000000E+03 0.  0.
         25    1    1    2    0    0 -0.55938755728E+02 -0.79244274273E+02 -0.82229431000E+02  0.17831286751E+03  0.12500000000E+03 0.  0.
</event>
<event>
 5    0  0.5764392E-005  0.3425521E+03  0.7546771E-02  0.1065714E+00
         21   -1    0    0  502  501  0.00000000000E+00  0.00000000000E+00  0.14564600247E+04  0.14564600247E+04  0.00000000000E+00 0. -1.
         21   -1    0    0  501  502 -0.00000000000E+00 -0.00000000000E+00 -0.80566517802E+02  0.80566517802E+02  0.00000000000E+00 0. -1.
         25    1    1    2    0    0  0.22279704407E+02 -0.10726059626E+03  0.15788902859E+03  0.22924913541E+03  0.12500000000E+03 0.  0.
         25    1    1    2    0    0 -0.15432991877E+03  0.49605051331E+02  0.25972427693E+03  0.33069636371E+03  0.12500000000E+03 0.  0.
         25    1    1    2    0    0  0.13205021436E+03  0.57655544930E+02  0.95828020137E+03  0.97708104337E+03  0.12500000000E+03 0.  0.
</event>
<event>
 5    0  0.5764392E-005  0.6249970E+03  0.7546771E-02  0.9854861E-01
         21   -1    0    0  502  501  0.00000000000E+00  0.00000000000E+00  0.20119787740E+04  0.20119787740E+04  0.00000000000E+00 0.  1.
         21   -1    0    0  501  502 -0.00000000000E+00 -0.00000000000E+00 -0.19414776887E+03  0.19414776887E+03  0.00000000000E+00 0.  1.
         25    1    1    2    0    0  0.21175382663E+03  0.13806478506E+03  0.14040290598E+04  0.14320698896E+04  0.12500000000E+03 0.  0.
         25    1    1    2    0    0 -0.32794439259E+02 -0.12238847917E+03  0.50613783387E+03  0.53652112909E+03  0.12500000000E+03 0.  0.
         25    1    1    2    0    0 -0.17895938737E+03 -0.15676305890E+02 -0.92335888601E+02  0.23753552412E+03  0.12500000000E+03 0.  0.
</event>
<event>
 5    0  0.5764392E-005  0.2602496E+03  0.7546771E-02  0.1106993E+00
         21   -1    0    0  502  501  0.00000000000E+00  0.00000000000E+00  0.43614712450E+03  0.43614712450E+03  0.00000000000E+00 0.  1.
         21   -1    0    0  501  502 -0.00000000000E+00 -0.00000000000E+00 -0.15529130810E+03  0.15529130810E+03  0.00000000000E+00 0.  1.
         25    1    1    2    0    0  0.84322000715E+02 -0.62260378138E+02  0.25153912739E+03  0.29980574894E+03  0.12500000000E+03 0.  0.
         25    1    1    2    0    0 -0.62640775263E+02  0.79083668149E+02  0.31231685140E+02  0.16364141117E+03  0.12500000000E+03 0.  0.
         25    1    1    2    0    0 -0.21681225452E+02 -0.16823290011E+02 -0.19149961280E+01  0.12799127249E+03  0.12500000000E+03 0.  0.
</event>
<event>
 5    0  0.5764392E-005  0.6703326E+03  0.7546771E-02  0.9769357E-01
         21   -1    0    0  502  501  0.00000000000E+00  0.00000000000E+00  0.39530159164E+03  0.39530159164E+03  0.00000000000E+00 0.  1.
         21   -1    0    0  501  502 -0.00000000000E+00 -0.00000000000E+00 -0.11367164749E+04  0.11367164749E+04  0.00000000000E+00 0.  1.
         25    1    1    2    0    0  0.17048939663E+03  0.26048859490E+03 -0.40619441002E+03  0.52682050184E+03  0.12500000000E+03 0.  0.
         25    1    1    2    0    0 -0.20926469333E+03 -0.34226364137E+03  0.18753285574E+03  0.46014093935E+03  0.12500000000E+03 0.  0.
         25    1    1    2    0    0  0.38775296700E+02  0.81775046473E+02 -0.52275332901E+03  0.54505662536E+03  0.12500000000E+03 0.  0.
</event>
<event>
 5    0  0.5764392E-005  0.4106968E+03  0.7546771E-02  0.1040137E+00
         21   -1    0    0  502  501  0.00000000000E+00  0.00000000000E+00  0.49989704514E+03  0.49989704514E+03  0.00000000000E+00 0. -1.
         21   -1    0    0  501  502 -0.00000000000E+00 -0.00000000000E+00 -0.33741325518E+03  0.33741325518E+03  0.00000000000E+00 0. -1.
         25    1    1    2    0    0  0.18141012514E+03  0.27314971810E+02  0.29999980850E+03  0.37320319705E+03  0.12500000000E+03 0.  0.
         25    1    1    2    0    0 -0.10194464416E+02  0.12121409801E+03 -0.10407929342E+03  0.20311150627E+03  0.12500000000E+03 0.  0.
         25    1    1    2    0    0 -0.17121566073E+03 -0.14852906982E+03 -0.33436725129E+02  0.26099559699E+03  0.12500000000E+03 0.  0.
</event>
<event>
 5    0  0.5764392E-005  0.3400931E+03  0.7546771E-02  0.1066756E+00
         21   -1    0    0  502  501  0.00000000000E+00  0.00000000000E+00  0.30731254497E+03  0.30731254497E+03  0.00000000000E+00 0. -1.
         21   -1    0    0  501  502 -0.00000000000E+00 -0.00000000000E+00 -0.37637033161E+03  0.37637033161E+03  0.00000000000E+00 0. -1.
         25    1    1    2    0    0 -0.16720677665E+02 -0.36668886401E+02 -0.72669435751E+02  0.15010008389E+03  0.12500000000E+03 0.  0.
         25    1    1    2    0    0  0.14778370863E+02 -0.39535505629E+02  0.22931015045E+03  0.26455547915E+03  0.12500000000E+03 0.  0.
         25    1    1    2    0    0  0.19423068021E+01  0.76204392030E+02 -0.22569850134E+03  0.26902731353E+03  0.12500000000E+03 0.  0.
</event>
<event>
 5    0  0.5764392E-005  0.3348066E+03  0.7546771E-02  0.1069030E+00
         21   -1    0    0  502  501  0.00000000000E+00  0.00000000000E+00  0.34325787095E+03  0.34325787095E+03  0.00000000000E+00 0. -1.
         21   -1    0    0  501  502 -0.00000000000E+00 -0.00000000000E+00 -0.32656336163E+03  0.32656336163E+03  0.00000000000E+00 0. -1.
         25    1    1    2    0    0  0.79664618568E+02 -0.34751111546E+02  0.16304768766E+03  0.22307765387E+03  0.12500000000E+03 0.  0.
         25    1    1    2    0    0  0.78463731938E+02  0.78644024653E+02  0.36396725068E+02  0.17114660803E+03  0.12500000000E+03 0.  0.
         25    1    1    2    0    0 -0.15812835051E+03 -0.43892913107E+02 -0.18274990341E+03  0.27559697069E+03  0.12500000000E+03 0.  0.
</event>
<event>
 5    0  0.5764392E-005  0.2838593E+03  0.7546771E-02  0.1093600E+00
         21   -1    0    0  502  501  0.00000000000E+00  0.00000000000E+00  0.68208327751E+02  0.68208327751E+02  0.00000000000E+00 0.  1.
         21   -1    0    0  501  502 -0.00000000000E+00 -0.00000000000E+00 -0.11813237294E+04  0.11813237294E+04  0.00000000000E+00 0.  1.
         25    1    1    2    0    0 -0.16150872581E+03  0.43580592612E+02 -0.36154488740E+03  0.41752130744E+03  0.12500000000E+03 0.  0.
         25    1    1    2    0    0  0.16592074939E+02 -0.69466448168E+02 -0.19149773435E+03  0.23957726652E+03  0.12500000000E+03 0.  0.
         25    1    1    2    0    0  0.14491665087E+03  0.25885855556E+02 -0.56007277987E+03  0.59243348316E+03  0.12500000000E+03 0.  0.
</event>
<event>
 5    0  0.5764392E-005  0.2718151E+03  0.7546771E-02  0.1100245E+00
         21   -1    0    0  502  501  0.00000000000E+00  0.00000000000E+00  0.63958255080E+02  0.63958255080E+02  0.00000000000E+00 0.  1.
         21   -1    0    0  501  502 -0.00000000000E+00 -0.00000000000E+00 -0.11551826313E+04  0.11551826313E+04  0.00000000000E+00 0.  1.
         25    1    1    2    0    0 -0.37318666233E+02 -0.12462848929E+03 -0.33782944803E+03  0.38298652607E+03  0.12500000000E+03 0.  0.
         25    1    1    2    0    0 -0.30075382412E+02 -0.56420361528E+01 -0.50848011855E+03  0.52451252812E+03  0.12500000000E+03 0.  0.
         25    1    1    2    0    0  0.67394048645E+02  0.13027052545E+03 -0.24491480967E+03  0.31164183222E+03  0.12500000000E+03 0.  0.
</event>
<event>
 5    0  0.5764392E-005  0.2684839E+03  0.7546771E-02  0.1102150E+00
         21   -1    0    0  502  501  0.00000000000E+00  0.00000000000E+00  0.58061152116E+02  0.58061152116E+02  0.00000000000E+00 0.  1.
         21   -1    0    0  501  502 -0.00000000000E+00 -0.00000000000E+00 -0.12415116879E+04  0.12415116879E+04  0.00000000000E+00 0.  1.
         25    1    1    2    0    0  0.62901434876E+01  0.74312520411E+01 -0.58754535032E+02  0.13846257544E+03  0.12500000000E+03 0.  0.
         25    1    1    2    0    0  0.19759133787E+01 -0.75295903485E+02 -0.55440636533E+03  0.57329294016E+03  0.12500000000E+03 0.  0.
         25    1    1    2    0    0 -0.82660568662E+01  0.67864651444E+02 -0.57028963541E+03  0.58781732440E+03  0.12500000000E+03 0.  0.
</event>
<event>
 5    0  0.5764392E-005  0.3082969E+03  0.7546771E-02  0.1081165E+00
         21   -1    0    0  502  501  0.00000000000E+00  0.00000000000E+00  0.12534528038E+03  0.12534528038E+03  0.00000000000E+00 0.  1.
         21   -1    0    0  501  502 -0.00000000000E+00 -0.00000000000E+00 -0.75828119442E+03  0.75828119442E+03  0.00000000000E+00 0.  1.
         25    1    1    2    0    0 -0.11237488562E+03  0.81009972674E+02 -0.79087232580E+02  0.20265863157E+03  0.12500000000E+03 0.  0.
         25    1    1    2    0    0  0.10464244901E+03 -0.63873866333E+02 -0.83589133173E+02  0.19401560793E+03  0.12500000000E+03 0.  0.
         25    1    1    2    0    0  0.77324366069E+01 -0.17136106341E+02 -0.47025954828E+03  0.48695223530E+03  0.12500000000E+03 0.  0.
</event>
<event>
 5    0  0.5764392E-005  0.2731036E+03  0.7546771E-02  0.1099516E+00
         21   -1    0    0  502  501  0.00000000000E+00  0.00000000000E+00  0.37658022690E+03  0.37658022690E+03  0.00000000000E+00 0.  1.
         21   -1    0    0  501  502 -0.00000000000E+00 -0.00000000000E+00 -0.19806032479E+03  0.19806032479E+03  0.00000000000E+00 0.  1.
         25    1    1    2    0    0  0.42984315734E+02  0.54526064364E+02  0.50352747573E+02  0.15159532408E+03  0.12500000000E+03 0.  0.
         25    1    1    2    0    0 -0.15694960324E+03  0.33351856502E+02  0.11084667048E+03  0.23164090452E+03  0.12500000000E+03 0.  0.
         25    1    1    2    0    0  0.11396528750E+03 -0.87877920866E+02  0.17320484049E+02  0.19140432310E+03  0.12500000000E+03 0.  0.
</event>
<event>
 5    0  0.5764392E-005  0.2594662E+03  0.7546771E-02  0.1107464E+00
         21   -1    0    0  502  501  0.00000000000E+00  0.00000000000E+00  0.88726660075E+02  0.88726660075E+02  0.00000000000E+00 0. -1.
         21   -1    0    0  501  502 -0.00000000000E+00 -0.00000000000E+00 -0.75876515269E+03  0.75876515269E+03  0.00000000000E+00 0. -1.
         25    1    1    2    0    0 -0.10034657365E+03  0.52475414880E+02 -0.11096704693E+03  0.20189549157E+03  0.12500000000E+03 0.  0.
         25    1    1    2    0    0  0.29581164104E+02 -0.80445350858E+02 -0.40812298409E+03  0.43535717507E+03  0.12500000000E+03 0.  0.
         25    1    1    2    0    0  0.70765409547E+02  0.27969935978E+02 -0.15094846159E+03  0.21023914613E+03  0.12500000000E+03 0.  0.
</event>
<event>
 5    0  0.5764392E-005  0.4407790E+03  0.7546771E-02  0.1030508E+00
         21   -1    0    0  502  501  0.00000000000E+00  0.00000000000E+00  0.12388205550E+03  0.12388205550E+03  0.00000000000E+00 0. -1.
         21   -1    0    0  501  502 -0.00000000000E+00 -0.00000000000E+00 -0.15683154513E+04  0.15683154513E+04  0.00000000000E+00 0. -1.
         25    1    1    2    0    0  0.95072285017E+02 -0.58983821550E+02 -0.55103286123E+02  0.17657633682E+03  0.12500000000E+03 0.  0.
         25    1    1    2    0    0  0.99884366246E+02 -0.20132366726E+03 -0.60486452819E+03  0.65726265913E+03  0.12500000000E+03 0.  0.
         25    1    1    2    0    0 -0.19495665126E+03  0.26030748881E+03 -0.78446558146E+03  0.85835851082E+03  0.12500000000E+03 0.  0.
</event>
<event>
 5    0  0.5764392E-005  0.3581747E+03  0.7546771E-02  0.1059309E+00
         21   -1    0    0  502  501  0.00000000000E+00  0.00000000000E+00  0.31504281818E+03  0.31504281818E+03  0.00000000000E+00 0.  1.
         21   -1    0    0  501  502 -0.00000000000E+00 -0.00000000000E+00 -0.40721167589E+03  0.40721167589E+03  0.00000000000E+00 0.  1.
         25    1    1    2    0    0 -0.12553575473E+03 -0.75552905897E+02 -0.77235256204E+02  0.20750361950E+03  0.12500000000E+03 0.  0.
         25    1    1    2    0    0 -0.61778775194E+02  0.17579970800E+03  0.96478548651E+02  0.24424427270E+03  0.12500000000E+03 0.  0.
         25    1    1    2    0    0  0.18731452992E+03 -0.10024680211E+03 -0.11141215016E+03  0.27050660187E+03  0.12500000000E+03 0.  0.
</event>
<event>
 5    0  0.5764392E-005  0.2684616E+03  0.7546771E-02  0.1102163E+00
         21   -1    0    0  502  501  0.00000000000E+00  0.00000000000E+00  0.51998200957E+03  0.51998200957E+03  0.00000000000E+00 0.  1.
         21   -1    0    0  501  502 -0.00000000000E+00 -0.00000000000E+00 -0.13860413350E+03  0.13860413350E+03  0.00000000000E+00 0.  1.
         25    1    1    2    0    0  0.10962246960E+03  0.41614765687E+02  0.88870766319E+02  0.19305928538E+03  0.12500000000E+03 0.  0.
         25    1    1    2    0    0 -0.96390749654E+02  0.85347148726E+01  0.28986526389E+03  0.33016797117E+03  0.12500000000E+03 0.  0.
         25    1    1    2    0    0 -0.13231719942E+02 -0.50149480559E+02  0.26418458603E+01  0.13535888653E+03  0.12500000000E+03 0.  0.
</event>
<event>
 5    0  0.5764392E-005  0.2755592E+03  0.7546771E-02  0.1098139E+00
         21   -1    0    0  502  501  0.00000000000E+00  0.00000000000E+00  0.81658659966E+02  0.81658659966E+02  0.00000000000E+00 0.  1.
         21   -1    0    0  501  502 -0.00000000000E+00 -0.00000000000E+00 -0.92988145471E+03  0.92988145471E+03  0.00000000000E+00 0.  1.
         25    1    1    2    0    0  0.43532778947E+02  0.70858855201E+02 -0.21500927290E+03  0.26224047673E+03  0.12500000000E+03 0.  0.
         25    1    1    2    0    0 -0.16830455533E+03 -0.13864300386E+02 -0.27729108859E+03  0.34789939635E+03  0.12500000000E+03 0.  0.
         25    1    1    2    0    0  0.12477177638E+03 -0.56994554815E+02 -0.35592243326E+03  0.40140024160E+03  0.12500000000E+03 0.  0.
</event>
<event>
 5    0  0.5764392E-005  0.2668024E+03  0.7546771E-02  0.1103124E+00
         21   -1    0    0  502  501  0.00000000000E+00  0.00000000000E+00  0.24423626382E+03  0.24423626382E+03  0.00000000000E+00 0.  1.
         21   -1    0    0  501  502 -0.00000000000E+00 -0.00000000000E+00 -0.29145355526E+03  0.29145355526E+03  0.00000000000E+00 0.  1.
         25    1    1    2    0    0  0.27387548073E+02  0.72496954529E+02 -0.14695497684E+03  0.20791020038E+03  0.12500000000E+03 0.  0.
         25    1    1    2    0    0  0.54161916097E+02  0.12762340238E+02  0.19928446749E+02  0.13826978511E+03  0.12500000000E+03 0.  0.
         25    1    1    2    0    0 -0.81549464170E+02 -0.85259294766E+02  0.79809238656E+02  0.18950983358E+03  0.12500000000E+03 0.  0.
</event>
<event>
 5    0  0.5764392E-005  0.3208366E+03  0.7546771E-02  0.1075265E+00
         21   -1    0    0  502  501  0.00000000000E+00  0.00000000000E+00  0.47634052045E+03  0.47634052045E+03  0.00000000000E+00 0.  1.
         21   -1    0    0  501  502 -0.00000000000E+00 -0.00000000000E+00 -0.21609772544E+03  0.21609772544E+03  0.00000000000E+00 0.  1.
         25    1    1    2    0    0 -0.31411062936E+02  0.72066581789E+02  0.13635408512E+03  0.20099175011E+03  0.12500000000E+03 0.  0.
         25    1    1    2    0    0 -0.12497475932E+03 -0.61700546786E+02 -0.81724368612E+02  0.20427804671E+03  0.12500000000E+03 0.  0.
         25    1    1    2    0    0  0.15638582226E+03 -0.10366035004E+02  0.20561307851E+03  0.28716844907E+03  0.12500000000E+03 0.  0.
</event>
<event>
 5    0  0.5764392E-005  0.2228827E+03  0.7546771E-02  0.1131752E+00
         21   -1    0    0  502  501  0.00000000000E+00  0.00000000000E+00  0.15160435439E+03  0.15160435439E+03  0.00000000000E+00 0.  1.
         21   -1    0    0  501  502 -0.00000000000E+00 -0.00000000000E+00 -0.32767322285E+03  0.32767322285E+03  0.00000000000E+00 0.  1.
         25    1    1    2    0    0  0.38087034770E+02  0.27321472577E+02 -0.35382809358E+02  0.13810875526E+03  0.12500000000E+03 0.  0.
         25    1    1    2    0    0 -0.99752892421E+02 -0.48739590108E+02 -0.54250597574E+02  0.17576778581E+03  0.12500000000E+03 0.  0.
         25    1    1    2    0    0  0.61665857651E+02  0.21418117532E+02 -0.86435461529E+02  0.16540103618E+03  0.12500000000E+03 0.  0.
</event>
<event>
 5    0  0.5764392E-005  0.3140224E+03  0.7546771E-02  0.1078434E+00
         21   -1    0    0  502  501  0.00000000000E+00  0.00000000000E+00  0.36873368499E+02  0.36873368499E+02  0.00000000000E+00 0.  1.
         21   -1    0    0  501  502 -0.00000000000E+00 -0.00000000000E+00 -0.26742894918E+04  0.26742894918E+04  0.00000000000E+00 0.  1.
         25    1    1    2    0    0 -0.22491802968E+02  0.21599012992E+03 -0.65861950713E+03  0.70467174812E+03  0.12500000000E+03 0.  0.
         25    1    1    2    0    0  0.59656407718E+01 -0.98331445620E+02 -0.88913343936E+03  0.90326515213E+03  0.12500000000E+03 0.  0.
         25    1    1    2    0    0  0.16526162197E+02 -0.11765868430E+03 -0.10896631768E+04  0.11032259601E+04  0.12500000000E+03 0.  0.
</event>
<event>
 5    0  0.5764392E-005  0.3612915E+03  0.7546771E-02  0.1058074E+00
         21   -1    0    0  502  501  0.00000000000E+00  0.00000000000E+00  0.17778095584E+04  0.17778095584E+04  0.00000000000E+00 0. -1.
         21   -1    0    0  501  502 -0.00000000000E+00 -0.00000000000E+00 -0.73422672895E+02  0.73422672895E+02  0.00000000000E+00 0. -1.
         25    1    1    2    0    0  0.10510360545E+03 -0.20958512275E+02  0.13218019283E+03  0.21114599331E+03  0.12500000000E+03 0.  0.
         25    1    1    2    0    0 -0.11562335462E+03 -0.55593599625E+02  0.14095123309E+04  0.14208481339E+04  0.12500000000E+03 0.  0.
         25    1    1    2    0    0  0.10519749172E+02  0.76552111900E+02  0.16269436178E+03  0.21923810416E+03  0.12500000000E+03 0.  0.
</event>
<event>
 5    0  0.5764392E-005  0.3220309E+03  0.7546771E-02  0.1074718E+00
         21   -1    0    0  502  501  0.00000000000E+00  0.00000000000E+00  0.34880355898E+03  0.34880355898E+03  0.00000000000E+00 0.  1.
         21   -1    0    0  501  502 -0.00000000000E+00 -0.00000000000E+00 -0.29731320860E+03  0.29731320860E+03  0.00000000000E+00 0.  1.
         25    1    1    2    0    0 -0.34073050746E+02 -0.11114298363E+03  0.12207032664E+03  0.20985685655E+03  0.12500000000E+03 0.  0.
         25    1    1    2    0    0 -0.22409497873E+02 -0.59419633441E+02 -0.14821438350E+03  0.20402299358E+03  0.12500000000E+03 0.  0.
         25    1    1    2    0    0  0.56482548619E+02  0.17056261707E+03  0.77634407247E+02  0.23223691745E+03  0.12500000000E+03 0.  0.
</event>
<event>
 5    0  0.5764392E-005  0.3226534E+03  0.7546771E-02  0.1074435E+00
         21   -1    0    0  502  501  0.00000000000E+00  0.00000000000E+00  0.40979502540E+03  0.40979502540E+03  0.00000000000E+00 0. -1.
         21   -1    0    0  501  502 -0.00000000000E+00 -0.00000000000E+00 -0.25404211994E+03  0.25404211994E+03  0.00000000000E+00 0. -1.
         25    1    1    2    0    0  0.26274184781E+02 -0.55442472835E+02 -0.41296881389E+02  0.14523991529E+03  0.12500000000E+03 0.  0.
         25    1    1    2    0    0 -0.83815690479E+02  0.20687282840E+03  0.18094664686E+03  0.31334984620E+03  0.12500000000E+03 0.  0.
         25    1    1    2    0    0  0.57541505698E+02 -0.15143035557E+03  0.16103139989E+02  0.20524738386E+03  0.12500000000E+03 0.  0.
</event>
<event>
 5    0  0.5764392E-005  0.3285783E+03  0.7546771E-02  0.1071768E+00
         21   -1    0    0  502  501  0.00000000000E+00  0.00000000000E+00  0.76311463188E+02  0.76311463188E+02  0.00000000000E+00 0.  1.
         21   -1    0    0  501  502 -0.00000000000E+00 -0.00000000000E+00 -0.14147769423E+04  0.14147769423E+04  0.00000000000E+00 0.  1.
         25    1    1    2    0    0  0.10811661954E+03  0.12892926082E+03 -0.56783325328E+03  0.60528634649E+03  0.12500000000E+03 0.  0.
         25    1    1    2    0    0 -0.16062091457E+03 -0.16631005442E+03 -0.32205579554E+03  0.41569585978E+03  0.12500000000E+03 0.  0.
         25    1    1    2    0    0  0.52504295036E+02  0.37380793603E+02 -0.44857643029E+03  0.47010619921E+03  0.12500000000E+03 0.  0.
</event>
<event>
 5    0  0.5764392E-005  0.2383257E+03  0.7546771E-02  0.1120913E+00
         21   -1    0    0  502  501  0.00000000000E+00  0.00000000000E+00  0.25816052260E+03  0.25816052260E+03  0.00000000000E+00 0. -1.
         21   -1    0    0  501  502 -0.00000000000E+00 -0.00000000000E+00 -0.22001486077E+03  0.22001486077E+03  0.00000000000E+00 0. -1.
         25    1    1    2    0    0  0.50877580603E+02 -0.48114853665E+02 -0.23437281499E+02  0.14518220798E+03  0.12500000000E+03 0.  0.
         25    1    1    2    0    0 -0.83426303029E+02  0.10564879843E+03  0.53615279708E+02  0.19136670260E+03  0.12500000000E+03 0.  0.
         25    1    1    2    0    0  0.32548722427E+02 -0.57533944763E+02  0.79676636232E+01  0.14162647279E+03  0.12500000000E+03 0.  0.
</event>
<event>
 5    0  0.5764392E-005  0.3221322E+03  0.7546771E-02  0.1074672E+00
         21   -1    0    0  502  501  0.00000000000E+00  0.00000000000E+00  0.51795529918E+02  0.51795529918E+02  0.00000000000E+00 0. -1.
         21   -1    0    0  501  502 -0.00000000000E+00 -0.00000000000E+00 -0.20034383615E+04  0.20034383615E+04  0.00000000000E+00 0. -1.
         25    1    1    2    0    0 -0.13303455032E+03 -0.86569579751E+02 -0.97023827211E+03  0.99104984152E+03  0.12500000000E+03 0.  0.
         25    1    1    2    0    0  0.76828541537E+02 -0.98849158404E+02 -0.50082971931E+03  0.53115834612E+03  0.12500000000E+03 0.  0.
         25    1    1    2    0    0  0.56206008786E+02  0.18541873816E+03 -0.48057484016E+03  0.53302570376E+03  0.12500000000E+03 0.  0.
</event>
<event>
 5    0  0.5764392E-005  0.3486830E+03  0.7546771E-02  0.1063157E+00
         21   -1    0    0  502  501  0.00000000000E+00  0.00000000000E+00  0.29176327520E+03  0.29176327520E+03  0.00000000000E+00 0. -1.
         21   -1    0    0  501  502 -0.00000000000E+00 -0.00000000000E+00 -0.41670720609E+03  0.41670720609E+03  0.00000000000E+00 0. -1.
         25    1    1    2    0    0  0.16502612500E+03  0.22539353273E+03  0.94669827353E+01  0.30618701849E+03  0.12500000000E+03 0.  0.
         25    1    1    2    0    0 -0.11159100273E+03 -0.11216733709E+03 -0.82905920520E+02  0.21801939147E+03  0.12500000000E+03 0.  0.
         25    1    1    2    0    0 -0.53435122271E+02 -0.11322619564E+03 -0.51504993098E+02  0.18426407133E+03  0.12500000000E+03 0.  0.
</event>
<event>
 5    0  0.5764392E-005  0.2873650E+03  0.7546771E-02  0.1091733E+00
         21   -1    0    0  502  501  0.00000000000E+00  0.00000000000E+00  0.20401167041E+03  0.20401167041E+03  0.00000000000E+00 0.  1.
         21   -1    0    0  501  502 -0.00000000000E+00 -0.00000000000E+00 -0.40477421900E+03  0.40477421900E+03  0.00000000000E+00 0.  1.
         25    1    1    2    0    0  0.12740989754E+02 -0.16083650023E+03  0.20915569666E+02  0.20516620989E+03  0.12500000000E+03 0.  0.
         25    1    1    2    0    0 -0.71453069575E+02  0.39481513876E+02 -0.68220020566E+02  0.16414415096E+03  0.12500000000E+03 0.  0.
         25    1    1    2    0    0  0.58712079821E+02  0.12135498635E+03 -0.15345809768E+03  0.23947552855E+03  0.12500000000E+03 0.  0.
</event>
<event>
 5    0  0.5764392E-005  0.3773644E+03  0.7546771E-02  0.1051912E+00
         21   -1    0    0  502  501  0.00000000000E+00  0.00000000000E+00  0.72206894864E+03  0.72206894864E+03  0.00000000000E+00 0.  1.
         21   -1    0    0  501  502 -0.00000000000E+00 -0.00000000000E+00 -0.19721643243E+03  0.19721643243E+03  0.00000000000E+00 0.  1.
         25    1    1    2    0    0  0.11173453207E+02 -0.20544560399E+03  0.18596462612E+02  0.24146132336E+03  0.12500000000E+03 0.  0.
         25    1    1    2    0    0  0.14407883883E+03  0.60852611843E+02  0.18126694969E+03  0.27008231933E+03  0.12500000000E+03 0.  0.
         25    1    1    2    0    0 -0.15525229203E+03  0.14459299215E+03  0.32498910391E+03  0.40774173838E+03  0.12500000000E+03 0.  0.
</event>
<event>
 5    0  0.5764392E-005  0.5243126E+03  0.7546771E-02  0.1007621E+00
         21   -1    0    0  502  501  0.00000000000E+00  0.00000000000E+00  0.44124494709E+03  0.44124494709E+03  0.00000000000E+00 0. -1.
         21   -1    0    0  501  502 -0.00000000000E+00 -0.00000000000E+00 -0.62301832900E+03  0.62301832900E+03  0.00000000000E+00 0. -1.
         25    1    1    2    0    0  0.14081944558E+01 -0.11870342525E+02 -0.46125167272E+02  0.13377376088E+03  0.12500000000E+03 0.  0.
         25    1    1    2    0    0  0.61493834786E+02 -0.42988221997E+03 -0.11669777605E+03  0.46671574400E+03  0.12500000000E+03 0.  0.
         25    1    1    2    0    0 -0.62902029241E+02  0.44175256249E+03 -0.18950438590E+02  0.46377377122E+03  0.12500000000E+03 0.  0.
</event>
<event>
 5    0  0.5764392E-005  0.2373448E+03  0.7546771E-02  0.1121574E+00
         21   -1    0    0  502  501  0.00000000000E+00  0.00000000000E+00  0.71595851368E+03  0.71595851368E+03  0.00000000000E+00 0.  1.
         21   -1    0    0  501  502 -0.00000000000E+00 -0.00000000000E+00 -0.78681327075E+02  0.78681327075E+02  0.00000000000E+00 0.  1.
         25    1    1    2    0    0 -0.81822164849E+02  0.42363272308E+02  0.37356580847E+03  0.40455645683E+03  0.12500000000E+03 0.  0.
         25    1    1    2    0    0  0.83063104210E+02 -0.58585569331E+02  0.15637171636E+03  0.22451917934E+03  0.12500000000E+03 0.  0.
         25    1    1    2    0    0 -0.12409393609E+01  0.16222297023E+02  0.10733966178E+03  0.16556420459E+03  0.12500000000E+03 0.  0.
</event>
<event>
 5    0  0.5764392E-005  0.2521123E+03  0.7546771E-02  0.1111977E+00
         21   -1    0    0  502  501  0.00000000000E+00  0.00000000000E+00  0.59249935115E+02  0.59249935115E+02  0.00000000000E+00 0.  1.
         21   -1    0    0  501  502 -0.00000000000E+00 -0.00000000000E+00 -0.10727544284E+04  0.10727544284E+04  0.00000000000E+00 0.  1.
         25    1    1    2    0    0  0.23709154485E+02 -0.69106299073E+02 -0.11080575863E+03  0.18232037935E+03  0.12500000000E+03 0.  0.
         25    1    1    2    0    0  0.37772312866E+02  0.78078843339E+02 -0.39978448198E+03  0.42775657263E+03  0.12500000000E+03 0.  0.
         25    1    1    2    0    0 -0.61481467351E+02 -0.89725442655E+01 -0.50291425271E+03  0.52192741158E+03  0.12500000000E+03 0.  0.
</event>
<event>
 5    0  0.5764392E-005  0.4799259E+03  0.7546771E-02  0.1019156E+00
         21   -1    0    0  502  501  0.00000000000E+00  0.00000000000E+00  0.21433648978E+04  0.21433648978E+04  0.00000000000E+00 0.  1.
         21   -1    0    0  501  502 -0.00000000000E+00 -0.00000000000E+00 -0.10746133189E+03  0.10746133189E+03  0.00000000000E+00 0.  1.
         25    1    1    2    0    0 -0.10403058669E+03  0.21342126525E+03  0.16124956661E+04  0.16346676337E+04  0.12500000000E+03 0.  0.
         25    1    1    2    0    0  0.54833066050E+02 -0.19000518309E+03  0.41880761673E+03  0.47972226815E+03  0.12500000000E+03 0.  0.
         25    1    1    2    0    0  0.49197520639E+02 -0.23416082163E+02  0.46002830330E+01  0.13643632780E+03  0.12500000000E+03 0.  0.
</event>
<event>
 5    0  0.5764392E-005  0.2599660E+03  0.7546771E-02  0.1107164E+00
         21   -1    0    0  502  501  0.00000000000E+00  0.00000000000E+00  0.20403506687E+02  0.20403506687E+02  0.00000000000E+00 0.  1.
         21   -1    0    0  501  502 -0.00000000000E+00 -0.00000000000E+00 -0.33122900185E+04  0.33122900185E+04  0.00000000000E+00 0.  1.
         25    1    1    2    0    0  0.18419109974E+02  0.37784458182E+01 -0.76810402666E+03  0.77843582654E+03  0.12500000000E+03 0.  0.
         25    1    1    2    0    0 -0.37820805083E+02  0.14008287682E+03 -0.15521497192E+04  0.15639205147E+04  0.12500000000E+03 0.  0.
         25    1    1    2    0    0  0.19401695109E+02 -0.14386132263E+03 -0.97163276603E+03  0.99033718396E+03  0.12500000000E+03 0.  0.
</event>
<event>
 5    0  0.6063011E-005  0.2471443E+03  0.7546771E-02  0.1115123E+00
         21   -1    0    0  502  501  0.00000000000E+00  0.00000000000E+00  0.11395332931E+03  0.11395332931E+03  0.00000000000E+00 0.  1.
         21   -1    0    0  501  502 -0.00000000000E+00 -0.00000000000E+00 -0.53601172203E+03  0.53601172203E+03  0.00000000000E+00 0.  1.
         25    1    1    2    0    0  0.75261504318E+02  0.41925019099E+02 -0.32630312360E+03  0.35988988556E+03  0.12500000000E+03 0.  0.
         25    1    1    2    0    0 -0.40569130856E+02 -0.20709874736E+02 -0.10616427370E+02  0.13346333512E+03  0.12500000000E+03 0.  0.
         25    1    1    2    0    0 -0.34692373462E+02 -0.21215144362E+02 -0.85138841751E+02  0.15661183066E+03  0.12500000000E+03 0.  0.
</event>
<event>
 5    0  0.5764392E-005  0.2338290E+03  0.7546771E-02  0.1123973E+00
         21   -1    0    0  502  501  0.00000000000E+00  0.00000000000E+00  0.21023448117E+04  0.21023448117E+04  0.00000000000E+00 0.  1.
         21   -1    0    0  501  502 -0.00000000000E+00 -0.00000000000E+00 -0.26007158834E+02  0.26007158834E+02  0.00000000000E+00 0.  1.
         25    1    1    2    0    0  0.18425938068E+02  0.86817686825E+02  0.46294412261E+03  0.48766698330E+03  0.12500000000E+03 0.  0.
         25    1    1    2    0    0  0.51610945813E+02 -0.34703037301E+02  0.93520362468E+03  0.94556798283E+03  0.12500000000E+03 0.  0.
         25    1    1    2    0    0 -0.70036883882E+02 -0.52114649524E+02  0.67818990558E+03  0.69511700441E+03  0.12500000000E+03 0.  0.
</event>
<event>
 5    0  0.5764392E-005  0.4404301E+03  0.7546771E-02  0.1030615E+00
         21   -1    0    0  502  501  0.00000000000E+00  0.00000000000E+00  0.10816756572E+04  0.10816756572E+04  0.00000000000E+00 0.  1.
         21   -1    0    0  501  502 -0.00000000000E+00 -0.00000000000E+00 -0.17933161344E+03  0.17933161344E+03  0.00000000000E+00 0.  1.
         25    1    1    2    0    0  0.87971697292E+02  0.22829963408E+03  0.63226082259E+03  0.68937543489E+03  0.12500000000E+03 0.  0.
         25    1    1    2    0    0 -0.47510373498E+02 -0.15871857892E+03  0.34693206040E+03  0.40427178657E+03  0.12500000000E+03 0.  0.
         25    1    1    2    0    0 -0.40461323795E+02 -0.69581055163E+02 -0.76848839249E+02  0.16736004916E+03  0.12500000000E+03 0.  0.
</event>
<event>
 5    0  0.5764392E-005  0.3014937E+03  0.7546771E-02  0.1084496E+00
         21   -1    0    0  502  501  0.00000000000E+00  0.00000000000E+00  0.11625189931E+03  0.11625189931E+03  0.00000000000E+00 0.  1.
         21   -1    0    0  501  502 -0.00000000000E+00 -0.00000000000E+00 -0.78190930837E+03  0.78190930837E+03  0.00000000000E+00 0.  1.
         25    1    1    2    0    0 -0.12766898186E+03 -0.14205622727E+03 -0.23485342228E+03  0.32750644359E+03  0.12500000000E+03 0.  0.
         25    1    1    2    0    0  0.43026368969E+02  0.69524533642E+02 -0.54911726936E+02  0.15913901772E+03  0.12500000000E+03 0.  0.
         25    1    1    2    0    0  0.84642612895E+02  0.72531693628E+02 -0.37589225984E+03  0.41151574637E+03  0.12500000000E+03 0.  0.
</event>
<event>
 5    0  0.8528850E-005  0.4581050E+03  0.7546771E-02  0.1025332E+00
         21   -1    0    0  502  501  0.00000000000E+00  0.00000000000E+00  0.60564366249E+03  0.60564366249E+03  0.00000000000E+00 0.  1.
         21   -1    0    0  501  502 -0.00000000000E+00 -0.00000000000E+00 -0.34650770367E+03  0.34650770367E+03  0.00000000000E+00 0.  1.
         25    1    1    2    0    0  0.11136758552E+03 -0.16058794100E+03  0.25166657492E+03  0.34227516829E+03  0.12500000000E+03 0.  0.
         25    1    1    2    0    0  0.12041184418E+03 -0.38199402758E+02 -0.16065332956E+03  0.23956773340E+03  0.12500000000E+03 0.  0.
         25    1    1    2    0    0 -0.23177942969E+03  0.19878734376E+03  0.16812271346E+03  0.37030846446E+03  0.12500000000E+03 0.  0.
</event>
<event>
 5    0  0.5764392E-005  0.3654420E+03  0.7546771E-02  0.1056450E+00
         21   -1    0    0  502  501  0.00000000000E+00  0.00000000000E+00  0.21314080922E+03  0.21314080922E+03  0.00000000000E+00 0.  1.
         21   -1    0    0  501  502 -0.00000000000E+00 -0.00000000000E+00 -0.62657105970E+03  0.62657105970E+03  0.00000000000E+00 0.  1.
         25    1    1    2    0    0 -0.25945389490E+02  0.26288252184E+03 -0.75643807538E+02  0.30187310106E+03  0.12500000000E+03 0.  0.
         25    1    1    2    0    0  0.10293789616E+03 -0.11811703151E+03 -0.23036537610E+03  0.30535397509E+03  0.12500000000E+03 0.  0.
         25    1    1    2    0    0 -0.76992506666E+02 -0.14476549032E+03 -0.10742106684E+03  0.23248479278E+03  0.12500000000E+03 0.  0.
</event>
<event>
 5    0  0.5764392E-005  0.5502152E+03  0.7546771E-02  0.1001444E+00
         21   -1    0    0  502  501  0.00000000000E+00  0.00000000000E+00  0.76708891630E+03  0.76708891630E+03  0.00000000000E+00 0.  1.
         21   -1    0    0  501  502 -0.00000000000E+00 -0.00000000000E+00 -0.39465665986E+03  0.39465665986E+03  0.00000000000E+00 0.  1.
         25    1    1    2    0    0 -0.30147147624E+03  0.75985456650E+02 -0.10558715133E+03  0.35132959900E+03  0.12500000000E+03 0.  0.
         25    1    1    2    0    0  0.17569295420E+02  0.19683919865E+03  0.11553181859E+03  0.26081976799E+03  0.12500000000E+03 0.  0.
         25    1    1    2    0    0  0.28390218082E+03 -0.27282465530E+03  0.36248758918E+03  0.54959620916E+03  0.12500000000E+03 0.  0.
</event>
<event>
 5    0  0.5764392E-005  0.3004175E+03  0.7546771E-02  0.1085032E+00
         21   -1    0    0  502  501  0.00000000000E+00  0.00000000000E+00  0.69126552454E+03  0.69126552454E+03  0.00000000000E+00 0. -1.
         21   -1    0    0  501  502 -0.00000000000E+00 -0.00000000000E+00 -0.13055861041E+03  0.13055861041E+03  0.00000000000E+00 0. -1.
         25    1    1    2    0    0 -0.12634650712E+03  0.20738466859E+02  0.25653276056E+03  0.31277400965E+03  0.12500000000E+03 0.  0.
         25    1    1    2    0    0 -0.82019414263E+02 -0.50737428217E+02  0.16069579580E+03  0.22527674031E+03  0.12500000000E+03 0.  0.
         25    1    1    2    0    0  0.20836592138E+03  0.29998961357E+02  0.14347835776E+03  0.28377338498E+03  0.12500000000E+03 0.  0.
</event>
<event>
 5    0  0.5764392E-005  0.2401404E+03  0.7546771E-02  0.1119699E+00
         21   -1    0    0  502  501  0.00000000000E+00  0.00000000000E+00  0.79815817665E+02  0.79815817665E+02  0.00000000000E+00 0.  1.
         21   -1    0    0  501  502 -0.00000000000E+00 -0.00000000000E+00 -0.72250612481E+03  0.72250612481E+03  0.00000000000E+00 0.  1.
         25    1    1    2    0    0  0.28823438745E+02  0.91471907722E+02 -0.18969324984E+03  0.24658959743E+03  0.12500000000E+03 0.  0.
         25    1    1    2    0    0  0.19041583670E+02  0.11261956295E+02 -0.30845569004E+03  0.33355558201E+03  0.12500000000E+03 0.  0.
         25    1    1    2    0    0 -0.47865022414E+02 -0.10273386402E+03 -0.14454136726E+03  0.22217676305E+03  0.12500000000E+03 0.  0.
</event>
<event>
 5    0  0.5764392E-005  0.2932703E+03  0.7546771E-02  0.1088654E+00
         21   -1    0    0  502  501  0.00000000000E+00  0.00000000000E+00  0.19378637474E+03  0.19378637474E+03  0.00000000000E+00 0. -1.
         21   -1    0    0  501  502 -0.00000000000E+00 -0.00000000000E+00 -0.44382626142E+03  0.44382626142E+03  0.00000000000E+00 0. -1.
         25    1    1    2    0    0 -0.25713889901E+02 -0.52739939239E+02  0.52314029647E+02  0.14766334353E+03  0.12500000000E+03 0.  0.
         25    1    1    2    0    0  0.23447764507E+00  0.15068872786E+03 -0.71167175979E+02  0.20831926128E+03  0.12500000000E+03 0.  0.
         25    1    1    2    0    0  0.25479412256E+02 -0.97948788620E+02 -0.23118674035E+03  0.28163003134E+03  0.12500000000E+03 0.  0.
</event>
<event>
 5    0  0.5764392E-005  0.2209629E+03  0.7546771E-02  0.1133167E+00
         21   -1    0    0  502  501  0.00000000000E+00  0.00000000000E+00  0.10496368066E+04  0.10496368066E+04  0.00000000000E+00 0.  1.
         21   -1    0    0  501  502 -0.00000000000E+00 -0.00000000000E+00 -0.46515726151E+02  0.46515726151E+02  0.00000000000E+00 0.  1.
         25    1    1    2    0    0  0.46989685495E+02 -0.30458062601E+02  0.25299210185E+03  0.28769033303E+03  0.12500000000E+03 0.  0.
         25    1    1    2    0    0 -0.18957505474E+02  0.33905698628E+01  0.15983405221E+03  0.20382052700E+03  0.12500000000E+03 0.  0.
         25    1    1    2    0    0 -0.28032180021E+02  0.27067492738E+02  0.59029492640E+03  0.60464167274E+03  0.12500000000E+03 0.  0.
</event>
<event>
 5    0  0.5764392E-005  0.3960859E+03  0.7546771E-02  0.1045143E+00
         21   -1    0    0  502  501  0.00000000000E+00  0.00000000000E+00  0.18053824054E+04  0.18053824054E+04  0.00000000000E+00 0. -1.
         21   -1    0    0  501  502 -0.00000000000E+00 -0.00000000000E+00 -0.86897940735E+02  0.86897940735E+02  0.00000000000E+00 0. -1.
         25    1    1    2    0    0  0.12896660169E+02  0.31381437848E+03  0.76142871559E+03  0.83309331825E+03  0.12500000000E+03 0.  0.
         25    1    1    2    0    0 -0.79995217171E+01 -0.10523363896E+02  0.26169392879E+03  0.29031611375E+03  0.12500000000E+03 0.  0.
         25    1    1    2    0    0 -0.48971384521E+01 -0.30329101459E+03  0.69536182025E+03  0.76887091410E+03  0.12500000000E+03 0.  0.
</event>
<event>
 5    0  0.5764392E-005  0.2527027E+03  0.7546771E-02  0.1111609E+00
         21   -1    0    0  502  501  0.00000000000E+00  0.00000000000E+00  0.62136300845E+03  0.62136300845E+03  0.00000000000E+00 0. -1.
         21   -1    0    0  501  502 -0.00000000000E+00 -0.00000000000E+00 -0.10277185718E+03  0.10277185718E+03  0.00000000000E+00 0. -1.
         25    1    1    2    0    0  0.42425219499E+02  0.12956046253E+03  0.18429367663E+03  0.26110337406E+03  0.12500000000E+03 0.  0.
         25    1    1    2    0    0  0.37529025337E+02 -0.12165970871E+02  0.13127489550E+03  0.18551155430E+03  0.12500000000E+03 0.  0.
         25    1    1    2    0    0 -0.79954244836E+02 -0.11739449166E+03  0.20302257914E+03  0.27751993727E+03  0.12500000000E+03 0.  0.
</event>
<event>
 5    0  0.5764392E-005  0.3601818E+03  0.7546771E-02  0.1058512E+00
         21   -1    0    0  502  501  0.00000000000E+00  0.00000000000E+00  0.42222922386E+03  0.42222922386E+03  0.00000000000E+00 0. -1.
         21   -1    0    0  501  502 -0.00000000000E+00 -0.00000000000E+00 -0.30725240703E+03  0.30725240703E+03  0.00000000000E+00 0. -1.
         25    1    1    2    0    0  0.68332662118E+02  0.25229416957E+03  0.17449566065E+03  0.33822394400E+03  0.12500000000E+03 0.  0.
         25    1    1    2    0    0 -0.14838349304E+02 -0.44251586361E+02  0.81492544169E+01  0.13367793331E+03  0.12500000000E+03 0.  0.
         25    1    1    2    0    0 -0.53494312814E+02 -0.20804258321E+03 -0.67668098234E+02  0.25757975358E+03  0.12500000000E+03 0.  0.
</event>
<event>
 5    0  0.5764392E-005  0.2932950E+03  0.7546771E-02  0.1088641E+00
         21   -1    0    0  502  501  0.00000000000E+00  0.00000000000E+00  0.32983459780E+03  0.32983459780E+03  0.00000000000E+00 0. -1.
         21   -1    0    0  501  502 -0.00000000000E+00 -0.00000000000E+00 -0.26080330346E+03  0.26080330346E+03  0.00000000000E+00 0. -1.
         25    1    1    2    0    0  0.25262792308E+02 -0.52496440877E+02 -0.25971937026E+02  0.14033398196E+03  0.12500000000E+03 0.  0.
         25    1    1    2    0    0  0.12909022005E+03  0.69790985537E+01  0.15550933681E+03  0.23774176445E+03  0.12500000000E+03 0.  0.
         25    1    1    2    0    0 -0.15435301236E+03  0.45517342323E+02 -0.60506105439E+02  0.21256215484E+03  0.12500000000E+03 0.  0.
</event>
<event>
 5    0  0.5764392E-005  0.4746450E+03  0.7546771E-02  0.1020617E+00
         21   -1    0    0  502  501  0.00000000000E+00  0.00000000000E+00  0.23077307815E+03  0.23077307815E+03  0.00000000000E+00 0. -1.
         21   -1    0    0  501  502 -0.00000000000E+00 -0.00000000000E+00 -0.97623112610E+03  0.97623112610E+03  0.00000000000E+00 0. -1.
         25    1    1    2    0    0 -0.12897871170E+03  0.22291761379E+03 -0.40265266709E+02  0.28909178873E+03  0.12500000000E+03 0.  0.
         25    1    1    2    0    0  0.11877383338E+03 -0.36158585512E+03 -0.48493850493E+03  0.62900072153E+03  0.12500000000E+03 0.  0.
         25    1    1    2    0    0  0.10204878316E+02  0.13866824133E+03 -0.22025427630E+03  0.28891169399E+03  0.12500000000E+03 0.  0.
</event>
<event>
 5    0  0.5764392E-005  0.3251230E+03  0.7546771E-02  0.1073315E+00
         21   -1    0    0  502  501  0.00000000000E+00  0.00000000000E+00  0.11003028033E+03  0.11003028033E+03  0.00000000000E+00 0. -1.
         21   -1    0    0  501  502 -0.00000000000E+00 -0.00000000000E+00 -0.96068948836E+03  0.96068948836E+03  0.00000000000E+00 0. -1.
         25    1    1    2    0    0  0.64378376214E+02 -0.16796403345E+03 -0.30546629447E+03  0.37588714917E+03  0.12500000000E+03 0.  0.
         25    1    1    2    0    0 -0.17409327689E+03  0.51274466415E+02 -0.21999571776E+03  0.31138506033E+03  0.12500000000E+03 0.  0.
         25    1    1    2    0    0  0.10971490068E+03  0.11668956703E+03 -0.32519719581E+03  0.38344755919E+03  0.12500000000E+03 0.  0.
</event>
<event>
 5    0  0.5764392E-005  0.3949076E+03  0.7546771E-02  0.1045557E+00
         21   -1    0    0  502  501  0.00000000000E+00  0.00000000000E+00  0.19195482724E+03  0.19195482724E+03  0.00000000000E+00 0.  1.
         21   -1    0    0  501  502 -0.00000000000E+00 -0.00000000000E+00 -0.81244113401E+03  0.81244113401E+03  0.00000000000E+00 0.  1.
         25    1    1    2    0    0 -0.19250635397E+02 -0.27437695257E+02  0.28056340953E+00  0.12941596810E+03  0.12500000000E+03 0.  0.
         25    1    1    2    0    0  0.26327151101E+03  0.37779664760E+02 -0.48922994958E+03  0.57071020242E+03  0.12500000000E+03 0.  0.
         25    1    1    2    0    0 -0.24402087561E+03 -0.10341969503E+02 -0.13153692060E+03  0.30426979072E+03  0.12500000000E+03 0.  0.
</event>
<event>
 5    0  0.5764392E-005  0.3123959E+03  0.7546771E-02  0.1079203E+00
         21   -1    0    0  502  501  0.00000000000E+00  0.00000000000E+00  0.82766673597E+03  0.82766673597E+03  0.00000000000E+00 0.  1.
         21   -1    0    0  501  502 -0.00000000000E+00 -0.00000000000E+00 -0.11791123691E+03  0.11791123691E+03  0.00000000000E+00 0.  1.
         25    1    1    2    0    0  0.13830727460E+03  0.13089216797E+03  0.33674682978E+03  0.40655268935E+03  0.12500000000E+03 0.  0.
         25    1    1    2    0    0 -0.66296895959E+02 -0.10606132191E+03  0.34824067951E+03  0.39056478756E+03  0.12500000000E+03 0.  0.
         25    1    1    2    0    0 -0.72010378642E+02 -0.24830846059E+02  0.24767989773E+02  0.14846049598E+03  0.12500000000E+03 0.  0.
</event>
<event>
 5    0  0.5764392E-005  0.3692385E+03  0.7546771E-02  0.1054985E+00
         21   -1    0    0  502  501  0.00000000000E+00  0.00000000000E+00  0.19464597881E+03  0.19464597881E+03  0.00000000000E+00 0.  1.
         21   -1    0    0  501  502 -0.00000000000E+00 -0.00000000000E+00 -0.70043619169E+03  0.70043619169E+03  0.00000000000E+00 0.  1.
         25    1    1    2    0    0 -0.83651622864E+02 -0.20636820302E+03 -0.39335908528E+03  0.46897952961E+03  0.12500000000E+03 0.  0.
         25    1    1    2    0    0 -0.13258183633E-01 -0.12164626815E+02 -0.99959990437E+02  0.16051472833E+03  0.12500000000E+03 0.  0.
         25    1    1    2    0    0  0.83664881048E+02  0.21853282984E+03 -0.12471137158E+02  0.26558791256E+03  0.12500000000E+03 0.  0.
</event>
<event>
 5    0  0.5764392E-005  0.2261687E+03  0.7546771E-02  0.1129366E+00
         21   -1    0    0  502  501  0.00000000000E+00  0.00000000000E+00  0.53777992309E+03  0.53777992309E+03  0.00000000000E+00 0. -1.
         21   -1    0    0  501  502 -0.00000000000E+00 -0.00000000000E+00 -0.95117459134E+02  0.95117459134E+02  0.00000000000E+00 0. -1.
         25    1    1    2    0    0 -0.40886574032E+00  0.97082773499E+01  0.13384607659E+03  0.18339626506E+03  0.12500000000E+03 0.  0.
         25    1    1    2    0    0 -0.93992507517E+02 -0.51195717720E+02  0.15809888380E+03  0.22820133663E+03  0.12500000000E+03 0.  0.
         25    1    1    2    0    0  0.94401373257E+02  0.41487440370E+02  0.15071750357E+03  0.22129978053E+03  0.12500000000E+03 0.  0.
</event>
<event>
 5    0  0.5764392E-005  0.2611274E+03  0.7546771E-02  0.1106468E+00
         21   -1    0    0  502  501  0.00000000000E+00  0.00000000000E+00  0.74693358297E+03  0.74693358297E+03  0.00000000000E+00 0. -1.
         21   -1    0    0  501  502 -0.00000000000E+00 -0.00000000000E+00 -0.91289920558E+02  0.91289920558E+02  0.00000000000E+00 0. -1.
         25    1    1    2    0    0 -0.51203319758E+02  0.75729097358E+02  0.13781347009E+03  0.20730226405E+03  0.12500000000E+03 0.  0.
         25    1    1    2    0    0 -0.76653966337E+02 -0.82268677175E+02  0.16635361573E+03  0.23652165074E+03  0.12500000000E+03 0.  0.
         25    1    1    2    0    0  0.12785728610E+03  0.65395798176E+01  0.35147657659E+03  0.39439958874E+03  0.12500000000E+03 0.  0.
</event>
<event>
 5    0  0.5764392E-005  0.5543689E+03  0.7546771E-02  0.1000488E+00
         21   -1    0    0  502  501  0.00000000000E+00  0.00000000000E+00  0.58743452973E+03  0.58743452973E+03  0.00000000000E+00 0. -1.
         21   -1    0    0  501  502 -0.00000000000E+00 -0.00000000000E+00 -0.52316453308E+03  0.52316453308E+03  0.00000000000E+00 0. -1.
         25    1    1    2    0    0  0.71199414394E+02 -0.18506647383E+03 -0.14104680888E+03  0.27356563864E+03  0.12500000000E+03 0.  0.
         25    1    1    2    0    0 -0.19891855297E+03  0.15087920587E+03  0.45153077961E+03  0.53088432866E+03  0.12500000000E+03 0.  0.
         25    1    1    2    0    0  0.12771913858E+03  0.34187267966E+02 -0.24621397408E+03  0.30614909551E+03  0.12500000000E+03 0.  0.
</event>
<event>
 5    0  0.5764392E-005  0.3245354E+03  0.7546771E-02  0.1073581E+00
         21   -1    0    0  502  501  0.00000000000E+00  0.00000000000E+00  0.99367924284E+02  0.99367924284E+02  0.00000000000E+00 0.  1.
         21   -1    0    0  501  502 -0.00000000000E+00 -0.00000000000E+00 -0.10599317406E+04  0.10599317406E+04  0.00000000000E+00 0.  1.
         25    1    1    2    0    0  0.79130702079E+02  0.82754165356E+02 -0.47168046091E+03  0.50121589869E+03  0.12500000000E+03 0.  0.
         25    1    1    2    0    0  0.98082116825E+00 -0.18618533500E+03 -0.13806197569E+03  0.26334777408E+03  0.12500000000E+03 0.  0.
         25    1    1    2    0    0 -0.80111523248E+02  0.10343116964E+03 -0.35082137972E+03  0.39473599212E+03  0.12500000000E+03 0.  0.
</event>
<event>
 5    0  0.5764392E-005  0.2813921E+03  0.7546771E-02  0.1094931E+00
         21   -1    0    0  502  501  0.00000000000E+00  0.00000000000E+00  0.14184583653E+04  0.14184583653E+04  0.00000000000E+00 0.  1.
         21   -1    0    0  501  502 -0.00000000000E+00 -0.00000000000E+00 -0.55822241293E+02  0.55822241293E+02  0.00000000000E+00 0.  1.
         25    1    1    2    0    0  0.15769830640E+03 -0.12171165629E+03  0.53838750813E+03  0.58751050376E+03  0.12500000000E+03 0.  0.
         25    1    1    2    0    0 -0.59757743208E+02  0.84214462184E+02  0.45687519994E+03  0.48479172006E+03  0.12500000000E+03 0.  0.
         25    1    1    2    0    0 -0.97940563190E+02  0.37497194105E+02  0.36737341594E+03  0.40197838278E+03  0.12500000000E+03 0.  0.
</event>
<event>
 5    0  0.6639986E-005  0.2894092E+03  0.7546771E-02  0.1090658E+00
         21   -1    0    0  502  501  0.00000000000E+00  0.00000000000E+00  0.23140024318E+03  0.23140024318E+03  0.00000000000E+00 0. -1.
         21   -1    0    0  501  502 -0.00000000000E+00 -0.00000000000E+00 -0.36196024713E+03  0.36196024713E+03  0.00000000000E+00 0. -1.
         25    1    1    2    0    0  0.54803351771E+02  0.85470694759E+02 -0.23116666872E+03  0.28172979209E+03  0.12500000000E+03 0.  0.
         25    1    1    2    0    0  0.32088152850E+02 -0.41062177889E+02  0.33994390008E+02  0.13962940435E+03  0.12500000000E+03 0.  0.
         25    1    1    2    0    0 -0.86891504621E+02 -0.44408516870E+02  0.66612274754E+02  0.17200129387E+03  0.12500000000E+03 0.  0.
</event>
<event>
 5    0  0.5764392E-005  0.3172263E+03  0.7546771E-02  0.1076933E+00
         21   -1    0    0  502  501  0.00000000000E+00  0.00000000000E+00  0.35844233371E+03  0.35844233371E+03  0.00000000000E+00 0.  1.
         21   -1    0    0  501  502 -0.00000000000E+00 -0.00000000000E+00 -0.28074952622E+03  0.28074952622E+03  0.00000000000E+00 0.  1.
         25    1    1    2    0    0 -0.14367348536E+03 -0.10650812850E+03 -0.87433572944E+02  0.23506527074E+03  0.12500000000E+03 0.  0.
         25    1    1    2    0    0  0.11616988192E+03  0.38332890696E+02  0.18860970631E+03  0.25722261427E+03  0.12500000000E+03 0.  0.
         25    1    1    2    0    0  0.27503603437E+02  0.68175237800E+02 -0.23483325886E+02  0.14690397491E+03  0.12500000000E+03 0.  0.
</event>
<event>
 5    0  0.5764392E-005  0.3943962E+03  0.7546771E-02  0.1045738E+00
         21   -1    0    0  502  501  0.00000000000E+00  0.00000000000E+00  0.36912603945E+03  0.36912603945E+03  0.00000000000E+00 0.  1.
         21   -1    0    0  501  502 -0.00000000000E+00 -0.00000000000E+00 -0.42139629495E+03  0.42139629495E+03  0.00000000000E+00 0.  1.
         25    1    1    2    0    0 -0.97813431620E+02 -0.28619319158E+02  0.28457395813E+02  0.16377226936E+03  0.12500000000E+03 0.  0.
         25    1    1    2    0    0  0.32063968296E+03 -0.47366179517E+02 -0.93955319479E+02  0.35986936979E+03  0.12500000000E+03 0.  0.
         25    1    1    2    0    0 -0.22282625134E+03  0.75985498675E+02  0.13227668164E+02  0.26688069526E+03  0.12500000000E+03 0.  0.
</event>
<event>
 5    0  0.5764392E-005  0.4731132E+03  0.7546771E-02  0.1021045E+00
         21   -1    0    0  502  501  0.00000000000E+00  0.00000000000E+00  0.38471726182E+03  0.38471726182E+03  0.00000000000E+00 0.  1.
         21   -1    0    0  501  502 -0.00000000000E+00 -0.00000000000E+00 -0.58181972628E+03  0.58181972628E+03  0.00000000000E+00 0.  1.
         25    1    1    2    0    0  0.12933971957E+02  0.18514070938E+03 -0.18993198049E+03  0.29350217565E+03  0.12500000000E+03 0.  0.
         25    1    1    2    0    0 -0.15762646198E+03 -0.31196190534E+03 -0.15264198023E+03  0.40136131606E+03  0.12500000000E+03 0.  0.
         25    1    1    2    0    0  0.14469249002E+03  0.12682119596E+03  0.14547149626E+03  0.27167349639E+03  0.12500000000E+03 0.  0.
</event>
<event>
 5    0  0.5764392E-005  0.2564013E+03  0.7546771E-02  0.1109325E+00
         21   -1    0    0  502  501  0.00000000000E+00  0.00000000000E+00  0.17372128173E+03  0.17372128173E+03  0.00000000000E+00 0.  1.
         21   -1    0    0  501  502 -0.00000000000E+00 -0.00000000000E+00 -0.37843157144E+03  0.37843157144E+03  0.00000000000E+00 0.  1.
         25    1    1    2    0    0 -0.77011906380E+02 -0.21410221422E+02 -0.19314489150E+03  0.24355529232E+03  0.12500000000E+03 0.  0.
         25    1    1    2    0    0 -0.67114741064E+01 -0.54218383016E+02  0.18113964890E+02  0.13761465280E+03  0.12500000000E+03 0.  0.
         25    1    1    2    0    0  0.83723380487E+02  0.75628604438E+02 -0.29679363098E+02  0.17098290804E+03  0.12500000000E+03 0.  0.
</event>
<event>
 5    0  0.5764392E-005  0.4496227E+03  0.7546771E-02  0.1027835E+00
         21   -1    0    0  502  501  0.00000000000E+00  0.00000000000E+00  0.10808480430E+04  0.10808480430E+04  0.00000000000E+00 0. -1.
         21   -1    0    0  501  502 -0.00000000000E+00 -0.00000000000E+00 -0.18703885067E+03  0.18703885067E+03  0.00000000000E+00 0. -1.
         25    1    1    2    0    0  0.33146243524E+03 -0.49215318936E+02  0.37326094451E+03  0.51695089350E+03  0.12500000000E+03 0.  0.
         25    1    1    2    0    0 -0.18592760270E+03  0.19714930104E+03  0.30396556174E+03  0.42597767908E+03  0.12500000000E+03 0.  0.
         25    1    1    2    0    0 -0.14553483255E+03 -0.14793398211E+03  0.21658268611E+03  0.32495832113E+03  0.12500000000E+03 0.  0.
</event>
<event>
 5    0  0.5764392E-005  0.2990485E+03  0.7546771E-02  0.1085717E+00
         21   -1    0    0  502  501  0.00000000000E+00  0.00000000000E+00  0.64495327450E+02  0.64495327450E+02  0.00000000000E+00 0. -1.
         21   -1    0    0  501  502 -0.00000000000E+00 -0.00000000000E+00 -0.13866119599E+04  0.13866119599E+04  0.00000000000E+00 0. -1.
         25    1    1    2    0    0  0.29294662098E+02 -0.37171775111E+02 -0.62434653889E+02  0.14752289347E+03  0.12500000000E+03 0.  0.
         25    1    1    2    0    0 -0.33124391797E+02  0.36222035839E+02 -0.22999613322E+03  0.26633152744E+03  0.12500000000E+03 0.  0.
         25    1    1    2    0    0  0.38297296990E+01  0.94973927172E+00 -0.10296858453E+04  0.10372528664E+04  0.12500000000E+03 0.  0.
</event>
<event>
 5    0  0.5764392E-005  0.2727719E+03  0.7546771E-02  0.1099704E+00
         21   -1    0    0  502  501  0.00000000000E+00  0.00000000000E+00  0.65838718854E+03  0.65838718854E+03  0.00000000000E+00 0. -1.
         21   -1    0    0  501  502 -0.00000000000E+00 -0.00000000000E+00 -0.11301028036E+03  0.11301028036E+03  0.00000000000E+00 0. -1.
         25    1    1    2    0    0 -0.37633425458E+02 -0.55876159581E+01  0.24156548401E+00  0.13066198574E+03  0.12500000000E+03 0.  0.
         25    1    1    2    0    0 -0.70094511192E+02 -0.39508715809E+02  0.15511537674E+03  0.21484868914E+03  0.12500000000E+03 0.  0.
         25    1    1    2    0    0  0.10772793665E+03  0.45096331767E+02  0.39001996595E+03  0.42588679402E+03  0.12500000000E+03 0.  0.
</event>
<event>
 5    0  0.5764392E-005  0.3194366E+03  0.7546771E-02  0.1075909E+00
         21   -1    0    0  502  501  0.00000000000E+00  0.00000000000E+00  0.54229643775E+03  0.54229643775E+03  0.00000000000E+00 0. -1.
         21   -1    0    0  501  502 -0.00000000000E+00 -0.00000000000E+00 -0.18816224296E+03  0.18816224296E+03  0.00000000000E+00 0. -1.
         25    1    1    2    0    0 -0.86150872843E+02 -0.54706192532E+02  0.49265908705E+02  0.16872127949E+03  0.12500000000E+03 0.  0.
         25    1    1    2    0    0 -0.73098472204E+02 -0.46085295253E+02 -0.32677678626E+02  0.15543510465E+03  0.12500000000E+03 0.  0.
         25    1    1    2    0    0  0.15924934505E+03  0.10079148778E+03  0.33754596471E+03  0.40630229657E+03  0.12500000000E+03 0.  0.
</event>
<event>
 5    0  0.5764392E-005  0.2523695E+03  0.7546771E-02  0.1111816E+00
         21   -1    0    0  502  501  0.00000000000E+00  0.00000000000E+00  0.22170706338E+03  0.22170706338E+03  0.00000000000E+00 0. -1.
         21   -1    0    0  501  502 -0.00000000000E+00 -0.00000000000E+00 -0.28727266691E+03  0.28727266691E+03  0.00000000000E+00 0. -1.
         25    1    1    2    0    0 -0.43568781294E+02  0.32376758755E+02 -0.94448595687E+02  0.16580720864E+03  0.12500000000E+03 0.  0.
         25    1    1    2    0    0  0.49272540977E+02 -0.73314335866E+02  0.11004046926E+03  0.18851175033E+03  0.12500000000E+03 0.  0.
         25    1    1    2    0    0 -0.57037596832E+01  0.40937577111E+02 -0.81157477098E+02  0.15466077131E+03  0.12500000000E+03 0.  0.
</event>
<event>
 5    0  0.5764392E-005  0.2828868E+03  0.7546771E-02  0.1094123E+00
         21   -1    0    0  502  501  0.00000000000E+00  0.00000000000E+00  0.94345493668E+03  0.94345493668E+03  0.00000000000E+00 0. -1.
         21   -1    0    0  501  502 -0.00000000000E+00 -0.00000000000E+00 -0.84821173256E+02  0.84821173256E+02  0.00000000000E+00 0. -1.
         25    1    1    2    0    0  0.55412351743E+02  0.76931903201E+02  0.10547023791E+03  0.18904501459E+03  0.12500000000E+03 0.  0.
         25    1    1    2    0    0 -0.11084840337E+03  0.21002037596E+02  0.55150333169E+03  0.57663626228E+03  0.12500000000E+03 0.  0.
         25    1    1    2    0    0  0.55436051632E+02 -0.97933940797E+02  0.20166019383E+03  0.26259483307E+03  0.12500000000E+03 0.  0.
</event>
<event>
 5    0  0.5764392E-005  0.2999955E+03  0.7546771E-02  0.1085243E+00
         21   -1    0    0  502  501  0.00000000000E+00  0.00000000000E+00  0.15814534681E+03  0.15814534681E+03  0.00000000000E+00 0.  1.
         21   -1    0    0  501  502 -0.00000000000E+00 -0.00000000000E+00 -0.56907950592E+03  0.56907950592E+03  0.00000000000E+00 0.  1.
         25    1    1    2    0    0  0.82303991603E+02  0.21073703513E+02 -0.13725885187E+03  0.20416424866E+03  0.12500000000E+03 0.  0.
         25    1    1    2    0    0 -0.15016200148E+03  0.12805982167E+03 -0.18806487718E+03  0.29990222181E+03  0.12500000000E+03 0.  0.
         25    1    1    2    0    0  0.67858009878E+02 -0.14913352519E+03 -0.85610430060E+02  0.22315838226E+03  0.12500000000E+03 0.  0.
</event>
<event>
 5    0  0.7252055E-005  0.6458567E+03  0.7546771E-02  0.9814585E-01
         21   -1    0    0  502  501  0.00000000000E+00  0.00000000000E+00  0.40031418121E+03  0.40031418121E+03  0.00000000000E+00 0. -1.
         21   -1    0    0  501  502 -0.00000000000E+00 -0.00000000000E+00 -0.10420086579E+04  0.10420086579E+04  0.00000000000E+00 0. -1.
         25    1    1    2    0    0 -0.33597799911E+03  0.15088666119E+02 -0.61096969907E+03  0.70853218481E+03  0.12500000000E+03 0.  0.
         25    1    1    2    0    0  0.22210778066E+03 -0.23535781465E+03 -0.20785694337E+03  0.40441893632E+03  0.12500000000E+03 0.  0.
         25    1    1    2    0    0  0.11387021844E+03  0.22026914853E+03  0.17713216577E+03  0.32937171796E+03  0.12500000000E+03 0.  0.
</event>
<event>
 5    0  0.5764392E-005  0.3356534E+03  0.7546771E-02  0.1068662E+00
         21   -1    0    0  502  501  0.00000000000E+00  0.00000000000E+00  0.19928515241E+03  0.19928515241E+03  0.00000000000E+00 0.  1.
         21   -1    0    0  501  502 -0.00000000000E+00 -0.00000000000E+00 -0.56533678213E+03  0.56533678213E+03  0.00000000000E+00 0.  1.
         25    1    1    2    0    0 -0.95483502343E+02  0.85080362378E+02 -0.22583823000E+03  0.28806886922E+03  0.12500000000E+03 0.  0.
         25    1    1    2    0    0 -0.59683099732E+02 -0.12477136469E+03  0.55438334312E+02  0.19449517925E+03  0.12500000000E+03 0.  0.
         25    1    1    2    0    0  0.15516660208E+03  0.39691002311E+02 -0.19565173403E+03  0.28205788607E+03  0.12500000000E+03 0.  0.
</event>
<event>
 5    0  0.5764392E-005  0.3116605E+03  0.7546771E-02  0.1079553E+00
         21   -1    0    0  502  501  0.00000000000E+00  0.00000000000E+00  0.69413356464E+03  0.69413356464E+03  0.00000000000E+00 0.  1.
         21   -1    0    0  501  502 -0.00000000000E+00 -0.00000000000E+00 -0.13993311287E+03  0.13993311287E+03  0.00000000000E+00 0.  1.
         25    1    1    2    0    0  0.47703424258E+02 -0.15083336768E+03  0.69003304003E+02  0.21310273920E+03  0.12500000000E+03 0.  0.
         25    1    1    2    0    0 -0.47454220255E+02  0.18583468944E+03  0.41356672657E+03  0.47270378901E+03  0.12500000000E+03 0.  0.
         25    1    1    2    0    0 -0.24920400272E+00 -0.35001321758E+02  0.71630421203E+02  0.14826014930E+03  0.12500000000E+03 0.  0.
</event>
<event>
 5    0  0.5764392E-005  0.2475001E+03  0.7546771E-02  0.1114895E+00
         21   -1    0    0  502  501  0.00000000000E+00  0.00000000000E+00  0.88283995274E+02  0.88283995274E+02  0.00000000000E+00 0.  1.
         21   -1    0    0  501  502 -0.00000000000E+00 -0.00000000000E+00 -0.69385503482E+03  0.69385503482E+03  0.00000000000E+00 0.  1.
         25    1    1    2    0    0  0.22208597868E+02  0.63250776619E+02 -0.11515846511E+03  0.18270291363E+03  0.12500000000E+03 0.  0.
         25    1    1    2    0    0  0.67778887037E+02  0.19827344634E+02 -0.11054504438E+03  0.18119687624E+03  0.12500000000E+03 0.  0.
         25    1    1    2    0    0 -0.89987484905E+02 -0.83078121253E+02 -0.37986753006E+03  0.41823924023E+03  0.12500000000E+03 0.  0.
</event>
<event>
 5    0  0.5764392E-005  0.3004238E+03  0.7546771E-02  0.1085029E+00
         21   -1    0    0  502  501  0.00000000000E+00  0.00000000000E+00  0.39857342637E+02  0.39857342637E+02  0.00000000000E+00 0.  1.
         21   -1    0    0  501  502 -0.00000000000E+00 -0.00000000000E+00 -0.22644375804E+04  0.22644375804E+04  0.00000000000E+00 0.  1.
         25    1    1    2    0    0  0.14400757765E+01 -0.28249671913E+02 -0.10124545389E+04  0.10205338363E+04  0.12500000000E+03 0.  0.
         25    1    1    2    0    0  0.11659469814E+03 -0.94805276198E+02 -0.75856449853E+03  0.78334377029E+03  0.12500000000E+03 0.  0.
         25    1    1    2    0    0 -0.11803477392E+03  0.12305494811E+03 -0.45356120036E+03  0.50041731642E+03  0.12500000000E+03 0.  0.
</event>
<event>
 5    0  0.5764392E-005  0.5541561E+03  0.7546771E-02  0.1000537E+00
         21   -1    0    0  502  501  0.00000000000E+00  0.00000000000E+00  0.10106024115E+04  0.10106024115E+04  0.00000000000E+00 0. -1.
         21   -1    0    0  501  502 -0.00000000000E+00 -0.00000000000E+00 -0.30386729858E+03  0.30386729858E+03  0.00000000000E+00 0. -1.
         25    1    1    2    0    0  0.82740087404E+00  0.19742900950E+03  0.15067932850E+03  0.27804344701E+03  0.12500000000E+03 0.  0.
         25    1    1    2    0    0 -0.13718935232E+03 -0.42054271713E+03  0.62279962314E+02  0.46387594142E+03  0.12500000000E+03 0.  0.
         25    1    1    2    0    0  0.13636195145E+03  0.22311370763E+03  0.49377582207E+03  0.57255032162E+03  0.12500000000E+03 0.  0.
</event>
<event>
 5    0  0.5764392E-005  0.2530670E+03  0.7546771E-02  0.1111382E+00
         21   -1    0    0  502  501  0.00000000000E+00  0.00000000000E+00  0.17291761699E+03  0.17291761699E+03  0.00000000000E+00 0. -1.
         21   -1    0    0  501  502 -0.00000000000E+00 -0.00000000000E+00 -0.37036663607E+03  0.37036663607E+03  0.00000000000E+00 0. -1.
         25    1    1    2    0    0  0.87445599208E+01  0.80449870435E+02 -0.86686167841E+02  0.17230246857E+03  0.12500000000E+03 0.  0.
         25    1    1    2    0    0  0.34434086942E+02  0.33990344084E+01  0.56842362571E+02  0.14160972410E+03  0.12500000000E+03 0.  0.
         25    1    1    2    0    0 -0.43178646862E+02 -0.83848904843E+02 -0.16760521380E+03  0.22937206038E+03  0.12500000000E+03 0.  0.
</event>
<event>
 5    0  0.5764392E-005  0.2552858E+03  0.7546771E-02  0.1110009E+00
         21   -1    0    0  502  501  0.00000000000E+00  0.00000000000E+00  0.49461990109E+02  0.49461990109E+02  0.00000000000E+00 0.  1.
         21   -1    0    0  501  502 -0.00000000000E+00 -0.00000000000E+00 -0.13175939818E+04  0.13175939818E+04  0.00000000000E+00 0.  1.
         25    1    1    2    0    0 -0.40854066991E+02  0.97698830877E+02 -0.84995282770E+03  0.86559743857E+03  0.12500000000E+03 0.  0.
         25    1    1    2    0    0  0.30724585587E+02 -0.38447713362E+02 -0.24670146774E+03  0.28090717508E+03  0.12500000000E+03 0.  0.
         25    1    1    2    0    0  0.10129481404E+02 -0.59251117515E+02 -0.17147769624E+03  0.22055135825E+03  0.12500000000E+03 0.  0.
</event>
<event>
 5    0  0.5764392E-005  0.2824764E+03  0.7546771E-02  0.1094344E+00
         21   -1    0    0  502  501  0.00000000000E+00  0.00000000000E+00  0.16809745309E+03  0.16809745309E+03  0.00000000000E+00 0.  1.
         21   -1    0    0  501  502 -0.00000000000E+00 -0.00000000000E+00 -0.47468257613E+03  0.47468257613E+03  0.00000000000E+00 0.  1.
         25    1    1    2    0    0  0.89622784721E+01 -0.96781258100E+02  0.69674306594E+01  0.15849441455E+03  0.12500000000E+03 0.  0.
         25    1    1    2    0    0  0.90918261078E+02  0.36088058306E+02 -0.26063538546E+03  0.30516271447E+03  0.12500000000E+03 0.  0.
         25    1    1    2    0    0 -0.99880539550E+02  0.60693199794E+02 -0.52917168238E+02  0.17912290020E+03  0.12500000000E+03 0.  0.
</event>
<event>
 5    0  0.7221901E-005  0.3553865E+03  0.7546771E-02  0.1060426E+00
         21   -1    0    0  502  501  0.00000000000E+00  0.00000000000E+00  0.45019583826E+03  0.45019583826E+03  0.00000000000E+00 0. -1.
         21   -1    0    0  501  502 -0.00000000000E+00 -0.00000000000E+00 -0.28054367977E+03  0.28054367977E+03  0.00000000000E+00 0. -1.
         25    1    1    2    0    0 -0.47407331860E+02  0.89060951692E+02  0.25426498319E+03  0.30075736052E+03  0.12500000000E+03 0.  0.
         25    1    1    2    0    0  0.17688792648E+03 -0.73021098586E+02  0.42765866218E+01  0.22861476016E+03  0.12500000000E+03 0.  0.
         25    1    1    2    0    0 -0.12948059462E+03 -0.16039853106E+02 -0.88889411320E+02  0.20136739735E+03  0.12500000000E+03 0.  0.
</event>
<event>
 5    0  0.5764392E-005  0.4195631E+03  0.7546771E-02  0.1037209E+00
         21   -1    0    0  502  501  0.00000000000E+00  0.00000000000E+00  0.22538248405E+04  0.22538248405E+04  0.00000000000E+00 0. -1.
         21   -1    0    0  501  502 -0.00000000000E+00 -0.00000000000E+00 -0.78104186634E+02  0.78104186634E+02  0.00000000000E+00 0.  1.
         25    1    1    2    0    0 -0.44969020876E+02  0.70656675492E+01  0.88328349111E+03  0.89324512994E+03  0.12500000000E+03 0.  0.
         25    1    1    2    0    0  0.22227265498E+03  0.20332773010E+03  0.59348309272E+03  0.67719604275E+03  0.12500000000E+03 0.  0.
         25    1    1    2    0    0 -0.17730363410E+03 -0.21039339765E+03  0.69895407004E+03  0.76148785445E+03  0.12500000000E+03 0.  0.
</event>
<event>
 5    0  0.5764392E-005  0.4049025E+03  0.7546771E-02  0.1042095E+00
         21   -1    0    0  502  501  0.00000000000E+00  0.00000000000E+00  0.60839497171E+03  0.60839497171E+03  0.00000000000E+00 0. -1.
         21   -1    0    0  501  502 -0.00000000000E+00 -0.00000000000E+00 -0.26947298973E+03  0.26947298973E+03  0.00000000000E+00 0. -1.
         25    1    1    2    0    0 -0.26957818127E+03 -0.84940246568E+02  0.22292279359E+01  0.30905858791E+03  0.12500000000E+03 0.  0.
         25    1    1    2    0    0  0.27770513518E+03  0.71540994920E+02  0.15880501818E+03  0.35083085648E+03  0.12500000000E+03 0.  0.
         25    1    1    2    0    0 -0.81269539125E+01  0.13399251648E+02  0.17788773586E+03  0.21797851705E+03  0.12500000000E+03 0.  0.
</event>
<event>
 5    0  0.5764392E-005  0.3235042E+03  0.7546771E-02  0.1074048E+00
         21   -1    0    0  502  501  0.00000000000E+00  0.00000000000E+00  0.17354966228E+03  0.17354966228E+03  0.00000000000E+00 0.  1.
         21   -1    0    0  501  502 -0.00000000000E+00 -0.00000000000E+00 -0.60302591732E+03  0.60302591732E+03  0.00000000000E+00 0.  1.
         25    1    1    2    0    0 -0.67768023845E+02 -0.30138430745E+02  0.30295131508E+02  0.14847095695E+03  0.12500000000E+03 0.  0.
         25    1    1    2    0    0  0.72734547037E+02  0.10605515670E+03 -0.40259531190E+02  0.18380380967E+03  0.12500000000E+03 0.  0.
         25    1    1    2    0    0 -0.49665231922E+01 -0.75916725957E+02 -0.41951185536E+03  0.44430081298E+03  0.12500000000E+03 0.  0.
</event>
<event>
 5    0  0.5764392E-005  0.3507283E+03  0.7546771E-02  0.1062317E+00
         21   -1    0    0  502  501  0.00000000000E+00  0.00000000000E+00  0.57519242184E+03  0.57519242184E+03  0.00000000000E+00 0.  1.
         21   -1    0    0  501  502 -0.00000000000E+00 -0.00000000000E+00 -0.21385946201E+03  0.21385946201E+03  0.00000000000E+00 0.  1.
         25    1    1    2    0    0 -0.59050586866E+02 -0.24245175081E+03  0.11958123283E+03  0.30363546322E+03  0.12500000000E+03 0.  0.
         25    1    1    2    0    0 -0.79270947599E+02  0.13576653748E+03  0.15522338768E+03  0.25384195066E+03  0.12500000000E+03 0.  0.
         25    1    1    2    0    0  0.13832153446E+03  0.10668521333E+03  0.86528339317E+02  0.23157446998E+03  0.12500000000E+03 0.  0.
</event>
<event>
 5    0  0.5764392E-005  0.2544761E+03  0.7546771E-02  0.1110508E+00
         21   -1    0    0  502  501  0.00000000000E+00  0.00000000000E+00  0.13955830974E+04  0.13955830974E+04  0.00000000000E+00 0. -1.
         21   -1    0    0  501  502 -0.00000000000E+00 -0.00000000000E+00 -0.46402181348E+02  0.46402181348E+02  0.00000000000E+00 0. -1.
         25    1    1    2    0    0  0.68476313425E+02  0.87771233392E+02  0.37858353605E+03  0.41393633409E+03  0.12500000000E+03 0.  0.
         25    1    1    2    0    0 -0.13634978489E+03 -0.49831843051E+02  0.53799342019E+03  0.57108352856E+03  0.12500000000E+03 0.  0.
         25    1    1    2    0    0  0.67873471467E+02 -0.37939390341E+02  0.43260395983E+03  0.45696541612E+03  0.12500000000E+03 0.  0.
</event>
<event>
 5    0  0.5764392E-005  0.3617366E+03  0.7546771E-02  0.1057898E+00
         21   -1    0    0  502  501  0.00000000000E+00  0.00000000000E+00  0.96087670058E+03  0.96087670058E+03  0.00000000000E+00 0. -1.
         21   -1    0    0  501  502 -0.00000000000E+00 -0.00000000000E+00 -0.13618120251E+03  0.13618120251E+03  0.00000000000E+00 0. -1.
         25    1    1    2    0    0  0.27639198311E+03 -0.59087542757E+02  0.51481246472E+03  0.60045044748E+03  0.12500000000E+03 0.  0.
         25    1    1    2    0    0 -0.11787738225E+03  0.66144981038E+02  0.12293556773E+03  0.22137838552E+03  0.12500000000E+03 0.  0.
         25    1    1    2    0    0 -0.15851460087E+03 -0.70574382806E+01  0.18694746562E+03  0.27522907009E+03  0.12500000000E+03 0.  0.
</event>
<event>
 5    0  0.5764392E-005  0.3052498E+03  0.7546771E-02  0.1082645E+00
         21   -1    0    0  502  501  0.00000000000E+00  0.00000000000E+00  0.27843452738E+03  0.27843452738E+03  0.00000000000E+00 0. -1.
         21   -1    0    0  501  502 -0.00000000000E+00 -0.00000000000E+00 -0.33464758244E+03  0.33464758244E+03  0.00000000000E+00 0. -1.
         25    1    1    2    0    0 -0.14746249334E+03  0.31459456824E+01 -0.67266029240E+02  0.20470662570E+03  0.12500000000E+03 0.  0.
         25    1    1    2    0    0 -0.20735292339E+02  0.61573623372E+02  0.98883104713E+02  0.17211662279E+03  0.12500000000E+03 0.  0.
         25    1    1    2    0    0  0.16819778568E+03 -0.64719569055E+02 -0.87830130533E+02  0.23625886133E+03  0.12500000000E+03 0.  0.
</event>
<event>
 5    0  0.5764392E-005  0.2985709E+03  0.7546771E-02  0.1085957E+00
         21   -1    0    0  502  501  0.00000000000E+00  0.00000000000E+00  0.88493016984E+03  0.88493016984E+03  0.00000000000E+00 0.  1.
         21   -1    0    0  501  502 -0.00000000000E+00 -0.00000000000E+00 -0.10073628181E+03  0.10073628181E+03  0.00000000000E+00 0.  1.
         25    1    1    2    0    0  0.64859171792E+02  0.14178789409E+03  0.40730717728E+03  0.45369004368E+03  0.12500000000E+03 0.  0.
         25    1    1    2    0    0 -0.85592867421E+02 -0.72382770678E+02  0.34549818372E+03  0.38413461104E+03  0.12500000000E+03 0.  0.
         25    1    1    2    0    0  0.20733695629E+02 -0.69405123411E+02  0.31388527023E+02  0.14784179693E+03  0.12500000000E+03 0.  0.
</event>
<event>
 5    0  0.5764392E-005  0.2480677E+03  0.7546771E-02  0.1114532E+00
         21   -1    0    0  502  501  0.00000000000E+00  0.00000000000E+00  0.47760852636E+03  0.47760852636E+03  0.00000000000E+00 0. -1.
         21   -1    0    0  501  502 -0.00000000000E+00 -0.00000000000E+00 -0.12884523701E+03  0.12884523701E+03  0.00000000000E+00 0. -1.
         25    1    1    2    0    0  0.81052606294E+02 -0.34761788486E+02  0.23901832640E+03  0.28378278186E+03  0.12500000000E+03 0.  0.
         25    1    1    2    0    0 -0.29833403172E+01  0.53355587426E+01  0.11820503493E+03  0.17214760756E+03  0.12500000000E+03 0.  0.
         25    1    1    2    0    0 -0.78069265977E+02  0.29426229744E+02 -0.84600719753E+01  0.15052337395E+03  0.12500000000E+03 0.  0.
</event>
<event>
 5    0  0.5764392E-005  0.2429743E+03  0.7546771E-02  0.1117827E+00
         21   -1    0    0  502  501  0.00000000000E+00  0.00000000000E+00  0.23986317584E+02  0.23986317584E+02  0.00000000000E+00 0. -1.
         21   -1    0    0  501  502 -0.00000000000E+00 -0.00000000000E+00 -0.24612569002E+04  0.24612569002E+04  0.00000000000E+00 0. -1.
         25    1    1    2    0    0  0.23802824518E+02 -0.22924847968E+02 -0.92045493543E+03  0.92949147994E+03  0.12500000000E+03 0.  0.
         25    1    1    2    0    0 -0.33162763254E+02 -0.10128832938E+03 -0.86561527195E+03  0.88106406894E+03  0.12500000000E+03 0.  0.
         25    1    1    2    0    0  0.93599387360E+01  0.12421317735E+03 -0.65120037524E+03  0.67468766893E+03  0.12500000000E+03 0.  0.
</event>
<event>
 5    0  0.5764392E-005  0.3195382E+03  0.7546771E-02  0.1075862E+00
         21   -1    0    0  502  501  0.00000000000E+00  0.00000000000E+00  0.30661873617E+04  0.30661873617E+04  0.00000000000E+00 0.  1.
         21   -1    0    0  501  502 -0.00000000000E+00 -0.00000000000E+00 -0.33300206813E+02  0.33300206813E+02  0.00000000000E+00 0.  1.
         25    1    1    2    0    0 -0.31534884615E+02 -0.43853267362E+02  0.76011283843E+03  0.77221375613E+03  0.12500000000E+03 0.  0.
         25    1    1    2    0    0  0.22247591696E+03  0.83351123032E+02  0.12782966025E+04  0.13061815139E+04  0.12500000000E+03 0.  0.
         25    1    1    2    0    0 -0.19094103235E+03 -0.39497855670E+02  0.99447771401E+03  0.10210922985E+04  0.12500000000E+03 0.  0.
</event>
<event>
 5    0  0.5764392E-005  0.3364533E+03  0.7546771E-02  0.1068317E+00
         21   -1    0    0  502  501  0.00000000000E+00  0.00000000000E+00  0.24621104385E+03  0.24621104385E+03  0.00000000000E+00 0.  1.
         21   -1    0    0  501  502 -0.00000000000E+00 -0.00000000000E+00 -0.45977159017E+03  0.45977159017E+03  0.00000000000E+00 0.  1.
         25    1    1    2    0    0  0.70103191798E+02  0.73630568116E+02 -0.23731855242E+03  0.28684667225E+03  0.12500000000E+03 0.  0.
         25    1    1    2    0    0 -0.14636402401E+03  0.59685250742E+02  0.74272097733E+02  0.21476987959E+03  0.12500000000E+03 0.  0.
         25    1    1    2    0    0  0.76260832207E+02 -0.13331581886E+03 -0.50514091638E+02  0.20436608217E+03  0.12500000000E+03 0.  0.
</event>
<event>
 5    0  0.5764392E-005  0.4244448E+03  0.7546771E-02  0.1035629E+00
         21   -1    0    0  502  501  0.00000000000E+00  0.00000000000E+00  0.45929213525E+03  0.45929213525E+03  0.00000000000E+00 0.  1.
         21   -1    0    0  501  502 -0.00000000000E+00 -0.00000000000E+00 -0.39224136345E+03  0.39224136345E+03  0.00000000000E+00 0.  1.
         25    1    1    2    0    0  0.62938302624E+02 -0.21004666144E+02 -0.24617624852E+03  0.28395452325E+03  0.12500000000E+03 0.  0.
         25    1    1    2    0    0 -0.47280280844E+02 -0.50417534696E+02 -0.69152396611E+02  0.15869595684E+03  0.12500000000E+03 0.  0.
         25    1    1    2    0    0 -0.15658021780E+02  0.71422200840E+02  0.38237941693E+03  0.40888301861E+03  0.12500000000E+03 0.  0.
</event>
<event>
 5    0  0.5764392E-005  0.2734949E+03  0.7546771E-02  0.1099296E+00
         21   -1    0    0  502  501  0.00000000000E+00  0.00000000000E+00  0.39860523754E+03  0.39860523754E+03  0.00000000000E+00 0. -1.
         21   -1    0    0  501  502 -0.00000000000E+00 -0.00000000000E+00 -0.18765299485E+03  0.18765299485E+03  0.00000000000E+00 0. -1.
         25    1    1    2    0    0 -0.49943056363E+02 -0.30901484628E+02  0.59807712446E+02  0.15050306674E+03  0.12500000000E+03 0.  0.
         25    1    1    2    0    0  0.17094300388E+03 -0.23574220298E+02  0.13609947280E+03  0.25283457227E+03  0.12500000000E+03 0.  0.
         25    1    1    2    0    0 -0.12099994752E+03  0.54475704927E+02  0.15045057439E+02  0.18292059337E+03  0.12500000000E+03 0.  0.
</event>
<event>
 5    0  0.5764392E-005  0.3826463E+03  0.7546771E-02  0.1049960E+00
         21   -1    0    0  502  501  0.00000000000E+00  0.00000000000E+00  0.19721585288E+04  0.19721585288E+04  0.00000000000E+00 0.  1.
         21   -1    0    0  501  502 -0.00000000000E+00 -0.00000000000E+00 -0.74242594638E+02  0.74242594638E+02  0.00000000000E+00 0.  1.
         25    1    1    2    0    0 -0.10523373417E+01  0.60213746885E+02  0.94635475825E+02  0.16795140968E+03  0.12500000000E+03 0.  0.
         25    1    1    2    0    0  0.10016622082E+03 -0.10738077198E+03  0.16179827602E+04  0.16294345996E+04  0.12500000000E+03 0.  0.
         25    1    1    2    0    0 -0.99113883479E+02  0.47167025099E+02  0.18529769811E+03  0.24901511416E+03  0.12500000000E+03 0.  0.
</event>
<event>
 5    0  0.5764392E-005  0.3001683E+03  0.7546771E-02  0.1085157E+00
         21   -1    0    0  502  501  0.00000000000E+00  0.00000000000E+00  0.19160348026E+03  0.19160348026E+03  0.00000000000E+00 0.  1.
         21   -1    0    0  501  502 -0.00000000000E+00 -0.00000000000E+00 -0.47024730211E+03  0.47024730211E+03  0.00000000000E+00 0.  1.
         25    1    1    2    0    0  0.16541274368E+03 -0.56784913607E+02 -0.22930980147E+03  0.31431494911E+03  0.12500000000E+03 0.  0.
         25    1    1    2    0    0 -0.12033069333E+02  0.69579807321E+02 -0.40020529466E+02  0.14903954886E+03  0.12500000000E+03 0.  0.
         25    1    1    2    0    0 -0.15337967435E+03 -0.12794893713E+02 -0.93134909140E+01  0.19849628440E+03  0.12500000000E+03 0.  0.
</event>
<event>
 5    0  0.5764392E-005  0.3653752E+03  0.7546771E-02  0.1056476E+00
         21   -1    0    0  502  501  0.00000000000E+00  0.00000000000E+00  0.17965372683E+03  0.17965372683E+03  0.00000000000E+00 0.  1.
         21   -1    0    0  501  502 -0.00000000000E+00 -0.00000000000E+00 -0.74309072969E+03  0.74309072969E+03  0.00000000000E+00 0.  1.
         25    1    1    2    0    0 -0.21382927559E+03  0.31470282139E+02 -0.27332376722E+03  0.37019483989E+03  0.12500000000E+03 0.  0.
         25    1    1    2    0    0  0.28113652083E+03 -0.83764370335E+02 -0.19154889767E+03  0.37198144212E+03  0.12500000000E+03 0.  0.
         25    1    1    2    0    0 -0.67307245243E+02  0.52294088196E+02 -0.98564337972E+02  0.18056817450E+03  0.12500000000E+03 0.  0.
</event>
<event>
 5    0  0.5764392E-005  0.4880242E+03  0.7546771E-02  0.1016953E+00
         21   -1    0    0  502  501  0.00000000000E+00  0.00000000000E+00  0.44503322197E+03  0.44503322197E+03  0.00000000000E+00 0.  1.
         21   -1    0    0  501  502 -0.00000000000E+00 -0.00000000000E+00 -0.53516823287E+03  0.53516823287E+03  0.00000000000E+00 0.  1.
         25    1    1    2    0    0 -0.22006021871E+02  0.19672738883E+03 -0.55838409039E+02  0.24068414663E+03  0.12500000000E+03 0.  0.
         25    1    1    2    0    0 -0.10679789396E+03 -0.41942566950E+03 -0.48747763529E+02  0.45312804685E+03  0.12500000000E+03 0.  0.
         25    1    1    2    0    0  0.12880391583E+03  0.22269828067E+03  0.14451161659E+02  0.28638926136E+03  0.12500000000E+03 0.  0.
</event>
<event>
 5    0  0.5764392E-005  0.3340063E+03  0.7546771E-02  0.1069378E+00
         21   -1    0    0  502  501  0.00000000000E+00  0.00000000000E+00  0.11248988181E+03  0.11248988181E+03  0.00000000000E+00 0. -1.
         21   -1    0    0  501  502 -0.00000000000E+00 -0.00000000000E+00 -0.99173567373E+03  0.99173567373E+03  0.00000000000E+00 0. -1.
         25    1    1    2    0    0  0.64959870599E+01  0.66600545967E+02 -0.34728225565E+03  0.37511037797E+03  0.12500000000E+03 0.  0.
         25    1    1    2    0    0  0.12322313552E+03  0.71362616130E+02 -0.49313894334E+02  0.19578923434E+03  0.12500000000E+03 0.  0.
         25    1    1    2    0    0 -0.12971912258E+03 -0.13796316210E+03 -0.48264964194E+03  0.53332594323E+03  0.12500000000E+03 0.  0.
</event>
<event>
 5    0  0.5764392E-005  0.3512063E+03  0.7546771E-02  0.1062121E+00
         21   -1    0    0  502  501  0.00000000000E+00  0.00000000000E+00  0.68507134555E+02  0.68507134555E+02  0.00000000000E+00 0.  1.
         21   -1    0    0  501  502 -0.00000000000E+00 -0.00000000000E+00 -0.18004824120E+04  0.18004824120E+04  0.00000000000E+00 0.  1.
         25    1    1    2    0    0 -0.48543713038E+02 -0.41438365212E+02 -0.45322785174E+03  0.47446192237E+03  0.12500000000E+03 0.  0.
         25    1    1    2    0    0  0.18501815897E+03 -0.16473029012E+03 -0.69612757599E+03  0.74939067894E+03  0.12500000000E+03 0.  0.
         25    1    1    2    0    0 -0.13647444594E+03  0.20616865533E+03 -0.58261984975E+03  0.64513694527E+03  0.12500000000E+03 0.  0.
</event>
<event>
 5    0  0.5764392E-005  0.3825202E+03  0.7546771E-02  0.1050006E+00
         21   -1    0    0  502  501  0.00000000000E+00  0.00000000000E+00  0.13082207445E+03  0.13082207445E+03  0.00000000000E+00 0.  1.
         21   -1    0    0  501  502 -0.00000000000E+00 -0.00000000000E+00 -0.11184786228E+04  0.11184786228E+04  0.00000000000E+00 0. -1.
         25    1    1    2    0    0 -0.89824755961E+02  0.10747002982E+03 -0.91679574862E+02  0.20892208725E+03  0.12500000000E+03 0.  0.
         25    1    1    2    0    0 -0.50337927985E+02  0.15053491269E+03 -0.43607135227E+03  0.48060159301E+03  0.12500000000E+03 0.  0.
         25    1    1    2    0    0  0.14016268395E+03 -0.25800494251E+03 -0.45990562121E+03  0.55977701699E+03  0.12500000000E+03 0.  0.
</event>
<event>
 5    0  0.5764392E-005  0.2784113E+03  0.7546771E-02  0.1096560E+00
         21   -1    0    0  502  501  0.00000000000E+00  0.00000000000E+00  0.14830956302E+03  0.14830956302E+03  0.00000000000E+00 0.  1.
         21   -1    0    0  501  502 -0.00000000000E+00 -0.00000000000E+00 -0.52264249015E+03  0.52264249015E+03  0.00000000000E+00 0.  1.
         25    1    1    2    0    0  0.50162657094E+02  0.46145451819E+02 -0.15559054621E+03  0.21090071825E+03  0.12500000000E+03 0.  0.
         25    1    1    2    0    0  0.97763065773E+02  0.61830909710E+02 -0.39253223969E+02  0.17477555326E+03  0.12500000000E+03 0.  0.
         25    1    1    2    0    0 -0.14792572287E+03 -0.10797636153E+03 -0.17948915696E+03  0.28527578166E+03  0.12500000000E+03 0.  0.
</event>
<event>
 5    0  0.5764392E-005  0.5746348E+03  0.7546771E-02  0.9959475E-01
         21   -1    0    0  502  501  0.00000000000E+00  0.00000000000E+00  0.18838682855E+04  0.18838682855E+04  0.00000000000E+00 0. -1.
         21   -1    0    0  501  502 -0.00000000000E+00 -0.00000000000E+00 -0.17528035920E+03  0.17528035920E+03  0.00000000000E+00 0. -1.
         25    1    1    2    0    0 -0.74548047014E+02 -0.39801843745E+03  0.14214288999E+04  0.14832603296E+04  0.12500000000E+03 0.  0.
         25    1    1    2    0    0  0.10805751468E+03  0.17273941055E+03  0.12697654203E+03  0.27067207589E+03  0.12500000000E+03 0.  0.
         25    1    1    2    0    0 -0.33509467669E+02  0.22527902690E+03  0.16018248435E+03  0.30521623920E+03  0.12500000000E+03 0.  0.
</event>
<event>
 5    0  0.6377562E-005  0.3063791E+03  0.7546771E-02  0.1082095E+00
         21   -1    0    0  502  501  0.00000000000E+00  0.00000000000E+00  0.18050908641E+03  0.18050908641E+03  0.00000000000E+00 0. -1.
         21   -1    0    0  501  502 -0.00000000000E+00 -0.00000000000E+00 -0.52001910322E+03  0.52001910322E+03  0.00000000000E+00 0. -1.
         25    1    1    2    0    0 -0.42200384957E+02 -0.93469109786E+02 -0.42752549179E+02  0.16724272013E+03  0.12500000000E+03 0.  0.
         25    1    1    2    0    0  0.17514915849E+03  0.36849377292E+01 -0.23953387945E+03  0.32201286603E+03  0.12500000000E+03 0.  0.
         25    1    1    2    0    0 -0.13294877353E+03  0.89784172057E+02 -0.57223588177E+02  0.21127260348E+03  0.12500000000E+03 0.  0.
</event>
<event>
 5    0  0.5764392E-005  0.4257384E+03  0.7546771E-02  0.1035215E+00
         21   -1    0    0  502  501  0.00000000000E+00  0.00000000000E+00  0.26459109104E+04  0.26459109104E+04  0.00000000000E+00 0.  1.
         21   -1    0    0  501  502 -0.00000000000E+00 -0.00000000000E+00 -0.68503143023E+02  0.68503143023E+02  0.00000000000E+00 0.  1.
         25    1    1    2    0    0  0.95842123128E+01 -0.31795690319E+03  0.99966099365E+03  0.10564731665E+04  0.12500000000E+03 0.  0.
         25    1    1    2    0    0  0.14461274523E+02  0.11808965328E+03  0.11977352744E+04  0.12101029221E+04  0.12500000000E+03 0.  0.
         25    1    1    2    0    0 -0.24045486835E+02  0.19986724991E+03  0.38001149934E+03  0.44783796473E+03  0.12500000000E+03 0.  0.
</event>
<event>
 5    0  0.5764392E-005  0.4657542E+03  0.7546771E-02  0.1023125E+00
         21   -1    0    0  502  501  0.00000000000E+00  0.00000000000E+00  0.74789217037E+03  0.74789217037E+03  0.00000000000E+00 0.  1.
         21   -1    0    0  501  502 -0.00000000000E+00 -0.00000000000E+00 -0.29005110527E+03  0.29005110527E+03  0.00000000000E+00 0.  1.
         25    1    1    2    0    0 -0.12847590599E+02 -0.67258415549E+02 -0.10889093633E+02  0.14294169233E+03  0.12500000000E+03 0.  0.
         25    1    1    2    0    0 -0.12579663900E+03 -0.92939548756E+02  0.58833936659E+03  0.62147466914E+03  0.12500000000E+03 0.  0.
         25    1    1    2    0    0  0.13864422960E+03  0.16019796431E+03 -0.11960920786E+03  0.27352691417E+03  0.12500000000E+03 0.  0.
</event>
<event>
 5    0  0.5764392E-005  0.3475604E+03  0.7546771E-02  0.1063621E+00
         21   -1    0    0  502  501  0.00000000000E+00  0.00000000000E+00  0.68097730659E+03  0.68097730659E+03  0.00000000000E+00 0. -1.
         21   -1    0    0  501  502 -0.00000000000E+00 -0.00000000000E+00 -0.17738948017E+03  0.17738948017E+03  0.00000000000E+00 0. -1.
         25    1    1    2    0    0 -0.20671786313E+03 -0.32340600548E+01  0.22582166771E+03  0.33070101253E+03  0.12500000000E+03 0.  0.
         25    1    1    2    0    0  0.18246227403E+01 -0.10687712016E+03  0.33293306422E+02  0.16780790302E+03  0.12500000000E+03 0.  0.
         25    1    1    2    0    0  0.20489324039E+03  0.11011118022E+03  0.24447285229E+03  0.35985787121E+03  0.12500000000E+03 0.  0.
</event>
<event>
 5    0  0.5764392E-005  0.2744113E+03  0.7546771E-02  0.1098781E+00
         21   -1    0    0  502  501  0.00000000000E+00  0.00000000000E+00  0.99772317467E+02  0.99772317467E+02  0.00000000000E+00 0. -1.
         21   -1    0    0  501  502 -0.00000000000E+00 -0.00000000000E+00 -0.75473378966E+03  0.75473378966E+03  0.00000000000E+00 0. -1.
         25    1    1    2    0    0 -0.45155602680E+02 -0.63724654526E+02 -0.89779447522E+02  0.17258391943E+03  0.12500000000E+03 0.  0.
         25    1    1    2    0    0 -0.11402817706E+03  0.58082884339E+02 -0.25425137345E+03  0.31087747992E+03  0.12500000000E+03 0.  0.
         25    1    1    2    0    0  0.15918377975E+03  0.56417701877E+01 -0.31093065122E+03  0.37104470779E+03  0.12500000000E+03 0.  0.
</event>
<event>
 5    0  0.5764392E-005  0.3510438E+03  0.7546771E-02  0.1062187E+00
         21   -1    0    0  502  501  0.00000000000E+00  0.00000000000E+00  0.12537775342E+04  0.12537775342E+04  0.00000000000E+00 0.  1.
         21   -1    0    0  501  502 -0.00000000000E+00 -0.00000000000E+00 -0.98288374399E+02  0.98288374399E+02  0.00000000000E+00 0.  1.
         25    1    1    2    0    0 -0.93201685321E+02 -0.24157067159E+02  0.19100908382E+03  0.24774904266E+03  0.12500000000E+03 0.  0.
         25    1    1    2    0    0 -0.46589650906E+02 -0.20137846655E+03  0.49397887180E+03  0.54987635714E+03  0.12500000000E+03 0.  0.
         25    1    1    2    0    0  0.13979133623E+03  0.22553553371E+03  0.47050120420E+03  0.55444050880E+03  0.12500000000E+03 0.  0.
</event>
<event>
 5    0  0.5764392E-005  0.2897028E+03  0.7546771E-02  0.1090504E+00
         21   -1    0    0  502  501  0.00000000000E+00  0.00000000000E+00  0.95870697271E+02  0.95870697271E+02  0.00000000000E+00 0. -1.
         21   -1    0    0  501  502 -0.00000000000E+00 -0.00000000000E+00 -0.87542584408E+03  0.87542584408E+03  0.00000000000E+00 0. -1.
         25    1    1    2    0    0 -0.93541562343E+02 -0.73442907785E+02 -0.32662893108E+03  0.36939862372E+03  0.12500000000E+03 0.  0.
         25    1    1    2    0    0  0.12803288663E+03 -0.58364954671E+02 -0.12660067264E+03  0.22682949170E+03  0.12500000000E+03 0.  0.
         25    1    1    2    0    0 -0.34491324286E+02  0.13180786246E+03 -0.32632554308E+03  0.37506842592E+03  0.12500000000E+03 0.  0.
</event>
<event>
 5    0  0.5764392E-005  0.2418774E+03  0.7546771E-02  0.1118548E+00
         21   -1    0    0  502  501  0.00000000000E+00  0.00000000000E+00  0.38054765805E+02  0.38054765805E+02  0.00000000000E+00 0. -1.
         21   -1    0    0  501  502 -0.00000000000E+00 -0.00000000000E+00 -0.15373816544E+04  0.15373816544E+04  0.00000000000E+00 0. -1.
         25    1    1    2    0    0 -0.83505974804E+02  0.25904208757E+02 -0.32756750598E+03  0.36134436045E+03  0.12500000000E+03 0.  0.
         25    1    1    2    0    0  0.10552153668E+02  0.65548657572E+02 -0.63950432483E+03  0.65497996606E+03  0.12500000000E+03 0.  0.
         25    1    1    2    0    0  0.72953821136E+02 -0.91452866329E+02 -0.53225505780E+03  0.55911209370E+03  0.12500000000E+03 0.  0.
</event>
<event>
 5    0  0.5764392E-005  0.3481388E+03  0.7546771E-02  0.1063382E+00
         21   -1    0    0  502  501  0.00000000000E+00  0.00000000000E+00  0.71047457792E+02  0.71047457792E+02  0.00000000000E+00 0.  1.
         21   -1    0    0  501  502 -0.00000000000E+00 -0.00000000000E+00 -0.17059106014E+04  0.17059106014E+04  0.00000000000E+00 0.  1.
         25    1    1    2    0    0 -0.25393157369E+03  0.45616833715E+01 -0.10559889652E+04  0.10932702080E+04  0.12500000000E+03 0.  0.
         25    1    1    2    0    0  0.96962706284E+02  0.27503632093E+02 -0.25588099868E+03  0.30208989006E+03  0.12500000000E+03 0.  0.
         25    1    1    2    0    0  0.15696886741E+03 -0.32065315464E+02 -0.32299317969E+03  0.38159796110E+03  0.12500000000E+03 0.  0.
</event>
<event>
 5    0  0.5764392E-005  0.3031914E+03  0.7546771E-02  0.1083656E+00
         21   -1    0    0  502  501  0.00000000000E+00  0.00000000000E+00  0.88724902889E+03  0.88724902889E+03  0.00000000000E+00 0.  1.
         21   -1    0    0  501  502 -0.00000000000E+00 -0.00000000000E+00 -0.10360677710E+03  0.10360677710E+03  0.00000000000E+00 0.  1.
         25    1    1    2    0    0 -0.16982315849E+03  0.56922071860E+02  0.31129349788E+03  0.38027446568E+03  0.12500000000E+03 0.  0.
         25    1    1    2    0    0  0.13972748091E+03  0.75395848726E+02  0.25962825810E+03  0.32899868591E+03  0.12500000000E+03 0.  0.
         25    1    1    2    0    0  0.30095677586E+02 -0.13231792059E+03  0.21272049582E+03  0.28158265440E+03  0.12500000000E+03 0.  0.
</event>
<event>
 5    0  0.5764392E-005  0.2936924E+03  0.7546771E-02  0.1088437E+00
         21   -1    0    0  502  501  0.00000000000E+00  0.00000000000E+00  0.29995331508E+03  0.29995331508E+03  0.00000000000E+00 0. -1.
         21   -1    0    0  501  502 -0.00000000000E+00 -0.00000000000E+00 -0.28756214245E+03  0.28756214245E+03  0.00000000000E+00 0. -1.
         25    1    1    2    0    0 -0.89522700445E+02 -0.37462900054E+02 -0.33383109061E+02  0.16173192247E+03  0.12500000000E+03 0.  0.
         25    1    1    2    0    0  0.38152205040E+02  0.87441506719E+02 -0.12605529949E+03  0.20153547176E+03  0.12500000000E+03 0.  0.
         25    1    1    2    0    0  0.51370495405E+02 -0.49978606666E+02  0.17182958118E+03  0.22424806330E+03  0.12500000000E+03 0.  0.
</event>
<event>
 5    0  0.5764392E-005  0.2540602E+03  0.7546771E-02  0.1110765E+00
         21   -1    0    0  502  501  0.00000000000E+00  0.00000000000E+00  0.11123059144E+03  0.11123059144E+03  0.00000000000E+00 0. -1.
         21   -1    0    0  501  502 -0.00000000000E+00 -0.00000000000E+00 -0.58029508216E+03  0.58029508216E+03  0.00000000000E+00 0. -1.
         25    1    1    2    0    0 -0.58223208405E+01 -0.13466562754E+03 -0.12327940629E+03  0.22134033224E+03  0.12500000000E+03 0.  0.
         25    1    1    2    0    0  0.43970450649E+02  0.17503089261E+02 -0.20710675267E+03  0.24649130952E+03  0.12500000000E+03 0.  0.
         25    1    1    2    0    0 -0.38148129808E+02  0.11716253828E+03 -0.13867833176E+03  0.22369403184E+03  0.12500000000E+03 0.  0.
</event>
<event>
 5    0  0.6515302E-005  0.3476499E+03  0.7546771E-02  0.1063584E+00
         21   -1    0    0  502  501  0.00000000000E+00  0.00000000000E+00  0.40576102441E+03  0.40576102441E+03  0.00000000000E+00 0. -1.
         21   -1    0    0  501  502 -0.00000000000E+00 -0.00000000000E+00 -0.29786122434E+03  0.29786122434E+03  0.00000000000E+00 0. -1.
         25    1    1    2    0    0  0.50851665540E+02 -0.10574216278E+03 -0.87474444980E+02  0.19246837507E+03  0.12500000000E+03 0.  0.
         25    1    1    2    0    0  0.96276351359E+02  0.20137188271E+03  0.12318969694E+03  0.28393744453E+03  0.12500000000E+03 0.  0.
         25    1    1    2    0    0 -0.14712801690E+03 -0.95629719934E+02  0.72184548108E+02  0.22721642915E+03  0.12500000000E+03 0.  0.
</event>
<event>
 5    0  0.5764392E-005  0.2566094E+03  0.7546771E-02  0.1109198E+00
         21   -1    0    0  502  501  0.00000000000E+00  0.00000000000E+00  0.48267958580E+02  0.48267958580E+02  0.00000000000E+00 0.  1.
         21   -1    0    0  501  502 -0.00000000000E+00 -0.00000000000E+00 -0.13642259655E+04  0.13642259655E+04  0.00000000000E+00 0.  1.
         25    1    1    2    0    0 -0.11730896058E+03 -0.66500335771E+02 -0.33240236815E+03  0.37986842623E+03  0.12500000000E+03 0.  0.
         25    1    1    2    0    0  0.10368161075E+01  0.29365471514E+02 -0.55838167246E+03  0.57295593028E+03  0.12500000000E+03 0.  0.
         25    1    1    2    0    0  0.11627214448E+03  0.37134864257E+02 -0.42517396628E+03  0.45966956754E+03  0.12500000000E+03 0.  0.
</event>
<event>
 5    0  0.5764392E-005  0.3227083E+03  0.7546771E-02  0.1074410E+00
         21   -1    0    0  502  501  0.00000000000E+00  0.00000000000E+00  0.75636304506E+02  0.75636304506E+02  0.00000000000E+00 0. -1.
         21   -1    0    0  501  502 -0.00000000000E+00 -0.00000000000E+00 -0.13768607121E+04  0.13768607121E+04  0.00000000000E+00 0. -1.
         25    1    1    2    0    0  0.13632116422E+03 -0.52995848010E+02 -0.36380227279E+03  0.41154478907E+03  0.12500000000E+03 0.  0.
         25    1    1    2    0    0  0.24375884894E+02 -0.11582541764E+03 -0.24239579164E+03  0.29730528239E+03  0.12500000000E+03 0.  0.
         25    1    1    2    0    0 -0.16069704911E+03  0.16882126565E+03 -0.69502634317E+03  0.74364694515E+03  0.12500000000E+03 0.  0.
</event>
<event>
 5    0  0.6093487E-005  0.3314954E+03  0.7546771E-02  0.1070477E+00
         21   -1    0    0  502  501  0.00000000000E+00  0.00000000000E+00  0.14159966443E+03  0.14159966443E+03  0.00000000000E+00 0.  1.
         21   -1    0    0  501  502 -0.00000000000E+00 -0.00000000000E+00 -0.77605551345E+03  0.77605551345E+03  0.00000000000E+00 0.  1.
         25    1    1    2    0    0  0.55079440933E+02  0.53775330336E+02 -0.34065355294E+03  0.37093850447E+03  0.12500000000E+03 0.  0.
         25    1    1    2    0    0 -0.48607894125E+02  0.15373504391E+03 -0.66817693323E+02  0.21467835298E+03  0.12500000000E+03 0.  0.
         25    1    1    2    0    0 -0.64715468080E+01 -0.20751037425E+03 -0.22698460276E+03  0.33203832043E+03  0.12500000000E+03 0.  0.
</event>
<event>
 5    0  0.5764392E-005  0.2264355E+03  0.7546771E-02  0.1129174E+00
         21   -1    0    0  502  501  0.00000000000E+00  0.00000000000E+00  0.12137095287E+03  0.12137095287E+03  0.00000000000E+00 0.  1.
         21   -1    0    0  501  502 -0.00000000000E+00 -0.00000000000E+00 -0.42244892241E+03  0.42244892241E+03  0.00000000000E+00 0.  1.
         25    1    1    2    0    0 -0.20532940228E+02 -0.50814676424E+01 -0.22862969124E+03  0.26142677496E+03  0.12500000000E+03 0.  0.
         25    1    1    2    0    0  0.26057544003E+02 -0.16752809057E+00  0.16553716173E+02  0.12875577340E+03  0.12500000000E+03 0.  0.
         25    1    1    2    0    0 -0.55246037749E+01  0.52489957329E+01 -0.89001994469E+02  0.15363732692E+03  0.12500000000E+03 0.  0.
</event>
<event>
 5    0  0.5764392E-005  0.4048373E+03  0.7546771E-02  0.1042117E+00
         21   -1    0    0  502  501  0.00000000000E+00  0.00000000000E+00  0.16402305905E+04  0.16402305905E+04  0.00000000000E+00 0. -1.
         21   -1    0    0  501  502 -0.00000000000E+00 -0.00000000000E+00 -0.99920861278E+02  0.99920861278E+02  0.00000000000E+00 0. -1.
         25    1    1    2    0    0 -0.53342832810E+02  0.11815249855E+03  0.10884935035E+04  0.11032898884E+04  0.12500000000E+03 0.  0.
         25    1    1    2    0    0 -0.14574726607E+03 -0.21097030596E+02  0.17079309142E+03  0.25784225865E+03  0.12500000000E+03 0.  0.
         25    1    1    2    0    0  0.19909009887E+03 -0.97055467956E+02  0.28102313428E+03  0.37901930469E+03  0.12500000000E+03 0.  0.
</event>
<event>
 5    0  0.5764392E-005  0.4173748E+03  0.7546771E-02  0.1037924E+00
         21   -1    0    0  502  501  0.00000000000E+00  0.00000000000E+00  0.27160165047E+03  0.27160165047E+03  0.00000000000E+00 0.  1.
         21   -1    0    0  501  502 -0.00000000000E+00 -0.00000000000E+00 -0.64138677164E+03  0.64138677164E+03  0.00000000000E+00 0.  1.
         25    1    1    2    0    0 -0.12329284782E+03 -0.15530536760E+03 -0.18490650016E+03  0.29855702526E+03  0.12500000000E+03 0.  0.
         25    1    1    2    0    0 -0.16890841588E+03  0.13098796679E+03 -0.33853583866E+01  0.24763755985E+03  0.12500000000E+03 0.  0.
         25    1    1    2    0    0  0.29220126370E+03  0.24317400813E+02 -0.18149326261E+03  0.36679383700E+03  0.12500000000E+03 0.  0.
</event>
<event>
 5    0  0.5764392E-005  0.2607089E+03  0.7546771E-02  0.1106718E+00
         21   -1    0    0  502  501  0.00000000000E+00  0.00000000000E+00  0.19244715865E+03  0.19244715865E+03  0.00000000000E+00 0. -1.
         21   -1    0    0  501  502 -0.00000000000E+00 -0.00000000000E+00 -0.35318321595E+03  0.35318321595E+03  0.00000000000E+00 0.  1.
         25    1    1    2    0    0 -0.19172451482E+02 -0.81372301696E+02 -0.99930386660E+02  0.18055502363E+03  0.12500000000E+03 0.  0.
         25    1    1    2    0    0 -0.43162148979E+02 -0.73573525518E+02 -0.28021764446E+02  0.15390339192E+03  0.12500000000E+03 0.  0.
         25    1    1    2    0    0  0.62334600462E+02  0.15494582721E+03 -0.32783906192E+02  0.21117195905E+03  0.12500000000E+03 0.  0.
</event>
<event>
 5    0  0.5861378E-005  0.2864296E+03  0.7546771E-02  0.1092228E+00
         21   -1    0    0  502  501  0.00000000000E+00  0.00000000000E+00  0.46399697963E+03  0.46399697963E+03  0.00000000000E+00 0.  1.
         21   -1    0    0  501  502 -0.00000000000E+00 -0.00000000000E+00 -0.17681563613E+03  0.17681563613E+03  0.00000000000E+00 0.  1.
         25    1    1    2    0    0  0.67200132113E+02  0.15332320151E+03  0.17398003690E+03  0.27187849330E+03  0.12500000000E+03 0.  0.
         25    1    1    2    0    0  0.53091534724E+01 -0.71266256027E+02  0.13974075758E+03  0.20064781506E+03  0.12500000000E+03 0.  0.
         25    1    1    2    0    0 -0.72509285585E+02 -0.82056945487E+02 -0.26539450980E+02  0.16828630740E+03  0.12500000000E+03 0.  0.
</event>
<event>
 5    0  0.5764392E-005  0.2891541E+03  0.7546771E-02  0.1090792E+00
         21   -1    0    0  502  501  0.00000000000E+00  0.00000000000E+00  0.10844145815E+03  0.10844145815E+03  0.00000000000E+00 0. -1.
         21   -1    0    0  501  502 -0.00000000000E+00 -0.00000000000E+00 -0.77101605150E+03  0.77101605150E+03  0.00000000000E+00 0. -1.
         25    1    1    2    0    0 -0.82267081655E+02 -0.19519959608E+01 -0.10817991665E+03  0.18466070881E+03  0.12500000000E+03 0.  0.
         25    1    1    2    0    0  0.16646792293E+03  0.38659072988E+02 -0.14398971999E+03  0.25605494089E+03  0.12500000000E+03 0.  0.
         25    1    1    2    0    0 -0.84200841277E+02 -0.36707077027E+02 -0.41040495671E+03  0.43874185995E+03  0.12500000000E+03 0.  0.
</event>
<event>
 5    0  0.5764392E-005  0.2990695E+03  0.7546771E-02  0.1085707E+00
         21   -1    0    0  502  501  0.00000000000E+00  0.00000000000E+00  0.35324332286E+03  0.35324332286E+03  0.00000000000E+00 0. -1.
         21   -1    0    0  501  502 -0.00000000000E+00 -0.00000000000E+00 -0.25320385842E+03  0.25320385842E+03  0.00000000000E+00 0. -1.
         25    1    1    2    0    0  0.15439151615E+03  0.12353363332E+03  0.33405066315E+00  0.23392821636E+03  0.12500000000E+03 0.  0.
         25    1    1    2    0    0  0.66158921506E+01 -0.84796099539E+02  0.35134866744E+02  0.15522115638E+03  0.12500000000E+03 0.  0.
         25    1    1    2    0    0 -0.16100740830E+03 -0.38737533785E+02  0.64570547026E+02  0.21729780854E+03  0.12500000000E+03 0.  0.
</event>
<event>
 5    0  0.5764392E-005  0.3233244E+03  0.7546771E-02  0.1074129E+00
         21   -1    0    0  502  501  0.00000000000E+00  0.00000000000E+00  0.40162130275E+03  0.40162130275E+03  0.00000000000E+00 0. -1.
         21   -1    0    0  501  502 -0.00000000000E+00 -0.00000000000E+00 -0.26029165067E+03  0.26029165067E+03  0.00000000000E+00 0. -1.
         25    1    1    2    0    0 -0.15761408958E+03 -0.66735012195E+02  0.35949111361E+02  0.21497232774E+03  0.12500000000E+03 0.  0.
         25    1    1    2    0    0  0.15609972166E+03 -0.99949293569E+02  0.30982351606E+02  0.22570310255E+03  0.12500000000E+03 0.  0.
         25    1    1    2    0    0  0.15143679184E+01  0.16668430576E+03  0.74398189112E+02  0.22123752313E+03  0.12500000000E+03 0.  0.
</event>
<event>
 5    0  0.6745630E-005  0.3550574E+03  0.7546771E-02  0.1060558E+00
         21   -1    0    0  502  501  0.00000000000E+00  0.00000000000E+00  0.19851591570E+03  0.19851591570E+03  0.00000000000E+00 0.  1.
         21   -1    0    0  501  502 -0.00000000000E+00 -0.00000000000E+00 -0.63504096982E+03  0.63504096982E+03  0.00000000000E+00 0.  1.
         25    1    1    2    0    0 -0.18824388287E+02 -0.19463670950E+03 -0.15555338899E+03  0.27939159455E+03  0.12500000000E+03 0.  0.
         25    1    1    2    0    0 -0.13556216071E+03  0.15694149567E+03 -0.50095557685E+02  0.24726968552E+03  0.12500000000E+03 0.  0.
         25    1    1    2    0    0  0.15438654900E+03  0.37695213831E+02 -0.23087610744E+03  0.30689560545E+03  0.12500000000E+03 0.  0.
</event>
<event>
 5    0  0.5764392E-005  0.4566305E+03  0.7546771E-02  0.1025763E+00
         21   -1    0    0  502  501  0.00000000000E+00  0.00000000000E+00  0.10679471710E+03  0.10679471710E+03  0.00000000000E+00 0. -1.
         21   -1    0    0  501  502 -0.00000000000E+00 -0.00000000000E+00 -0.19524508439E+04  0.19524508439E+04  0.00000000000E+00 0. -1.
         25    1    1    2    0    0 -0.48753169886E+02  0.35747083057E+03 -0.63789061558E+03  0.74343238006E+03  0.12500000000E+03 0.  0.
         25    1    1    2    0    0 -0.10753060719E+03 -0.15559405725E+03 -0.40401981945E+03  0.46328107736E+03  0.12500000000E+03 0.  0.
         25    1    1    2    0    0  0.15628377708E+03 -0.20187677333E+03 -0.80374569178E+03  0.85253210358E+03  0.12500000000E+03 0.  0.
</event>
<event>
 5    0  0.6150070E-005  0.2954852E+03  0.7546771E-02  0.1087520E+00
         21   -1    0    0  502  501  0.00000000000E+00  0.00000000000E+00  0.22357654643E+03  0.22357654643E+03  0.00000000000E+00 0.  1.
         21   -1    0    0  501  502 -0.00000000000E+00 -0.00000000000E+00 -0.39052187559E+03  0.39052187559E+03  0.00000000000E+00 0.  1.
         25    1    1    2    0    0 -0.46748229735E+02 -0.93279136589E+02  0.49084858012E+02  0.17006092318E+03  0.12500000000E+03 0.  0.
         25    1    1    2    0    0 -0.97923700472E+02  0.59510773857E+02 -0.17865649018E+03  0.24632037026E+03  0.12500000000E+03 0.  0.
         25    1    1    2    0    0  0.14467193021E+03  0.33768362732E+02 -0.37373696987E+02  0.19771712859E+03  0.12500000000E+03 0.  0.
</event>
<event>
 5    0  0.5764392E-005  0.2611595E+03  0.7546771E-02  0.1106449E+00
         21   -1    0    0  502  501  0.00000000000E+00  0.00000000000E+00  0.82474720270E+02  0.82474720270E+02  0.00000000000E+00 0. -1.
         21   -1    0    0  501  502 -0.00000000000E+00 -0.00000000000E+00 -0.82697177595E+03  0.82697177595E+03  0.00000000000E+00 0. -1.
         25    1    1    2    0    0  0.93187352344E+02  0.36290082794E+02 -0.13982265020E+03  0.21254699776E+03  0.12500000000E+03 0.  0.
         25    1    1    2    0    0  0.62678576088E+02  0.51417867952E+01 -0.28774548956E+03  0.31996485531E+03  0.12500000000E+03 0.  0.
         25    1    1    2    0    0 -0.15586592843E+03 -0.41431869589E+02 -0.31692891593E+03  0.37693464316E+03  0.12500000000E+03 0.  0.
</event>
<event>
 5    0  0.5764392E-005  0.5456803E+03  0.7546771E-02  0.1002499E+00
         21   -1    0    0  502  501  0.00000000000E+00  0.00000000000E+00  0.13091159354E+04  0.13091159354E+04  0.00000000000E+00 0. -1.
         21   -1    0    0  501  502 -0.00000000000E+00 -0.00000000000E+00 -0.22745657822E+03  0.22745657822E+03  0.00000000000E+00 0. -1.
         25    1    1    2    0    0 -0.29512328133E+02 -0.80024684285E+02  0.66745299953E+03  0.68439274850E+03  0.12500000000E+03 0.  0.
         25    1    1    2    0    0 -0.37053864668E+02 -0.25722508178E+03  0.39076135079E+03  0.48565127906E+03  0.12500000000E+03 0.  0.
         25    1    1    2    0    0  0.66566192801E+02  0.33724976606E+03  0.23445006836E+02  0.36652848604E+03  0.12500000000E+03 0.  0.
</event>
<event>
 5    0  0.5764392E-005  0.3070726E+03  0.7546771E-02  0.1081758E+00
         21   -1    0    0  502  501  0.00000000000E+00  0.00000000000E+00  0.29497972876E+03  0.29497972876E+03  0.00000000000E+00 0. -1.
         21   -1    0    0  501  502 -0.00000000000E+00 -0.00000000000E+00 -0.31966120032E+03  0.31966120032E+03  0.00000000000E+00 0. -1.
         25    1    1    2    0    0 -0.10600026514E+03  0.34956814705E+02  0.48865303950E+02  0.17455902450E+03  0.12500000000E+03 0.  0.
         25    1    1    2    0    0 -0.64295150321E+02 -0.11637274552E+03 -0.10651836930E+03  0.21129989411E+03  0.12500000000E+03 0.  0.
         25    1    1    2    0    0  0.17029541546E+03  0.81415930813E+02  0.32971593783E+02  0.22878201047E+03  0.12500000000E+03 0.  0.
</event>
<event>
 5    0  0.5764392E-005  0.3637388E+03  0.7546771E-02  0.1057113E+00
         21   -1    0    0  502  501  0.00000000000E+00  0.00000000000E+00  0.10720214217E+03  0.10720214217E+03  0.00000000000E+00 0.  1.
         21   -1    0    0  501  502 -0.00000000000E+00 -0.00000000000E+00 -0.12341725402E+04  0.12341725402E+04  0.00000000000E+00 0.  1.
         25    1    1    2    0    0 -0.35666739287E+02 -0.69963685176E+02 -0.10486701492E+04  0.10590094973E+04  0.12500000000E+03 0.  0.
         25    1    1    2    0    0  0.20282981159E+02  0.17856675591E+01 -0.51228981212E+02  0.13661623787E+03  0.12500000000E+03 0.  0.
         25    1    1    2    0    0  0.15383758128E+02  0.68178017617E+02 -0.27071267685E+02  0.14574894728E+03  0.12500000000E+03 0.  0.
</event>
<event>
 5    0  0.5764392E-005  0.3744737E+03  0.7546771E-02  0.1052995E+00
         21   -1    0    0  502  501  0.00000000000E+00  0.00000000000E+00  0.10940471615E+04  0.10940471615E+04  0.00000000000E+00 0. -1.
         21   -1    0    0  501  502 -0.00000000000E+00 -0.00000000000E+00 -0.12817595220E+03  0.12817595220E+03  0.00000000000E+00 0. -1.
         25    1    1    2    0    0  0.92194809682E+02 -0.99472506700E+02  0.70874839505E+03  0.73235507099E+03  0.12500000000E+03 0.  0.
         25    1    1    2    0    0  0.75571770395E+02  0.23408324063E+02 -0.23963891897E+01  0.14795196787E+03  0.12500000000E+03 0.  0.
         25    1    1    2    0    0 -0.16776658008E+03  0.76064182637E+02  0.25951920343E+03  0.34191607482E+03  0.12500000000E+03 0.  0.
</event>
<event>
 5    0  0.5764392E-005  0.3178572E+03  0.7546771E-02  0.1076640E+00
         21   -1    0    0  502  501  0.00000000000E+00  0.00000000000E+00  0.26018659475E+03  0.26018659475E+03  0.00000000000E+00 0.  1.
         21   -1    0    0  501  502 -0.00000000000E+00 -0.00000000000E+00 -0.38831057870E+03  0.38831057870E+03  0.00000000000E+00 0.  1.
         25    1    1    2    0    0  0.13565544063E+03 -0.12035515423E+03 -0.42137848906E+02  0.22425066340E+03  0.12500000000E+03 0.  0.
         25    1    1    2    0    0 -0.20426733756E+03  0.10115166846E+03 -0.10245801858E+03  0.27942700441E+03  0.12500000000E+03 0.  0.
         25    1    1    2    0    0  0.68611896923E+02  0.19203485776E+02  0.16471883538E+02  0.14481950564E+03  0.12500000000E+03 0.  0.
</event>
<event>
 5    0  0.5764392E-005  0.2653437E+03  0.7546771E-02  0.1103975E+00
         21   -1    0    0  502  501  0.00000000000E+00  0.00000000000E+00  0.29347259906E+03  0.29347259906E+03  0.00000000000E+00 0.  1.
         21   -1    0    0  501  502 -0.00000000000E+00 -0.00000000000E+00 -0.23991083441E+03  0.23991083441E+03  0.00000000000E+00 0.  1.
         25    1    1    2    0    0  0.52656776938E+01  0.39717565172E+02  0.11909965145E+02  0.13180310927E+03  0.12500000000E+03 0.  0.
         25    1    1    2    0    0  0.98464250041E+02  0.82439501891E+02 -0.38161475902E+02  0.18322875935E+03  0.12500000000E+03 0.  0.
         25    1    1    2    0    0 -0.10372992773E+03 -0.12215706706E+03  0.79813275400E+02  0.21835156485E+03  0.12500000000E+03 0.  0.
</event>
<event>
 5    0  0.5764392E-005  0.4075168E+03  0.7546771E-02  0.1041208E+00
         21   -1    0    0  502  501  0.00000000000E+00  0.00000000000E+00  0.28113044902E+04  0.28113044902E+04  0.00000000000E+00 0. -1.
         21   -1    0    0  501  502 -0.00000000000E+00 -0.00000000000E+00 -0.59072207029E+02  0.59072207029E+02  0.00000000000E+00 0. -1.
         25    1    1    2    0    0 -0.46426828950E+02  0.97521477257E+02  0.17974179924E+04  0.18049937198E+04  0.12500000000E+03 0.  0.
         25    1    1    2    0    0  0.17960959438E+03 -0.98683948018E+02  0.76576172382E+03  0.80250491939E+03  0.12500000000E+03 0.  0.
         25    1    1    2    0    0 -0.13318276543E+03  0.11624707617E+01  0.18905256696E+03  0.26287805808E+03  0.12500000000E+03 0.  0.
</event>
<event>
 5    0  0.5764392E-005  0.2562380E+03  0.7546771E-02  0.1109425E+00
         21   -1    0    0  502  501  0.00000000000E+00  0.00000000000E+00  0.49734509342E+03  0.49734509342E+03  0.00000000000E+00 0. -1.
         21   -1    0    0  501  502 -0.00000000000E+00 -0.00000000000E+00 -0.13201686135E+03  0.13201686135E+03  0.00000000000E+00 0. -1.
         25    1    1    2    0    0 -0.63395717317E+02  0.31200857207E+02  0.11797246458E+03  0.18583598377E+03  0.12500000000E+03 0.  0.
         25    1    1    2    0    0  0.19043169503E+02 -0.11793055127E+02  0.27834256133E+03  0.30594329524E+03  0.12500000000E+03 0.  0.
         25    1    1    2    0    0  0.44352547813E+02 -0.19407802080E+02 -0.30986793839E+02  0.13758267577E+03  0.12500000000E+03 0.  0.
</event>
<event>
 5    0  0.5764392E-005  0.3662737E+03  0.7546771E-02  0.1056127E+00
         21   -1    0    0  502  501  0.00000000000E+00  0.00000000000E+00  0.29824820502E+03  0.29824820502E+03  0.00000000000E+00 0. -1.
         21   -1    0    0  501  502 -0.00000000000E+00 -0.00000000000E+00 -0.44981458915E+03  0.44981458915E+03  0.00000000000E+00 0. -1.
         25    1    1    2    0    0  0.94279190645E+02 -0.17272507852E+03 -0.25035331128E+03  0.34208814508E+03  0.12500000000E+03 0.  0.
         25    1    1    2    0    0 -0.12010570919E+03  0.39655462106E+00  0.92945075308E+01  0.17359990353E+03  0.12500000000E+03 0.  0.
         25    1    1    2    0    0  0.25826518543E+02  0.17232852389E+03  0.89492419618E+02  0.23237474557E+03  0.12500000000E+03 0.  0.
</event>
<event>
 5    0  0.5764392E-005  0.3578678E+03  0.7546771E-02  0.1059431E+00
         21   -1    0    0  502  501  0.00000000000E+00  0.00000000000E+00  0.17830774485E+04  0.17830774485E+04  0.00000000000E+00 0. -1.
         21   -1    0    0  501  502 -0.00000000000E+00 -0.00000000000E+00 -0.71824918205E+02  0.71824918205E+02  0.00000000000E+00 0. -1.
         25    1    1    2    0    0  0.47661436455E+02  0.27022176237E+03  0.10592096177E+04  0.11012908007E+04  0.12500000000E+03 0.  0.
         25    1    1    2    0    0 -0.28279077355E+01 -0.94713719005E+02  0.29732648680E+03  0.33616472954E+03  0.12500000000E+03 0.  0.
         25    1    1    2    0    0 -0.44833528719E+02 -0.17550804336E+03  0.35471642574E+03  0.41744683646E+03  0.12500000000E+03 0.  0.
</event>
<event>
 5    0  0.6063956E-005  0.2805107E+03  0.7546771E-02  0.1095410E+00
         21   -1    0    0  502  501  0.00000000000E+00  0.00000000000E+00  0.85541777334E+02  0.85541777334E+02  0.00000000000E+00 0. -1.
         21   -1    0    0  501  502 -0.00000000000E+00 -0.00000000000E+00 -0.91985777476E+03  0.91985777476E+03  0.00000000000E+00 0. -1.
         25    1    1    2    0    0 -0.85406286281E+02 -0.74414388394E+02 -0.27743519847E+03  0.32469527912E+03  0.12500000000E+03 0.  0.
         25    1    1    2    0    0  0.14141992191E+03  0.55699448332E+02 -0.48812599165E+03  0.52630220082E+03  0.12500000000E+03 0.  0.
         25    1    1    2    0    0 -0.56013635626E+02  0.18714940062E+02 -0.68754807304E+02  0.15440207215E+03  0.12500000000E+03 0.  0.
</event>
<event>
 5    0  0.5764392E-005  0.3020457E+03  0.7546771E-02  0.1084222E+00
         21   -1    0    0  502  501  0.00000000000E+00  0.00000000000E+00  0.12386805440E+03  0.12386805440E+03  0.00000000000E+00 0.  1.
         21   -1    0    0  501  502 -0.00000000000E+00 -0.00000000000E+00 -0.73652270443E+03  0.73652270443E+03  0.00000000000E+00 0.  1.
         25    1    1    2    0    0 -0.38003994022E+02 -0.43571165367E+02 -0.40956910624E+03  0.43210485163E+03  0.12500000000E+03 0.  0.
         25    1    1    2    0    0 -0.55482179127E+02  0.11726815835E+03 -0.17906686702E+03  0.25400794481E+03  0.12500000000E+03 0.  0.
         25    1    1    2    0    0  0.93486173149E+02 -0.73696992978E+02 -0.24018676769E+02  0.17427796240E+03  0.12500000000E+03 0.  0.
</event>
<event>
 5    0  0.5764392E-005  0.2462414E+03  0.7546771E-02  0.1115703E+00
         21   -1    0    0  502  501  0.00000000000E+00  0.00000000000E+00  0.33056660810E+02  0.33056660810E+02  0.00000000000E+00 0. -1.
         21   -1    0    0  501  502 -0.00000000000E+00 -0.00000000000E+00 -0.18342700581E+04  0.18342700581E+04  0.00000000000E+00 0. -1.
         25    1    1    2    0    0  0.40803416144E+02  0.16898111424E+02 -0.63922112351E+03  0.65282394999E+03  0.12500000000E+03 0.  0.
         25    1    1    2    0    0 -0.36279366470E+02 -0.14574424861E+02 -0.16974040371E+03  0.21439545457E+03  0.12500000000E+03 0.  0.
         25    1    1    2    0    0 -0.45240496743E+01 -0.23236865636E+01 -0.99225187010E+03  0.10001073144E+04  0.12500000000E+03 0.  0.
</event>
<event>
 5    0  0.5983756E-005  0.2968583E+03  0.7546771E-02  0.1086822E+00
         21   -1    0    0  502  501  0.00000000000E+00  0.00000000000E+00  0.13018657093E+03  0.13018657093E+03  0.00000000000E+00 0.  1.
         21   -1    0    0  501  502 -0.00000000000E+00 -0.00000000000E+00 -0.67691198605E+03  0.67691198605E+03  0.00000000000E+00 0.  1.
         25    1    1    2    0    0 -0.48263731403E+02 -0.91433678326E+02 -0.19307825188E+03  0.25217794640E+03  0.12500000000E+03 0.  0.
         25    1    1    2    0    0  0.30651658922E+02  0.14642591580E+03 -0.22445124479E+02  0.19623673618E+03  0.12500000000E+03 0.  0.
         25    1    1    2    0    0  0.17612072480E+02 -0.54992237475E+02 -0.33120203876E+03  0.35868387441E+03  0.12500000000E+03 0.  0.
</event>
<event>
 5    0  0.5764392E-005  0.4702218E+03  0.7546771E-02  0.1021858E+00
         21   -1    0    0  502  501  0.00000000000E+00  0.00000000000E+00  0.45908628172E+03  0.45908628172E+03  0.00000000000E+00 0.  1.
         21   -1    0    0  501  502 -0.00000000000E+00 -0.00000000000E+00 -0.48162742312E+03  0.48162742312E+03  0.00000000000E+00 0.  1.
         25    1    1    2    0    0  0.68387944314E+02 -0.24860208724E+03  0.31320810076E+03  0.42450467970E+03  0.12500000000E+03 0.  0.
         25    1    1    2    0    0 -0.30259987009E+02  0.41201806646E+02 -0.18277209239E+03  0.22725292834E+03  0.12500000000E+03 0.  0.
         25    1    1    2    0    0 -0.38127957304E+02  0.20740028060E+03 -0.15297714977E+03  0.28895609679E+03  0.12500000000E+03 0.  0.
</event>
<event>
 5    0  0.5764392E-005  0.3182645E+03  0.7546771E-02  0.1076451E+00
         21   -1    0    0  502  501  0.00000000000E+00  0.00000000000E+00  0.28783446636E+03  0.28783446636E+03  0.00000000000E+00 0.  1.
         21   -1    0    0  501  502 -0.00000000000E+00 -0.00000000000E+00 -0.35191170303E+03  0.35191170303E+03  0.00000000000E+00 0.  1.
         25    1    1    2    0    0  0.63626529850E+01 -0.10526635131E+03 -0.15898963968E+02  0.16431453109E+03  0.12500000000E+03 0.  0.
         25    1    1    2    0    0 -0.36394370556E+02 -0.10875178325E+03  0.87938910433E+02  0.19107525359E+03  0.12500000000E+03 0.  0.
         25    1    1    2    0    0  0.30031717571E+02  0.21401813456E+03 -0.13611718313E+03  0.28435638471E+03  0.12500000000E+03 0.  0.
</event>
<event>
 5    0  0.5764392E-005  0.4273542E+03  0.7546771E-02  0.1034699E+00
         21   -1    0    0  502  501  0.00000000000E+00  0.00000000000E+00  0.43709121136E+03  0.43709121136E+03  0.00000000000E+00 0.  1.
         21   -1    0    0  501  502 -0.00000000000E+00 -0.00000000000E+00 -0.41783414959E+03  0.41783414959E+03  0.00000000000E+00 0.  1.
         25    1    1    2    0    0 -0.23731988812E+03 -0.18538125441E+03  0.22985588471E+03  0.39893065377E+03  0.12500000000E+03 0.  0.
         25    1    1    2    0    0  0.13420852276E+03  0.96909828760E+02 -0.55128485562E+02  0.21463362367E+03  0.12500000000E+03 0.  0.
         25    1    1    2    0    0  0.10311136536E+03  0.88471425651E+02 -0.15547033738E+03  0.24136108350E+03  0.12500000000E+03 0.  0.
</event>
<event>
 5    0  0.5764392E-005  0.3769734E+03  0.7546771E-02  0.1052058E+00
         21   -1    0    0  502  501  0.00000000000E+00  0.00000000000E+00  0.17070769433E+03  0.17070769433E+03  0.00000000000E+00 0. -1.
         21   -1    0    0  501  502 -0.00000000000E+00 -0.00000000000E+00 -0.83246952724E+03  0.83246952724E+03  0.00000000000E+00 0. -1.
         25    1    1    2    0    0 -0.24524420560E+03 -0.46350856897E+02 -0.20003605944E+03  0.34341308565E+03  0.12500000000E+03 0.  0.
         25    1    1    2    0    0 -0.45262357839E+02 -0.47679858334E+02 -0.13227322867E+03  0.19350260192E+03  0.12500000000E+03 0.  0.
         25    1    1    2    0    0  0.29050656344E+03  0.94030715231E+02 -0.32945254481E+03  0.46626153400E+03  0.12500000000E+03 0.  0.
</event>
<event>
 5    0  0.5764392E-005  0.3415732E+03  0.7546771E-02  0.1066128E+00
         21   -1    0    0  502  501  0.00000000000E+00  0.00000000000E+00  0.35227637985E+04  0.35227637985E+04  0.00000000000E+00 0. -1.
         21   -1    0    0  501  502 -0.00000000000E+00 -0.00000000000E+00 -0.33119513432E+02  0.33119513432E+02  0.00000000000E+00 0. -1.
         25    1    1    2    0    0 -0.18989930000E+02  0.92318154243E+02  0.79923151632E+03  0.81441959439E+03  0.12500000000E+03 0.  0.
         25    1    1    2    0    0 -0.55637295609E+02  0.16363130318E+03  0.15043483613E+04  0.15193945190E+04  0.12500000000E+03 0.  0.
         25    1    1    2    0    0  0.74627225609E+02 -0.25594945742E+03  0.11860644074E+04  0.12220691985E+04  0.12500000000E+03 0.  0.
</event>
<event>
 5    0  0.5764392E-005  0.3137105E+03  0.7546771E-02  0.1078581E+00
         21   -1    0    0  502  501  0.00000000000E+00  0.00000000000E+00  0.43187681506E+03  0.43187681506E+03  0.00000000000E+00 0. -1.
         21   -1    0    0  501  502 -0.00000000000E+00 -0.00000000000E+00 -0.22787583611E+03  0.22787583611E+03  0.00000000000E+00 0. -1.
         25    1    1    2    0    0  0.15616631550E+03  0.11066812254E+02 -0.62319306087E+01  0.20043510019E+03  0.12500000000E+03 0.  0.
         25    1    1    2    0    0 -0.18656897124E+03  0.48125966778E+02  0.32330657884E+02  0.23193611436E+03  0.12500000000E+03 0.  0.
         25    1    1    2    0    0  0.30402655736E+02 -0.59192779031E+02  0.17790225168E+03  0.22738143661E+03  0.12500000000E+03 0.  0.
</event>
<event>
 5    0  0.5764392E-005  0.2487489E+03  0.7546771E-02  0.1114098E+00
         21   -1    0    0  502  501  0.00000000000E+00  0.00000000000E+00  0.69197902169E+03  0.69197902169E+03  0.00000000000E+00 0. -1.
         21   -1    0    0  501  502 -0.00000000000E+00 -0.00000000000E+00 -0.89418931759E+02  0.89418931759E+02  0.00000000000E+00 0. -1.
         25    1    1    2    0    0  0.11485890951E+03 -0.98562212153E+02  0.27222940526E+03  0.33562021370E+03  0.12500000000E+03 0.  0.
         25    1    1    2    0    0 -0.72944109484E+02  0.24866306137E+02  0.18473311118E+03  0.23598834433E+03  0.12500000000E+03 0.  0.
         25    1    1    2    0    0 -0.41914800027E+02  0.73695906017E+02  0.14559757348E+03  0.20978939542E+03  0.12500000000E+03 0.  0.
</event>
<event>
 5    0  0.5764392E-005  0.4723142E+03  0.7546771E-02  0.1021269E+00
         21   -1    0    0  502  501  0.00000000000E+00  0.00000000000E+00  0.88266038531E+03  0.88266038531E+03  0.00000000000E+00 0.  1.
         21   -1    0    0  501  502 -0.00000000000E+00 -0.00000000000E+00 -0.25273669383E+03  0.25273669383E+03  0.00000000000E+00 0.  1.
         25    1    1    2    0    0 -0.20290247553E+03  0.20690290520E+03  0.12968347930E+03  0.34120526309E+03  0.12500000000E+03 0.  0.
         25    1    1    2    0    0 -0.92833421186E+02  0.33354675626E+02  0.82097038688E+01  0.15944584571E+03  0.12500000000E+03 0.  0.
         25    1    1    2    0    0  0.29573589672E+03 -0.24025758083E+03  0.49203050831E+03  0.63474597034E+03  0.12500000000E+03 0.  0.
</event>
<event>
 5    0  0.5764392E-005  0.3163928E+03  0.7546771E-02  0.1077322E+00
         21   -1    0    0  502  501  0.00000000000E+00  0.00000000000E+00  0.34554678180E+03  0.34554678180E+03  0.00000000000E+00 0. -1.
         21   -1    0    0  501  502 -0.00000000000E+00 -0.00000000000E+00 -0.28969851564E+03  0.28969851564E+03  0.00000000000E+00 0. -1.
         25    1    1    2    0    0  0.88211617237E+02 -0.14054803999E+03  0.18593137516E+03  0.27880193190E+03  0.12500000000E+03 0.  0.
         25    1    1    2    0    0 -0.23342079688E+02  0.34426102620E+02  0.87252639362E+01  0.13202704063E+03  0.12500000000E+03 0.  0.
         25    1    1    2    0    0 -0.64869537549E+02  0.10612193737E+03 -0.13880837293E+03  0.22441632492E+03  0.12500000000E+03 0.  0.
</event>
<event>
 5    0  0.5764392E-005  0.3322225E+03  0.7546771E-02  0.1070158E+00
         21   -1    0    0  502  501  0.00000000000E+00  0.00000000000E+00  0.98663907212E+02  0.98663907212E+02  0.00000000000E+00 0. -1.
         21   -1    0    0  501  502 -0.00000000000E+00 -0.00000000000E+00 -0.11186640151E+04  0.11186640151E+04  0.00000000000E+00 0. -1.
         25    1    1    2    0    0 -0.16299012429E+03  0.13850261005E+03 -0.70374408870E+03  0.74607606582E+03  0.12500000000E+03 0.  0.
         25    1    1    2    0    0  0.21185914641E+02 -0.29517078360E+02 -0.10117688593E+03  0.16486923043E+03  0.12500000000E+03 0.  0.
         25    1    1    2    0    0  0.14180420964E+03 -0.10898553169E+03 -0.21507913323E+03  0.30638262604E+03  0.12500000000E+03 0.  0.
</event>
<event>
 5    0  0.5764392E-005  0.4251686E+03  0.7546771E-02  0.1035397E+00
         21   -1    0    0  502  501  0.00000000000E+00  0.00000000000E+00  0.31632239859E+03  0.31632239859E+03  0.00000000000E+00 0. -1.
         21   -1    0    0  501  502 -0.00000000000E+00 -0.00000000000E+00 -0.57146874241E+03  0.57146874241E+03  0.00000000000E+00 0. -1.
         25    1    1    2    0    0  0.81679341225E+02 -0.31038422122E+03 -0.17003123670E+02  0.34485357151E+03  0.12500000000E+03 0.  0.
         25    1    1    2    0    0  0.26849168314E+02  0.22304423157E+03 -0.23514463077E+02  0.25816184275E+03  0.12500000000E+03 0.  0.
         25    1    1    2    0    0 -0.10852850954E+03  0.87339989652E+02 -0.21462875708E+03  0.28477572674E+03  0.12500000000E+03 0.  0.
</event>
<event>
 5    0  0.5764392E-005  0.2659918E+03  0.7546771E-02  0.1103596E+00
         21   -1    0    0  502  501  0.00000000000E+00  0.00000000000E+00  0.27252304596E+03  0.27252304596E+03  0.00000000000E+00 0.  1.
         21   -1    0    0  501  502 -0.00000000000E+00 -0.00000000000E+00 -0.25961714692E+03  0.25961714692E+03  0.00000000000E+00 0.  1.
         25    1    1    2    0    0  0.64854406078E+02  0.44618309660E+02  0.12393828142E+03  0.19282786403E+03  0.12500000000E+03 0.  0.
         25    1    1    2    0    0  0.38167390953E+01  0.11098706716E+01  0.35269996074E+02  0.12994141731E+03  0.12500000000E+03 0.  0.
         25    1    1    2    0    0 -0.68671145174E+02 -0.45728180331E+02 -0.14630237846E+03  0.20937091154E+03  0.12500000000E+03 0.  0.
</event>
<event>
 5    0  0.6411722E-005  0.6050879E+03  0.7546771E-02  0.9894906E-01
         21   -1    0    0  502  501  0.00000000000E+00  0.00000000000E+00  0.25708381354E+03  0.25708381354E+03  0.00000000000E+00 0. -1.
         21   -1    0    0  501  502 -0.00000000000E+00 -0.00000000000E+00 -0.14241711053E+04  0.14241711053E+04  0.00000000000E+00 0. -1.
         25    1    1    2    0    0 -0.28544736016E+03 -0.66285049295E+02  0.60032531723E+01  0.31864548048E+03  0.12500000000E+03 0.  0.
         25    1    1    2    0    0  0.10408284676E+03 -0.25475491160E+03 -0.55939349473E+03  0.63582968311E+03  0.12500000000E+03 0.  0.
         25    1    1    2    0    0  0.18136451340E+03  0.32103996090E+03 -0.61369705019E+03  0.72677975524E+03  0.12500000000E+03 0.  0.
</event>
<event>
 5    0  0.5764392E-005  0.2203840E+03  0.7546771E-02  0.1133597E+00
         21   -1    0    0  502  501  0.00000000000E+00  0.00000000000E+00  0.22654822386E+03  0.22654822386E+03  0.00000000000E+00 0. -1.
         21   -1    0    0  501  502 -0.00000000000E+00 -0.00000000000E+00 -0.21438754319E+03  0.21438754319E+03  0.00000000000E+00 0. -1.
         25    1    1    2    0    0 -0.38713077016E+02 -0.89997114881E+02 -0.10111885345E+02  0.15913966584E+03  0.12500000000E+03 0.  0.
         25    1    1    2    0    0  0.47970128846E+02  0.39858588597E+02 -0.18164604040E+02  0.14087154853E+03  0.12500000000E+03 0.  0.
         25    1    1    2    0    0 -0.92570518298E+01  0.50138526284E+02  0.40437170055E+02  0.14092455268E+03  0.12500000000E+03 0.  0.
</event>
<event>
 5    0  0.5764392E-005  0.4729220E+03  0.7546771E-02  0.1021099E+00
         21   -1    0    0  502  501  0.00000000000E+00  0.00000000000E+00  0.31046048883E+03  0.31046048883E+03  0.00000000000E+00 0. -1.
         21   -1    0    0  501  502 -0.00000000000E+00 -0.00000000000E+00 -0.72039838230E+03  0.72039838230E+03  0.00000000000E+00 0. -1.
         25    1    1    2    0    0 -0.43362227138E+02 -0.15874979841E+03 -0.92351880521E+01  0.20686244207E+03  0.12500000000E+03 0.  0.
         25    1    1    2    0    0 -0.24296081482E+03 -0.11015144289E+03 -0.90749250408E+02  0.30825918374E+03  0.12500000000E+03 0.  0.
         25    1    1    2    0    0  0.28632304196E+03  0.26890124131E+03 -0.30995345501E+03  0.51573724532E+03  0.12500000000E+03 0.  0.
</event>
<event>
 5    0  0.5764392E-005  0.4780578E+03  0.7546771E-02  0.1019670E+00
         21   -1    0    0  502  501  0.00000000000E+00  0.00000000000E+00  0.11584805128E+03  0.11584805128E+03  0.00000000000E+00 0.  1.
         21   -1    0    0  501  502 -0.00000000000E+00 -0.00000000000E+00 -0.19727502467E+04  0.19727502467E+04  0.00000000000E+00 0.  1.
         25    1    1    2    0    0 -0.16176799828E+03  0.32451251212E+03 -0.13505156376E+04  0.14039212026E+04  0.12500000000E+03 0.  0.
         25    1    1    2    0    0  0.93103821883E+02 -0.18450150701E+03 -0.37309893355E+03  0.44445128186E+03  0.12500000000E+03 0.  0.
         25    1    1    2    0    0  0.68664176395E+02 -0.14001100511E+03 -0.13328762425E+03  0.24022581346E+03  0.12500000000E+03 0.  0.
</event>
<event>
 5    0  0.5764392E-005  0.3505386E+03  0.7546771E-02  0.1062394E+00
         21   -1    0    0  502  501  0.00000000000E+00  0.00000000000E+00  0.83860995315E+03  0.83860995315E+03  0.00000000000E+00 0. -1.
         21   -1    0    0  501  502 -0.00000000000E+00 -0.00000000000E+00 -0.14652497884E+03  0.14652497884E+03  0.00000000000E+00 0. -1.
         25    1    1    2    0    0  0.32493809761E+02  0.62447411137E+02 -0.38064858178E+01  0.14350963788E+03  0.12500000000E+03 0.  0.
         25    1    1    2    0    0  0.20161472826E+02  0.15662585734E+03  0.20594332453E+03  0.28805519800E+03  0.12500000000E+03 0.  0.
         25    1    1    2    0    0 -0.52655282588E+02 -0.21907326848E+03  0.48994813560E+03  0.55357009612E+03  0.12500000000E+03 0.  0.
</event>
<event>
 5    0  0.5764392E-005  0.3684711E+03  0.7546771E-02  0.1055279E+00
         21   -1    0    0  502  501  0.00000000000E+00  0.00000000000E+00  0.23141047367E+03  0.23141047367E+03  0.00000000000E+00 0. -1.
         21   -1    0    0  501  502 -0.00000000000E+00 -0.00000000000E+00 -0.58671061590E+03  0.58671061590E+03  0.00000000000E+00 0.  1.
         25    1    1    2    0    0 -0.22705574272E+03 -0.13112188050E+03 -0.84230072910E+01  0.29059113011E+03  0.12500000000E+03 0.  0.
         25    1    1    2    0    0  0.49341693946E+02  0.10703678895E+03 -0.20245956731E+03  0.26553032472E+03  0.12500000000E+03 0.  0.
         25    1    1    2    0    0  0.17771404877E+03  0.24085091551E+02 -0.14441756764E+03  0.26199963475E+03  0.12500000000E+03 0.  0.
</event>
<event>
 5    0  0.5764392E-005  0.2354754E+03  0.7546771E-02  0.1122844E+00
         21   -1    0    0  502  501  0.00000000000E+00  0.00000000000E+00  0.56300743864E+02  0.56300743864E+02  0.00000000000E+00 0. -1.
         21   -1    0    0  501  502 -0.00000000000E+00 -0.00000000000E+00 -0.98486536574E+03  0.98486536574E+03  0.00000000000E+00 0. -1.
         25    1    1    2    0    0  0.30244761336E+02 -0.38669925507E+02 -0.13033456380E+03  0.18714221129E+03  0.12500000000E+03 0.  0.
         25    1    1    2    0    0  0.41751193276E+02  0.50656281166E+02 -0.53830013458E+03  0.55650809145E+03  0.12500000000E+03 0.  0.
         25    1    1    2    0    0 -0.71995954612E+02 -0.11986355660E+02 -0.25992992349E+03  0.29751580686E+03  0.12500000000E+03 0.  0.
</event>
<event>
 5    0  0.5764392E-005  0.3533748E+03  0.7546771E-02  0.1061238E+00
         21   -1    0    0  502  501  0.00000000000E+00  0.00000000000E+00  0.59715670413E+02  0.59715670413E+02  0.00000000000E+00 0. -1.
         21   -1    0    0  501  502 -0.00000000000E+00 -0.00000000000E+00 -0.20911392790E+04  0.20911392790E+04  0.00000000000E+00 0. -1.
         25    1    1    2    0    0 -0.19070820679E+02 -0.16043353030E+03 -0.81995416896E+03  0.84501624425E+03  0.12500000000E+03 0.  0.
         25    1    1    2    0    0 -0.14760017809E+03 -0.11754547028E+02 -0.31805593529E+03  0.37243598097E+03  0.12500000000E+03 0.  0.
         25    1    1    2    0    0  0.16667099877E+03  0.17218807733E+03 -0.89341350435E+03  0.93340272421E+03  0.12500000000E+03 0.  0.
</event>
<event>
 5    0  0.5764392E-005  0.2535130E+03  0.7546771E-02  0.1111105E+00
         21   -1    0    0  502  501  0.00000000000E+00  0.00000000000E+00  0.68501025628E+03  0.68501025628E+03  0.00000000000E+00 0.  1.
         21   -1    0    0  501  502 -0.00000000000E+00 -0.00000000000E+00 -0.93821745624E+02  0.93821745624E+02  0.00000000000E+00 0.  1.
         25    1    1    2    0    0  0.60966928141E+02  0.76443310066E+02  0.17225859504E+03  0.23421906316E+03  0.12500000000E+03 0.  0.
         25    1    1    2    0    0  0.56718417123E+02  0.15055123261E+02  0.98026521567E+02  0.16934531144E+03  0.12500000000E+03 0.  0.
         25    1    1    2    0    0 -0.11768534526E+03 -0.91498433327E+02  0.32090339405E+03  0.37526762731E+03  0.12500000000E+03 0.  0.
</event>
<event>
 5    0  0.5764392E-005  0.3743481E+03  0.7546771E-02  0.1053043E+00
         21   -1    0    0  502  501  0.00000000000E+00  0.00000000000E+00  0.51142742085E+03  0.51142742085E+03  0.00000000000E+00 0.  1.
         21   -1    0    0  501  502 -0.00000000000E+00 -0.00000000000E+00 -0.27401058528E+03  0.27401058528E+03  0.00000000000E+00 0.  1.
         25    1    1    2    0    0  0.68552614860E+02  0.71697478652E+02 -0.16229055099E+03  0.22760319064E+03  0.12500000000E+03 0.  0.
         25    1    1    2    0    0 -0.75055085662E+02 -0.18799019018E+02  0.39543762587E+03  0.42187982288E+03  0.12500000000E+03 0.  0.
         25    1    1    2    0    0  0.65024708022E+01 -0.52898459634E+02  0.42697606792E+01  0.13595499261E+03  0.12500000000E+03 0.  0.
</event>
<event>
 5    0  0.5764392E-005  0.3358223E+03  0.7546771E-02  0.1068589E+00
         21   -1    0    0  502  501  0.00000000000E+00  0.00000000000E+00  0.13926845015E+04  0.13926845015E+04  0.00000000000E+00 0.  1.
         21   -1    0    0  501  502 -0.00000000000E+00 -0.00000000000E+00 -0.80977842024E+02  0.80977842024E+02  0.00000000000E+00 0.  1.
         25    1    1    2    0    0  0.35014198510E+02  0.21689883148E+03  0.47350668273E+03  0.53675383164E+03  0.12500000000E+03 0.  0.
         25    1    1    2    0    0 -0.64940976624E+02 -0.65685520065E+02  0.13379552949E+03  0.20508086625E+03  0.12500000000E+03 0.  0.
         25    1    1    2    0    0  0.29926778114E+02 -0.15121331141E+03  0.70440444725E+03  0.73182764562E+03  0.12500000000E+03 0.  0.
</event>
<event>
 5    0  0.5764392E-005  0.3229456E+03  0.7546771E-02  0.1074302E+00
         21   -1    0    0  502  501  0.00000000000E+00  0.00000000000E+00  0.37877921426E+02  0.37877921426E+02  0.00000000000E+00 0. -1.
         21   -1    0    0  501  502 -0.00000000000E+00 -0.00000000000E+00 -0.27534201736E+04  0.27534201736E+04  0.00000000000E+00 0. -1.
         25    1    1    2    0    0  0.11659950391E+03  0.12931198938E+03 -0.78147474763E+03  0.81033623644E+03  0.12500000000E+03 0.  0.
         25    1    1    2    0    0 -0.52659034974E+02  0.92901636569E+02 -0.67280647186E+03  0.69260178791E+03  0.12500000000E+03 0.  0.
         25    1    1    2    0    0 -0.63940468939E+02 -0.22221362595E+03 -0.12612610326E+04  0.12883600706E+04  0.12500000000E+03 0.  0.
</event>
<event>
 5    0  0.5779241E-005  0.3139076E+03  0.7546771E-02  0.1078488E+00
         21   -1    0    0  502  501  0.00000000000E+00  0.00000000000E+00  0.18514414958E+03  0.18514414958E+03  0.00000000000E+00 0.  1.
         21   -1    0    0  501  502 -0.00000000000E+00 -0.00000000000E+00 -0.53222311745E+03  0.53222311745E+03  0.00000000000E+00 0.  1.
         25    1    1    2    0    0 -0.11781258694E+03  0.50040086654E+02  0.76617189371E+02  0.19462530571E+03  0.12500000000E+03 0.  0.
         25    1    1    2    0    0  0.87246723322E+02 -0.66297149748E+02 -0.16973608192E+03  0.23757659881E+03  0.12500000000E+03 0.  0.
         25    1    1    2    0    0  0.30565863620E+02  0.16257063094E+02 -0.25396007533E+03  0.28516536252E+03  0.12500000000E+03 0.  0.
</event>
<event>
 5    0  0.5764392E-005  0.5398225E+03  0.7546771E-02  0.1003877E+00
         21   -1    0    0  502  501  0.00000000000E+00  0.00000000000E+00  0.10904131415E+04  0.10904131415E+04  0.00000000000E+00 0.  1.
         21   -1    0    0  501  502 -0.00000000000E+00 -0.00000000000E+00 -0.26724575583E+03  0.26724575583E+03  0.00000000000E+00 0.  1.
         25    1    1    2    0    0 -0.49458289682E+01  0.16339932112E+03  0.53576910087E+03  0.57393146700E+03  0.12500000000E+03 0.  0.
         25    1    1    2    0    0 -0.10751719528E+03  0.21145177685E+03 -0.22557584594E+02  0.26908297203E+03  0.12500000000E+03 0.  0.
         25    1    1    2    0    0  0.11246302425E+03 -0.37485109797E+03  0.30995586936E+03  0.51464445826E+03  0.12500000000E+03 0.  0.
</event>
<event>
 5    0  0.5764392E-005  0.2809106E+03  0.7546771E-02  0.1095193E+00
         21   -1    0    0  502  501  0.00000000000E+00  0.00000000000E+00  0.28201103470E+03  0.28201103470E+03  0.00000000000E+00 0.  1.
         21   -1    0    0  501  502 -0.00000000000E+00 -0.00000000000E+00 -0.27981440201E+03  0.27981440201E+03  0.00000000000E+00 0.  1.
         25    1    1    2    0    0  0.13797133943E+02  0.66921162862E+02  0.58319278294E+02  0.15393161197E+03  0.12500000000E+03 0.  0.
         25    1    1    2    0    0 -0.10702080325E+03 -0.20165114467E+02  0.90435282301E+02  0.18884815184E+03  0.12500000000E+03 0.  0.
         25    1    1    2    0    0  0.93223669305E+02 -0.46756048395E+02 -0.14655792791E+03  0.21904567290E+03  0.12500000000E+03 0.  0.
</event>
<event>
 5    0  0.5764392E-005  0.4478260E+03  0.7546771E-02  0.1028372E+00
         21   -1    0    0  502  501  0.00000000000E+00  0.00000000000E+00  0.47567946084E+03  0.47567946084E+03  0.00000000000E+00 0.  1.
         21   -1    0    0  501  502 -0.00000000000E+00 -0.00000000000E+00 -0.42160356319E+03  0.42160356319E+03  0.00000000000E+00 0.  1.
         25    1    1    2    0    0 -0.16125752049E+03  0.46240374817E+02 -0.11667828487E+03  0.23954327863E+03  0.12500000000E+03 0.  0.
         25    1    1    2    0    0  0.12519894377E+03 -0.26931428924E+03 -0.39624285579E+02  0.32465373234E+03  0.12500000000E+03 0.  0.
         25    1    1    2    0    0  0.36058576716E+02  0.22307391442E+03  0.21037846811E+03  0.33308601306E+03  0.12500000000E+03 0.  0.
</event>
<event>
 5    0  0.5764392E-005  0.5279168E+03  0.7546771E-02  0.1006739E+00
         21   -1    0    0  502  501  0.00000000000E+00  0.00000000000E+00  0.12835222966E+03  0.12835222966E+03  0.00000000000E+00 0. -1.
         21   -1    0    0  501  502 -0.00000000000E+00 -0.00000000000E+00 -0.21713383598E+04  0.21713383598E+04  0.00000000000E+00 0. -1.
         25    1    1    2    0    0 -0.32038780422E+03 -0.18303385212E+03 -0.31531564570E+03  0.50119725911E+03  0.12500000000E+03 0.  0.
         25    1    1    2    0    0  0.27957973196E+03  0.53422308419E+02 -0.11930979773E+04  0.12329341235E+04  0.12500000000E+03 0.  0.
         25    1    1    2    0    0  0.40808072262E+02  0.12961154370E+03 -0.53457250716E+03  0.56555920683E+03  0.12500000000E+03 0.  0.
</event>
<event>
 5    0  0.5764392E-005  0.3954486E+03  0.7546771E-02  0.1045367E+00
         21   -1    0    0  502  501  0.00000000000E+00  0.00000000000E+00  0.77277672030E+03  0.77277672030E+03  0.00000000000E+00 0.  1.
         21   -1    0    0  501  502 -0.00000000000E+00 -0.00000000000E+00 -0.20236061799E+03  0.20236061799E+03  0.00000000000E+00 0.  1.
         25    1    1    2    0    0  0.23435417126E+03 -0.18782631527E+03  0.34019249459E+03  0.47069792401E+03  0.12500000000E+03 0.  0.
         25    1    1    2    0    0 -0.11658721871E+03 -0.25132381132E+02  0.11525623817E+03  0.20768537884E+03  0.12500000000E+03 0.  0.
         25    1    1    2    0    0 -0.11776695255E+03  0.21295869640E+03  0.11496736955E+03  0.29675403543E+03  0.12500000000E+03 0.  0.
</event>
<event>
 5    0  0.6134230E-005  0.3083549E+03  0.7546771E-02  0.1081137E+00
         21   -1    0    0  502  501  0.00000000000E+00  0.00000000000E+00  0.17687073982E+03  0.17687073982E+03  0.00000000000E+00 0. -1.
         21   -1    0    0  501  502 -0.00000000000E+00 -0.00000000000E+00 -0.53758317836E+03  0.53758317836E+03  0.00000000000E+00 0. -1.
         25    1    1    2    0    0 -0.11314182459E+03 -0.46672497637E+02 -0.63916085697E+02  0.18625160541E+03  0.12500000000E+03 0.  0.
         25    1    1    2    0    0  0.87515783815E+02  0.15066808500E+03 -0.29358297899E+03  0.36355996728E+03  0.12500000000E+03 0.  0.
         25    1    1    2    0    0  0.25626040774E+02 -0.10399558737E+03 -0.32133738475E+01  0.16464234549E+03  0.12500000000E+03 0.  0.
</event>
<event>
 5    0  0.5764392E-005  0.4264314E+03  0.7546771E-02  0.1034993E+00
         21   -1    0    0  502  501  0.00000000000E+00  0.00000000000E+00  0.22587656513E+03  0.22587656513E+03  0.00000000000E+00 0.  1.
         21   -1    0    0  501  502 -0.00000000000E+00 -0.00000000000E+00 -0.80505798738E+03  0.80505798738E+03  0.00000000000E+00 0.  1.
         25    1    1    2    0    0  0.17577467674E+02 -0.14416122444E+03  0.14113692455E+03  0.23798331343E+03  0.12500000000E+03 0.  0.
         25    1    1    2    0    0  0.70423142986E+02  0.78747991709E+02 -0.39613248496E+03  0.42861009194E+03  0.12500000000E+03 0.  0.
         25    1    1    2    0    0 -0.88000610660E+02  0.65413232734E+02 -0.32418586183E+03  0.36434114714E+03  0.12500000000E+03 0.  0.
</event>
<event>
 5    0  0.5764392E-005  0.2210693E+03  0.7546771E-02  0.1133088E+00
         21   -1    0    0  502  501  0.00000000000E+00  0.00000000000E+00  0.24969656051E+03  0.24969656051E+03  0.00000000000E+00 0.  1.
         21   -1    0    0  501  502 -0.00000000000E+00 -0.00000000000E+00 -0.19572413958E+03  0.19572413958E+03  0.00000000000E+00 0.  1.
         25    1    1    2    0    0 -0.39836024220E+02  0.99985293764E+02  0.10408275734E+02  0.16527946030E+03  0.12500000000E+03 0.  0.
         25    1    1    2    0    0  0.24386064817E+02 -0.67320689135E+02  0.38824696978E+01  0.14410700508E+03  0.12500000000E+03 0.  0.
         25    1    1    2    0    0  0.15449959403E+02 -0.32664604629E+02  0.39681675504E+02  0.13603423471E+03  0.12500000000E+03 0.  0.
</event>
<event>
 5    0  0.5764392E-005  0.3882410E+03  0.7546771E-02  0.1047929E+00
         21   -1    0    0  502  501  0.00000000000E+00  0.00000000000E+00  0.15216122246E+03  0.15216122246E+03  0.00000000000E+00 0.  1.
         21   -1    0    0  501  502 -0.00000000000E+00 -0.00000000000E+00 -0.99060126962E+03  0.99060126962E+03  0.00000000000E+00 0.  1.
         25    1    1    2    0    0  0.71883889580E+02 -0.15088967317E+03 -0.26449375896E+03  0.33692274423E+03  0.12500000000E+03 0.  0.
         25    1    1    2    0    0  0.14500237755E+03  0.10039749619E+03 -0.49240518591E+03  0.53776687686E+03  0.12500000000E+03 0.  0.
         25    1    1    2    0    0 -0.21688626713E+03  0.50492176974E+02 -0.81541102289E+02  0.26807287100E+03  0.12500000000E+03 0.  0.
</event>
<event>
 5    0  0.5772036E-005  0.2869316E+03  0.7546771E-02  0.1091962E+00
         21   -1    0    0  502  501  0.00000000000E+00  0.00000000000E+00  0.53421360306E+03  0.53421360306E+03  0.00000000000E+00 0. -1.
         21   -1    0    0  501  502 -0.00000000000E+00 -0.00000000000E+00 -0.15411394242E+03  0.15411394242E+03  0.00000000000E+00 0. -1.
         25    1    1    2    0    0  0.24633699525E+02 -0.38074260667E+02  0.11488234182E+03  0.17572541347E+03  0.12500000000E+03 0.  0.
         25    1    1    2    0    0  0.13194931417E+03  0.62733590832E+02  0.24246894628E+03  0.30945486721E+03  0.12500000000E+03 0.  0.
         25    1    1    2    0    0 -0.15658301370E+03 -0.24659330165E+02  0.22748372539E+02  0.20314726480E+03  0.12500000000E+03 0.  0.
</event>
<event>
 5    0  0.5764392E-005  0.4277359E+03  0.7546771E-02  0.1034578E+00
         21   -1    0    0  502  501  0.00000000000E+00  0.00000000000E+00  0.14351700026E+03  0.14351700026E+03  0.00000000000E+00 0.  1.
         21   -1    0    0  501  502 -0.00000000000E+00 -0.00000000000E+00 -0.12748178963E+04  0.12748178963E+04  0.00000000000E+00 0.  1.
         25    1    1    2    0    0 -0.20859709048E+03 -0.74403297272E+02 -0.15021890227E+03  0.29536302308E+03  0.12500000000E+03 0.  0.
         25    1    1    2    0    0 -0.14775253881E+02 -0.67056974713E+02 -0.56780164983E+02  0.15350548238E+03  0.12500000000E+03 0.  0.
         25    1    1    2    0    0  0.22337234436E+03  0.14146027199E+03 -0.92430182874E+03  0.96946639106E+03  0.12500000000E+03 0.  0.
</event>
<event>
 5    0  0.5764392E-005  0.4262402E+03  0.7546771E-02  0.1035054E+00
         21   -1    0    0  502  501  0.00000000000E+00  0.00000000000E+00  0.36131390842E+03  0.36131390842E+03  0.00000000000E+00 0. -1.
         21   -1    0    0  501  502 -0.00000000000E+00 -0.00000000000E+00 -0.50283330625E+03  0.50283330625E+03  0.00000000000E+00 0. -1.
         25    1    1    2    0    0 -0.32075109659E+02  0.69007019802E+02 -0.43989151470E+03  0.46359500229E+03  0.12500000000E+03 0.  0.
         25    1    1    2    0    0  0.11785811373E+02 -0.62106829645E+01  0.14778293502E+03  0.19401616895E+03  0.12500000000E+03 0.  0.
         25    1    1    2    0    0  0.20289298286E+02 -0.62796336838E+02  0.15058918185E+03  0.20653604343E+03  0.12500000000E+03 0.  0.
</event>
<event>
 5    0  0.5764392E-005  0.2974994E+03  0.7546771E-02  0.1086497E+00
         21   -1    0    0  502  501  0.00000000000E+00  0.00000000000E+00  0.10986502421E+03  0.10986502421E+03  0.00000000000E+00 0.  1.
         21   -1    0    0  501  502 -0.00000000000E+00 -0.00000000000E+00 -0.80558750839E+03  0.80558750839E+03  0.00000000000E+00 0.  1.
         25    1    1    2    0    0  0.48070194082E+02  0.12537865391E+03 -0.30753920266E+03  0.35810042110E+03  0.12500000000E+03 0.  0.
         25    1    1    2    0    0  0.73605615633E+02 -0.14055033162E+03 -0.29904857877E+03  0.36087010798E+03  0.12500000000E+03 0.  0.
         25    1    1    2    0    0 -0.12167580971E+03  0.15171677710E+02 -0.89134702754E+02  0.19648200353E+03  0.12500000000E+03 0.  0.
</event>
<event>
 5    0  0.6651595E-005  0.3518657E+03  0.7546771E-02  0.1061852E+00
         21   -1    0    0  502  501  0.00000000000E+00  0.00000000000E+00  0.17071926784E+03  0.17071926784E+03  0.00000000000E+00 0. -1.
         21   -1    0    0  501  502 -0.00000000000E+00 -0.00000000000E+00 -0.72522274439E+03  0.72522274439E+03  0.00000000000E+00 0. -1.
         25    1    1    2    0    0 -0.17972415071E+03  0.57972379439E+02 -0.51978352973E+02  0.23235386010E+03  0.12500000000E+03 0.  0.
         25    1    1    2    0    0  0.19132279420E+03 -0.72354278310E+02 -0.13537243473E+03  0.27530028924E+03  0.12500000000E+03 0.  0.
         25    1    1    2    0    0 -0.11598643493E+02  0.14381898871E+02 -0.36715268885E+03  0.38828786290E+03  0.12500000000E+03 0.  0.
</event>
<event>
 5    0  0.5764392E-005  0.2263437E+03  0.7546771E-02  0.1129240E+00
         21   -1    0    0  502  501  0.00000000000E+00  0.00000000000E+00  0.23739175040E+04  0.23739175040E+04  0.00000000000E+00 0. -1.
         21   -1    0    0  501  502 -0.00000000000E+00 -0.00000000000E+00 -0.21580985541E+02  0.21580985541E+02  0.00000000000E+00 0. -1.
         25    1    1    2    0    0  0.71858143170E+02 -0.56920903783E+02  0.49189124504E+03  0.51573789756E+03  0.12500000000E+03 0.  0.
         25    1    1    2    0    0 -0.33603657178E+02  0.19649856083E+02  0.10253553422E+04  0.10336797862E+04  0.12500000000E+03 0.  0.
         25    1    1    2    0    0 -0.38254485992E+02  0.37271047701E+02  0.83508993119E+03  0.84608080575E+03  0.12500000000E+03 0.  0.
</event>
<event>
 5    0  0.5764392E-005  0.4574863E+03  0.7546771E-02  0.1025513E+00
         21   -1    0    0  502  501  0.00000000000E+00  0.00000000000E+00  0.15989509290E+04  0.15989509290E+04  0.00000000000E+00 0. -1.
         21   -1    0    0  501  502 -0.00000000000E+00 -0.00000000000E+00 -0.13089437008E+03  0.13089437008E+03  0.00000000000E+00 0. -1.
         25    1    1    2    0    0 -0.21673494527E+03  0.22071344705E+03  0.40833256530E+03  0.52730346680E+03  0.12500000000E+03 0.  0.
         25    1    1    2    0    0  0.36818888165E+01 -0.27880524708E+03  0.68404766929E+03  0.74919432457E+03  0.12500000000E+03 0.  0.
         25    1    1    2    0    0  0.21305305645E+03  0.58091800028E+02  0.37567632438E+03  0.45334750776E+03  0.12500000000E+03 0.  0.
</event>
<event>
 5    0  0.5764392E-005  0.3120979E+03  0.7546771E-02  0.1079345E+00
         21   -1    0    0  502  501  0.00000000000E+00  0.00000000000E+00  0.22540828518E+03  0.22540828518E+03  0.00000000000E+00 0.  1.
         21   -1    0    0  501  502 -0.00000000000E+00 -0.00000000000E+00 -0.43212745195E+03  0.43212745195E+03  0.00000000000E+00 0.  1.
         25    1    1    2    0    0 -0.13947766796E+03 -0.82914709359E+00  0.93318523416E+02  0.20925595370E+03  0.12500000000E+03 0.  0.
         25    1    1    2    0    0  0.14487703931E+02  0.65596997748E+02 -0.15852519686E+03  0.21276300834E+03  0.12500000000E+03 0.  0.
         25    1    1    2    0    0  0.12498996403E+03 -0.64767850655E+02 -0.14151249333E+03  0.23551677510E+03  0.12500000000E+03 0.  0.
</event>
<event>
 5    0  0.5764392E-005  0.2745211E+03  0.7546771E-02  0.1098720E+00
         21   -1    0    0  502  501  0.00000000000E+00  0.00000000000E+00  0.21629704074E+03  0.21629704074E+03  0.00000000000E+00 0. -1.
         21   -1    0    0  501  502 -0.00000000000E+00 -0.00000000000E+00 -0.34841835334E+03  0.34841835334E+03  0.00000000000E+00 0. -1.
         25    1    1    2    0    0  0.20861560560E+02  0.43678579009E+02  0.92938386778E+02  0.16311212926E+03  0.12500000000E+03 0.  0.
         25    1    1    2    0    0 -0.29469533330E+02  0.81775365573E+02 -0.77047256631E+02  0.17063687633E+03  0.12500000000E+03 0.  0.
         25    1    1    2    0    0  0.86079727702E+01 -0.12545394458E+03 -0.14801244275E+03  0.23096638850E+03  0.12500000000E+03 0.  0.
</event>
<event>
 5    0  0.5764392E-005  0.4449870E+03  0.7546771E-02  0.1029228E+00
         21   -1    0    0  502  501  0.00000000000E+00  0.00000000000E+00  0.66230240499E+03  0.66230240499E+03  0.00000000000E+00 0.  1.
         21   -1    0    0  501  502 -0.00000000000E+00 -0.00000000000E+00 -0.29897734435E+03  0.29897734435E+03  0.00000000000E+00 0.  1.
         25    1    1    2    0    0  0.12468940938E+03 -0.13896055178E+03 -0.34765762018E+01  0.22470996939E+03  0.12500000000E+03 0.  0.
         25    1    1    2    0    0 -0.94148933991E+02  0.27000081863E+03  0.43951918482E+03  0.53904227817E+03  0.12500000000E+03 0.  0.
         25    1    1    2    0    0 -0.30540475392E+02 -0.13104026685E+03 -0.72717547981E+02  0.19752750178E+03  0.12500000000E+03 0.  0.
</event>
<event>
 5    0  0.5764392E-005  0.4336582E+03  0.7546771E-02  0.1032711E+00
         21   -1    0    0  502  501  0.00000000000E+00  0.00000000000E+00  0.26862858047E+03  0.26862858047E+03  0.00000000000E+00 0.  1.
         21   -1    0    0  501  502 -0.00000000000E+00 -0.00000000000E+00 -0.70007236397E+03  0.70007236397E+03  0.00000000000E+00 0.  1.
         25    1    1    2    0    0 -0.24804286347E+03 -0.36534788401E+01 -0.15392815215E+03  0.31758067644E+03  0.12500000000E+03 0.  0.
         25    1    1    2    0    0  0.32001051372E+03 -0.15260193658E+03 -0.16504998401E+03  0.41056129526E+03  0.12500000000E+03 0.  0.
         25    1    1    2    0    0 -0.71967650258E+02  0.15625541542E+03 -0.11246564735E+03  0.24055897274E+03  0.12500000000E+03 0.  0.
</event>
<event>
 5    0  0.5764392E-005  0.2543550E+03  0.7546771E-02  0.1110583E+00
         21   -1    0    0  502  501  0.00000000000E+00  0.00000000000E+00  0.70808523738E+03  0.70808523738E+03  0.00000000000E+00 0.  1.
         21   -1    0    0  501  502 -0.00000000000E+00 -0.00000000000E+00 -0.91368157279E+02  0.91368157279E+02  0.00000000000E+00 0.  1.
         25    1    1    2    0    0  0.53600374377E+02 -0.91802973439E+02  0.21845192419E+03  0.27321608527E+03  0.12500000000E+03 0.  0.
         25    1    1    2    0    0  0.79131294035E+02  0.52309946084E+02  0.16798972676E+03  0.22987744659E+03  0.12500000000E+03 0.  0.
         25    1    1    2    0    0 -0.13273166841E+03  0.39493027355E+02  0.23027542916E+03  0.29635986281E+03  0.12500000000E+03 0.  0.
</event>
<event>
 5    0  0.5764392E-005  0.4015512E+03  0.7546771E-02  0.1043244E+00
         21   -1    0    0  502  501  0.00000000000E+00  0.00000000000E+00  0.17251421863E+03  0.17251421863E+03  0.00000000000E+00 0. -1.
         21   -1    0    0  501  502 -0.00000000000E+00 -0.00000000000E+00 -0.93466718352E+03  0.93466718352E+03  0.00000000000E+00 0. -1.
         25    1    1    2    0    0 -0.55355436062E+02  0.54306913090E+02 -0.63891907729E+03  0.65563408426E+03  0.12500000000E+03 0.  0.
         25    1    1    2    0    0  0.18706923282E+03 -0.10089152109E+03 -0.79159446653E+02  0.25896952502E+03  0.12500000000E+03 0.  0.
         25    1    1    2    0    0 -0.13171379676E+03  0.46584608004E+02 -0.44074440943E+02  0.19257779286E+03  0.12500000000E+03 0.  0.
</event>
<event>
 5    0  0.5764392E-005  0.3100022E+03  0.7546771E-02  0.1080345E+00
         21   -1    0    0  502  501  0.00000000000E+00  0.00000000000E+00  0.54133971409E+02  0.54133971409E+02  0.00000000000E+00 0.  1.
         21   -1    0    0  501  502 -0.00000000000E+00 -0.00000000000E+00 -0.17752508125E+04  0.17752508125E+04  0.00000000000E+00 0.  1.
         25    1    1    2    0    0  0.82573757494E+02  0.89975996854E+02 -0.20111748805E+03  0.26643451247E+03  0.12500000000E+03 0.  0.
         25    1    1    2    0    0 -0.11444520008E+03 -0.12132677552E+03 -0.11739740069E+04  0.11923329481E+04  0.12500000000E+03 0.  0.
         25    1    1    2    0    0  0.31871442585E+02  0.31350778664E+02 -0.34602534613E+03  0.37061732331E+03  0.12500000000E+03 0.  0.
</event>
<event>
 5    0  0.6001303E-005  0.5654811E+03  0.7546771E-02  0.9979729E-01
         21   -1    0    0  502  501  0.00000000000E+00  0.00000000000E+00  0.70537954072E+03  0.70537954072E+03  0.00000000000E+00 0. -1.
         21   -1    0    0  501  502 -0.00000000000E+00 -0.00000000000E+00 -0.45332875456E+03  0.45332875456E+03  0.00000000000E+00 0. -1.
         25    1    1    2    0    0  0.11716285060E+03  0.22812473869E+03 -0.55728817967E+02  0.29068665452E+03  0.12500000000E+03 0.  0.
         25    1    1    2    0    0 -0.30388756165E+03  0.74986428322E+02 -0.58596078221E+02  0.34209518403E+03  0.12500000000E+03 0.  0.
         25    1    1    2    0    0  0.18672471104E+03 -0.30311116701E+03  0.36637568234E+03  0.52592645673E+03  0.12500000000E+03 0.  0.
</event>
<event>
 5    0  0.5764392E-005  0.3420572E+03  0.7546771E-02  0.1065923E+00
         21   -1    0    0  502  501  0.00000000000E+00  0.00000000000E+00  0.16020043415E+03  0.16020043415E+03  0.00000000000E+00 0.  1.
         21   -1    0    0  501  502 -0.00000000000E+00 -0.00000000000E+00 -0.73035463069E+03  0.73035463069E+03  0.00000000000E+00 0.  1.
         25    1    1    2    0    0 -0.11798357401E+03 -0.16403095654E+03 -0.15680113968E+03  0.28467152272E+03  0.12500000000E+03 0.  0.
         25    1    1    2    0    0 -0.16261171251E+02  0.21306056327E+03 -0.28067878625E+03  0.37425233514E+03  0.12500000000E+03 0.  0.
         25    1    1    2    0    0  0.13424474526E+03 -0.49029606731E+02 -0.13267427060E+03  0.23163120698E+03  0.12500000000E+03 0.  0.
</event>
<event>
 5    0  0.6646609E-005  0.2970484E+03  0.7546771E-02  0.1086725E+00
         21   -1    0    0  502  501  0.00000000000E+00  0.00000000000E+00  0.44148824542E+03  0.44148824542E+03  0.00000000000E+00 0. -1.
         21   -1    0    0  501  502 -0.00000000000E+00 -0.00000000000E+00 -0.19986438148E+03  0.19986438148E+03  0.00000000000E+00 0. -1.
         25    1    1    2    0    0  0.61528155785E+02 -0.61363049945E+02 -0.60094785550E+02  0.16366893750E+03  0.12500000000E+03 0.  0.
         25    1    1    2    0    0 -0.13872957532E+02 -0.98384686830E+02  0.10484221424E+03  0.19102066757E+03  0.12500000000E+03 0.  0.
         25    1    1    2    0    0 -0.47655198253E+02  0.15974773678E+03  0.19687643524E+03  0.28666302182E+03  0.12500000000E+03 0.  0.
</event>
<event>
 5    0  0.7504155E-005  0.3277479E+03  0.7546771E-02  0.1072138E+00
         21   -1    0    0  502  501  0.00000000000E+00  0.00000000000E+00  0.34698321280E+03  0.34698321280E+03  0.00000000000E+00 0. -1.
         21   -1    0    0  501  502 -0.00000000000E+00 -0.00000000000E+00 -0.30957887708E+03  0.30957887708E+03  0.00000000000E+00 0. -1.
         25    1    1    2    0    0 -0.83535607160E+02  0.17437905574E+03 -0.10056673989E+03  0.25124673513E+03  0.12500000000E+03 0.  0.
         25    1    1    2    0    0 -0.13760245199E+02 -0.16617225953E+03  0.23513150465E+02  0.20971512208E+03  0.12500000000E+03 0.  0.
         25    1    1    2    0    0  0.97295852359E+02 -0.82067962075E+01  0.11445792514E+03  0.19560023266E+03  0.12500000000E+03 0.  0.
</event>
<event>
 5    0  0.5764392E-005  0.2736796E+03  0.7546771E-02  0.1099192E+00
         21   -1    0    0  502  501  0.00000000000E+00  0.00000000000E+00  0.10025679071E+03  0.10025679071E+03  0.00000000000E+00 0. -1.
         21   -1    0    0  501  502 -0.00000000000E+00 -0.00000000000E+00 -0.74708678100E+03  0.74708678100E+03  0.00000000000E+00 0. -1.
         25    1    1    2    0    0  0.31965360794E+01  0.52988951360E+02 -0.32352972053E+03  0.35087679729E+03  0.12500000000E+03 0.  0.
         25    1    1    2    0    0 -0.15517869505E+02 -0.11827279525E+03 -0.30920779599E+03  0.35420858187E+03  0.12500000000E+03 0.  0.
         25    1    1    2    0    0  0.12321333425E+02  0.65283843891E+02 -0.14092473770E+02  0.14225819255E+03  0.12500000000E+03 0.  0.
</event>
<event>
 5    0  0.5764392E-005  0.2760700E+03  0.7546771E-02  0.1097855E+00
         21   -1    0    0  502  501  0.00000000000E+00  0.00000000000E+00  0.80590651962E+03  0.80590651962E+03  0.00000000000E+00 0. -1.
         21   -1    0    0  501  502 -0.00000000000E+00 -0.00000000000E+00 -0.94570066746E+02  0.94570066746E+02  0.00000000000E+00 0. -1.
         25    1    1    2    0    0 -0.21944967185E+01  0.16725001538E+03  0.16443314212E+03  0.26578307261E+03  0.12500000000E+03 0.  0.
         25    1    1    2    0    0 -0.16158670417E+01 -0.11253692200E+03  0.40122434152E+03  0.43505533219E+03  0.12500000000E+03 0.  0.
         25    1    1    2    0    0  0.38103637602E+01 -0.54713093388E+02  0.14567896924E+03  0.19963818157E+03  0.12500000000E+03 0.  0.
</event>
<event>
 5    0  0.5764392E-005  0.2393415E+03  0.7546771E-02  0.1120232E+00
         21   -1    0    0  502  501  0.00000000000E+00  0.00000000000E+00  0.14341091573E+03  0.14341091573E+03  0.00000000000E+00 0. -1.
         21   -1    0    0  501  502 -0.00000000000E+00 -0.00000000000E+00 -0.39944207968E+03  0.39944207968E+03  0.00000000000E+00 0. -1.
         25    1    1    2    0    0  0.27144675777E+02 -0.90195084621E+02 -0.43375234974E+02  0.16241427807E+03  0.12500000000E+03 0.  0.
         25    1    1    2    0    0 -0.90703276731E+02  0.30062929127E+02 -0.14337435840E+03  0.21286632135E+03  0.12500000000E+03 0.  0.
         25    1    1    2    0    0  0.63558600954E+02  0.60132155494E+02 -0.69281570577E+02  0.16757239600E+03  0.12500000000E+03 0.  0.
</event>
<event>
 5    0  0.5764392E-005  0.3510964E+03  0.7546771E-02  0.1062166E+00
         21   -1    0    0  502  501  0.00000000000E+00  0.00000000000E+00  0.95318116724E+03  0.95318116724E+03  0.00000000000E+00 0. -1.
         21   -1    0    0  501  502 -0.00000000000E+00 -0.00000000000E+00 -0.12932345685E+03  0.12932345685E+03  0.00000000000E+00 0. -1.
         25    1    1    2    0    0  0.12530772840E+02 -0.88156563656E+02  0.37734405125E+03  0.40735995507E+03  0.12500000000E+03 0.  0.
         25    1    1    2    0    0  0.44051541311E+02  0.10925552633E+03  0.49822668320E+03  0.52700297550E+03  0.12500000000E+03 0.  0.
         25    1    1    2    0    0 -0.56582314151E+02 -0.21098962675E+02 -0.51713024060E+02  0.14814169352E+03  0.12500000000E+03 0.  0.
</event>
<event>
 5    0  0.5764392E-005  0.2889613E+03  0.7546771E-02  0.1090893E+00
         21   -1    0    0  502  501  0.00000000000E+00  0.00000000000E+00  0.48536826830E+03  0.48536826830E+03  0.00000000000E+00 0.  1.
         21   -1    0    0  501  502 -0.00000000000E+00 -0.00000000000E+00 -0.17203156271E+03  0.17203156271E+03  0.00000000000E+00 0.  1.
         25    1    1    2    0    0 -0.13855284355E+03  0.17495154090E+02  0.11760924416E+03  0.22126885272E+03  0.12500000000E+03 0.  0.
         25    1    1    2    0    0  0.10723027280E+03 -0.90447913617E+02  0.21642736954E+03  0.28660942547E+03  0.12500000000E+03 0.  0.
         25    1    1    2    0    0  0.31322570756E+02  0.72952759527E+02 -0.20699908105E+02  0.14952155282E+03  0.12500000000E+03 0.  0.
</event>
<event>
 5    0  0.5764392E-005  0.3889166E+03  0.7546771E-02  0.1047686E+00
         21   -1    0    0  502  501  0.00000000000E+00  0.00000000000E+00  0.21685264962E+03  0.21685264962E+03  0.00000000000E+00 0. -1.
         21   -1    0    0  501  502 -0.00000000000E+00 -0.00000000000E+00 -0.69750637533E+03  0.69750637533E+03  0.00000000000E+00 0. -1.
         25    1    1    2    0    0  0.16173714643E+03 -0.95519682920E+02 -0.33250523112E+03  0.40183036605E+03  0.12500000000E+03 0.  0.
         25    1    1    2    0    0 -0.26034798193E+03 -0.23360675313E+02 -0.63905653836E+02  0.29670814859E+03  0.12500000000E+03 0.  0.
         25    1    1    2    0    0  0.98610835503E+02  0.11888035823E+03 -0.84242840764E+02  0.21582051031E+03  0.12500000000E+03 0.  0.
</event>
<event>
 5    0  0.5764392E-005  0.5163090E+03  0.7546771E-02  0.1009608E+00
         21   -1    0    0  502  501  0.00000000000E+00  0.00000000000E+00  0.90767017154E+03  0.90767017154E+03  0.00000000000E+00 0.  1.
         21   -1    0    0  501  502 -0.00000000000E+00 -0.00000000000E+00 -0.29369148097E+03  0.29369148097E+03  0.00000000000E+00 0.  1.
         25    1    1    2    0    0 -0.27783350514E+03  0.36984135344E+02  0.14732426899E+02  0.30724798982E+03  0.12500000000E+03 0.  0.
         25    1    1    2    0    0  0.26936089912E+01 -0.20577422163E+03  0.46348455745E+03  0.52229610454E+03  0.12500000000E+03 0.  0.
         25    1    1    2    0    0  0.27513989615E+03  0.16879008629E+03  0.13576170622E+03  0.37181755816E+03  0.12500000000E+03 0.  0.
</event>
<event>
 5    0  0.5764392E-005  0.3822550E+03  0.7546771E-02  0.1050103E+00
         21   -1    0    0  502  501  0.00000000000E+00  0.00000000000E+00  0.13210229386E+03  0.13210229386E+03  0.00000000000E+00 0.  1.
         21   -1    0    0  501  502 -0.00000000000E+00 -0.00000000000E+00 -0.11061038364E+04  0.11061038364E+04  0.00000000000E+00 0.  1.
         25    1    1    2    0    0 -0.13221967632E+03  0.10007313818E+03 -0.30808993567E+03  0.37153880585E+03  0.12500000000E+03 0.  0.
         25    1    1    2    0    0 -0.25676510089E+02 -0.18749837974E+03 -0.79215356248E+02  0.24023946021E+03  0.12500000000E+03 0.  0.
         25    1    1    2    0    0  0.15789618641E+03  0.87425241564E+02 -0.58669625059E+03  0.62642786417E+03  0.12500000000E+03 0.  0.
</event>
<event>
 5    0  0.5764392E-005  0.4787481E+03  0.7546771E-02  0.1019480E+00
         21   -1    0    0  502  501  0.00000000000E+00  0.00000000000E+00  0.16649169932E+04  0.16649169932E+04  0.00000000000E+00 0.  1.
         21   -1    0    0  501  502 -0.00000000000E+00 -0.00000000000E+00 -0.13766435672E+03  0.13766435672E+03  0.00000000000E+00 0.  1.
         25    1    1    2    0    0  0.36780756079E+03  0.16887128749E+03  0.94502175357E+03  0.10356114272E+04  0.12500000000E+03 0.  0.
         25    1    1    2    0    0 -0.21885836796E+03 -0.71816351955E+02  0.20953592855E+03  0.33553968318E+03  0.12500000000E+03 0.  0.
         25    1    1    2    0    0 -0.14894919283E+03 -0.97054935532E+02  0.37269495441E+03  0.43143023955E+03  0.12500000000E+03 0.  0.
</event>
<event>
 5    0  0.5764392E-005  0.3518197E+03  0.7546771E-02  0.1061871E+00
         21   -1    0    0  502  501  0.00000000000E+00  0.00000000000E+00  0.72972199128E+02  0.72972199128E+02  0.00000000000E+00 0. -1.
         21   -1    0    0  501  502 -0.00000000000E+00 -0.00000000000E+00 -0.16962223951E+04  0.16962223951E+04  0.00000000000E+00 0. -1.
         25    1    1    2    0    0 -0.15307538497E+03  0.17517093087E+01 -0.49636948927E+03  0.53426848292E+03  0.12500000000E+03 0.  0.
         25    1    1    2    0    0 -0.38915829605E+02  0.11416494900E+03 -0.16576420368E+03  0.24010591121E+03  0.12500000000E+03 0.  0.
         25    1    1    2    0    0  0.19199121457E+03 -0.11591665831E+03 -0.96111650304E+03  0.99482020011E+03  0.12500000000E+03 0.  0.
</event>
<event>
 5    0  0.5764392E-005  0.2657164E+03  0.7546771E-02  0.1103757E+00
         21   -1    0    0  502  501  0.00000000000E+00  0.00000000000E+00  0.51271492923E+02  0.51271492923E+02  0.00000000000E+00 0.  1.
         21   -1    0    0  501  502 -0.00000000000E+00 -0.00000000000E+00 -0.13770854727E+04  0.13770854727E+04  0.00000000000E+00 0.  1.
         25    1    1    2    0    0  0.50974535188E+02 -0.46091385902E+02 -0.29190740764E+03  0.32489652773E+03  0.12500000000E+03 0.  0.
         25    1    1    2    0    0  0.57240014641E+02  0.52567406063E+02 -0.81960191947E+03  0.83271367099E+03  0.12500000000E+03 0.  0.
         25    1    1    2    0    0 -0.10821454983E+03 -0.64760201612E+01 -0.21430465263E+03  0.27074676687E+03  0.12500000000E+03 0.  0.
</event>
<event>
 5    0  0.5764392E-005  0.2583146E+03  0.7546771E-02  0.1108160E+00
         21   -1    0    0  502  501  0.00000000000E+00  0.00000000000E+00  0.78835891371E+03  0.78835891371E+03  0.00000000000E+00 0.  1.
         21   -1    0    0  501  502 -0.00000000000E+00 -0.00000000000E+00 -0.84639651095E+02  0.84639651095E+02  0.00000000000E+00 0.  1.
         25    1    1    2    0    0 -0.23915269928E+02  0.12696341183E+03  0.12045251061E+03  0.21639190233E+03  0.12500000000E+03 0.  0.
         25    1    1    2    0    0 -0.21062956283E+02 -0.48240853640E+02  0.18453279491E+03  0.22901567738E+03  0.12500000000E+03 0.  0.
         25    1    1    2    0    0  0.44978226211E+02 -0.78722558191E+02  0.39873395710E+03  0.42759098511E+03  0.12500000000E+03 0.  0.
</event>
<event>
 5    0  0.5764392E-005  0.2752754E+03  0.7546771E-02  0.1098298E+00
         21   -1    0    0  502  501  0.00000000000E+00  0.00000000000E+00  0.14621282202E+03  0.14621282202E+03  0.00000000000E+00 0. -1.
         21   -1    0    0  501  502 -0.00000000000E+00 -0.00000000000E+00 -0.51826202849E+03  0.51826202849E+03  0.00000000000E+00 0. -1.
         25    1    1    2    0    0  0.73971343463E+02  0.11252584135E+03 -0.25835233339E+03  0.31702484570E+03  0.12500000000E+03 0.  0.
         25    1    1    2    0    0  0.34718774809E+02 -0.77717103282E+02 -0.91451920694E+02  0.17673085544E+03  0.12500000000E+03 0.  0.
         25    1    1    2    0    0 -0.10869011827E+03 -0.34808738067E+02 -0.22244952387E+02  0.17071914937E+03  0.12500000000E+03 0.  0.
</event>
<event>
 5    0  0.5764392E-005  0.2754442E+03  0.7546771E-02  0.1098204E+00
         21   -1    0    0  502  501  0.00000000000E+00  0.00000000000E+00  0.67962922445E+03  0.67962922445E+03  0.00000000000E+00 0. -1.
         21   -1    0    0  501  502 -0.00000000000E+00 -0.00000000000E+00 -0.11163367966E+03  0.11163367966E+03  0.00000000000E+00 0. -1.
         25    1    1    2    0    0 -0.78737337842E+02  0.80605846572E+02  0.73180883123E+02  0.18351379383E+03  0.12500000000E+03 0.  0.
         25    1    1    2    0    0  0.41148170030E+02  0.57849249524E+02  0.31361959884E+03  0.34499559467E+03  0.12500000000E+03 0.  0.
         25    1    1    2    0    0  0.37589167812E+02 -0.13845509610E+03  0.18119506283E+03  0.26275351561E+03  0.12500000000E+03 0.  0.
</event>
<event>
 5    0  0.5764392E-005  0.2789999E+03  0.7546771E-02  0.1096236E+00
         21   -1    0    0  502  501  0.00000000000E+00  0.00000000000E+00  0.75080593527E+02  0.75080593527E+02  0.00000000000E+00 0.  1.
         21   -1    0    0  501  502 -0.00000000000E+00 -0.00000000000E+00 -0.10367651654E+04  0.10367651654E+04  0.00000000000E+00 0.  1.
         25    1    1    2    0    0  0.50080303442E+02  0.12726115362E+03 -0.19263089034E+03  0.26727345159E+03  0.12500000000E+03 0.  0.
         25    1    1    2    0    0  0.63461817834E+02 -0.25539359039E+02 -0.42234354958E+03  0.44573392854E+03  0.12500000000E+03 0.  0.
         25    1    1    2    0    0 -0.11354212128E+03 -0.10172179458E+03 -0.34671013197E+03  0.39883837880E+03  0.12500000000E+03 0.  0.
</event>
<event>
 5    0  0.5764392E-005  0.4013840E+03  0.7546771E-02  0.1043301E+00
         21   -1    0    0  502  501  0.00000000000E+00  0.00000000000E+00  0.55656994806E+03  0.55656994806E+03  0.00000000000E+00 0.  1.
         21   -1    0    0  501  502 -0.00000000000E+00 -0.00000000000E+00 -0.28946787630E+03  0.28946787630E+03  0.00000000000E+00 0.  1.
         25    1    1    2    0    0  0.11046825994E+03  0.28450813538E+02  0.45937908525E+03  0.48955778945E+03  0.12500000000E+03 0.  0.
         25    1    1    2    0    0 -0.46026093567E+02  0.31162401205E+02 -0.44262287300E+02  0.14378333219E+03  0.12500000000E+03 0.  0.
         25    1    1    2    0    0 -0.64442166377E+02 -0.59613214744E+02 -0.14801472619E+03  0.21269670272E+03  0.12500000000E+03 0.  0.
</event>
<event>
 5    0  0.5764392E-005  0.3101969E+03  0.7546771E-02  0.1080252E+00
         21   -1    0    0  502  501  0.00000000000E+00  0.00000000000E+00  0.21121982940E+03  0.21121982940E+03  0.00000000000E+00 0.  1.
         21   -1    0    0  501  502 -0.00000000000E+00 -0.00000000000E+00 -0.45555446839E+03  0.45555446839E+03  0.00000000000E+00 0.  1.
         25    1    1    2    0    0  0.75847418314E+02 -0.16460485755E+03 -0.15631896593E+03  0.27001520162E+03  0.12500000000E+03 0.  0.
         25    1    1    2    0    0  0.39322631847E+02  0.11930398619E+03 -0.12518939795E+03  0.21697256937E+03  0.12500000000E+03 0.  0.
         25    1    1    2    0    0 -0.11517005016E+03  0.45300871360E+02  0.37173724892E+02  0.17978652681E+03  0.12500000000E+03 0.  0.
</event>
<event>
 5    0  0.5764392E-005  0.2494451E+03  0.7546771E-02  0.1113656E+00
         21   -1    0    0  502  501  0.00000000000E+00  0.00000000000E+00  0.15853791631E+04  0.15853791631E+04  0.00000000000E+00 0. -1.
         21   -1    0    0  501  502 -0.00000000000E+00 -0.00000000000E+00 -0.39247938419E+02  0.39247938419E+02  0.00000000000E+00 0. -1.
         25    1    1    2    0    0 -0.59513619267E+02 -0.29282674765E+02  0.73949676691E+03  0.75291421436E+03  0.12500000000E+03 0.  0.
         25    1    1    2    0    0 -0.49885869355E+02 -0.29622892931E+02  0.22392435339E+03  0.26293199081E+03  0.12500000000E+03 0.  0.
         25    1    1    2    0    0  0.10939948862E+03  0.58905567696E+02  0.58271010441E+03  0.60878089638E+03  0.12500000000E+03 0.  0.
</event>
<event>
 5    0  0.5764392E-005  0.3404330E+03  0.7546771E-02  0.1066612E+00
         21   -1    0    0  502  501  0.00000000000E+00  0.00000000000E+00  0.94365176122E+03  0.94365176122E+03  0.00000000000E+00 0. -1.
         21   -1    0    0  501  502 -0.00000000000E+00 -0.00000000000E+00 -0.12281502975E+03  0.12281502975E+03  0.00000000000E+00 0. -1.
         25    1    1    2    0    0  0.22652177808E+02 -0.93867985171E+02  0.38240661881E+02  0.16251666998E+03  0.12500000000E+03 0.  0.
         25    1    1    2    0    0  0.79962270226E+02 -0.75249118560E+02  0.13146213392E+03  0.21204642689E+03  0.12500000000E+03 0.  0.
         25    1    1    2    0    0 -0.10261444803E+03  0.16911710373E+03  0.65113393568E+03  0.69190369410E+03  0.12500000000E+03 0.  0.
</event>
<event>
 5    0  0.5764392E-005  0.2321705E+03  0.7546771E-02  0.1125121E+00
         21   -1    0    0  502  501  0.00000000000E+00  0.00000000000E+00  0.12772709265E+04  0.12772709265E+04  0.00000000000E+00 0. -1.
         21   -1    0    0  501  502 -0.00000000000E+00 -0.00000000000E+00 -0.42201821325E+02  0.42201821325E+02  0.00000000000E+00 0. -1.
         25    1    1    2    0    0 -0.44779895847E+02  0.16759496133E+02  0.19951422097E+03  0.24024371824E+03  0.12500000000E+03 0.  0.
         25    1    1    2    0    0  0.67702656556E+02 -0.40821393771E+02  0.76724615918E+03  0.78137168151E+03  0.12500000000E+03 0.  0.
         25    1    1    2    0    0 -0.22922760709E+02  0.24061897639E+02  0.26830872500E+03  0.29785734805E+03  0.12500000000E+03 0.  0.
</event>
<event>
 5    0  0.5764392E-005  0.2454103E+03  0.7546771E-02  0.1116240E+00
         21   -1    0    0  502  501  0.00000000000E+00  0.00000000000E+00  0.40933903467E+03  0.40933903467E+03  0.00000000000E+00 0. -1.
         21   -1    0    0  501  502 -0.00000000000E+00 -0.00000000000E+00 -0.14713044544E+03  0.14713044544E+03  0.00000000000E+00 0. -1.
         25    1    1    2    0    0 -0.20693447124E+02 -0.10212124468E+03  0.21768916902E+02  0.16418237760E+03  0.12500000000E+03 0.  0.
         25    1    1    2    0    0  0.56692877580E+02 -0.84486720798E+01  0.86865217873E+02  0.16265309251E+03  0.12500000000E+03 0.  0.
         25    1    1    2    0    0 -0.35999430456E+02  0.11056991676E+03  0.15357445445E+03  0.22963401000E+03  0.12500000000E+03 0.  0.
</event>
<event>
 5    0  0.5764392E-005  0.3936848E+03  0.7546771E-02  0.1045989E+00
         21   -1    0    0  502  501  0.00000000000E+00  0.00000000000E+00  0.40836986098E+03  0.40836986098E+03  0.00000000000E+00 0. -1.
         21   -1    0    0  501  502 -0.00000000000E+00 -0.00000000000E+00 -0.37952785092E+03  0.37952785092E+03  0.00000000000E+00 0. -1.
         25    1    1    2    0    0  0.23595267259E+03 -0.12910875230E+03  0.65192023943E+02  0.30367372887E+03  0.12500000000E+03 0.  0.
         25    1    1    2    0    0  0.13403102458E+02 -0.66393313826E+02 -0.14264855795E+02  0.14288527351E+03  0.12500000000E+03 0.  0.
         25    1    1    2    0    0 -0.24935577504E+03  0.19550206613E+03 -0.22085158088E+02  0.34133870952E+03  0.12500000000E+03 0.  0.
</event>
<event>
 5    0  0.5764392E-005  0.3941017E+03  0.7546771E-02  0.1045841E+00
         21   -1    0    0  502  501  0.00000000000E+00  0.00000000000E+00  0.35603313614E+03  0.35603313614E+03  0.00000000000E+00 0. -1.
         21   -1    0    0  501  502 -0.00000000000E+00 -0.00000000000E+00 -0.43624072280E+03  0.43624072280E+03  0.00000000000E+00 0. -1.
         25    1    1    2    0    0 -0.19751927186E+03  0.20733247912E+03 -0.12474216337E+03  0.33643160817E+03  0.12500000000E+03 0.  0.
         25    1    1    2    0    0  0.42413751006E+02 -0.98337074998E+02  0.13352736873E+03  0.21195203418E+03  0.12500000000E+03 0.  0.
         25    1    1    2    0    0  0.15510552085E+03 -0.10899540412E+03 -0.88992792018E+02  0.24389021659E+03  0.12500000000E+03 0.  0.
</event>
<event>
 5    0  0.5764392E-005  0.2455747E+03  0.7546771E-02  0.1116134E+00
         21   -1    0    0  502  501  0.00000000000E+00  0.00000000000E+00  0.33020177042E+03  0.33020177042E+03  0.00000000000E+00 0. -1.
         21   -1    0    0  501  502 -0.00000000000E+00 -0.00000000000E+00 -0.18263663378E+03  0.18263663378E+03  0.00000000000E+00 0. -1.
         25    1    1    2    0    0 -0.87322169073E+02  0.58686602933E+02  0.57897165852E+02  0.17333886001E+03  0.12500000000E+03 0.  0.
         25    1    1    2    0    0  0.29561763499E+02 -0.11998159309E+03  0.35371320163E+02  0.17929197091E+03  0.12500000000E+03 0.  0.
         25    1    1    2    0    0  0.57760405574E+02  0.61294990156E+02  0.54296650623E+02  0.16020757329E+03  0.12500000000E+03 0.  0.
</event>
<event>
 5    0  0.5764392E-005  0.3307635E+03  0.7546771E-02  0.1070800E+00
         21   -1    0    0  502  501  0.00000000000E+00  0.00000000000E+00  0.44621480128E+03  0.44621480128E+03  0.00000000000E+00 0.  1.
         21   -1    0    0  501  502 -0.00000000000E+00 -0.00000000000E+00 -0.24518353336E+03  0.24518353336E+03  0.00000000000E+00 0.  1.
         25    1    1    2    0    0 -0.72259452227E+02  0.24292203723E+03  0.87529817029E+02  0.29583612606E+03  0.12500000000E+03 0.  0.
         25    1    1    2    0    0 -0.13364271730E+02 -0.14930129973E+03  0.93249517796E+02  0.21630985745E+03  0.12500000000E+03 0.  0.
         25    1    1    2    0    0  0.85623723958E+02 -0.93620737507E+02  0.20251933091E+02  0.17925235114E+03  0.12500000000E+03 0.  0.
</event>
<event>
 5    0  0.5764392E-005  0.2764726E+03  0.7546771E-02  0.1097631E+00
         21   -1    0    0  502  501  0.00000000000E+00  0.00000000000E+00  0.27916860185E+03  0.27916860185E+03  0.00000000000E+00 0.  1.
         21   -1    0    0  501  502 -0.00000000000E+00 -0.00000000000E+00 -0.27380256379E+03  0.27380256379E+03  0.00000000000E+00 0.  1.
         25    1    1    2    0    0  0.65617379361E+02  0.11110659847E+03  0.33378111225E+02  0.18272770728E+03  0.12500000000E+03 0.  0.
         25    1    1    2    0    0 -0.69324002729E+02 -0.16238886718E+03  0.38287006774E+02  0.21969719258E+03  0.12500000000E+03 0.  0.
         25    1    1    2    0    0  0.37066233684E+01  0.51282268708E+02 -0.66299079945E+02  0.15054626579E+03  0.12500000000E+03 0.  0.
</event>
<event>
 5    0  0.5764392E-005  0.5380970E+03  0.7546771E-02  0.1004287E+00
         21   -1    0    0  502  501  0.00000000000E+00  0.00000000000E+00  0.11396256742E+03  0.11396256742E+03  0.00000000000E+00 0.  1.
         21   -1    0    0  501  502 -0.00000000000E+00 -0.00000000000E+00 -0.25407319239E+04  0.25407319239E+04  0.00000000000E+00 0.  1.
         25    1    1    2    0    0 -0.55413271830E+01  0.35538132787E+03 -0.11421071140E+04  0.12026471862E+04  0.12500000000E+03 0.  0.
         25    1    1    2    0    0  0.16749463936E+03  0.17726577030E+02 -0.68754539656E+03  0.71882707105E+03  0.12500000000E+03 0.  0.
         25    1    1    2    0    0 -0.16195331218E+03 -0.37310790490E+03 -0.59711684590E+03  0.73322023409E+03  0.12500000000E+03 0.  0.
</event>
<event>
 5    0  0.5888499E-005  0.3498444E+03  0.7546771E-02  0.1062679E+00
         21   -1    0    0  502  501  0.00000000000E+00  0.00000000000E+00  0.42521280975E+03  0.42521280975E+03  0.00000000000E+00 0. -1.
         21   -1    0    0  501  502 -0.00000000000E+00 -0.00000000000E+00 -0.28783493728E+03  0.28783493728E+03  0.00000000000E+00 0. -1.
         25    1    1    2    0    0 -0.15917214108E+03  0.10683767949E+03  0.80575979467E+01  0.22899778414E+03  0.12500000000E+03 0.  0.
         25    1    1    2    0    0 -0.61627130740E+01 -0.14551192778E+03  0.18436805457E+03  0.26613582943E+03  0.12500000000E+03 0.  0.
         25    1    1    2    0    0  0.16533485415E+03  0.38674248290E+02 -0.55047780048E+02  0.21791413347E+03  0.12500000000E+03 0.  0.
</event>
<event>
 5    0  0.5764392E-005  0.4682960E+03  0.7546771E-02  0.1022402E+00
         21   -1    0    0  502  501  0.00000000000E+00  0.00000000000E+00  0.55858275537E+03  0.55858275537E+03  0.00000000000E+00 0. -1.
         21   -1    0    0  501  502 -0.00000000000E+00 -0.00000000000E+00 -0.39260277203E+03  0.39260277203E+03  0.00000000000E+00 0. -1.
         25    1    1    2    0    0  0.35659970014E+02 -0.18797294102E+03 -0.24196210504E+03  0.33283046780E+03  0.12500000000E+03 0.  0.
         25    1    1    2    0    0  0.14077218121E+03  0.61582307896E+02  0.26211145944E+03  0.32853706765E+03  0.12500000000E+03 0.  0.
         25    1    1    2    0    0 -0.17643215122E+03  0.12639063313E+03  0.14583062894E+03  0.28981799196E+03  0.12500000000E+03 0.  0.
</event>
<event>
 5    0  0.5764392E-005  0.4176991E+03  0.7546771E-02  0.1037818E+00
         21   -1    0    0  502  501  0.00000000000E+00  0.00000000000E+00  0.71839871263E+03  0.71839871263E+03  0.00000000000E+00 0.  1.
         21   -1    0    0  501  502 -0.00000000000E+00 -0.00000000000E+00 -0.24286312145E+03  0.24286312145E+03  0.00000000000E+00 0.  1.
         25    1    1    2    0    0 -0.63967796807E+02  0.16379304313E+03  0.26825655731E+03  0.34424790565E+03  0.12500000000E+03 0.  0.
         25    1    1    2    0    0 -0.98903776022E+02  0.11340435517E+03 -0.30593353125E+02  0.19799863115E+03  0.12500000000E+03 0.  0.
         25    1    1    2    0    0  0.16287157283E+03 -0.27719739829E+03  0.23787238700E+03  0.41901529728E+03  0.12500000000E+03 0.  0.
</event>
<event>
 5    0  0.5764392E-005  0.2289351E+03  0.7546771E-02  0.1127392E+00
         21   -1    0    0  502  501  0.00000000000E+00  0.00000000000E+00  0.25455038364E+02  0.25455038364E+02  0.00000000000E+00 0. -1.
         21   -1    0    0  501  502 -0.00000000000E+00 -0.00000000000E+00 -0.20589741887E+04  0.20589741887E+04  0.00000000000E+00 0. -1.
         25    1    1    2    0    0 -0.74723465396E+02 -0.92031591378E+02 -0.78054949997E+03  0.79933468084E+03  0.12500000000E+03 0.  0.
         25    1    1    2    0    0  0.27608626922E+02  0.29429223274E+02 -0.45402374439E+03  0.47264243983E+03  0.12500000000E+03 0.  0.
         25    1    1    2    0    0  0.47114838474E+02  0.62602368105E+02 -0.79894590595E+03  0.81245210636E+03  0.12500000000E+03 0.  0.
</event>
<event>
 5    0  0.5764392E-005  0.2754633E+03  0.7546771E-02  0.1098193E+00
         21   -1    0    0  502  501  0.00000000000E+00  0.00000000000E+00  0.26286070965E+03  0.26286070965E+03  0.00000000000E+00 0.  1.
         21   -1    0    0  501  502 -0.00000000000E+00 -0.00000000000E+00 -0.28867004312E+03  0.28867004312E+03  0.00000000000E+00 0.  1.
         25    1    1    2    0    0 -0.15269882967E+02  0.14798488659E+03 -0.68756830585E+02  0.20611937739E+03  0.12500000000E+03 0.  0.
         25    1    1    2    0    0 -0.11437404893E+02 -0.79041586965E+02 -0.67484630370E+02  0.16296491045E+03  0.12500000000E+03 0.  0.
         25    1    1    2    0    0  0.26707287859E+02 -0.68943299623E+02  0.11043212748E+03  0.18244646494E+03  0.12500000000E+03 0.  0.
</event>
<event>
 5    0  0.5764392E-005  0.2639196E+03  0.7546771E-02  0.1104811E+00
         21   -1    0    0  502  501  0.00000000000E+00  0.00000000000E+00  0.10473421855E+03  0.10473421855E+03  0.00000000000E+00 0. -1.
         21   -1    0    0  501  502 -0.00000000000E+00 -0.00000000000E+00 -0.66505035975E+03  0.66505035975E+03  0.00000000000E+00 0. -1.
         25    1    1    2    0    0 -0.34315473087E+02 -0.13949082016E+02 -0.28243933809E+03  0.31107733489E+03  0.12500000000E+03 0.  0.
         25    1    1    2    0    0  0.18160399595E+02 -0.12288097345E+03 -0.10736915595E+03  0.20635568661E+03  0.12500000000E+03 0.  0.
         25    1    1    2    0    0  0.16155073492E+02  0.13683005546E+03 -0.17050764716E+03  0.25235155680E+03  0.12500000000E+03 0.  0.
</event>
<event>
 5    0  0.5764392E-005  0.3934949E+03  0.7546771E-02  0.1046056E+00
         21   -1    0    0  502  501  0.00000000000E+00  0.00000000000E+00  0.51559865636E+03  0.51559865636E+03  0.00000000000E+00 0. -1.
         21   -1    0    0  501  502 -0.00000000000E+00 -0.00000000000E+00 -0.30030765334E+03  0.30030765334E+03  0.00000000000E+00 0. -1.
         25    1    1    2    0    0  0.85105317754E+02 -0.99822947426E+02  0.95018136922E+02  0.20459956571E+03  0.12500000000E+03 0.  0.
         25    1    1    2    0    0  0.20207862602E+03  0.10184085638E+02 -0.51008672397E+02  0.24324138495E+03  0.12500000000E+03 0.  0.
         25    1    1    2    0    0 -0.28718394377E+03  0.89638861788E+02  0.17128153850E+03  0.36806535905E+03  0.12500000000E+03 0.  0.
</event>
<event>
 5    0  0.5764392E-005  0.2625346E+03  0.7546771E-02  0.1105630E+00
         21   -1    0    0  502  501  0.00000000000E+00  0.00000000000E+00  0.12678463363E+04  0.12678463363E+04  0.00000000000E+00 0.  1.
         21   -1    0    0  501  502 -0.00000000000E+00 -0.00000000000E+00 -0.54363398573E+02  0.54363398573E+02  0.00000000000E+00 0.  1.
         25    1    1    2    0    0 -0.71828605087E+02 -0.95297060498E+02  0.32113915506E+03  0.36468648887E+03  0.12500000000E+03 0.  0.
         25    1    1    2    0    0  0.17755321099E+01 -0.36191927625E+02  0.53589532339E+03  0.55147239801E+03  0.12500000000E+03 0.  0.
         25    1    1    2    0    0  0.70053072977E+02  0.13148898812E+03  0.35644845923E+03  0.40605084795E+03  0.12500000000E+03 0.  0.
</event>
<event>
 5    0  0.5764392E-005  0.2400744E+03  0.7546771E-02  0.1119743E+00
         21   -1    0    0  502  501  0.00000000000E+00  0.00000000000E+00  0.23862962264E+03  0.23862962264E+03  0.00000000000E+00 0. -1.
         21   -1    0    0  501  502 -0.00000000000E+00 -0.00000000000E+00 -0.24152791769E+03  0.24152791769E+03  0.00000000000E+00 0. -1.
         25    1    1    2    0    0 -0.14808315513E+02 -0.98375100369E+02 -0.51493213538E+02  0.16784962800E+03  0.12500000000E+03 0.  0.
         25    1    1    2    0    0  0.57821602586E+02  0.14145222710E+02  0.68204949038E+02  0.15433839485E+03  0.12500000000E+03 0.  0.
         25    1    1    2    0    0 -0.43013287073E+02  0.84229877659E+02 -0.19610030552E+02  0.15796951748E+03  0.12500000000E+03 0.  0.
</event>
<event>
 5    0  0.5764392E-005  0.3276212E+03  0.7546771E-02  0.1072194E+00
         21   -1    0    0  502  501  0.00000000000E+00  0.00000000000E+00  0.21372844217E+04  0.21372844217E+04  0.00000000000E+00 0. -1.
         21   -1    0    0  501  502 -0.00000000000E+00 -0.00000000000E+00 -0.50220582168E+02  0.50220582168E+02  0.00000000000E+00 0. -1.
         25    1    1    2    0    0 -0.20313773057E+03 -0.79611199456E+02  0.46569409463E+03  0.52924367774E+03  0.12500000000E+03 0.  0.
         25    1    1    2    0    0  0.70731186865E+02 -0.64238004981E+01  0.57614826282E+03  0.59381477479E+03  0.12500000000E+03 0.  0.
         25    1    1    2    0    0  0.13240654371E+03  0.86034999955E+02  0.10452214821E+04  0.10644465513E+04  0.12500000000E+03 0.  0.
</event>
<event>
 5    0  0.5764392E-005  0.3188719E+03  0.7546771E-02  0.1076170E+00
         21   -1    0    0  502  501  0.00000000000E+00  0.00000000000E+00  0.57774740631E+03  0.57774740631E+03  0.00000000000E+00 0.  1.
         21   -1    0    0  501  502 -0.00000000000E+00 -0.00000000000E+00 -0.17599264909E+03  0.17599264909E+03  0.00000000000E+00 0.  1.
         25    1    1    2    0    0 -0.51325865032E+02 -0.17017100483E+03  0.22665071516E+03  0.31398735960E+03  0.12500000000E+03 0.  0.
         25    1    1    2    0    0  0.10449236864E+03  0.19262893166E+03  0.16551915096E+03  0.30173854535E+03  0.12500000000E+03 0.  0.
         25    1    1    2    0    0 -0.53166503611E+02 -0.22457926826E+02  0.95848910957E+01  0.13801415044E+03  0.12500000000E+03 0.  0.
</event>
<event>
 5    0  0.5764392E-005  0.2914127E+03  0.7546771E-02  0.1089614E+00
         21   -1    0    0  502  501  0.00000000000E+00  0.00000000000E+00  0.92225927652E+02  0.92225927652E+02  0.00000000000E+00 0.  1.
         21   -1    0    0  501  502 -0.00000000000E+00 -0.00000000000E+00 -0.92079713274E+03  0.92079713274E+03  0.00000000000E+00 0.  1.
         25    1    1    2    0    0  0.68651441373E+02  0.12082229347E+03 -0.41243735878E+03  0.45281411409E+03  0.12500000000E+03 0.  0.
         25    1    1    2    0    0  0.51627968376E+02  0.29547813548E+02 -0.21089520568E+03  0.25227030777E+03  0.12500000000E+03 0.  0.
         25    1    1    2    0    0 -0.12027940975E+03 -0.15037010702E+03 -0.20523864063E+03  0.30793863853E+03  0.12500000000E+03 0.  0.
</event>
<event>
 5    0  0.5764392E-005  0.4374956E+03  0.7546771E-02  0.1031518E+00
         21   -1    0    0  502  501  0.00000000000E+00  0.00000000000E+00  0.11458231066E+04  0.11458231066E+04  0.00000000000E+00 0.  1.
         21   -1    0    0  501  502 -0.00000000000E+00 -0.00000000000E+00 -0.16704361460E+03  0.16704361460E+03  0.00000000000E+00 0. -1.
         25    1    1    2    0    0 -0.50790696236E+02  0.31504505375E+03  0.25036611605E+03  0.42443052763E+03  0.12500000000E+03 0.  0.
         25    1    1    2    0    0  0.10856664008E+03 -0.72695611808E+02  0.11401783315E+03  0.21376724162E+03  0.12500000000E+03 0.  0.
         25    1    1    2    0    0 -0.57775943845E+02 -0.24234944194E+03  0.61439554278E+03  0.67466895192E+03  0.12500000000E+03 0.  0.
</event>
<event>
 5    0  0.5764392E-005  0.2512677E+03  0.7546771E-02  0.1112506E+00
         21   -1    0    0  502  501  0.00000000000E+00  0.00000000000E+00  0.44538796826E+03  0.44538796826E+03  0.00000000000E+00 0. -1.
         21   -1    0    0  501  502 -0.00000000000E+00 -0.00000000000E+00 -0.14175388491E+03  0.14175388491E+03  0.00000000000E+00 0. -1.
         25    1    1    2    0    0 -0.17058745051E+02  0.33313271098E+02  0.18774677764E+03  0.22863645232E+03  0.12500000000E+03 0.  0.
         25    1    1    2    0    0 -0.59916596980E+01 -0.32044019157E+02 -0.59233696956E+02  0.14211386282E+03  0.12500000000E+03 0.  0.
         25    1    1    2    0    0  0.23050404749E+02 -0.12692519404E+01  0.17512100266E+03  0.21639153803E+03  0.12500000000E+03 0.  0.
</event>
<event>
 5    0  0.5764392E-005  0.3686257E+03  0.7546771E-02  0.1055220E+00
         21   -1    0    0  502  501  0.00000000000E+00  0.00000000000E+00  0.77959573831E+03  0.77959573831E+03  0.00000000000E+00 0. -1.
         21   -1    0    0  501  502 -0.00000000000E+00 -0.00000000000E+00 -0.17430179289E+03  0.17430179289E+03  0.00000000000E+00 0. -1.
         25    1    1    2    0    0 -0.27614231113E+03 -0.11721824972E+02  0.39968015756E+03  0.50175811456E+03  0.12500000000E+03 0.  0.
         25    1    1    2    0    0  0.10455763744E+03  0.50137022411E+00  0.17195026313E+03  0.23690598116E+03  0.12500000000E+03 0.  0.
         25    1    1    2    0    0  0.17158467369E+03  0.11220454748E+02  0.33663524726E+02  0.21523343548E+03  0.12500000000E+03 0.  0.
</event>
<event>
 5    0  0.5764392E-005  0.2144163E+03  0.7546771E-02  0.1138116E+00
         21   -1    0    0  502  501  0.00000000000E+00  0.00000000000E+00  0.22676738224E+03  0.22676738224E+03  0.00000000000E+00 0.  1.
         21   -1    0    0  501  502 -0.00000000000E+00 -0.00000000000E+00 -0.20273797800E+03  0.20273797800E+03  0.00000000000E+00 0.  1.
         25    1    1    2    0    0  0.65869783275E+02  0.11837171603E+02 -0.20204647624E+02  0.14322072045E+03  0.12500000000E+03 0.  0.
         25    1    1    2    0    0 -0.20138215961E+02 -0.14912275721E+02  0.77313554348E+02  0.14909832124E+03  0.12500000000E+03 0.  0.
         25    1    1    2    0    0 -0.45731567314E+02  0.30751041182E+01 -0.33079502491E+02  0.13718631856E+03  0.12500000000E+03 0.  0.
</event>
<event>
 5    0  0.5764392E-005  0.2816455E+03  0.7546771E-02  0.1094794E+00
         21   -1    0    0  502  501  0.00000000000E+00  0.00000000000E+00  0.12991382123E+03  0.12991382123E+03  0.00000000000E+00 0. -1.
         21   -1    0    0  501  502 -0.00000000000E+00 -0.00000000000E+00 -0.61059087475E+03  0.61059087475E+03  0.00000000000E+00 0. -1.
         25    1    1    2    0    0  0.11643954384E+03 -0.26198272105E+02 -0.27635062436E+03  0.32594352949E+03  0.12500000000E+03 0.  0.
         25    1    1    2    0    0 -0.16037503547E+03  0.69829118875E+02 -0.85688731781E+02  0.23143858062E+03  0.12500000000E+03 0.  0.
         25    1    1    2    0    0  0.43935491636E+02 -0.43630846770E+02 -0.11863769738E+03  0.18312258587E+03  0.12500000000E+03 0.  0.
</event>
<event>
 5    0  0.5764392E-005  0.4132486E+03  0.7546771E-02  0.1039286E+00
         21   -1    0    0  502  501  0.00000000000E+00  0.00000000000E+00  0.56496544417E+03  0.56496544417E+03  0.00000000000E+00 0.  1.
         21   -1    0    0  501  502 -0.00000000000E+00 -0.00000000000E+00 -0.30227411278E+03  0.30227411278E+03  0.00000000000E+00 0.  1.
         25    1    1    2    0    0  0.42619184406E+02 -0.16971580427E+03 -0.44067765824E+02  0.21951495868E+03  0.12500000000E+03 0.  0.
         25    1    1    2    0    0 -0.35481625556E+02  0.28602894621E+03  0.35113767132E+03  0.47116257072E+03  0.12500000000E+03 0.  0.
         25    1    1    2    0    0 -0.71375588496E+01 -0.11631314194E+03 -0.44378574106E+02  0.17656202755E+03  0.12500000000E+03 0.  0.
</event>
<event>
 5    0  0.5764392E-005  0.2746870E+03  0.7546771E-02  0.1098627E+00
         21   -1    0    0  502  501  0.00000000000E+00  0.00000000000E+00  0.13102468884E+03  0.13102468884E+03  0.00000000000E+00 0.  1.
         21   -1    0    0  501  502 -0.00000000000E+00 -0.00000000000E+00 -0.57586836921E+03  0.57586836921E+03  0.00000000000E+00 0.  1.
         25    1    1    2    0    0  0.44262059137E+02 -0.11814608568E+03 -0.32369969117E+02  0.18052823143E+03  0.12500000000E+03 0.  0.
         25    1    1    2    0    0 -0.10208263992E+02  0.81407034342E+01 -0.29241114430E+03  0.31827622754E+03  0.12500000000E+03 0.  0.
         25    1    1    2    0    0 -0.34053795145E+02  0.11000538225E+03 -0.12006256695E+03  0.20808859909E+03  0.12500000000E+03 0.  0.
</event>
<event>
 5    0  0.5764392E-005  0.4670751E+03  0.7546771E-02  0.1022749E+00
         21   -1    0    0  502  501  0.00000000000E+00  0.00000000000E+00  0.65792938837E+03  0.65792938837E+03  0.00000000000E+00 0.  1.
         21   -1    0    0  501  502 -0.00000000000E+00 -0.00000000000E+00 -0.33158451069E+03  0.33158451069E+03  0.00000000000E+00 0.  1.
         25    1    1    2    0    0  0.20159282974E+03 -0.20968977348E+03  0.30859930782E+02  0.31809873536E+03  0.12500000000E+03 0.  0.
         25    1    1    2    0    0 -0.60260844814E+02  0.34061711877E+03  0.22510331224E+03  0.43121675779E+03  0.12500000000E+03 0.  0.
         25    1    1    2    0    0 -0.14133198493E+03 -0.13092734529E+03  0.70381634665E+02  0.24019840592E+03  0.12500000000E+03 0.  0.
</event>
<event>
 5    0  0.5764392E-005  0.2952072E+03  0.7546771E-02  0.1087661E+00
         21   -1    0    0  502  501  0.00000000000E+00  0.00000000000E+00  0.12806037989E+04  0.12806037989E+04  0.00000000000E+00 0. -1.
         21   -1    0    0  501  502 -0.00000000000E+00 -0.00000000000E+00 -0.68051721019E+02  0.68051721019E+02  0.00000000000E+00 0. -1.
         25    1    1    2    0    0  0.80366509661E+02  0.22385041741E+02  0.90909281228E+03  0.92143073929E+03  0.12500000000E+03 0.  0.
         25    1    1    2    0    0 -0.27454567485E+02  0.41712833261E+02  0.75654959243E+02  0.15440980083E+03  0.12500000000E+03 0.  0.
         25    1    1    2    0    0 -0.52911942176E+02 -0.64097875002E+02  0.22780430633E+03  0.27281497977E+03  0.12500000000E+03 0.  0.
</event>
<event>
 5    0  0.5764392E-005  0.2843695E+03  0.7546771E-02  0.1093326E+00
         21   -1    0    0  502  501  0.00000000000E+00  0.00000000000E+00  0.72211672943E+03  0.72211672943E+03  0.00000000000E+00 0. -1.
         21   -1    0    0  501  502 -0.00000000000E+00 -0.00000000000E+00 -0.11198471656E+03  0.11198471656E+03  0.00000000000E+00 0. -1.
         25    1    1    2    0    0 -0.10593163150E+03  0.70314932615E+02  0.41838327876E+02  0.18314241994E+03  0.12500000000E+03 0.  0.
         25    1    1    2    0    0 -0.18001975184E+01  0.18440395648E+02  0.27904166308E+03  0.30632097323E+03  0.12500000000E+03 0.  0.
         25    1    1    2    0    0  0.10773182902E+03 -0.88755328263E+02  0.28925202191E+03  0.34463805283E+03  0.12500000000E+03 0.  0.
</event>
<event>
 5    0  0.5764392E-005  0.3494617E+03  0.7546771E-02  0.1062836E+00
         21   -1    0    0  502  501  0.00000000000E+00  0.00000000000E+00  0.85640844392E+02  0.85640844392E+02  0.00000000000E+00 0. -1.
         21   -1    0    0  501  502 -0.00000000000E+00 -0.00000000000E+00 -0.14259961502E+04  0.14259961502E+04  0.00000000000E+00 0. -1.
         25    1    1    2    0    0 -0.61189069156E+02 -0.15657512468E+03 -0.52061127815E+03  0.56117820235E+03  0.12500000000E+03 0.  0.
         25    1    1    2    0    0  0.97929754004E+02 -0.96533433613E+02 -0.23073576220E+03  0.29626497006E+03  0.12500000000E+03 0.  0.
         25    1    1    2    0    0 -0.36740684848E+02  0.25310855829E+03 -0.58900826541E+03  0.65419382214E+03  0.12500000000E+03 0.  0.
</event>
<event>
 5    0  0.5764392E-005  0.3517305E+03  0.7546771E-02  0.1061907E+00
         21   -1    0    0  502  501  0.00000000000E+00  0.00000000000E+00  0.44904032378E+03  0.44904032378E+03  0.00000000000E+00 0. -1.
         21   -1    0    0  501  502 -0.00000000000E+00 -0.00000000000E+00 -0.27550824817E+03  0.27550824817E+03  0.00000000000E+00 0. -1.
         25    1    1    2    0    0  0.74628109916E+02 -0.17070493727E+03 -0.75540840894E+02  0.23672969616E+03  0.12500000000E+03 0.  0.
         25    1    1    2    0    0 -0.13114914951E+03  0.16106452006E+03  0.52702151145E+02  0.24808142973E+03  0.12500000000E+03 0.  0.
         25    1    1    2    0    0  0.56521039592E+02  0.96404172091E+01  0.19637076536E+03  0.23973744607E+03  0.12500000000E+03 0.  0.
</event>
<event>
 5    0  0.5764392E-005  0.2622152E+03  0.7546771E-02  0.1105820E+00
         21   -1    0    0  502  501  0.00000000000E+00  0.00000000000E+00  0.22102733044E+02  0.22102733044E+02  0.00000000000E+00 0. -1.
         21   -1    0    0  501  502 -0.00000000000E+00 -0.00000000000E+00 -0.31107824480E+04  0.31107824480E+04  0.00000000000E+00 0. -1.
         25    1    1    2    0    0  0.44125185445E+02  0.71160200075E+01 -0.20244590355E+04  0.20288068060E+04  0.12500000000E+03 0.  0.
         25    1    1    2    0    0 -0.43553324084E+02  0.66972590555E+02 -0.56344256328E+03  0.58264461041E+03  0.12500000000E+03 0.  0.
         25    1    1    2    0    0 -0.57186136092E+00 -0.74088610563E+02 -0.50077811622E+03  0.52143376466E+03  0.12500000000E+03 0.  0.
</event>
<event>
 5    0  0.5764392E-005  0.4577164E+03  0.7546771E-02  0.1025446E+00
         21   -1    0    0  502  501  0.00000000000E+00  0.00000000000E+00  0.12897348481E+04  0.12897348481E+04  0.00000000000E+00 0. -1.
         21   -1    0    0  501  502 -0.00000000000E+00 -0.00000000000E+00 -0.16243980245E+03  0.16243980245E+03  0.00000000000E+00 0. -1.
         25    1    1    2    0    0 -0.14627101822E+03 -0.10997650700E+03  0.33738671892E+03  0.40366426763E+03  0.12500000000E+03 0.  0.
         25    1    1    2    0    0  0.19548336725E+03 -0.20229090192E+03  0.19824368362E+03  0.36614329704E+03  0.12500000000E+03 0.  0.
         25    1    1    2    0    0 -0.49212349033E+02  0.31226740892E+03  0.59166464313E+03  0.68236708589E+03  0.12500000000E+03 0.  0.
</event>
<event>
 5    0  0.5764392E-005  0.3374907E+03  0.7546771E-02  0.1067870E+00
         21   -1    0    0  502  501  0.00000000000E+00  0.00000000000E+00  0.40312165183E+03  0.40312165183E+03  0.00000000000E+00 0.  1.
         21   -1    0    0  501  502 -0.00000000000E+00 -0.00000000000E+00 -0.28254488921E+03  0.28254488921E+03  0.00000000000E+00 0.  1.
         25    1    1    2    0    0 -0.18308884684E+03 -0.11232631576E+03 -0.69100744117E+02  0.25795084781E+03  0.12500000000E+03 0.  0.
         25    1    1    2    0    0 -0.14476938144E+02  0.69488756661E+01  0.48954245381E+02  0.13520128236E+03  0.12500000000E+03 0.  0.
         25    1    1    2    0    0  0.19756578498E+03  0.10537744009E+03  0.14072326136E+03  0.29251441086E+03  0.12500000000E+03 0.  0.
</event>
<event>
 5    0  0.5764392E-005  0.2409206E+03  0.7546771E-02  0.1119181E+00
         21   -1    0    0  502  501  0.00000000000E+00  0.00000000000E+00  0.16984343907E+04  0.16984343907E+04  0.00000000000E+00 0.  1.
         21   -1    0    0  501  502 -0.00000000000E+00 -0.00000000000E+00 -0.34174259118E+02  0.34174259118E+02  0.00000000000E+00 0.  1.
         25    1    1    2    0    0  0.61601373488E+01  0.12534693052E+03  0.73748192982E+03  0.75845527033E+03  0.12500000000E+03 0.  0.
         25    1    1    2    0    0 -0.12283264969E+02 -0.27051830886E+02  0.27976592058E+03  0.30785816615E+03  0.12500000000E+03 0.  0.
         25    1    1    2    0    0  0.61231276207E+01 -0.98295099633E+02  0.64701228122E+03  0.66629521337E+03  0.12500000000E+03 0.  0.
</event>
<event>
 5    0  0.5764392E-005  0.3520475E+03  0.7546771E-02  0.1061778E+00
         21   -1    0    0  502  501  0.00000000000E+00  0.00000000000E+00  0.20620293165E+03  0.20620293165E+03  0.00000000000E+00 0.  1.
         21   -1    0    0  501  502 -0.00000000000E+00 -0.00000000000E+00 -0.60104598955E+03  0.60104598955E+03  0.00000000000E+00 0.  1.
         25    1    1    2    0    0 -0.30989189915E+02 -0.83772030816E+02  0.10278897297E+03  0.18484765620E+03  0.12500000000E+03 0.  0.
         25    1    1    2    0    0  0.13482331081E+03 -0.13296420493E+02 -0.25586418332E+03  0.31534996471E+03  0.12500000000E+03 0.  0.
         25    1    1    2    0    0 -0.10383412089E+03  0.97068451309E+02 -0.24176784755E+03  0.30705130029E+03  0.12500000000E+03 0.  0.
</event>
<event>
 5    0  0.5764392E-005  0.3401347E+03  0.7546771E-02  0.1066739E+00
         21   -1    0    0  502  501  0.00000000000E+00  0.00000000000E+00  0.24138705561E+03  0.24138705561E+03  0.00000000000E+00 0. -1.
         21   -1    0    0  501  502 -0.00000000000E+00 -0.00000000000E+00 -0.47927849413E+03  0.47927849413E+03  0.00000000000E+00 0. -1.
         25    1    1    2    0    0  0.16385568534E+03  0.49869244572E+02  0.80236926982E+02  0.22671257491E+03  0.12500000000E+03 0.  0.
         25    1    1    2    0    0 -0.15732813079E+03  0.61601804985E+02 -0.18219626201E+03  0.27814996136E+03  0.12500000000E+03 0.  0.
         25    1    1    2    0    0 -0.65275545420E+01 -0.11147104956E+03 -0.13593210349E+03  0.21580301346E+03  0.12500000000E+03 0.  0.
</event>
<event>
 5    0  0.5791485E-005  0.3342966E+03  0.7546771E-02  0.1069251E+00
         21   -1    0    0  502  501  0.00000000000E+00  0.00000000000E+00  0.15096518594E+03  0.15096518594E+03  0.00000000000E+00 0. -1.
         21   -1    0    0  501  502 -0.00000000000E+00 -0.00000000000E+00 -0.74026481146E+03  0.74026481146E+03  0.00000000000E+00 0. -1.
         25    1    1    2    0    0  0.12751109017E+03 -0.16702673777E+02 -0.14318175638E+03  0.22948654162E+03  0.12500000000E+03 0.  0.
         25    1    1    2    0    0 -0.98909528799E+02  0.10405444651E+03 -0.46783101427E+03  0.50507551973E+03  0.12500000000E+03 0.  0.
         25    1    1    2    0    0 -0.28601561367E+02 -0.87351772729E+02  0.21713145126E+02  0.15666793604E+03  0.12500000000E+03 0.  0.
</event>
<event>
 5    0  0.5764392E-005  0.2601397E+03  0.7546771E-02  0.1107059E+00
         21   -1    0    0  502  501  0.00000000000E+00  0.00000000000E+00  0.39821596566E+03  0.39821596566E+03  0.00000000000E+00 0.  1.
         21   -1    0    0  501  502 -0.00000000000E+00 -0.00000000000E+00 -0.16993955909E+03  0.16993955909E+03  0.00000000000E+00 0.  1.
         25    1    1    2    0    0  0.77030963220E+02 -0.32605888867E+02  0.21429004500E+03  0.26180553216E+03  0.12500000000E+03 0.  0.
         25    1    1    2    0    0  0.44658142388E+01 -0.50264553840E+02 -0.28700508232E+01  0.13483214031E+03  0.12500000000E+03 0.  0.
         25    1    1    2    0    0 -0.81496777458E+02  0.82870442707E+02  0.16856412403E+02  0.17151785228E+03  0.12500000000E+03 0.  0.
</event>
<event>
 5    0  0.5764392E-005  0.3922771E+03  0.7546771E-02  0.1046487E+00
         21   -1    0    0  502  501  0.00000000000E+00  0.00000000000E+00  0.22828028805E+03  0.22828028805E+03  0.00000000000E+00 0.  1.
         21   -1    0    0  501  502 -0.00000000000E+00 -0.00000000000E+00 -0.67408954791E+03  0.67408954791E+03  0.00000000000E+00 0.  1.
         25    1    1    2    0    0 -0.27833319100E+03  0.17343065663E+02 -0.36225726784E+02  0.30774575613E+03  0.12500000000E+03 0.  0.
         25    1    1    2    0    0  0.71336034854E+02  0.72491153070E+02 -0.22784582824E+03  0.27907439616E+03  0.12500000000E+03 0.  0.
         25    1    1    2    0    0  0.20699715614E+03 -0.89834218732E+02 -0.18173770483E+03  0.31554968367E+03  0.12500000000E+03 0.  0.
</event>
<event>
 5    0  0.5764392E-005  0.2489110E+03  0.7546771E-02  0.1113995E+00
         21   -1    0    0  502  501  0.00000000000E+00  0.00000000000E+00  0.12690933990E+04  0.12690933990E+04  0.00000000000E+00 0.  1.
         21   -1    0    0  501  502 -0.00000000000E+00 -0.00000000000E+00 -0.48819647480E+02  0.48819647480E+02  0.00000000000E+00 0.  1.
         25    1    1    2    0    0  0.32196325130E+02 -0.91106982457E+02  0.40169711941E+03  0.43165108751E+03  0.12500000000E+03 0.  0.
         25    1    1    2    0    0  0.72410435602E+02  0.51746633628E+02  0.24870622538E+03  0.29223410447E+03  0.12500000000E+03 0.  0.
         25    1    1    2    0    0 -0.10460676073E+03  0.39360348829E+02  0.56987040674E+03  0.59402785450E+03  0.12500000000E+03 0.  0.
</event>
<event>
 5    0  0.5764392E-005  0.3001393E+03  0.7546771E-02  0.1085171E+00
         21   -1    0    0  502  501  0.00000000000E+00  0.00000000000E+00  0.14539685513E+03  0.14539685513E+03  0.00000000000E+00 0.  1.
         21   -1    0    0  501  502 -0.00000000000E+00 -0.00000000000E+00 -0.61957067284E+03  0.61957067284E+03  0.00000000000E+00 0.  1.
         25    1    1    2    0    0  0.11403528552E+03  0.32437614426E+02 -0.30952871746E+02  0.17504092505E+03  0.12500000000E+03 0.  0.
         25    1    1    2    0    0 -0.73260858889E+02  0.11983968507E+03 -0.22099979271E+03  0.29016307818E+03  0.12500000000E+03 0.  0.
         25    1    1    2    0    0 -0.40774426629E+02 -0.15227729949E+03 -0.22222115325E+03  0.29976352473E+03  0.12500000000E+03 0.  0.
</event>
<event>
 5    0  0.5764392E-005  0.2519633E+03  0.7546771E-02  0.1112070E+00
         21   -1    0    0  502  501  0.00000000000E+00  0.00000000000E+00  0.50210985010E+02  0.50210985010E+02  0.00000000000E+00 0.  1.
         21   -1    0    0  501  502 -0.00000000000E+00 -0.00000000000E+00 -0.12643746977E+04  0.12643746977E+04  0.00000000000E+00 0.  1.
         25    1    1    2    0    0  0.80731476257E+02  0.12488696225E+03 -0.41999130180E+03  0.46274400934E+03  0.12500000000E+03 0.  0.
         25    1    1    2    0    0 -0.27918823621E+02 -0.31172856160E+02 -0.24205132699E+03  0.27561758393E+03  0.12500000000E+03 0.  0.
         25    1    1    2    0    0 -0.52812652636E+02 -0.93714106086E+02 -0.55212108390E+03  0.57622408943E+03  0.12500000000E+03 0.  0.
</event>
<event>
 5    0  0.5764392E-005  0.3587436E+03  0.7546771E-02  0.1059082E+00
         21   -1    0    0  502  501  0.00000000000E+00  0.00000000000E+00  0.22666443740E+03  0.22666443740E+03  0.00000000000E+00 0.  1.
         21   -1    0    0  501  502 -0.00000000000E+00 -0.00000000000E+00 -0.56778636465E+03  0.56778636465E+03  0.00000000000E+00 0.  1.
         25    1    1    2    0    0 -0.49339772608E+02  0.21314686816E+03 -0.59114770882E+02  0.25881568095E+03  0.12500000000E+03 0.  0.
         25    1    1    2    0    0  0.41775495540E+02 -0.23324226108E+02 -0.27760192955E+03  0.30818345647E+03  0.12500000000E+03 0.  0.
         25    1    1    2    0    0  0.75642770674E+01 -0.18982264205E+03 -0.44052268158E+01  0.22745166464E+03  0.12500000000E+03 0.  0.
</event>
<event>
 5    0  0.5764392E-005  0.3037414E+03  0.7546771E-02  0.1083385E+00
         21   -1    0    0  502  501  0.00000000000E+00  0.00000000000E+00  0.21380070110E+03  0.21380070110E+03  0.00000000000E+00 0.  1.
         21   -1    0    0  501  502 -0.00000000000E+00 -0.00000000000E+00 -0.43151799582E+03  0.43151799582E+03  0.00000000000E+00 0.  1.
         25    1    1    2    0    0  0.11242548425E+03 -0.99584429370E+02 -0.10921567943E+03  0.22385176505E+03  0.12500000000E+03 0.  0.
         25    1    1    2    0    0 -0.16700847066E+03 -0.38269025393E+02 -0.40208961685E+02  0.21586594955E+03  0.12500000000E+03 0.  0.
         25    1    1    2    0    0  0.54582986410E+02  0.13785345476E+03 -0.68292653597E+02  0.20560098232E+03  0.12500000000E+03 0.  0.
</event>
<event>
 5    0  0.5764392E-005  0.2502069E+03  0.7546771E-02  0.1113174E+00
         21   -1    0    0  502  501  0.00000000000E+00  0.00000000000E+00  0.14726782197E+03  0.14726782197E+03  0.00000000000E+00 0.  1.
         21   -1    0    0  501  502 -0.00000000000E+00 -0.00000000000E+00 -0.42509974511E+03  0.42509974511E+03  0.00000000000E+00 0.  1.
         25    1    1    2    0    0  0.10798723211E+03 -0.78490999537E+02 -0.11556543109E+03  0.21633873479E+03  0.12500000000E+03 0.  0.
         25    1    1    2    0    0 -0.12934748743E+03  0.50572597503E+02 -0.10195174468E+03  0.21285562799E+03  0.12500000000E+03 0.  0.
         25    1    1    2    0    0  0.21360255324E+02  0.27918402034E+02 -0.60314747383E+02  0.14317320431E+03  0.12500000000E+03 0.  0.
</event>
<event>
 5    0  0.5764392E-005  0.3738014E+03  0.7546771E-02  0.1053249E+00
         21   -1    0    0  502  501  0.00000000000E+00  0.00000000000E+00  0.13222610715E+03  0.13222610715E+03  0.00000000000E+00 0. -1.
         21   -1    0    0  501  502 -0.00000000000E+00 -0.00000000000E+00 -0.10567316542E+04  0.10567316542E+04  0.00000000000E+00 0. -1.
         25    1    1    2    0    0  0.80553894674E+02 -0.13416822086E+03 -0.76133286781E+02  0.21426926703E+03  0.12500000000E+03 0.  0.
         25    1    1    2    0    0  0.43167343574E+02  0.10635955403E+03 -0.75459610162E+03  0.77344427780E+03  0.12500000000E+03 0.  0.
         25    1    1    2    0    0 -0.12372123825E+03  0.27808666832E+02 -0.93776158613E+02  0.20124421649E+03  0.12500000000E+03 0.  0.
</event>
<event>
 5    0  0.5764392E-005  0.2806846E+03  0.7546771E-02  0.1095316E+00
         21   -1    0    0  502  501  0.00000000000E+00  0.00000000000E+00  0.15495565398E+04  0.15495565398E+04  0.00000000000E+00 0. -1.
         21   -1    0    0  501  502 -0.00000000000E+00 -0.00000000000E+00 -0.50842850440E+02  0.50842850440E+02  0.00000000000E+00 0. -1.
         25    1    1    2    0    0  0.52988691816E+02 -0.87804911001E+02  0.17744914838E+03  0.24006395839E+03  0.12500000000E+03 0.  0.
         25    1    1    2    0    0  0.31144085439E+02 -0.23896103220E+02  0.66548552792E+03  0.67826024922E+03  0.12500000000E+03 0.  0.
         25    1    1    2    0    0 -0.84132777254E+02  0.11170101422E+03  0.65577901305E+03  0.68207518262E+03  0.12500000000E+03 0.  0.
</event>
<event>
 5    0  0.5764392E-005  0.3666980E+03  0.7546771E-02  0.1055963E+00
         21   -1    0    0  502  501  0.00000000000E+00  0.00000000000E+00  0.17701238807E+03  0.17701238807E+03  0.00000000000E+00 0. -1.
         21   -1    0    0  501  502 -0.00000000000E+00 -0.00000000000E+00 -0.75964989471E+03  0.75964989471E+03  0.00000000000E+00 0. -1.
         25    1    1    2    0    0  0.16131882840E+03  0.79346732406E+02 -0.80480097719E+02  0.23328462116E+03  0.12500000000E+03 0.  0.
         25    1    1    2    0    0  0.32948213109E+02 -0.71309937586E+02  0.31975754224E+01  0.14766826482E+03  0.12500000000E+03 0.  0.
         25    1    1    2    0    0 -0.19426704151E+03 -0.80367948194E+01 -0.50535498435E+03  0.55570939680E+03  0.12500000000E+03 0.  0.
</event>
<event>
 5    0  0.5764392E-005  0.4509247E+03  0.7546771E-02  0.1027447E+00
         21   -1    0    0  502  501  0.00000000000E+00  0.00000000000E+00  0.26527374493E+04  0.26527374493E+04  0.00000000000E+00 0. -1.
         21   -1    0    0  501  502 -0.00000000000E+00 -0.00000000000E+00 -0.76650281028E+02  0.76650281028E+02  0.00000000000E+00 0. -1.
         25    1    1    2    0    0 -0.76999084436E+02 -0.27164159452E+02  0.53024152498E+02  0.15844024524E+03  0.12500000000E+03 0.  0.
         25    1    1    2    0    0  0.22447196176E+03  0.50919499612E+02  0.19049391173E+04  0.19228620589E+04  0.12500000000E+03 0.  0.
         25    1    1    2    0    0 -0.14747287732E+03 -0.23755340160E+02  0.61812389842E+03  0.64808542611E+03  0.12500000000E+03 0.  0.
</event>
<event>
 5    0  0.6272881E-005  0.3501236E+03  0.7546771E-02  0.1062564E+00
         21   -1    0    0  502  501  0.00000000000E+00  0.00000000000E+00  0.47399485694E+03  0.47399485694E+03  0.00000000000E+00 0.  1.
         21   -1    0    0  501  502 -0.00000000000E+00 -0.00000000000E+00 -0.25862418131E+03  0.25862418131E+03  0.00000000000E+00 0.  1.
         25    1    1    2    0    0  0.53379193486E+02 -0.73970961561E+02 -0.16577612425E+03  0.22677690540E+03  0.12500000000E+03 0.  0.
         25    1    1    2    0    0 -0.56621860916E+02 -0.49991045281E+02  0.23655035708E+03  0.27800397691E+03  0.12500000000E+03 0.  0.
         25    1    1    2    0    0  0.32426674305E+01  0.12396200684E+03  0.14459644280E+03  0.22783815594E+03  0.12500000000E+03 0.  0.
</event>
<event>
 5    0  0.5764392E-005  0.3697558E+03  0.7546771E-02  0.1054786E+00
         21   -1    0    0  502  501  0.00000000000E+00  0.00000000000E+00  0.60892581341E+03  0.60892581341E+03  0.00000000000E+00 0.  1.
         21   -1    0    0  501  502 -0.00000000000E+00 -0.00000000000E+00 -0.22452552010E+03  0.22452552010E+03  0.00000000000E+00 0.  1.
         25    1    1    2    0    0  0.13918854842E+03 -0.53711891544E+02  0.41733404298E+03  0.46049008972E+03  0.12500000000E+03 0.  0.
         25    1    1    2    0    0 -0.11218299037E+03 -0.78571192295E+02  0.31960505729E+01  0.18545530547E+03  0.12500000000E+03 0.  0.
         25    1    1    2    0    0 -0.27005558046E+02  0.13228308384E+03 -0.36129800243E+02  0.18750593831E+03  0.12500000000E+03 0.  0.
</event>
<event>
 5    0  0.5764392E-005  0.3664882E+03  0.7546771E-02  0.1056044E+00
         21   -1    0    0  502  501  0.00000000000E+00  0.00000000000E+00  0.12173839834E+04  0.12173839834E+04  0.00000000000E+00 0. -1.
         21   -1    0    0  501  502 -0.00000000000E+00 -0.00000000000E+00 -0.11032971038E+03  0.11032971038E+03  0.00000000000E+00 0. -1.
         25    1    1    2    0    0  0.38084500015E+02 -0.28370697698E+03  0.32300763565E+03  0.44933173782E+03  0.12500000000E+03 0.  0.
         25    1    1    2    0    0 -0.16988914709E+02  0.61862008569E+02  0.27698949731E+03  0.31058607977E+03  0.12500000000E+03 0.  0.
         25    1    1    2    0    0 -0.21095585306E+02  0.22184496841E+03  0.50705714003E+03  0.56779587616E+03  0.12500000000E+03 0.  0.
</event>
<event>
 5    0  0.5764392E-005  0.3765106E+03  0.7546771E-02  0.1052231E+00
         21   -1    0    0  502  501  0.00000000000E+00  0.00000000000E+00  0.61133587153E+03  0.61133587153E+03  0.00000000000E+00 0.  1.
         21   -1    0    0  501  502 -0.00000000000E+00 -0.00000000000E+00 -0.23188594899E+03  0.23188594899E+03  0.00000000000E+00 0.  1.
         25    1    1    2    0    0 -0.18571373900E+03  0.11432918374E+02 -0.72598849924E+02  0.23561811790E+03  0.12500000000E+03 0.  0.
         25    1    1    2    0    0  0.68019262596E+02 -0.49696846896E+01  0.21459717563E+02  0.14400290736E+03  0.12500000000E+03 0.  0.
         25    1    1    2    0    0  0.11769447640E+03 -0.64632336840E+01  0.43058905490E+03  0.46360079526E+03  0.12500000000E+03 0.  0.
</event>
<event>
 5    0  0.5764392E-005  0.2721458E+03  0.7546771E-02  0.1100058E+00
         21   -1    0    0  502  501  0.00000000000E+00  0.00000000000E+00  0.47902023195E+02  0.47902023195E+02  0.00000000000E+00 0.  1.
         21   -1    0    0  501  502 -0.00000000000E+00 -0.00000000000E+00 -0.15461426920E+04  0.15461426920E+04  0.00000000000E+00 0.  1.
         25    1    1    2    0    0  0.11628714920E+03  0.39130789771E+02 -0.93896186241E+03  0.95515878200E+03  0.12500000000E+03 0.  0.
         25    1    1    2    0    0 -0.11470300317E+03 -0.28575723020E+02 -0.40507287176E+03  0.44009360632E+03  0.12500000000E+03 0.  0.
         25    1    1    2    0    0 -0.15841460281E+01 -0.10555066751E+02 -0.15420593468E+03  0.19879232692E+03  0.12500000000E+03 0.  0.
</event>
<event>
 5    0  0.5764392E-005  0.3014807E+03  0.7546771E-02  0.1084503E+00
         21   -1    0    0  502  501  0.00000000000E+00  0.00000000000E+00  0.10679072461E+04  0.10679072461E+04  0.00000000000E+00 0.  1.
         21   -1    0    0  501  502 -0.00000000000E+00 -0.00000000000E+00 -0.85110981046E+02  0.85110981046E+02  0.00000000000E+00 0.  1.
         25    1    1    2    0    0 -0.10945574455E+03 -0.55504555149E+01  0.15741960785E+03  0.22894824854E+03  0.12500000000E+03 0.  0.
         25    1    1    2    0    0  0.18042618180E+03 -0.15757025472E+02  0.26151493131E+03  0.34178494735E+03  0.12500000000E+03 0.  0.
         25    1    1    2    0    0 -0.70970437249E+02  0.21307480986E+02  0.56386172586E+03  0.58228503123E+03  0.12500000000E+03 0.  0.
</event>
<event>
 5    0  0.5764392E-005  0.2667900E+03  0.7546771E-02  0.1103131E+00
         21   -1    0    0  502  501  0.00000000000E+00  0.00000000000E+00  0.52001991699E+03  0.52001991699E+03  0.00000000000E+00 0.  1.
         21   -1    0    0  501  502 -0.00000000000E+00 -0.00000000000E+00 -0.13687339142E+03  0.13687339142E+03  0.00000000000E+00 0.  1.
         25    1    1    2    0    0  0.23410447738E+02 -0.10837011360E+03  0.11615653275E+02  0.16748747412E+03  0.12500000000E+03 0.  0.
         25    1    1    2    0    0 -0.17575423467E+01  0.10983972805E+03  0.30179132879E+03  0.34463148572E+03  0.12500000000E+03 0.  0.
         25    1    1    2    0    0 -0.21652905391E+02 -0.14696144517E+01  0.69739543503E+02  0.14477434858E+03  0.12500000000E+03 0.  0.
</event>
<event>
 5    0  0.5764392E-005  0.6570687E+03  0.7546771E-02  0.9793605E-01
         21   -1    0    0  502  501  0.00000000000E+00  0.00000000000E+00  0.34128183562E+03  0.34128183562E+03  0.00000000000E+00 0. -1.
         21   -1    0    0  501  502 -0.00000000000E+00 -0.00000000000E+00 -0.12650518580E+04  0.12650518580E+04  0.00000000000E+00 0. -1.
         25    1    1    2    0    0  0.26328144222E+02  0.31153446333E+03 -0.79882197021E+03  0.86688432510E+03  0.12500000000E+03 0.  0.
         25    1    1    2    0    0 -0.78343883937E+02 -0.57981612283E+02  0.23211175767E+03  0.28107027513E+03  0.12500000000E+03 0.  0.
         25    1    1    2    0    0  0.52015739715E+02 -0.25355285104E+03 -0.35705980982E+03  0.45837909337E+03  0.12500000000E+03 0.  0.
</event>
<event>
 5    0  0.5764392E-005  0.3633736E+03  0.7546771E-02  0.1057256E+00
         21   -1    0    0  502  501  0.00000000000E+00  0.00000000000E+00  0.68539038853E+03  0.68539038853E+03  0.00000000000E+00 0.  1.
         21   -1    0    0  501  502 -0.00000000000E+00 -0.00000000000E+00 -0.19264986462E+03  0.19264986462E+03  0.00000000000E+00 0.  1.
         25    1    1    2    0    0  0.21080919858E+03  0.81628244779E+02  0.16783788351E+03  0.30805558540E+03  0.12500000000E+03 0.  0.
         25    1    1    2    0    0 -0.16196228982E+03  0.11026141376E+03  0.13727773212E+03  0.26992506076E+03  0.12500000000E+03 0.  0.
         25    1    1    2    0    0 -0.48846908765E+02 -0.19188965854E+03  0.18762490827E+03  0.30005960700E+03  0.12500000000E+03 0.  0.
</event>
<event>
 5    0  0.5764392E-005  0.2109983E+03  0.7546771E-02  0.1140778E+00
         21   -1    0    0  502  501  0.00000000000E+00  0.00000000000E+00  0.16462548954E+04  0.16462548954E+04  0.00000000000E+00 0. -1.
         21   -1    0    0  501  502 -0.00000000000E+00 -0.00000000000E+00 -0.27043383359E+02  0.27043383359E+02  0.00000000000E+00 0. -1.
         25    1    1    2    0    0 -0.28576441358E+01  0.55313653739E+02  0.54816296326E+03  0.56495610512E+03  0.12500000000E+03 0.  0.
         25    1    1    2    0    0  0.45094187486E+02 -0.66740946785E+01  0.67707267991E+03  0.69002205992E+03  0.12500000000E+03 0.  0.
         25    1    1    2    0    0 -0.42236543351E+02 -0.48639559061E+02  0.39397586890E+03  0.41832011376E+03  0.12500000000E+03 0.  0.
</event>
<event>
 5    0  0.5764392E-005  0.3891754E+03  0.7546771E-02  0.1047594E+00
         21   -1    0    0  502  501  0.00000000000E+00  0.00000000000E+00  0.76703378038E+02  0.76703378038E+02  0.00000000000E+00 0. -1.
         21   -1    0    0  501  502 -0.00000000000E+00 -0.00000000000E+00 -0.19745872053E+04  0.19745872053E+04  0.00000000000E+00 0. -1.
         25    1    1    2    0    0 -0.22518319446E+03  0.25498720266E+01 -0.42480773680E+03  0.49679028389E+03  0.12500000000E+03 0.  0.
         25    1    1    2    0    0 -0.91652049570E+02 -0.41163689670E+01 -0.41969914417E+03  0.44742531701E+03  0.12500000000E+03 0.  0.
         25    1    1    2    0    0  0.31683524403E+03  0.15664969404E+01 -0.10533769463E+04  0.11070749824E+04  0.12500000000E+03 0.  0.
</event>
<event>
 5    0  0.5764392E-005  0.3602384E+03  0.7546771E-02  0.1058490E+00
         21   -1    0    0  502  501  0.00000000000E+00  0.00000000000E+00  0.35616901991E+03  0.35616901991E+03  0.00000000000E+00 0. -1.
         21   -1    0    0  501  502 -0.00000000000E+00 -0.00000000000E+00 -0.36435419107E+03  0.36435419107E+03  0.00000000000E+00 0. -1.
         25    1    1    2    0    0  0.15890920732E+03 -0.60559797394E+02 -0.11937992540E+03  0.24247926060E+03  0.12500000000E+03 0.  0.
         25    1    1    2    0    0  0.44818404558E+02 -0.30259772817E+02 -0.80740174702E+02  0.15832977941E+03  0.12500000000E+03 0.  0.
         25    1    1    2    0    0 -0.20372761188E+03  0.90819570210E+02  0.19193492894E+03  0.31971417098E+03  0.12500000000E+03 0.  0.
</event>
<event>
 5    0  0.5764392E-005  0.2285726E+03  0.7546771E-02  0.1127648E+00
         21   -1    0    0  502  501  0.00000000000E+00  0.00000000000E+00  0.21212143843E+02  0.21212143843E+02  0.00000000000E+00 0. -1.
         21   -1    0    0  501  502 -0.00000000000E+00 -0.00000000000E+00 -0.24629963257E+04  0.24629963257E+04  0.00000000000E+00 0. -1.
         25    1    1    2    0    0  0.19239044166E+02  0.32900716702E+02 -0.65955660795E+03  0.67237825446E+03  0.12500000000E+03 0.  0.
         25    1    1    2    0    0 -0.38232543046E+02 -0.10805945510E+03 -0.73435164787E+03  0.75368157462E+03  0.12500000000E+03 0.  0.
         25    1    1    2    0    0  0.18993498880E+02  0.75158738399E+02 -0.10478759261E+04  0.10581486405E+04  0.12500000000E+03 0.  0.
</event>
<event>
 5    0  0.5764392E-005  0.2867774E+03  0.7546771E-02  0.1092044E+00
         21   -1    0    0  502  501  0.00000000000E+00  0.00000000000E+00  0.59105515479E+02  0.59105515479E+02  0.00000000000E+00 0.  1.
         21   -1    0    0  501  502 -0.00000000000E+00 -0.00000000000E+00 -0.13914314754E+04  0.13914314754E+04  0.00000000000E+00 0.  1.
         25    1    1    2    0    0 -0.90032777756E+02  0.62197950905E+02 -0.18577679488E+03  0.24922380240E+03  0.12500000000E+03 0.  0.
         25    1    1    2    0    0  0.68476126013E+02 -0.61177603501E+02 -0.97874736966E+03  0.99096069177E+03  0.12500000000E+03 0.  0.
         25    1    1    2    0    0  0.21556651743E+02 -0.10203474044E+01 -0.16780179541E+03  0.21035249674E+03  0.12500000000E+03 0.  0.
</event>
<event>
 5    0  0.5764392E-005  0.2101223E+03  0.7546771E-02  0.1141469E+00
         21   -1    0    0  502  501  0.00000000000E+00  0.00000000000E+00  0.64543710050E+02  0.64543710050E+02  0.00000000000E+00 0.  1.
         21   -1    0    0  501  502 -0.00000000000E+00 -0.00000000000E+00 -0.68405416957E+03  0.68405416957E+03  0.00000000000E+00 0.  1.
         25    1    1    2    0    0  0.23221111069E+02  0.20881446941E+02 -0.18265879928E+03  0.22352738486E+03  0.12500000000E+03 0.  0.
         25    1    1    2    0    0 -0.82033466416E+02  0.38712585872E+01 -0.19962915860E+03  0.24944193156E+03  0.12500000000E+03 0.  0.
         25    1    1    2    0    0  0.58812355347E+02 -0.24752705528E+02 -0.23722250164E+03  0.27562856321E+03  0.12500000000E+03 0.  0.
</event>
<event>
 5    0  0.5764392E-005  0.4143801E+03  0.7546771E-02  0.1038911E+00
         21   -1    0    0  502  501  0.00000000000E+00  0.00000000000E+00  0.21596334780E+03  0.21596334780E+03  0.00000000000E+00 0. -1.
         21   -1    0    0  501  502 -0.00000000000E+00 -0.00000000000E+00 -0.79509271413E+03  0.79509271413E+03  0.00000000000E+00 0. -1.
         25    1    1    2    0    0  0.16803870100E+03  0.22966375723E+02 -0.94305366543E+02  0.23083102392E+03  0.12500000000E+03 0.  0.
         25    1    1    2    0    0 -0.23064749866E+02  0.61799674863E+02 -0.54449226278E+03  0.56253711586E+03  0.12500000000E+03 0.  0.
         25    1    1    2    0    0 -0.14497395113E+03 -0.84766050586E+02  0.59668262989E+02  0.21768792214E+03  0.12500000000E+03 0.  0.
</event>
<event>
 5    0  0.5764392E-005  0.3218474E+03  0.7546771E-02  0.1074802E+00
         21   -1    0    0  502  501  0.00000000000E+00  0.00000000000E+00  0.15980201707E+03  0.15980201707E+03  0.00000000000E+00 0.  1.
         21   -1    0    0  501  502 -0.00000000000E+00 -0.00000000000E+00 -0.64821308988E+03  0.64821308988E+03  0.00000000000E+00 0.  1.
         25    1    1    2    0    0 -0.56703804193E+02 -0.95208401194E+02 -0.36653935849E+03  0.40281020641E+03  0.12500000000E+03 0.  0.
         25    1    1    2    0    0  0.11177086701E+03 -0.48922497001E+02 -0.10968856157E+03  0.20625886154E+03  0.12500000000E+03 0.  0.
         25    1    1    2    0    0 -0.55067062817E+02  0.14413089819E+03 -0.12183152748E+02  0.19894603900E+03  0.12500000000E+03 0.  0.
</event>
<event>
 5    0  0.5764392E-005  0.2615487E+03  0.7546771E-02  0.1106216E+00
         21   -1    0    0  502  501  0.00000000000E+00  0.00000000000E+00  0.58715856093E+02  0.58715856093E+02  0.00000000000E+00 0. -1.
         21   -1    0    0  501  502 -0.00000000000E+00 -0.00000000000E+00 -0.11650641200E+04  0.11650641200E+04  0.00000000000E+00 0. -1.
         25    1    1    2    0    0  0.59145102443E+02  0.64008076867E+02 -0.62233295793E+03  0.64071716660E+03  0.12500000000E+03 0.  0.
         25    1    1    2    0    0 -0.89786744380E+02 -0.10874813728E+03 -0.29504938684E+03  0.35009564051E+03  0.12500000000E+03 0.  0.
         25    1    1    2    0    0  0.30641641938E+02  0.44740060412E+02 -0.18896591908E+03  0.23296716893E+03  0.12500000000E+03 0.  0.
</event>
<event>
 5    0  0.6080286E-005  0.2900575E+03  0.7546771E-02  0.1090319E+00
         21   -1    0    0  502  501  0.00000000000E+00  0.00000000000E+00  0.20095471061E+03  0.20095471061E+03  0.00000000000E+00 0.  1.
         21   -1    0    0  501  502 -0.00000000000E+00 -0.00000000000E+00 -0.41866810999E+03  0.41866810999E+03  0.00000000000E+00 0.  1.
         25    1    1    2    0    0 -0.65852643762E+02  0.29999185835E+02 -0.15110657761E+03  0.20903281952E+03  0.12500000000E+03 0.  0.
         25    1    1    2    0    0  0.18854853538E+03 -0.68866883746E+01 -0.16385359243E+02  0.22691729037E+03  0.12500000000E+03 0.  0.
         25    1    1    2    0    0 -0.12269589162E+03 -0.23112497461E+02 -0.50221462539E+02  0.18367271071E+03  0.12500000000E+03 0.  0.
</event>
<event>
 5    0  0.5764392E-005  0.2660468E+03  0.7546771E-02  0.1103564E+00
         21   -1    0    0  502  501  0.00000000000E+00  0.00000000000E+00  0.15494257617E+03  0.15494257617E+03  0.00000000000E+00 0.  1.
         21   -1    0    0  501  502 -0.00000000000E+00 -0.00000000000E+00 -0.45682012811E+03  0.45682012811E+03  0.00000000000E+00 0.  1.
         25    1    1    2    0    0  0.10578051775E+02  0.21797801567E+02 -0.24815052052E+03  0.27890987822E+03  0.12500000000E+03 0.  0.
         25    1    1    2    0    0  0.79516991433E+02 -0.43075683052E+02 -0.82055661147E+02  0.17474724010E+03  0.12500000000E+03 0.  0.
         25    1    1    2    0    0 -0.90095043208E+02  0.21277881485E+02  0.28328629731E+02  0.15810558597E+03  0.12500000000E+03 0.  0.
</event>
<event>
 5    0  0.5764392E-005  0.3473867E+03  0.7546771E-02  0.1063693E+00
         21   -1    0    0  502  501  0.00000000000E+00  0.00000000000E+00  0.33696333238E+03  0.33696333238E+03  0.00000000000E+00 0.  1.
         21   -1    0    0  501  502 -0.00000000000E+00 -0.00000000000E+00 -0.35813257128E+03  0.35813257128E+03  0.00000000000E+00 0.  1.
         25    1    1    2    0    0  0.48794645274E+02 -0.51489917153E+02 -0.25174669159E+03  0.28988536648E+03  0.12500000000E+03 0.  0.
         25    1    1    2    0    0 -0.11493144838E+03  0.66767894909E+02  0.17400985655E+03  0.25213413056E+03  0.12500000000E+03 0.  0.
         25    1    1    2    0    0  0.66136803104E+02 -0.15277977756E+02  0.56567596144E+02  0.15307640662E+03  0.12500000000E+03 0.  0.
</event>
<event>
 5    0  0.5764392E-005  0.2597700E+03  0.7546771E-02  0.1107282E+00
         21   -1    0    0  502  501  0.00000000000E+00  0.00000000000E+00  0.15843921354E+03  0.15843921354E+03  0.00000000000E+00 0.  1.
         21   -1    0    0  501  502 -0.00000000000E+00 -0.00000000000E+00 -0.42590745427E+03  0.42590745427E+03  0.00000000000E+00 0.  1.
         25    1    1    2    0    0 -0.67004482740E+02  0.12867401820E+03 -0.15200397909E+03  0.24449297194E+03  0.12500000000E+03 0.  0.
         25    1    1    2    0    0  0.39209771629E+02 -0.44423150018E+02  0.14232794962E+02  0.13906255751E+03  0.12500000000E+03 0.  0.
         25    1    1    2    0    0  0.27794711111E+02 -0.84250868184E+02 -0.12969705660E+03  0.20079113836E+03  0.12500000000E+03 0.  0.
</event>
<event>
 5    0  0.5764392E-005  0.5203873E+03  0.7546771E-02  0.1008590E+00
         21   -1    0    0  502  501  0.00000000000E+00  0.00000000000E+00  0.15737884918E+04  0.15737884918E+04  0.00000000000E+00 0. -1.
         21   -1    0    0  501  502 -0.00000000000E+00 -0.00000000000E+00 -0.17207073738E+03  0.17207073738E+03  0.00000000000E+00 0. -1.
         25    1    1    2    0    0 -0.23401700559E+03 -0.13034347545E+03  0.16978658153E+03  0.34088981176E+03  0.12500000000E+03 0.  0.
         25    1    1    2    0    0  0.38189044974E+03  0.18026260527E+03  0.10327500206E+04  0.11227343976E+04  0.12500000000E+03 0.  0.
         25    1    1    2    0    0 -0.14787344415E+03 -0.49919129813E+02  0.19918115234E+03  0.28223501989E+03  0.12500000000E+03 0.  0.
</event>
<event>
 5    0  0.5764392E-005  0.3155786E+03  0.7546771E-02  0.1077702E+00
         21   -1    0    0  502  501  0.00000000000E+00  0.00000000000E+00  0.14887179359E+03  0.14887179359E+03  0.00000000000E+00 0.  1.
         21   -1    0    0  501  502 -0.00000000000E+00 -0.00000000000E+00 -0.66896394363E+03  0.66896394363E+03  0.00000000000E+00 0.  1.
         25    1    1    2    0    0 -0.32253525328E+02  0.64286398903E+02  0.20864629252E+02  0.14571672428E+03  0.12500000000E+03 0.  0.
         25    1    1    2    0    0 -0.77295141135E+02  0.57230624336E+01 -0.44321841248E+03  0.46698485355E+03  0.12500000000E+03 0.  0.
         25    1    1    2    0    0  0.10954866646E+03 -0.70009461337E+02 -0.97738366816E+02  0.20513415939E+03  0.12500000000E+03 0.  0.
</event>
<event>
 5    0  0.5764392E-005  0.2587887E+03  0.7546771E-02  0.1107873E+00
         21   -1    0    0  502  501  0.00000000000E+00  0.00000000000E+00  0.38749823167E+03  0.38749823167E+03  0.00000000000E+00 0. -1.
         21   -1    0    0  501  502 -0.00000000000E+00 -0.00000000000E+00 -0.17283068751E+03  0.17283068751E+03  0.00000000000E+00 0. -1.
         25    1    1    2    0    0  0.14713751855E+03  0.58736860074E+02  0.77001998397E+02  0.21599485145E+03  0.12500000000E+03 0.  0.
         25    1    1    2    0    0 -0.49287404288E+02 -0.31187764702E+02  0.11893344764E+03  0.18213206707E+03  0.12500000000E+03 0.  0.
         25    1    1    2    0    0 -0.97850114258E+02 -0.27549095372E+02  0.18732098127E+02  0.16220200065E+03  0.12500000000E+03 0.  0.
</event>
<event>
 5    0  0.5764392E-005  0.4409861E+03  0.7546771E-02  0.1030445E+00
         21   -1    0    0  502  501  0.00000000000E+00  0.00000000000E+00  0.20975820815E+03  0.20975820815E+03  0.00000000000E+00 0. -1.
         21   -1    0    0  501  502 -0.00000000000E+00 -0.00000000000E+00 -0.92710906436E+03  0.92710906436E+03  0.00000000000E+00 0. -1.
         25    1    1    2    0    0  0.42897634877E+02  0.67794129650E+02 -0.41089997614E+03  0.43692109297E+03  0.12500000000E+03 0.  0.
         25    1    1    2    0    0 -0.18251179274E+03 -0.57065679423E+02  0.10218113461E+03  0.25026591963E+03  0.12500000000E+03 0.  0.
         25    1    1    2    0    0  0.13961415787E+03 -0.10728450226E+02 -0.40863201469E+03  0.44968025990E+03  0.12500000000E+03 0.  0.
</event>
<event>
 5    0  0.5764392E-005  0.3315514E+03  0.7546771E-02  0.1070452E+00
         21   -1    0    0  502  501  0.00000000000E+00  0.00000000000E+00  0.99656307844E+03  0.99656307844E+03  0.00000000000E+00 0.  1.
         21   -1    0    0  501  502 -0.00000000000E+00 -0.00000000000E+00 -0.11030546836E+03  0.11030546836E+03  0.00000000000E+00 0.  1.
         25    1    1    2    0    0  0.10658442750E+03  0.28784809846E+02  0.22262497651E+03  0.27816485333E+03  0.12500000000E+03 0.  0.
         25    1    1    2    0    0 -0.74325572857E+02  0.81150350515E+02  0.25562254668E+02  0.16848768214E+03  0.12500000000E+03 0.  0.
         25    1    1    2    0    0 -0.32258854643E+02 -0.10993516036E+03  0.63807037890E+03  0.66021601133E+03  0.12500000000E+03 0.  0.
</event>
<event>
 5    0  0.5764392E-005  0.2334029E+03  0.7546771E-02  0.1124267E+00
         21   -1    0    0  502  501  0.00000000000E+00  0.00000000000E+00  0.56191811882E+02  0.56191811882E+02  0.00000000000E+00 0.  1.
         21   -1    0    0  501  502 -0.00000000000E+00 -0.00000000000E+00 -0.96948142352E+03  0.96948142352E+03  0.00000000000E+00 0.  1.
         25    1    1    2    0    0 -0.95827589942E+02  0.26057525742E+02 -0.34821729032E+03  0.38306944922E+03  0.12500000000E+03 0.  0.
         25    1    1    2    0    0  0.73549002350E+02 -0.82561875068E+02 -0.29883178369E+03  0.34227379962E+03  0.12500000000E+03 0.  0.
         25    1    1    2    0    0  0.22278587593E+02  0.56504349326E+02 -0.26624053762E+03  0.30032998656E+03  0.12500000000E+03 0.  0.
</event>
<event>
 5    0  0.5764986E-005  0.2588822E+03  0.7546771E-02  0.1107817E+00
         21   -1    0    0  502  501  0.00000000000E+00  0.00000000000E+00  0.13178266108E+03  0.13178266108E+03  0.00000000000E+00 0. -1.
         21   -1    0    0  501  502 -0.00000000000E+00 -0.00000000000E+00 -0.50856462632E+03  0.50856462632E+03  0.00000000000E+00 0. -1.
         25    1    1    2    0    0 -0.86836029557E+01 -0.23095172438E+02 -0.55518631842E+01  0.12753280023E+03  0.12500000000E+03 0.  0.
         25    1    1    2    0    0  0.97867913516E+02 -0.40317648044E+01 -0.69858615607E+02  0.17349239118E+03  0.12500000000E+03 0.  0.
         25    1    1    2    0    0 -0.89184310560E+02  0.27126937242E+02 -0.30137148645E+03  0.33932209598E+03  0.12500000000E+03 0.  0.
</event>
<event>
 5    0  0.5764392E-005  0.3177268E+03  0.7546771E-02  0.1076700E+00
         21   -1    0    0  502  501  0.00000000000E+00  0.00000000000E+00  0.18409439516E+03  0.18409439516E+03  0.00000000000E+00 0.  1.
         21   -1    0    0  501  502 -0.00000000000E+00 -0.00000000000E+00 -0.54836176599E+03  0.54836176599E+03  0.00000000000E+00 0.  1.
         25    1    1    2    0    0  0.75414468310E+02  0.37931690565E+01 -0.32126722312E+03  0.35290134431E+03  0.12500000000E+03 0.  0.
         25    1    1    2    0    0 -0.13415548152E+03  0.13010915718E+02  0.73611261984E+02  0.19801665344E+03  0.12500000000E+03 0.  0.
         25    1    1    2    0    0  0.58741013212E+02 -0.16804084774E+02 -0.11661140969E+03  0.18153816339E+03  0.12500000000E+03 0.  0.
</event>
<event>
 5    0  0.5764392E-005  0.3566272E+03  0.7546771E-02  0.1059927E+00
         21   -1    0    0  502  501  0.00000000000E+00  0.00000000000E+00  0.31072085983E+03  0.31072085983E+03  0.00000000000E+00 0. -1.
         21   -1    0    0  501  502 -0.00000000000E+00 -0.00000000000E+00 -0.40931584104E+03  0.40931584104E+03  0.00000000000E+00 0. -1.
         25    1    1    2    0    0  0.22715957395E+02  0.79726054459E+02  0.98525396986E+02  0.17945615713E+03  0.12500000000E+03 0.  0.
         25    1    1    2    0    0 -0.55827253618E+02 -0.24047756516E+03 -0.18709706101E+03  0.33403061511E+03  0.12500000000E+03 0.  0.
         25    1    1    2    0    0  0.33111296223E+02  0.16075151070E+03 -0.10023317187E+02  0.20654992863E+03  0.12500000000E+03 0.  0.
</event>
<event>
 5    0  0.5764392E-005  0.5342375E+03  0.7546771E-02  0.1005210E+00
         21   -1    0    0  502  501  0.00000000000E+00  0.00000000000E+00  0.77243738935E+03  0.77243738935E+03  0.00000000000E+00 0. -1.
         21   -1    0    0  501  502 -0.00000000000E+00 -0.00000000000E+00 -0.36949230161E+03  0.36949230161E+03  0.00000000000E+00 0.  1.
         25    1    1    2    0    0 -0.67692105532E+02 -0.18041451163E+02  0.45525663669E+03  0.47727488973E+03  0.12500000000E+03 0.  0.
         25    1    1    2    0    0 -0.19439147853E+03  0.17013809933E+03  0.99062035057E+02  0.30360057075E+03  0.12500000000E+03 0.  0.
         25    1    1    2    0    0  0.26208358406E+03 -0.15209664817E+03 -0.15137358401E+03  0.36105423049E+03  0.12500000000E+03 0.  0.
</event>
<event>
 5    0  0.5764392E-005  0.2357672E+03  0.7546771E-02  0.1122645E+00
         21   -1    0    0  502  501  0.00000000000E+00  0.00000000000E+00  0.84135406384E+02  0.84135406384E+02  0.00000000000E+00 0.  1.
         21   -1    0    0  501  502 -0.00000000000E+00 -0.00000000000E+00 -0.66067528474E+03  0.66067528474E+03  0.00000000000E+00 0.  1.
         25    1    1    2    0    0  0.63913116662E+02 -0.93448756676E+02 -0.14587905349E+03  0.22298711813E+03  0.12500000000E+03 0.  0.
         25    1    1    2    0    0 -0.32419716385E+02 -0.49277308442E+01 -0.23014331735E+03  0.26394368161E+03  0.12500000000E+03 0.  0.
         25    1    1    2    0    0 -0.31493400277E+02  0.98376487521E+02 -0.20051750751E+03  0.25787989138E+03  0.12500000000E+03 0.  0.
</event>
<event>
 5    0  0.5764392E-005  0.2578345E+03  0.7546771E-02  0.1108451E+00
         21   -1    0    0  502  501  0.00000000000E+00  0.00000000000E+00  0.12918026166E+03  0.12918026166E+03  0.00000000000E+00 0.  1.
         21   -1    0    0  501  502 -0.00000000000E+00 -0.00000000000E+00 -0.51461894667E+03  0.51461894667E+03  0.00000000000E+00 0.  1.
         25    1    1    2    0    0  0.60115212572E+02  0.47230670708E+02 -0.20687457919E+02  0.14797819418E+03  0.12500000000E+03 0.  0.
         25    1    1    2    0    0 -0.11808485130E+03  0.27490267277E+02 -0.14926641847E+03  0.22935825816E+03  0.12500000000E+03 0.  0.
         25    1    1    2    0    0  0.57969638723E+02 -0.74720937985E+02 -0.21548480862E+03  0.26646275599E+03  0.12500000000E+03 0.  0.
</event>
<event>
 5    0  0.5764392E-005  0.5170429E+03  0.7546771E-02  0.1009424E+00
         21   -1    0    0  502  501  0.00000000000E+00  0.00000000000E+00  0.31130631559E+03  0.31130631559E+03  0.00000000000E+00 0.  1.
         21   -1    0    0  501  502 -0.00000000000E+00 -0.00000000000E+00 -0.85874689674E+03  0.85874689674E+03  0.00000000000E+00 0.  1.
         25    1    1    2    0    0 -0.14545916567E+03 -0.24316831673E+03 -0.22725201648E+03  0.38413237059E+03  0.12500000000E+03 0.  0.
         25    1    1    2    0    0  0.71922902210E+02  0.26535763071E+03  0.11767642414E+03  0.32413009246E+03  0.12500000000E+03 0.  0.
         25    1    1    2    0    0  0.73536263458E+02 -0.22189313981E+02 -0.43786498881E+03  0.46179074929E+03  0.12500000000E+03 0.  0.
</event>
<event>
 5    0  0.5764392E-005  0.2469708E+03  0.7546771E-02  0.1115234E+00
         21   -1    0    0  502  501  0.00000000000E+00  0.00000000000E+00  0.31622387811E+02  0.31622387811E+02  0.00000000000E+00 0. -1.
         21   -1    0    0  501  502 -0.00000000000E+00 -0.00000000000E+00 -0.19288410780E+04  0.19288410780E+04  0.00000000000E+00 0. -1.
         25    1    1    2    0    0 -0.15715053569E+02 -0.38409987905E+02 -0.25103128255E+03  0.28348544036E+03  0.12500000000E+03 0.  0.
         25    1    1    2    0    0 -0.25309897723E+02 -0.15982898141E+02 -0.34747016735E+03  0.37048152607E+03  0.12500000000E+03 0.  0.
         25    1    1    2    0    0  0.41024951292E+02  0.54392886046E+02 -0.12987172403E+04  0.13064964994E+04  0.12500000000E+03 0.  0.
</event>
<event>
 5    0  0.5764392E-005  0.2971477E+03  0.7546771E-02  0.1086675E+00
         21   -1    0    0  502  501  0.00000000000E+00  0.00000000000E+00  0.86940011307E+03  0.86940011307E+03  0.00000000000E+00 0. -1.
         21   -1    0    0  501  502 -0.00000000000E+00 -0.00000000000E+00 -0.10156056236E+03  0.10156056236E+03  0.00000000000E+00 0. -1.
         25    1    1    2    0    0  0.81856710405E+02  0.16664773957E+03  0.18626525806E+03  0.29119020674E+03  0.12500000000E+03 0.  0.
         25    1    1    2    0    0  0.39451939143E+02 -0.69340287743E+02  0.30028080530E+03  0.33490012397E+03  0.12500000000E+03 0.  0.
         25    1    1    2    0    0 -0.12130864955E+03 -0.97307451826E+02  0.28129348736E+03  0.34487034472E+03  0.12500000000E+03 0.  0.
</event>
<event>
 5    0  0.5764392E-005  0.2414328E+03  0.7546771E-02  0.1118842E+00
         21   -1    0    0  502  501  0.00000000000E+00  0.00000000000E+00  0.11756837391E+04  0.11756837391E+04  0.00000000000E+00 0. -1.
         21   -1    0    0  501  502 -0.00000000000E+00 -0.00000000000E+00 -0.49579504881E+02  0.49579504881E+02  0.00000000000E+00 0. -1.
         25    1    1    2    0    0  0.27529332537E+02  0.30478473926E+02  0.35439207393E+03  0.37802849573E+03  0.12500000000E+03 0.  0.
         25    1    1    2    0    0 -0.60255919237E+02 -0.10004746218E+03  0.58645019150E+03  0.61089205070E+03  0.12500000000E+03 0.  0.
         25    1    1    2    0    0  0.32726586700E+02  0.69568988256E+02  0.18526196877E+03  0.23634269753E+03  0.12500000000E+03 0.  0.
</event>
<event>
 5    0  0.5764392E-005  0.3653394E+03  0.7546771E-02  0.1056489E+00
         21   -1    0    0  502  501  0.00000000000E+00  0.00000000000E+00  0.37453442070E+03  0.37453442070E+03  0.00000000000E+00 0.  1.
         21   -1    0    0  501  502 -0.00000000000E+00 -0.00000000000E+00 -0.35637008016E+03  0.35637008016E+03  0.00000000000E+00 0.  1.
         25    1    1    2    0    0 -0.69308214695E+02 -0.54891152339E+02  0.75194730121E+02  0.17057524635E+03  0.12500000000E+03 0.  0.
         25    1    1    2    0    0 -0.10859161246E+03  0.22594427658E+03 -0.42249461525E+02  0.28328955401E+03  0.12500000000E+03 0.  0.
         25    1    1    2    0    0  0.17789982715E+03 -0.17105312424E+03 -0.14780928057E+02  0.27703970049E+03  0.12500000000E+03 0.  0.
</event>
<event>
 5    0  0.5764392E-005  0.3220907E+03  0.7546771E-02  0.1074691E+00
         21   -1    0    0  502  501  0.00000000000E+00  0.00000000000E+00  0.13887193462E+03  0.13887193462E+03  0.00000000000E+00 0. -1.
         21   -1    0    0  501  502 -0.00000000000E+00 -0.00000000000E+00 -0.74703662609E+03  0.74703662609E+03  0.00000000000E+00 0. -1.
         25    1    1    2    0    0 -0.75502493879E+02  0.15488117846E+02 -0.31786317739E+02  0.15025271502E+03  0.12500000000E+03 0.  0.
         25    1    1    2    0    0  0.79777967988E+02  0.17025758948E+03 -0.22329405458E+03  0.31754906040E+03  0.12500000000E+03 0.  0.
         25    1    1    2    0    0 -0.42754741093E+01 -0.18574570733E+03 -0.35308431916E+03  0.41810678529E+03  0.12500000000E+03 0.  0.
</event>
<event>
 5    0  0.5764392E-005  0.2835204E+03  0.7546771E-02  0.1093782E+00
         21   -1    0    0  502  501  0.00000000000E+00  0.00000000000E+00  0.88275202579E+03  0.88275202579E+03  0.00000000000E+00 0. -1.
         21   -1    0    0  501  502 -0.00000000000E+00 -0.00000000000E+00 -0.91060479610E+02  0.91060479610E+02  0.00000000000E+00 0. -1.
         25    1    1    2    0    0  0.99918790132E+01 -0.66472090533E+01  0.96029088615E+01  0.12594141056E+03  0.12500000000E+03 0.  0.
         25    1    1    2    0    0  0.92758517190E+02 -0.70825387174E+01  0.48338682245E+03  0.50788003011E+03  0.12500000000E+03 0.  0.
         25    1    1    2    0    0 -0.10275039620E+03  0.13729747771E+02  0.29870181487E+03  0.33999106474E+03  0.12500000000E+03 0.  0.
</event>
<event>
 5    0  0.5764392E-005  0.3094475E+03  0.7546771E-02  0.1080611E+00
         21   -1    0    0  502  501  0.00000000000E+00  0.00000000000E+00  0.75515918424E+02  0.75515918424E+02  0.00000000000E+00 0.  1.
         21   -1    0    0  501  502 -0.00000000000E+00 -0.00000000000E+00 -0.12680472991E+04  0.12680472991E+04  0.00000000000E+00 0.  1.
         25    1    1    2    0    0  0.30930451776E+02  0.13452337491E+03 -0.11942683188E+03  0.22122612734E+03  0.12500000000E+03 0.  0.
         25    1    1    2    0    0 -0.23732651614E+02 -0.55544065091E+02 -0.79748069935E+03  0.80947442687E+03  0.12500000000E+03 0.  0.
         25    1    1    2    0    0 -0.71978001625E+01 -0.78979309824E+02 -0.27562384941E+03  0.31286266327E+03  0.12500000000E+03 0.  0.
</event>
<event>
 5    0  0.5764392E-005  0.2622754E+03  0.7546771E-02  0.1105784E+00
         21   -1    0    0  502  501  0.00000000000E+00  0.00000000000E+00  0.42165041323E+02  0.42165041323E+02  0.00000000000E+00 0.  1.
         21   -1    0    0  501  502 -0.00000000000E+00 -0.00000000000E+00 -0.16314079570E+04  0.16314079570E+04  0.00000000000E+00 0.  1.
         25    1    1    2    0    0  0.11140763144E+03 -0.10961915904E+02 -0.60574823088E+03  0.62856005533E+03  0.12500000000E+03 0.  0.
         25    1    1    2    0    0 -0.69529064173E+01  0.64452011119E+02 -0.21065568522E+03  0.25338354793E+03  0.12500000000E+03 0.  0.
         25    1    1    2    0    0 -0.10445472502E+03 -0.53490095214E+02 -0.77283899960E+03  0.79162939509E+03  0.12500000000E+03 0.  0.
</event>
<event>
 5    0  0.5764392E-005  0.2516277E+03  0.7546771E-02  0.1112280E+00
         21   -1    0    0  502  501  0.00000000000E+00  0.00000000000E+00  0.13054696857E+03  0.13054696857E+03  0.00000000000E+00 0. -1.
         21   -1    0    0  501  502 -0.00000000000E+00 -0.00000000000E+00 -0.48500922499E+03  0.48500922499E+03  0.00000000000E+00 0. -1.
         25    1    1    2    0    0 -0.81069598053E+02 -0.69474613250E+02 -0.61552991610E+02  0.17553567270E+03  0.12500000000E+03 0.  0.
         25    1    1    2    0    0  0.10366602340E+03  0.10547038500E+03 -0.20135044061E+03  0.27935219071E+03  0.12500000000E+03 0.  0.
         25    1    1    2    0    0 -0.22596425343E+02 -0.35995771754E+02 -0.91558824204E+02  0.16066833015E+03  0.12500000000E+03 0.  0.
</event>
<event>
 5    0  0.5764392E-005  0.2667333E+03  0.7546771E-02  0.1103164E+00
         21   -1    0    0  502  501  0.00000000000E+00  0.00000000000E+00  0.31556985022E+02  0.31556985022E+02  0.00000000000E+00 0.  1.
         21   -1    0    0  501  502 -0.00000000000E+00 -0.00000000000E+00 -0.22545459696E+04  0.22545459696E+04  0.00000000000E+00 0.  1.
         25    1    1    2    0    0  0.88756747715E+02  0.41303241920E+02 -0.97122774181E+03  0.98411993401E+03  0.12500000000E+03 0.  0.
         25    1    1    2    0    0 -0.10592972573E+03  0.35196803275E+02 -0.96544227739E+03  0.97987943785E+03  0.12500000000E+03 0.  0.
         25    1    1    2    0    0  0.17172978019E+02 -0.76500045195E+02 -0.28631896537E+03  0.32210358275E+03  0.12500000000E+03 0.  0.
</event>
<event>
 5    0  0.5764392E-005  0.2625377E+03  0.7546771E-02  0.1105628E+00
         21   -1    0    0  502  501  0.00000000000E+00  0.00000000000E+00  0.28164204273E+03  0.28164204273E+03  0.00000000000E+00 0. -1.
         21   -1    0    0  501  502 -0.00000000000E+00 -0.00000000000E+00 -0.24472926973E+03  0.24472926973E+03  0.00000000000E+00 0. -1.
         25    1    1    2    0    0  0.46216892875E+02 -0.99936655714E+02  0.34399951675E+02  0.17009318922E+03  0.12500000000E+03 0.  0.
         25    1    1    2    0    0 -0.96869314231E+02 -0.65617126874E+01 -0.65717537184E+02  0.17137827986E+03  0.12500000000E+03 0.  0.
         25    1    1    2    0    0  0.50652421356E+02  0.10649836840E+03  0.68230358516E+02  0.18489984339E+03  0.12500000000E+03 0.  0.
</event>
<event>
 5    0  0.5764392E-005  0.4653233E+03  0.7546771E-02  0.1023249E+00
         21   -1    0    0  502  501  0.00000000000E+00  0.00000000000E+00  0.80216778047E+03  0.80216778047E+03  0.00000000000E+00 0.  1.
         21   -1    0    0  501  502 -0.00000000000E+00 -0.00000000000E+00 -0.26992582614E+03  0.26992582614E+03  0.00000000000E+00 0.  1.
         25    1    1    2    0    0  0.43877517267E+01  0.11336705677E+03 -0.19276641635E+03  0.25623277151E+03  0.12500000000E+03 0.  0.
         25    1    1    2    0    0 -0.59373260812E+01 -0.17822284446E+03  0.54785171762E+03  0.58954655340E+03  0.12500000000E+03 0.  0.
         25    1    1    2    0    0  0.15495743545E+01  0.64855787691E+02  0.17715665306E+03  0.22631428170E+03  0.12500000000E+03 0.  0.
</event>
<event>
 5    0  0.5764392E-005  0.3490758E+03  0.7546771E-02  0.1062995E+00
         21   -1    0    0  502  501  0.00000000000E+00  0.00000000000E+00  0.55956700111E+03  0.55956700111E+03  0.00000000000E+00 0.  1.
         21   -1    0    0  501  502 -0.00000000000E+00 -0.00000000000E+00 -0.21776460779E+03  0.21776460779E+03  0.00000000000E+00 0.  1.
         25    1    1    2    0    0 -0.56597645502E+02  0.18770776792E+03  0.96009341704E+02  0.25155574592E+03  0.12500000000E+03 0.  0.
         25    1    1    2    0    0 -0.30794023673E+01 -0.22278225656E+03  0.17010130423E+02  0.25603859298E+03  0.12500000000E+03 0.  0.
         25    1    1    2    0    0  0.59677047869E+02  0.35074488644E+02  0.22878292119E+03  0.26973726999E+03  0.12500000000E+03 0.  0.
</event>
<event>
 5    0  0.5971610E-005  0.2672616E+03  0.7546771E-02  0.1102857E+00
         21   -1    0    0  502  501  0.00000000000E+00  0.00000000000E+00  0.49259543115E+03  0.49259543115E+03  0.00000000000E+00 0.  1.
         21   -1    0    0  501  502 -0.00000000000E+00 -0.00000000000E+00 -0.14500488125E+03  0.14500488125E+03  0.00000000000E+00 0.  1.
         25    1    1    2    0    0  0.49765289840E+02 -0.91839129718E+02  0.12946069971E+03  0.20807710732E+03  0.12500000000E+03 0.  0.
         25    1    1    2    0    0  0.73396937650E+02  0.43239811579E+02  0.19375667830E+03  0.24581180230E+03  0.12500000000E+03 0.  0.
         25    1    1    2    0    0 -0.12316222749E+03  0.48599318139E+02  0.24373171886E+02  0.18371140278E+03  0.12500000000E+03 0.  0.
</event>
<event>
 5    0  0.5764392E-005  0.3449137E+03  0.7546771E-02  0.1064722E+00
         21   -1    0    0  502  501  0.00000000000E+00  0.00000000000E+00  0.14008100214E+03  0.14008100214E+03  0.00000000000E+00 0.  1.
         21   -1    0    0  501  502 -0.00000000000E+00 -0.00000000000E+00 -0.84926177775E+03  0.84926177775E+03  0.00000000000E+00 0.  1.
         25    1    1    2    0    0 -0.30563682242E+02  0.57917933424E+02 -0.82641344143E+02  0.16353353615E+03  0.12500000000E+03 0.  0.
         25    1    1    2    0    0 -0.15866214822E+03 -0.31347279530E+02 -0.54711891956E+03  0.58405516979E+03  0.12500000000E+03 0.  0.
         25    1    1    2    0    0  0.18922583046E+03 -0.26570653894E+02 -0.79420511910E+02  0.24175407395E+03  0.12500000000E+03 0.  0.
</event>
<event>
 5    0  0.5764392E-005  0.2853244E+03  0.7546771E-02  0.1092816E+00
         21   -1    0    0  502  501  0.00000000000E+00  0.00000000000E+00  0.12512727049E+04  0.12512727049E+04  0.00000000000E+00 0. -1.
         21   -1    0    0  501  502 -0.00000000000E+00 -0.00000000000E+00 -0.65061757517E+02  0.65061757517E+02  0.00000000000E+00 0. -1.
         25    1    1    2    0    0  0.12676638088E+03  0.10086174500E+03  0.73692179485E+03  0.76480163353E+03  0.12500000000E+03 0.  0.
         25    1    1    2    0    0 -0.12187342221E+03 -0.67838163329E+02  0.22659037106E+03  0.29397847490E+03  0.12500000000E+03 0.  0.
         25    1    1    2    0    0 -0.48929586724E+01 -0.33023581670E+02  0.22269878148E+03  0.25755435400E+03  0.12500000000E+03 0.  0.
</event>
<event>
 5    0  0.5764392E-005  0.3438901E+03  0.7546771E-02  0.1065151E+00
         21   -1    0    0  502  501  0.00000000000E+00  0.00000000000E+00  0.67158081288E+03  0.67158081288E+03  0.00000000000E+00 0.  1.
         21   -1    0    0  501  502 -0.00000000000E+00 -0.00000000000E+00 -0.17609255935E+03  0.17609255935E+03  0.00000000000E+00 0.  1.
         25    1    1    2    0    0 -0.12858312540E+03 -0.23499856721E+03  0.20095401388E+03  0.35744294988E+03  0.12500000000E+03 0.  0.
         25    1    1    2    0    0  0.15685393660E+02  0.12366781174E+03  0.20158644559E+03  0.26795868018E+03  0.12500000000E+03 0.  0.
         25    1    1    2    0    0  0.11289773174E+03  0.11133075547E+03  0.92947794063E+02  0.22227174217E+03  0.12500000000E+03 0.  0.
</event>
<event>
 5    0  0.5764392E-005  0.3344527E+03  0.7546771E-02  0.1069183E+00
         21   -1    0    0  502  501  0.00000000000E+00  0.00000000000E+00  0.42245232884E+03  0.42245232884E+03  0.00000000000E+00 0.  1.
         21   -1    0    0  501  502 -0.00000000000E+00 -0.00000000000E+00 -0.26478401413E+03  0.26478401413E+03  0.00000000000E+00 0.  1.
         25    1    1    2    0    0  0.19894194264E+03 -0.23166082752E+02  0.17060209622E+03  0.29128103125E+03  0.12500000000E+03 0.  0.
         25    1    1    2    0    0 -0.17309651569E+03  0.73522787808E+02  0.69017430035E+02  0.23612795201E+03  0.12500000000E+03 0.  0.
         25    1    1    2    0    0 -0.25845426952E+02 -0.50356705055E+02 -0.81951211550E+02  0.15982735971E+03  0.12500000000E+03 0.  0.
</event>
<event>
 5    0  0.5764392E-005  0.3989039E+03  0.7546771E-02  0.1044160E+00
         21   -1    0    0  502  501  0.00000000000E+00  0.00000000000E+00  0.10783512889E+04  0.10783512889E+04  0.00000000000E+00 0.  1.
         21   -1    0    0  501  502 -0.00000000000E+00 -0.00000000000E+00 -0.14756260777E+03  0.14756260777E+03  0.00000000000E+00 0.  1.
         25    1    1    2    0    0  0.16475663914E+03  0.64550751943E+02  0.58877485086E+03  0.62736940850E+03  0.12500000000E+03 0.  0.
         25    1    1    2    0    0 -0.14090346400E+03 -0.11643628947E+03  0.39371332071E+03  0.45171492623E+03  0.12500000000E+03 0.  0.
         25    1    1    2    0    0 -0.23853175135E+02  0.51885537524E+02 -0.51699490382E+02  0.14682956199E+03  0.12500000000E+03 0.  0.
</event>
<event>
 5    0  0.5764392E-005  0.2983749E+03  0.7546771E-02  0.1086056E+00
         21   -1    0    0  502  501  0.00000000000E+00  0.00000000000E+00  0.42903029607E+02  0.42903029607E+02  0.00000000000E+00 0. -1.
         21   -1    0    0  501  502 -0.00000000000E+00 -0.00000000000E+00 -0.20750886755E+04  0.20750886755E+04  0.00000000000E+00 0. -1.
         25    1    1    2    0    0  0.60837151223E+02  0.10180386989E+02 -0.84066014247E+03  0.85213806064E+03  0.12500000000E+03 0.  0.
         25    1    1    2    0    0 -0.14473637466E+03  0.82036682747E+01 -0.26446975780E+03  0.32647384446E+03  0.12500000000E+03 0.  0.
         25    1    1    2    0    0  0.83899223439E+02 -0.18384055264E+02 -0.92705574560E+03  0.93937979999E+03  0.12500000000E+03 0.  0.
</event>
<event>
 5    0  0.5764392E-005  0.6585934E+03  0.7546771E-02  0.9790786E-01
         21   -1    0    0  502  501  0.00000000000E+00  0.00000000000E+00  0.13949995037E+04  0.13949995037E+04  0.00000000000E+00 0.  1.
         21   -1    0    0  501  502 -0.00000000000E+00 -0.00000000000E+00 -0.31092865735E+03  0.31092865735E+03  0.00000000000E+00 0.  1.
         25    1    1    2    0    0 -0.30677071533E+03  0.21484269928E+03  0.11735320183E+03  0.41190099684E+03  0.12500000000E+03 0.  0.
         25    1    1    2    0    0 -0.66819406178E+02  0.20216964899E+03  0.48780110912E+03  0.54672874634E+03  0.12500000000E+03 0.  0.
         25    1    1    2    0    0  0.37359012151E+03 -0.41701234827E+03  0.47891653542E+03  0.74729841790E+03  0.12500000000E+03 0.  0.
</event>
<event>
 5    0  0.5764392E-005  0.2912122E+03  0.7546771E-02  0.1089718E+00
         21   -1    0    0  502  501  0.00000000000E+00  0.00000000000E+00  0.60718592741E+03  0.60718592741E+03  0.00000000000E+00 0. -1.
         21   -1    0    0  501  502 -0.00000000000E+00 -0.00000000000E+00 -0.13966818581E+03  0.13966818581E+03  0.00000000000E+00 0. -1.
         25    1    1    2    0    0  0.63099865988E+02 -0.15118565469E+03  0.11953413309E+03  0.23822700151E+03  0.12500000000E+03 0.  0.
         25    1    1    2    0    0  0.14912331920E+02  0.17318131197E+03  0.15256710396E+03  0.26289896476E+03  0.12500000000E+03 0.  0.
         25    1    1    2    0    0 -0.78012197907E+02 -0.21995657277E+02  0.19541650455E+03  0.24572814697E+03  0.12500000000E+03 0.  0.
</event>
<event>
 5    0  0.7671950E-005  0.5948869E+03  0.7546771E-02  0.9916071E-01
         21   -1    0    0  502  501  0.00000000000E+00  0.00000000000E+00  0.25908969705E+03  0.25908969705E+03  0.00000000000E+00 0.  1.
         21   -1    0    0  501  502 -0.00000000000E+00 -0.00000000000E+00 -0.13658994687E+04  0.13658994687E+04  0.00000000000E+00 0.  1.
         25    1    1    2    0    0 -0.13380916971E+03 -0.10358701682E+03  0.13251175622E+03  0.24863533435E+03  0.12500000000E+03 0.  0.
         25    1    1    2    0    0 -0.15683067982E+03 -0.96885868799E+02 -0.41713237517E+03  0.47287117920E+03  0.12500000000E+03 0.  0.
         25    1    1    2    0    0  0.29063984953E+03  0.20047288562E+03 -0.82218915268E+03  0.90348265218E+03  0.12500000000E+03 0.  0.
</event>
<event>
 5    0  0.5764392E-005  0.4183373E+03  0.7546771E-02  0.1037609E+00
         21   -1    0    0  502  501  0.00000000000E+00  0.00000000000E+00  0.18752086084E+04  0.18752086084E+04  0.00000000000E+00 0. -1.
         21   -1    0    0  501  502 -0.00000000000E+00 -0.00000000000E+00 -0.93326200582E+02  0.93326200582E+02  0.00000000000E+00 0. -1.
         25    1    1    2    0    0  0.17332302563E+03  0.89119874393E+00  0.60951368979E+03  0.64588977658E+03  0.12500000000E+03 0.  0.
         25    1    1    2    0    0 -0.60109319659E+02 -0.25935998412E+03  0.68902275132E+03  0.74917159817E+03  0.12500000000E+03 0.  0.
         25    1    1    2    0    0 -0.11321370597E+03  0.25846878538E+03  0.48334596672E+03  0.57347343424E+03  0.12500000000E+03 0.  0.
</event>
<event>
 5    0  0.5764392E-005  0.2752208E+03  0.7546771E-02  0.1098328E+00
         21   -1    0    0  502  501  0.00000000000E+00  0.00000000000E+00  0.15404141539E+04  0.15404141539E+04  0.00000000000E+00 0.  1.
         21   -1    0    0  501  502 -0.00000000000E+00 -0.00000000000E+00 -0.49172820905E+02  0.49172820905E+02  0.00000000000E+00 0.  1.
         25    1    1    2    0    0  0.60021853800E+01 -0.42521467100E+02  0.95918633007E+03  0.96824971840E+03  0.12500000000E+03 0.  0.
         25    1    1    2    0    0 -0.83336334073E+02 -0.23643631483E+02  0.32594866754E+03  0.35968249855E+03  0.12500000000E+03 0.  0.
         25    1    1    2    0    0  0.77334148693E+02  0.66165098583E+02  0.20610633537E+03  0.26165475785E+03  0.12500000000E+03 0.  0.
</event>
<event>
 5    0  0.5764392E-005  0.2594307E+03  0.7546771E-02  0.1107486E+00
         21   -1    0    0  502  501  0.00000000000E+00  0.00000000000E+00  0.15562852845E+03  0.15562852845E+03  0.00000000000E+00 0.  1.
         21   -1    0    0  501  502 -0.00000000000E+00 -0.00000000000E+00 -0.43246764950E+03  0.43246764950E+03  0.00000000000E+00 0.  1.
         25    1    1    2    0    0  0.71755948888E+02 -0.76861376868E+01 -0.17442214566E+03  0.22639805169E+03  0.12500000000E+03 0.  0.
         25    1    1    2    0    0  0.51542129509E+02  0.89279819539E+01  0.33585909168E+02  0.13960413056E+03  0.12500000000E+03 0.  0.
         25    1    1    2    0    0 -0.12329807840E+03 -0.12418442672E+01 -0.13600288456E+03  0.22209399569E+03  0.12500000000E+03 0.  0.
</event>
<event>
 5    0  0.5764392E-005  0.4028216E+03  0.7546771E-02  0.1042807E+00
         21   -1    0    0  502  501  0.00000000000E+00  0.00000000000E+00  0.14223849172E+03  0.14223849172E+03  0.00000000000E+00 0.  1.
         21   -1    0    0  501  502 -0.00000000000E+00 -0.00000000000E+00 -0.11407970310E+04  0.11407970310E+04  0.00000000000E+00 0.  1.
         25    1    1    2    0    0  0.26960669899E+02  0.18807486343E+03 -0.47581304206E+03  0.52737281213E+03  0.12500000000E+03 0.  0.
         25    1    1    2    0    0 -0.18999716087E+03 -0.23109768541E+03 -0.23939856228E+03  0.40304060957E+03  0.12500000000E+03 0.  0.
         25    1    1    2    0    0  0.16303649097E+03  0.43022821982E+02 -0.28334693495E+03  0.35262210105E+03  0.12500000000E+03 0.  0.
</event>
<event>
 5    0  0.5764392E-005  0.3254319E+03  0.7546771E-02  0.1073176E+00
         21   -1    0    0  502  501  0.00000000000E+00  0.00000000000E+00  0.94697704570E+02  0.94697704570E+02  0.00000000000E+00 0. -1.
         21   -1    0    0  501  502 -0.00000000000E+00 -0.00000000000E+00 -0.11183581595E+04  0.11183581595E+04  0.00000000000E+00 0. -1.
         25    1    1    2    0    0  0.51202328542E+02 -0.16286020590E+03 -0.58771491951E+03  0.62464305945E+03  0.12500000000E+03 0.  0.
         25    1    1    2    0    0 -0.17372693851E+02  0.22001269462E+03 -0.28191874708E+03  0.37922364937E+03  0.12500000000E+03 0.  0.
         25    1    1    2    0    0 -0.33829634691E+02 -0.57152488718E+02 -0.15402678839E+03  0.20918915529E+03  0.12500000000E+03 0.  0.
</event>
<event>
 5    0  0.5764392E-005  0.2176806E+03  0.7546771E-02  0.1135624E+00
         21   -1    0    0  502  501  0.00000000000E+00  0.00000000000E+00  0.15183849512E+03  0.15183849512E+03  0.00000000000E+00 0.  1.
         21   -1    0    0  501  502 -0.00000000000E+00 -0.00000000000E+00 -0.31207390906E+03  0.31207390906E+03  0.00000000000E+00 0.  1.
         25    1    1    2    0    0 -0.66810484119E+02 -0.10805280179E+02 -0.10212794767E+03  0.17503003332E+03  0.12500000000E+03 0.  0.
         25    1    1    2    0    0  0.22951393678E+02 -0.50330241864E+02 -0.35662005665E+02  0.14126810810E+03  0.12500000000E+03 0.  0.
         25    1    1    2    0    0  0.43859090440E+02  0.61135522043E+02 -0.22445460607E+02  0.14761426276E+03  0.12500000000E+03 0.  0.
</event>
<event>
 5    0  0.5764392E-005  0.3515018E+03  0.7546771E-02  0.1062000E+00
         21   -1    0    0  502  501  0.00000000000E+00  0.00000000000E+00  0.40822284117E+03  0.40822284117E+03  0.00000000000E+00 0.  1.
         21   -1    0    0  501  502 -0.00000000000E+00 -0.00000000000E+00 -0.30266188255E+03  0.30266188255E+03  0.00000000000E+00 0.  1.
         25    1    1    2    0    0  0.50923758637E+02 -0.42797386445E+02  0.18554800844E+03  0.23340503190E+03  0.12500000000E+03 0.  0.
         25    1    1    2    0    0  0.10923106444E+03  0.29402523834E+02 -0.18340707961E+03  0.24911662068E+03  0.12500000000E+03 0.  0.
         25    1    1    2    0    0 -0.16015482308E+03  0.13394862611E+02  0.10342002978E+03  0.22836307114E+03  0.12500000000E+03 0.  0.
</event>
<event>
 5    0  0.5764392E-005  0.3132351E+03  0.7546771E-02  0.1078806E+00
         21   -1    0    0  502  501  0.00000000000E+00  0.00000000000E+00  0.18219252283E+03  0.18219252283E+03  0.00000000000E+00 0.  1.
         21   -1    0    0  501  502 -0.00000000000E+00 -0.00000000000E+00 -0.53853034009E+03  0.53853034009E+03  0.00000000000E+00 0.  1.
         25    1    1    2    0    0 -0.30511311544E+02 -0.58763166537E+02 -0.34397232315E+03  0.37192204689E+03  0.12500000000E+03 0.  0.
         25    1    1    2    0    0 -0.60372934073E+02  0.11564521599E+03 -0.30099176694E+02  0.18316568343E+03  0.12500000000E+03 0.  0.
         25    1    1    2    0    0  0.90884245617E+02 -0.56882049449E+02  0.17733682581E+02  0.16563513259E+03  0.12500000000E+03 0.  0.
</event>
<event>
 5    0  0.5764392E-005  0.3632340E+03  0.7546771E-02  0.1057311E+00
         21   -1    0    0  502  501  0.00000000000E+00  0.00000000000E+00  0.13290803569E+04  0.13290803569E+04  0.00000000000E+00 0. -1.
         21   -1    0    0  501  502 -0.00000000000E+00 -0.00000000000E+00 -0.99270834026E+02  0.99270834026E+02  0.00000000000E+00 0. -1.
         25    1    1    2    0    0 -0.36307305899E+02 -0.18105550074E+03  0.14085509570E+03  0.26375077781E+03  0.12500000000E+03 0.  0.
         25    1    1    2    0    0  0.11048038250E+03  0.19074787606E+03  0.82592830167E+03  0.86392894768E+03  0.12500000000E+03 0.  0.
         25    1    1    2    0    0 -0.74173076603E+02 -0.96923753202E+01  0.26302612554E+03  0.30067146547E+03  0.12500000000E+03 0.  0.
</event>
<event>
 5    0  0.5764392E-005  0.3315714E+03  0.7546771E-02  0.1070444E+00
         21   -1    0    0  502  501  0.00000000000E+00  0.00000000000E+00  0.65170786830E+03  0.65170786830E+03  0.00000000000E+00 0.  1.
         21   -1    0    0  501  502 -0.00000000000E+00 -0.00000000000E+00 -0.16869455349E+03  0.16869455349E+03  0.00000000000E+00 0.  1.
         25    1    1    2    0    0 -0.40929100565E+02  0.56152265504E+02  0.11926730986E+03  0.18622019062E+03  0.12500000000E+03 0.  0.
         25    1    1    2    0    0  0.27766272426E+02 -0.20303933984E+03  0.21366120528E+02  0.24099263581E+03  0.12500000000E+03 0.  0.
         25    1    1    2    0    0  0.13162828138E+02  0.14688707433E+03  0.34237988442E+03  0.39318959537E+03  0.12500000000E+03 0.  0.
</event>
<event>
 5    0  0.5849728E-005  0.3829097E+03  0.7546771E-02  0.1049864E+00
         21   -1    0    0  502  501  0.00000000000E+00  0.00000000000E+00  0.82621167894E+03  0.82621167894E+03  0.00000000000E+00 0. -1.
         21   -1    0    0  501  502 -0.00000000000E+00 -0.00000000000E+00 -0.17746035896E+03  0.17746035896E+03  0.00000000000E+00 0. -1.
         25    1    1    2    0    0  0.70367592425E+02 -0.84609392607E+02  0.38618014500E+03  0.42055968872E+03  0.12500000000E+03 0.  0.
         25    1    1    2    0    0 -0.20291395552E+03  0.57740860020E+02  0.30773922332E+03  0.39349270620E+03  0.12500000000E+03 0.  0.
         25    1    1    2    0    0  0.13254636309E+03  0.26868532587E+02 -0.45168048350E+02  0.18961964298E+03  0.12500000000E+03 0.  0.
</event>
<event>
 5    0  0.5764392E-005  0.2309070E+03  0.7546771E-02  0.1126003E+00
         21   -1    0    0  502  501  0.00000000000E+00  0.00000000000E+00  0.69560456411E+03  0.69560456411E+03  0.00000000000E+00 0. -1.
         21   -1    0    0  501  502 -0.00000000000E+00 -0.00000000000E+00 -0.76649903609E+02  0.76649903609E+02  0.00000000000E+00 0. -1.
         25    1    1    2    0    0  0.17075075372E+02  0.10354717686E+03  0.18332393230E+03  0.24545109530E+03  0.12500000000E+03 0.  0.
         25    1    1    2    0    0  0.32039724176E+02 -0.31295864191E+02  0.13309434097E+03  0.18800286870E+03  0.12500000000E+03 0.  0.
         25    1    1    2    0    0 -0.49114799548E+02 -0.72251312664E+02  0.30253638724E+03  0.33880050372E+03  0.12500000000E+03 0.  0.
</event>
<event>
 5    0  0.5764392E-005  0.4330335E+03  0.7546771E-02  0.1032906E+00
         21   -1    0    0  502  501  0.00000000000E+00  0.00000000000E+00  0.34659193629E+03  0.34659193629E+03  0.00000000000E+00 0.  1.
         21   -1    0    0  501  502 -0.00000000000E+00 -0.00000000000E+00 -0.54103404606E+03  0.54103404606E+03  0.00000000000E+00 0.  1.
         25    1    1    2    0    0  0.10430735860E+03  0.72221084281E+02 -0.20617704763E+03  0.27245161963E+03  0.12500000000E+03 0.  0.
         25    1    1    2    0    0  0.15088641801E+03  0.86303512586E+02 -0.14034211258E+03  0.25599983591E+03  0.12500000000E+03 0.  0.
         25    1    1    2    0    0 -0.25519377661E+03 -0.15852459687E+03  0.15207705043E+03  0.35917452680E+03  0.12500000000E+03 0.  0.
</event>
<event>
 5    0  0.5764392E-005  0.3137521E+03  0.7546771E-02  0.1078561E+00
         21   -1    0    0  502  501  0.00000000000E+00  0.00000000000E+00  0.66731797626E+03  0.66731797626E+03  0.00000000000E+00 0.  1.
         21   -1    0    0  501  502 -0.00000000000E+00 -0.00000000000E+00 -0.14751648377E+03  0.14751648377E+03  0.00000000000E+00 0.  1.
         25    1    1    2    0    0  0.70723753884E+02  0.14317706592E+03  0.10274100861E+03  0.22733727459E+03  0.12500000000E+03 0.  0.
         25    1    1    2    0    0  0.38539285188E+02  0.31074824523E+02  0.40181350903E+02  0.14032270729E+03  0.12500000000E+03 0.  0.
         25    1    1    2    0    0 -0.10926303907E+03 -0.17425189044E+03  0.37687913298E+03  0.44717447815E+03  0.12500000000E+03 0.  0.
</event>
<event>
 5    0  0.5764392E-005  0.3286181E+03  0.7546771E-02  0.1071750E+00
         21   -1    0    0  502  501  0.00000000000E+00  0.00000000000E+00  0.32445903661E+03  0.32445903661E+03  0.00000000000E+00 0. -1.
         21   -1    0    0  501  502 -0.00000000000E+00 -0.00000000000E+00 -0.33283039344E+03  0.33283039344E+03  0.00000000000E+00 0. -1.
         25    1    1    2    0    0 -0.17324927058E+03 -0.10562701320E+03 -0.15882905190E+03  0.28639839979E+03  0.12500000000E+03 0.  0.
         25    1    1    2    0    0  0.13131206298E+03  0.32772265816E+02  0.11131724848E+03  0.21525196654E+03  0.12500000000E+03 0.  0.
         25    1    1    2    0    0  0.41937207605E+02  0.72854747380E+02  0.39140446595E+02  0.15563906372E+03  0.12500000000E+03 0.  0.
</event>
<event>
 5    0  0.5764392E-005  0.3367116E+03  0.7546771E-02  0.1068205E+00
         21   -1    0    0  502  501  0.00000000000E+00  0.00000000000E+00  0.18035618202E+04  0.18035618202E+04  0.00000000000E+00 0. -1.
         21   -1    0    0  501  502 -0.00000000000E+00 -0.00000000000E+00 -0.62861571892E+02  0.62861571892E+02  0.00000000000E+00 0. -1.
         25    1    1    2    0    0 -0.77447109550E+02  0.17578647049E+03  0.48565516393E+03  0.53701478214E+03  0.12500000000E+03 0.  0.
         25    1    1    2    0    0  0.18666913214E+03 -0.59508004627E+02  0.75122207957E+03  0.78634990961E+03  0.12500000000E+03 0.  0.
         25    1    1    2    0    0 -0.10922202259E+03 -0.11627846586E+03  0.50382300482E+03  0.54305870035E+03  0.12500000000E+03 0.  0.
</event>
<event>
 5    0  0.5764392E-005  0.2674490E+03  0.7546771E-02  0.1102749E+00
         21   -1    0    0  502  501  0.00000000000E+00  0.00000000000E+00  0.47883088729E+02  0.47883088729E+02  0.00000000000E+00 0.  1.
         21   -1    0    0  501  502 -0.00000000000E+00 -0.00000000000E+00 -0.14938258162E+04  0.14938258162E+04  0.00000000000E+00 0.  1.
         25    1    1    2    0    0  0.12187047230E+03  0.49483881813E+02 -0.56551256991E+03  0.59391121669E+03  0.12500000000E+03 0.  0.
         25    1    1    2    0    0 -0.13913681683E+03 -0.44976526418E+02 -0.71055363059E+03  0.73613409353E+03  0.12500000000E+03 0.  0.
         25    1    1    2    0    0  0.17266344524E+02 -0.45073553952E+01 -0.16987652695E+03  0.21166359469E+03  0.12500000000E+03 0.  0.
</event>
<event>
 5    0  0.5764392E-005  0.2277004E+03  0.7546771E-02  0.1128269E+00
         21   -1    0    0  502  501  0.00000000000E+00  0.00000000000E+00  0.18904687261E+04  0.18904687261E+04  0.00000000000E+00 0. -1.
         21   -1    0    0  501  502 -0.00000000000E+00 -0.00000000000E+00 -0.27425714777E+02  0.27425714777E+02  0.00000000000E+00 0. -1.
         25    1    1    2    0    0  0.27987270940E+02  0.17228826133E+02  0.45564643931E+03  0.47362305417E+03  0.12500000000E+03 0.  0.
         25    1    1    2    0    0  0.64915602499E+02  0.78049088018E+01  0.95050064353E+03  0.96091176775E+03  0.12500000000E+03 0.  0.
         25    1    1    2    0    0 -0.92902873440E+02 -0.25033734935E+02  0.45689592853E+03  0.48335961901E+03  0.12500000000E+03 0.  0.
</event>
<event>
 5    0  0.8605891E-005  0.3352485E+03  0.7546771E-02  0.1068838E+00
         21   -1    0    0  502  501  0.00000000000E+00  0.00000000000E+00  0.46398879609E+03  0.46398879609E+03  0.00000000000E+00 0. -1.
         21   -1    0    0  501  502 -0.00000000000E+00 -0.00000000000E+00 -0.24222908181E+03  0.24222908181E+03  0.00000000000E+00 0. -1.
         25    1    1    2    0    0  0.11467983386E+02  0.20740087611E+02 -0.10521841626E+03  0.16509870077E+03  0.12500000000E+03 0.  0.
         25    1    1    2    0    0  0.49026238257E+01  0.16223402272E+03  0.11981467335E+03  0.23732776871E+03  0.12500000000E+03 0.  0.
         25    1    1    2    0    0 -0.16370607212E+02 -0.18297411034E+03  0.20716345719E+03  0.30379140842E+03  0.12500000000E+03 0.  0.
</event>
<event>
 5    0  0.5764392E-005  0.3038681E+03  0.7546771E-02  0.1083323E+00
         21   -1    0    0  502  501  0.00000000000E+00  0.00000000000E+00  0.64875664469E+02  0.64875664469E+02  0.00000000000E+00 0.  1.
         21   -1    0    0  501  502 -0.00000000000E+00 -0.00000000000E+00 -0.14232735503E+04  0.14232735503E+04  0.00000000000E+00 0.  1.
         25    1    1    2    0    0 -0.13590452700E+03  0.87189864861E+02 -0.87403727857E+03  0.89757354981E+03  0.12500000000E+03 0.  0.
         25    1    1    2    0    0  0.95332671613E+02  0.33464549051E+01 -0.13796436112E+03  0.20918575950E+03  0.12500000000E+03 0.  0.
         25    1    1    2    0    0  0.40571855386E+02 -0.90536319766E+02 -0.34639624615E+03  0.38138990547E+03  0.12500000000E+03 0.  0.
</event>
<event>
 5    0  0.5764392E-005  0.3970480E+03  0.7546771E-02  0.1044807E+00
         21   -1    0    0  502  501  0.00000000000E+00  0.00000000000E+00  0.11701856046E+03  0.11701856046E+03  0.00000000000E+00 0.  1.
         21   -1    0    0  501  502 -0.00000000000E+00 -0.00000000000E+00 -0.13471975473E+04  0.13471975473E+04  0.00000000000E+00 0.  1.
         25    1    1    2    0    0  0.30701220074E+03  0.59280413008E+02 -0.53318436461E+03  0.63061971538E+03  0.12500000000E+03 0.  0.
         25    1    1    2    0    0 -0.10953216301E+03 -0.73757775211E+02 -0.14032734033E+03  0.22968296972E+03  0.12500000000E+03 0.  0.
         25    1    1    2    0    0 -0.19748003773E+03  0.14477362203E+02 -0.55666728189E+03  0.60391342264E+03  0.12500000000E+03 0.  0.
</event>
<event>
 5    0  0.5939987E-005  0.2879216E+03  0.7546771E-02  0.1091439E+00
         21   -1    0    0  502  501  0.00000000000E+00  0.00000000000E+00  0.42267940090E+03  0.42267940090E+03  0.00000000000E+00 0. -1.
         21   -1    0    0  501  502 -0.00000000000E+00 -0.00000000000E+00 -0.19612696273E+03  0.19612696273E+03  0.00000000000E+00 0. -1.
         25    1    1    2    0    0 -0.29423871902E+02  0.38936395371E+02  0.24333691868E+03  0.27788426208E+03  0.12500000000E+03 0.  0.
         25    1    1    2    0    0 -0.62763658695E+02 -0.28085363120E+02 -0.90197928777E+02  0.16878605046E+03  0.12500000000E+03 0.  0.
         25    1    1    2    0    0  0.92187530598E+02 -0.10851032252E+02  0.73413448264E+02  0.17213605109E+03  0.12500000000E+03 0.  0.
</event>
<event>
 5    0  0.5764392E-005  0.3441661E+03  0.7546771E-02  0.1065035E+00
         21   -1    0    0  502  501  0.00000000000E+00  0.00000000000E+00  0.27939038067E+03  0.27939038067E+03  0.00000000000E+00 0. -1.
         21   -1    0    0  501  502 -0.00000000000E+00 -0.00000000000E+00 -0.42395991263E+03  0.42395991263E+03  0.00000000000E+00 0. -1.
         25    1    1    2    0    0 -0.12113989706E+03  0.20101780227E+03  0.17088294662E+02  0.26645832939E+03  0.12500000000E+03 0.  0.
         25    1    1    2    0    0  0.30766238875E+02 -0.76705178663E+02 -0.18425900269E+03  0.23750079149E+03  0.12500000000E+03 0.  0.
         25    1    1    2    0    0  0.90373658183E+02 -0.12431262360E+03  0.22601176062E+02  0.19939117242E+03  0.12500000000E+03 0.  0.
</event>
<event>
 5    0  0.5764392E-005  0.2838100E+03  0.7546771E-02  0.1093626E+00
         21   -1    0    0  502  501  0.00000000000E+00  0.00000000000E+00  0.16955216558E+04  0.16955216558E+04  0.00000000000E+00 0.  1.
         21   -1    0    0  501  502 -0.00000000000E+00 -0.00000000000E+00 -0.47506383330E+02  0.47506383330E+02  0.00000000000E+00 0.  1.
         25    1    1    2    0    0  0.69068494716E+02 -0.14319922728E+03  0.74736590983E+03  0.77424626497E+03  0.12500000000E+03 0.  0.
         25    1    1    2    0    0 -0.41978913172E+02  0.15377277316E+03  0.35969440435E+03  0.41281153017E+03  0.12500000000E+03 0.  0.
         25    1    1    2    0    0 -0.27089581545E+02 -0.10573545876E+02  0.54095495825E+03  0.55597024395E+03  0.12500000000E+03 0.  0.
</event>
<event>
 5    0  0.5764392E-005  0.5003055E+03  0.7546771E-02  0.1013699E+00
         21   -1    0    0  502  501  0.00000000000E+00  0.00000000000E+00  0.98351893761E+02  0.98351893761E+02  0.00000000000E+00 0.  1.
         21   -1    0    0  501  502 -0.00000000000E+00 -0.00000000000E+00 -0.25450005863E+04  0.25450005863E+04  0.00000000000E+00 0.  1.
         25    1    1    2    0    0 -0.32584603507E+03  0.67552105247E+02 -0.58005195390E+03  0.68031183638E+03  0.12500000000E+03 0.  0.
         25    1    1    2    0    0 -0.12302579133E+02 -0.68656609868E+02 -0.11696032176E+04  0.11783300770E+04  0.12500000000E+03 0.  0.
         25    1    1    2    0    0  0.33814861421E+03  0.11045046208E+01 -0.69699352099E+03  0.78471056672E+03  0.12500000000E+03 0.  0.
</event>
<event>
 5    0  0.5764392E-005  0.3316785E+03  0.7546771E-02  0.1070397E+00
         21   -1    0    0  502  501  0.00000000000E+00  0.00000000000E+00  0.29675743825E+03  0.29675743825E+03  0.00000000000E+00 0.  1.
         21   -1    0    0  501  502 -0.00000000000E+00 -0.00000000000E+00 -0.37070890780E+03  0.37070890780E+03  0.00000000000E+00 0.  1.
         25    1    1    2    0    0 -0.21641864891E+02 -0.48091923163E+02 -0.15293134824E+03  0.20443629977E+03  0.12500000000E+03 0.  0.
         25    1    1    2    0    0 -0.12409082801E+03 -0.13346257731E+02 -0.91580072865E+02  0.19896875618E+03  0.12500000000E+03 0.  0.
         25    1    1    2    0    0  0.14573269290E+03  0.61438180894E+02  0.17055995155E+03  0.26406129009E+03  0.12500000000E+03 0.  0.
</event>
<event>
 5    0  0.5764392E-005  0.2867610E+03  0.7546771E-02  0.1092052E+00
         21   -1    0    0  502  501  0.00000000000E+00  0.00000000000E+00  0.16528582207E+04  0.16528582207E+04  0.00000000000E+00 0. -1.
         21   -1    0    0  501  502 -0.00000000000E+00 -0.00000000000E+00 -0.49751317462E+02  0.49751317462E+02  0.00000000000E+00 0. -1.
         25    1    1    2    0    0 -0.25757174237E+02 -0.27730807825E+02  0.39725572977E+03  0.41817406012E+03  0.12500000000E+03 0.  0.
         25    1    1    2    0    0  0.35418971913E+01  0.15379932859E+03  0.96070755763E+03  0.98094382601E+03  0.12500000000E+03 0.  0.
         25    1    1    2    0    0  0.22215277046E+02 -0.12606852076E+03  0.24514361585E+03  0.30349165203E+03  0.12500000000E+03 0.  0.
</event>
<event>
 5    0  0.5764392E-005  0.2499398E+03  0.7546771E-02  0.1113343E+00
         21   -1    0    0  502  501  0.00000000000E+00  0.00000000000E+00  0.63281869002E+02  0.63281869002E+02  0.00000000000E+00 0.  1.
         21   -1    0    0  501  502 -0.00000000000E+00 -0.00000000000E+00 -0.98716885619E+03  0.98716885619E+03  0.00000000000E+00 0.  1.
         25    1    1    2    0    0 -0.53319271884E+02  0.31902972556E+02 -0.60255950167E+03  0.61851733805E+03  0.12500000000E+03 0.  0.
         25    1    1    2    0    0 -0.32040553735E+01 -0.26901088576E+02 -0.70620896029E+02  0.14610354374E+03  0.12500000000E+03 0.  0.
         25    1    1    2    0    0  0.56523327257E+02 -0.50018839799E+01 -0.25070658948E+03  0.28582984340E+03  0.12500000000E+03 0.  0.
</event>
<event>
 5    0  0.5764392E-005  0.4238062E+03  0.7546771E-02  0.1035835E+00
         21   -1    0    0  502  501  0.00000000000E+00  0.00000000000E+00  0.47617282885E+03  0.47617282885E+03  0.00000000000E+00 0. -1.
         21   -1    0    0  501  502 -0.00000000000E+00 -0.00000000000E+00 -0.37719861693E+03  0.37719861693E+03  0.00000000000E+00 0. -1.
         25    1    1    2    0    0  0.75552036981E+01 -0.18045354550E+02  0.32040969726E+03  0.34448525370E+03  0.12500000000E+03 0.  0.
         25    1    1    2    0    0 -0.27099300661E+01  0.10424890674E+03 -0.29739596623E+03  0.33903471653E+03  0.12500000000E+03 0.  0.
         25    1    1    2    0    0 -0.48452736320E+01 -0.86203552193E+02  0.75960480902E+02  0.16985147555E+03  0.12500000000E+03 0.  0.
</event>
<event>
 5    0  0.5764392E-005  0.3835472E+03  0.7546771E-02  0.1049630E+00
         21   -1    0    0  502  501  0.00000000000E+00  0.00000000000E+00  0.18841562147E+03  0.18841562147E+03  0.00000000000E+00 0.  1.
         21   -1    0    0  501  502 -0.00000000000E+00 -0.00000000000E+00 -0.78076581527E+03  0.78076581527E+03  0.00000000000E+00 0.  1.
         25    1    1    2    0    0  0.13706949323E+03  0.13649632843E+03 -0.30153477121E+02  0.23227898276E+03  0.12500000000E+03 0.  0.
         25    1    1    2    0    0 -0.24797832227E+03 -0.45117186467E+02 -0.28407466567E+03  0.39981523796E+03  0.12500000000E+03 0.  0.
         25    1    1    2    0    0  0.11090882904E+03 -0.91379141958E+02 -0.27812205101E+03  0.33708721602E+03  0.12500000000E+03 0.  0.
</event>
<event>
 5    0  0.5764392E-005  0.3252795E+03  0.7546771E-02  0.1073245E+00
         21   -1    0    0  502  501  0.00000000000E+00  0.00000000000E+00  0.13952212977E+04  0.13952212977E+04  0.00000000000E+00 0. -1.
         21   -1    0    0  501  502 -0.00000000000E+00 -0.00000000000E+00 -0.75835094639E+02  0.75835094639E+02  0.00000000000E+00 0. -1.
         25    1    1    2    0    0 -0.11814032384E+02  0.75426123293E+02  0.43100632425E+03  0.45521437035E+03  0.12500000000E+03 0.  0.
         25    1    1    2    0    0 -0.13985204025E+03 -0.10406389392E+03  0.73279078567E+03  0.76354123841E+03  0.12500000000E+03 0.  0.
         25    1    1    2    0    0  0.15166607263E+03  0.28637770623E+02  0.15558909316E+03  0.25230078359E+03  0.12500000000E+03 0.  0.
</event>
<event>
 5    0  0.5764392E-005  0.2723824E+03  0.7546771E-02  0.1099924E+00
         21   -1    0    0  502  501  0.00000000000E+00  0.00000000000E+00  0.30768455463E+02  0.30768455463E+02  0.00000000000E+00 0. -1.
         21   -1    0    0  501  502 -0.00000000000E+00 -0.00000000000E+00 -0.24113059972E+04  0.24113059972E+04  0.00000000000E+00 0. -1.
         25    1    1    2    0    0  0.65086404946E+02  0.97888057244E+02 -0.15024429792E+04  0.15122097135E+04  0.12500000000E+03 0.  0.
         25    1    1    2    0    0 -0.44872924136E+02 -0.68021930873E+02 -0.65342273583E+03  0.67024386166E+03  0.12500000000E+03 0.  0.
         25    1    1    2    0    0 -0.20213480811E+02 -0.29866126372E+02 -0.22467182662E+03  0.25962087741E+03  0.12500000000E+03 0.  0.
</event>
<event>
 5    0  0.5764392E-005  0.3086815E+03  0.7546771E-02  0.1080980E+00
         21   -1    0    0  502  501  0.00000000000E+00  0.00000000000E+00  0.13023978225E+04  0.13023978225E+04  0.00000000000E+00 0. -1.
         21   -1    0    0  501  502 -0.00000000000E+00 -0.00000000000E+00 -0.73160626875E+02  0.73160626875E+02  0.00000000000E+00 0. -1.
         25    1    1    2    0    0 -0.10397279655E+03  0.10066512917E+02  0.12801114260E+03  0.20717994530E+03  0.12500000000E+03 0.  0.
         25    1    1    2    0    0  0.19696805042E+03  0.12453518915E+01  0.62019055663E+03  0.66261549206E+03  0.12500000000E+03 0.  0.
         25    1    1    2    0    0 -0.92995253874E+02 -0.11311864808E+02  0.48103549636E+03  0.50576301198E+03  0.12500000000E+03 0.  0.
</event>
<event>
 5    0  0.5764392E-005  0.2370710E+03  0.7546771E-02  0.1121760E+00
         21   -1    0    0  502  501  0.00000000000E+00  0.00000000000E+00  0.12796030340E+03  0.12796030340E+03  0.00000000000E+00 0.  1.
         21   -1    0    0  501  502 -0.00000000000E+00 -0.00000000000E+00 -0.43921931517E+03  0.43921931517E+03  0.00000000000E+00 0.  1.
         25    1    1    2    0    0 -0.55078287677E+01  0.66182435446E+02 -0.36039404727E+02  0.14606262230E+03  0.12500000000E+03 0.  0.
         25    1    1    2    0    0 -0.66167407331E+02 -0.14364327945E+02 -0.53998382261E+02  0.15207000032E+03  0.12500000000E+03 0.  0.
         25    1    1    2    0    0  0.71675236099E+02 -0.51818107501E+02 -0.22122122479E+03  0.26904699595E+03  0.12500000000E+03 0.  0.
</event>
<event>
 5    0  0.5764392E-005  0.3526885E+03  0.7546771E-02  0.1061517E+00
         21   -1    0    0  502  501  0.00000000000E+00  0.00000000000E+00  0.11589708231E+03  0.11589708231E+03  0.00000000000E+00 0.  1.
         21   -1    0    0  501  502 -0.00000000000E+00 -0.00000000000E+00 -0.10732725434E+04  0.10732725434E+04  0.00000000000E+00 0.  1.
         25    1    1    2    0    0 -0.24709038980E+02  0.10904583427E+03 -0.62427282063E+02  0.17895165862E+03  0.12500000000E+03 0.  0.
         25    1    1    2    0    0 -0.13747834939E+03 -0.85614652860E+01 -0.64746906419E+03  0.67365776498E+03  0.12500000000E+03 0.  0.
         25    1    1    2    0    0  0.16218738837E+03 -0.10048436898E+03 -0.24747911480E+03  0.33656020207E+03  0.12500000000E+03 0.  0.
</event>
<event>
 5    0  0.5764392E-005  0.4028640E+03  0.7546771E-02  0.1042792E+00
         21   -1    0    0  502  501  0.00000000000E+00  0.00000000000E+00  0.60296408463E+03  0.60296408463E+03  0.00000000000E+00 0. -1.
         21   -1    0    0  501  502 -0.00000000000E+00 -0.00000000000E+00 -0.26916929671E+03  0.26916929671E+03  0.00000000000E+00 0. -1.
         25    1    1    2    0    0  0.10814299031E+03  0.22901393823E+03  0.18214449515E+02  0.28301776699E+03  0.12500000000E+03 0.  0.
         25    1    1    2    0    0 -0.20667091319E+03 -0.20868663123E+03  0.28035857307E+03  0.42483985913E+03  0.12500000000E+03 0.  0.
         25    1    1    2    0    0  0.98527922882E+02 -0.20327306999E+02  0.35221765337E+02  0.16427575521E+03  0.12500000000E+03 0.  0.
</event>
<event>
 5    0  0.5764392E-005  0.3011931E+03  0.7546771E-02  0.1084646E+00
         21   -1    0    0  502  501  0.00000000000E+00  0.00000000000E+00  0.52936807746E+03  0.52936807746E+03  0.00000000000E+00 0. -1.
         21   -1    0    0  501  502 -0.00000000000E+00 -0.00000000000E+00 -0.17136895834E+03  0.17136895834E+03  0.00000000000E+00 0. -1.
         25    1    1    2    0    0 -0.11736222059E+03 -0.94434648974E+02  0.29693667105E+03  0.35565176840E+03  0.12500000000E+03 0.  0.
         25    1    1    2    0    0  0.67009911791E+02  0.13778546363E+03  0.43196726352E+02  0.20240088793E+03  0.12500000000E+03 0.  0.
         25    1    1    2    0    0  0.50352308804E+02 -0.43350814660E+02  0.17865721718E+02  0.14268437947E+03  0.12500000000E+03 0.  0.
</event>
<event>
 5    0  0.5764392E-005  0.2148371E+03  0.7546771E-02  0.1137792E+00
         21   -1    0    0  502  501  0.00000000000E+00  0.00000000000E+00  0.10551567050E+03  0.10551567050E+03  0.00000000000E+00 0. -1.
         21   -1    0    0  501  502 -0.00000000000E+00 -0.00000000000E+00 -0.43742291419E+03  0.43742291419E+03  0.00000000000E+00 0. -1.
         25    1    1    2    0    0  0.22365243680E+02 -0.46971022482E+02 -0.41226980324E+02  0.14153142755E+03  0.12500000000E+03 0.  0.
         25    1    1    2    0    0  0.38103093986E+01  0.68064245239E+02 -0.11406368224E+03  0.18243569701E+03  0.12500000000E+03 0.  0.
         25    1    1    2    0    0 -0.26175553078E+02 -0.21093222757E+02 -0.17661658113E+03  0.21897146014E+03  0.12500000000E+03 0.  0.
</event>
<event>
 5    0  0.5764392E-005  0.2913438E+03  0.7546771E-02  0.1089650E+00
         21   -1    0    0  502  501  0.00000000000E+00  0.00000000000E+00  0.62039137350E+02  0.62039137350E+02  0.00000000000E+00 0. -1.
         21   -1    0    0  501  502 -0.00000000000E+00 -0.00000000000E+00 -0.13681884462E+04  0.13681884462E+04  0.00000000000E+00 0. -1.
         25    1    1    2    0    0 -0.13217443140E+03 -0.68177386317E+02 -0.77494302052E+03  0.79892422756E+03  0.12500000000E+03 0.  0.
         25    1    1    2    0    0  0.15403064271E+03  0.65656899859E+02 -0.38202459049E+03  0.43543547758E+03  0.12500000000E+03 0.  0.
         25    1    1    2    0    0 -0.21856211306E+02  0.25204864582E+01 -0.14918169783E+03  0.19586787841E+03  0.12500000000E+03 0.  0.
</event>
<event>
 5    0  0.5764392E-005  0.3635023E+03  0.7546771E-02  0.1057206E+00
         21   -1    0    0  502  501  0.00000000000E+00  0.00000000000E+00  0.87656830315E+03  0.87656830315E+03  0.00000000000E+00 0.  1.
         21   -1    0    0  501  502 -0.00000000000E+00 -0.00000000000E+00 -0.15074004536E+03  0.15074004536E+03  0.00000000000E+00 0.  1.
         25    1    1    2    0    0  0.14744847769E+01 -0.29156196822E+01 -0.67942600067E+02  0.14230907156E+03  0.12500000000E+03 0.  0.
         25    1    1    2    0    0 -0.11444396359E+03 -0.87784711359E+02  0.30134986206E+03  0.35670760535E+03  0.12500000000E+03 0.  0.
         25    1    1    2    0    0  0.11296947881E+03  0.90700331042E+02  0.49242099579E+03  0.52829167161E+03  0.12500000000E+03 0.  0.
</event>
<event>
 5    0  0.6061938E-005  0.3653631E+03  0.7546771E-02  0.1056480E+00
         21   -1    0    0  502  501  0.00000000000E+00  0.00000000000E+00  0.22087385293E+03  0.22087385293E+03  0.00000000000E+00 0.  1.
         21   -1    0    0  501  502 -0.00000000000E+00 -0.00000000000E+00 -0.60437313248E+03  0.60437313248E+03  0.00000000000E+00 0.  1.
         25    1    1    2    0    0  0.59064300609E+02 -0.30001693390E+02 -0.25963526709E+03  0.29567577705E+03  0.12500000000E+03 0.  0.
         25    1    1    2    0    0 -0.20452838506E+03 -0.54696349020E+02 -0.18890197716E+03  0.31005242761E+03  0.12500000000E+03 0.  0.
         25    1    1    2    0    0  0.14546408445E+03  0.84698042410E+02  0.65037964701E+02  0.21951878076E+03  0.12500000000E+03 0.  0.
</event>
<event>
 5    0  0.5764392E-005  0.3043301E+03  0.7546771E-02  0.1083096E+00
         21   -1    0    0  502  501  0.00000000000E+00  0.00000000000E+00  0.11838909344E+04  0.11838909344E+04  0.00000000000E+00 0.  1.
         21   -1    0    0  501  502 -0.00000000000E+00 -0.00000000000E+00 -0.78230877289E+02  0.78230877289E+02  0.00000000000E+00 0.  1.
         25    1    1    2    0    0  0.13162841145E+03  0.67994484860E+02  0.74986653637E+03  0.77451540400E+03  0.12500000000E+03 0.  0.
         25    1    1    2    0    0 -0.15064857422E+03 -0.17525834091E+02  0.22608179517E+03  0.29956656336E+03  0.12500000000E+03 0.  0.
         25    1    1    2    0    0  0.19020162776E+02 -0.50468650769E+02  0.12971172557E+03  0.18803984432E+03  0.12500000000E+03 0.  0.
</event>
<event>
 5    0  0.5764392E-005  0.3118273E+03  0.7546771E-02  0.1079473E+00
         21   -1    0    0  502  501  0.00000000000E+00  0.00000000000E+00  0.67131941633E+02  0.67131941633E+02  0.00000000000E+00 0.  1.
         21   -1    0    0  501  502 -0.00000000000E+00 -0.00000000000E+00 -0.14484354384E+04  0.14484354384E+04  0.00000000000E+00 0.  1.
         25    1    1    2    0    0 -0.40129040538E+02 -0.17116121317E+02 -0.51294368020E+03  0.52975420769E+03  0.12500000000E+03 0.  0.
         25    1    1    2    0    0  0.10385376246E+03  0.11498179195E+03 -0.75449548408E+03  0.78031714831E+03  0.12500000000E+03 0.  0.
         25    1    1    2    0    0 -0.63724721924E+02 -0.97865670633E+02 -0.11386433245E+03  0.20549602399E+03  0.12500000000E+03 0.  0.
</event>
<event>
 5    0  0.5764392E-005  0.2609007E+03  0.7546771E-02  0.1106603E+00
         21   -1    0    0  502  501  0.00000000000E+00  0.00000000000E+00  0.35439470570E+03  0.35439470570E+03  0.00000000000E+00 0. -1.
         21   -1    0    0  501  502 -0.00000000000E+00 -0.00000000000E+00 -0.19207159889E+03  0.19207159889E+03  0.00000000000E+00 0. -1.
         25    1    1    2    0    0 -0.93432110461E+02  0.66667701254E+01  0.56062663689E+02  0.16595790837E+03  0.12500000000E+03 0.  0.
         25    1    1    2    0    0  0.89161322349E+02 -0.98615643969E+02  0.12919721821E+03  0.22358825513E+03  0.12500000000E+03 0.  0.
         25    1    1    2    0    0  0.42707881119E+01  0.91948873844E+02 -0.22936775085E+02  0.15692014110E+03  0.12500000000E+03 0.  0.
</event>
<event>
 5    0  0.5764392E-005  0.4179510E+03  0.7546771E-02  0.1037735E+00
         21   -1    0    0  502  501  0.00000000000E+00  0.00000000000E+00  0.11940766616E+04  0.11940766616E+04  0.00000000000E+00 0.  1.
         21   -1    0    0  501  502 -0.00000000000E+00 -0.00000000000E+00 -0.14629128744E+03  0.14629128744E+03  0.00000000000E+00 0.  1.
         25    1    1    2    0    0 -0.10851692959E+03  0.14469856534E+03  0.82253485904E+03  0.85141188220E+03  0.12500000000E+03 0.  0.
         25    1    1    2    0    0  0.15552107011E+03 -0.10333377476E+03  0.26125204923E+03  0.34459005424E+03  0.12500000000E+03 0.  0.
         25    1    1    2    0    0 -0.47004140524E+02 -0.41364790587E+02 -0.36001534128E+02  0.14436601257E+03  0.12500000000E+03 0.  0.
</event>
<event>
 5    0  0.5764392E-005  0.3701339E+03  0.7546771E-02  0.1054642E+00
         21   -1    0    0  502  501  0.00000000000E+00  0.00000000000E+00  0.18456421591E+03  0.18456421591E+03  0.00000000000E+00 0. -1.
         21   -1    0    0  501  502 -0.00000000000E+00 -0.00000000000E+00 -0.74228407556E+03  0.74228407556E+03  0.00000000000E+00 0. -1.
         25    1    1    2    0    0  0.82778312655E+02  0.48235017742E+01 -0.19282218594E+02  0.15123597181E+03  0.12500000000E+03 0.  0.
         25    1    1    2    0    0 -0.15214312714E+03  0.78139931446E+02 -0.56932844533E+03  0.60746461517E+03  0.12500000000E+03 0.  0.
         25    1    1    2    0    0  0.69364814481E+02 -0.82963433220E+02  0.30890804273E+02  0.16814770450E+03  0.12500000000E+03 0.  0.
</event>
<event>
 5    0  0.7661730E-005  0.2857204E+03  0.7546771E-02  0.1092605E+00
         21   -1    0    0  502  501  0.00000000000E+00  0.00000000000E+00  0.13785020331E+03  0.13785020331E+03  0.00000000000E+00 0.  1.
         21   -1    0    0  501  502 -0.00000000000E+00 -0.00000000000E+00 -0.59220908168E+03  0.59220908168E+03  0.00000000000E+00 0.  1.
         25    1    1    2    0    0  0.10342873355E+03 -0.16866520320E+02 -0.54437992734E+02  0.17196068587E+03  0.12500000000E+03 0.  0.
         25    1    1    2    0    0 -0.25561009285E+02 -0.15921002669E+02 -0.38568584873E+03  0.40655309301E+03  0.12500000000E+03 0.  0.
         25    1    1    2    0    0 -0.77867724267E+02  0.32787522989E+02 -0.14235036909E+02  0.15154550611E+03  0.12500000000E+03 0.  0.
</event>
<event>
 5    0  0.5764392E-005  0.2117448E+03  0.7546771E-02  0.1140192E+00
         21   -1    0    0  502  501  0.00000000000E+00  0.00000000000E+00  0.33089091547E+02  0.33089091547E+02  0.00000000000E+00 0. -1.
         21   -1    0    0  501  502 -0.00000000000E+00 -0.00000000000E+00 -0.13550048213E+04  0.13550048213E+04  0.00000000000E+00 0. -1.
         25    1    1    2    0    0  0.34074776994E+02 -0.21635701627E+01 -0.58168362192E+03  0.59594178194E+03  0.12500000000E+03 0.  0.
         25    1    1    2    0    0 -0.47428239592E+02  0.77036077309E+01 -0.22554235290E+03  0.26230351968E+03  0.12500000000E+03 0.  0.
         25    1    1    2    0    0  0.13353462598E+02 -0.55400375682E+01 -0.51468975495E+03  0.52984861123E+03  0.12500000000E+03 0.  0.
</event>
<event>
 5    0  0.5764392E-005  0.2885244E+03  0.7546771E-02  0.1091122E+00
         21   -1    0    0  502  501  0.00000000000E+00  0.00000000000E+00  0.44966858690E+02  0.44966858690E+02  0.00000000000E+00 0. -1.
         21   -1    0    0  501  502 -0.00000000000E+00 -0.00000000000E+00 -0.18512812512E+04  0.18512812512E+04  0.00000000000E+00 0. -1.
         25    1    1    2    0    0  0.30103780625E+02  0.88325957831E+02 -0.40800612994E+03  0.43680855589E+03  0.12500000000E+03 0.  0.
         25    1    1    2    0    0  0.78985809741E+02 -0.45731663779E+02 -0.11337878517E+04  0.11443032972E+04  0.12500000000E+03 0.  0.
         25    1    1    2    0    0 -0.10908959037E+03 -0.42594294052E+02 -0.26452041090E+03  0.31513625687E+03  0.12500000000E+03 0.  0.
</event>
<event>
 5    0  0.5764392E-005  0.3776803E+03  0.7546771E-02  0.1051794E+00
         21   -1    0    0  502  501  0.00000000000E+00  0.00000000000E+00  0.20374197737E+03  0.20374197737E+03  0.00000000000E+00 0.  1.
         21   -1    0    0  501  502 -0.00000000000E+00 -0.00000000000E+00 -0.70011313444E+03  0.70011313444E+03  0.00000000000E+00 0.  1.
         25    1    1    2    0    0 -0.11291962233E+03  0.32236630901E+02 -0.40768851943E+03  0.44229511681E+03  0.12500000000E+03 0.  0.
         25    1    1    2    0    0 -0.94922520979E+02  0.77127084307E+02  0.16089940826E+02  0.17562106456E+03  0.12500000000E+03 0.  0.
         25    1    1    2    0    0  0.20784214331E+03 -0.10936371521E+03 -0.10477257846E+03  0.28593893043E+03  0.12500000000E+03 0.  0.
</event>
<event>
 5    0  0.5764392E-005  0.4627862E+03  0.7546771E-02  0.1023976E+00
         21   -1    0    0  502  501  0.00000000000E+00  0.00000000000E+00  0.13198776836E+03  0.13198776836E+03  0.00000000000E+00 0.  1.
         21   -1    0    0  501  502 -0.00000000000E+00 -0.00000000000E+00 -0.16226587343E+04  0.16226587343E+04  0.00000000000E+00 0.  1.
         25    1    1    2    0    0 -0.38486525156E+02  0.29075097177E+03 -0.37668519064E+03  0.49349171529E+03  0.12500000000E+03 0.  0.
         25    1    1    2    0    0  0.24084982682E+03 -0.12954396169E+03 -0.63495403138E+03  0.70255384068E+03  0.12500000000E+03 0.  0.
         25    1    1    2    0    0 -0.20236330166E+03 -0.16120701008E+03 -0.47903174390E+03  0.55860094667E+03  0.12500000000E+03 0.  0.
</event>
<event>
 5    0  0.5764392E-005  0.3406743E+03  0.7546771E-02  0.1066509E+00
         21   -1    0    0  502  501  0.00000000000E+00  0.00000000000E+00  0.10877235505E+04  0.10877235505E+04  0.00000000000E+00 0. -1.
         21   -1    0    0  501  502 -0.00000000000E+00 -0.00000000000E+00 -0.10669899590E+03  0.10669899590E+03  0.00000000000E+00 0. -1.
         25    1    1    2    0    0 -0.88189999903E+02  0.18647386021E+03  0.17396188240E+03  0.29738478971E+03  0.12500000000E+03 0.  0.
         25    1    1    2    0    0  0.15461824594E+02 -0.22970986503E+02  0.52495143640E+03  0.54033854649E+03  0.12500000000E+03 0.  0.
         25    1    1    2    0    0  0.72728175308E+02 -0.16350287371E+03  0.28211123580E+03  0.35669921020E+03  0.12500000000E+03 0.  0.
</event>
<event>
 5    0  0.5764392E-005  0.2524828E+03  0.7546771E-02  0.1111746E+00
         21   -1    0    0  502  501  0.00000000000E+00  0.00000000000E+00  0.87069846282E+02  0.87069846282E+02  0.00000000000E+00 0.  1.
         21   -1    0    0  501  502 -0.00000000000E+00 -0.00000000000E+00 -0.73214262450E+03  0.73214262450E+03  0.00000000000E+00 0.  1.
         25    1    1    2    0    0  0.12871839344E+03 -0.43699926763E+01 -0.22633526720E+03  0.28886013021E+03  0.12500000000E+03 0.  0.
         25    1    1    2    0    0 -0.13211305874E+03  0.27920626881E+02 -0.16794491194E+03  0.24912630359E+03  0.12500000000E+03 0.  0.
         25    1    1    2    0    0  0.33946652992E+01 -0.23550634204E+02 -0.25079259908E+03  0.28122603698E+03  0.12500000000E+03 0.  0.
</event>
<event>
 5    0  0.5764392E-005  0.4006713E+03  0.7546771E-02  0.1043547E+00
         21   -1    0    0  502  501  0.00000000000E+00  0.00000000000E+00  0.90697744857E+02  0.90697744857E+02  0.00000000000E+00 0. -1.
         21   -1    0    0  501  502 -0.00000000000E+00 -0.00000000000E+00 -0.17700271189E+04  0.17700271189E+04  0.00000000000E+00 0. -1.
         25    1    1    2    0    0 -0.83655216296E+02  0.18469506884E+03 -0.86655651960E+03  0.89869664811E+03  0.12500000000E+03 0.  0.
         25    1    1    2    0    0 -0.12030853137E+03  0.80613982376E+01 -0.47341328799E+03  0.50426607074E+03  0.12500000000E+03 0.  0.
         25    1    1    2    0    0  0.20396374766E+03 -0.19275646707E+03 -0.33935956645E+03  0.45776214490E+03  0.12500000000E+03 0.  0.
</event>
<event>
 5    0  0.5764392E-005  0.3125829E+03  0.7546771E-02  0.1079114E+00
         21   -1    0    0  502  501  0.00000000000E+00  0.00000000000E+00  0.83337656212E+03  0.83337656212E+03  0.00000000000E+00 0. -1.
         21   -1    0    0  501  502 -0.00000000000E+00 -0.00000000000E+00 -0.11724363664E+03  0.11724363664E+03  0.00000000000E+00 0. -1.
         25    1    1    2    0    0  0.67197931849E+02  0.15721163955E+03  0.18166649503E+03  0.27903185673E+03  0.12500000000E+03 0.  0.
         25    1    1    2    0    0 -0.73096696810E+02 -0.20004323343E+03  0.22116130205E+03  0.33150828624E+03  0.12500000000E+03 0.  0.
         25    1    1    2    0    0  0.58987649608E+01  0.42831593880E+02  0.31330512840E+03  0.34008005579E+03  0.12500000000E+03 0.  0.
</event>
<event>
 5    0  0.5764392E-005  0.2796665E+03  0.7546771E-02  0.1095871E+00
         21   -1    0    0  502  501  0.00000000000E+00  0.00000000000E+00  0.32070757857E+02  0.32070757857E+02  0.00000000000E+00 0.  1.
         21   -1    0    0  501  502 -0.00000000000E+00 -0.00000000000E+00 -0.24387745150E+04  0.24387745150E+04  0.00000000000E+00 0.  1.
         25    1    1    2    0    0 -0.53134859709E+02  0.14433075394E+03 -0.64292581218E+03  0.67278026117E+03  0.12500000000E+03 0.  0.
         25    1    1    2    0    0  0.55090355138E+01  0.30793760991E+02 -0.61885108376E+03  0.63212361849E+03  0.12500000000E+03 0.  0.
         25    1    1    2    0    0  0.47625824195E+02 -0.17512451493E+03 -0.11449268612E+04  0.11659413932E+04  0.12500000000E+03 0.  0.
</event>
<event>
 5    0  0.5764392E-005  0.3352952E+03  0.7546771E-02  0.1068818E+00
         21   -1    0    0  502  501  0.00000000000E+00  0.00000000000E+00  0.15119642942E+03  0.15119642942E+03  0.00000000000E+00 0.  1.
         21   -1    0    0  501  502 -0.00000000000E+00 -0.00000000000E+00 -0.74355517464E+03  0.74355517464E+03  0.00000000000E+00 0.  1.
         25    1    1    2    0    0 -0.34745816970E+02  0.15334914781E+01 -0.33708947719E+03  0.36119792223E+03  0.12500000000E+03 0.  0.
         25    1    1    2    0    0 -0.63832022810E+02 -0.29243505734E+02  0.77973410105E+02  0.16320098789E+03  0.12500000000E+03 0.  0.
         25    1    1    2    0    0  0.98577839779E+02  0.27710014256E+02 -0.33324267813E+03  0.37035269395E+03  0.12500000000E+03 0.  0.
</event>
<event>
 5    0  0.5764392E-005  0.2804623E+03  0.7546771E-02  0.1095437E+00
         21   -1    0    0  502  501  0.00000000000E+00  0.00000000000E+00  0.17681865485E+03  0.17681865485E+03  0.00000000000E+00 0. -1.
         21   -1    0    0  501  502 -0.00000000000E+00 -0.00000000000E+00 -0.44485736672E+03  0.44485736672E+03  0.00000000000E+00 0. -1.
         25    1    1    2    0    0 -0.41201960933E+02  0.11658646742E+03 -0.10973480205E+03  0.20726006068E+03  0.12500000000E+03 0.  0.
         25    1    1    2    0    0  0.12211822946E+03  0.11550268815E+02 -0.24755742960E+02  0.17687316780E+03  0.12500000000E+03 0.  0.
         25    1    1    2    0    0 -0.80916268528E+02 -0.12813673623E+03 -0.13354816686E+03  0.23754279311E+03  0.12500000000E+03 0.  0.
</event>
<event>
 5    0  0.5764392E-005  0.4039999E+03  0.7546771E-02  0.1042403E+00
         21   -1    0    0  502  501  0.00000000000E+00  0.00000000000E+00  0.58334345855E+02  0.58334345855E+02  0.00000000000E+00 0. -1.
         21   -1    0    0  501  502 -0.00000000000E+00 -0.00000000000E+00 -0.27979390689E+04  0.27979390689E+04  0.00000000000E+00 0. -1.
         25    1    1    2    0    0  0.24744194226E+02  0.34504276365E+03 -0.13535350705E+04  0.14026221768E+04  0.12500000000E+03 0.  0.
         25    1    1    2    0    0 -0.27081726639E+02 -0.10834510343E+03 -0.45628719924E+03  0.48610193329E+03  0.12500000000E+03 0.  0.
         25    1    1    2    0    0  0.23375324136E+01 -0.23669766021E+03 -0.92978245337E+03  0.96754930468E+03  0.12500000000E+03 0.  0.
</event>
<event>
 5    0  0.5764392E-005  0.3039320E+03  0.7546771E-02  0.1083291E+00
         21   -1    0    0  502  501  0.00000000000E+00  0.00000000000E+00  0.47529738525E+03  0.47529738525E+03  0.00000000000E+00 0. -1.
         21   -1    0    0  501  502 -0.00000000000E+00 -0.00000000000E+00 -0.19435123781E+03  0.19435123781E+03  0.00000000000E+00 0. -1.
         25    1    1    2    0    0 -0.27010264808E+02 -0.86238686661E+02 -0.76832851166E+02  0.17232223449E+03  0.12500000000E+03 0.  0.
         25    1    1    2    0    0 -0.95087867113E+02  0.33148535120E+02  0.13894080151E+03  0.21229713652E+03  0.12500000000E+03 0.  0.
         25    1    1    2    0    0  0.12209813192E+03  0.53090151541E+02  0.21883819711E+03  0.28502925205E+03  0.12500000000E+03 0.  0.
</event>
<event>
 5    0  0.5764392E-005  0.2506583E+03  0.7546771E-02  0.1112889E+00
         21   -1    0    0  502  501  0.00000000000E+00  0.00000000000E+00  0.66547411891E+02  0.66547411891E+02  0.00000000000E+00 0.  1.
         21   -1    0    0  501  502 -0.00000000000E+00 -0.00000000000E+00 -0.94413272267E+03  0.94413272267E+03  0.00000000000E+00 0.  1.
         25    1    1    2    0    0  0.97517175696E+02  0.51902559249E+01 -0.11140313499E+03  0.19383548900E+03  0.12500000000E+03 0.  0.
         25    1    1    2    0    0 -0.82988065227E+02 -0.32301972575E+02 -0.45043260503E+03  0.47586234152E+03  0.12500000000E+03 0.  0.
         25    1    1    2    0    0 -0.14529110469E+02  0.27111716650E+02 -0.31574957076E+03  0.34098230404E+03  0.12500000000E+03 0.  0.
</event>
<event>
 5    0  0.5764392E-005  0.2269586E+03  0.7546771E-02  0.1128799E+00
         21   -1    0    0  502  501  0.00000000000E+00  0.00000000000E+00  0.59851158429E+03  0.59851158429E+03  0.00000000000E+00 0. -1.
         21   -1    0    0  501  502 -0.00000000000E+00 -0.00000000000E+00 -0.86063815069E+02  0.86063815069E+02  0.00000000000E+00 0. -1.
         25    1    1    2    0    0 -0.56475428445E+02  0.21526888027E+02  0.78014596058E+02  0.15926128884E+03  0.12500000000E+03 0.  0.
         25    1    1    2    0    0  0.34324782289E+02 -0.80003985425E+02  0.18759763178E+03  0.24165409124E+03  0.12500000000E+03 0.  0.
         25    1    1    2    0    0  0.22150646155E+02  0.58477097398E+02  0.24683554139E+03  0.28366001928E+03  0.12500000000E+03 0.  0.
</event>
<event>
 5    0  0.5764392E-005  0.3381209E+03  0.7546771E-02  0.1067599E+00
         21   -1    0    0  502  501  0.00000000000E+00  0.00000000000E+00  0.10884575178E+04  0.10884575178E+04  0.00000000000E+00 0.  1.
         21   -1    0    0  501  502 -0.00000000000E+00 -0.00000000000E+00 -0.10503462344E+03  0.10503462344E+03  0.00000000000E+00 0.  1.
         25    1    1    2    0    0  0.62716940195E+02 -0.84505998721E+02  0.36693847118E+03  0.40167588929E+03  0.12500000000E+03 0.  0.
         25    1    1    2    0    0  0.13098744836E+03 -0.13826558661E+02  0.77548237594E+02  0.19745281590E+03  0.12500000000E+03 0.  0.
         25    1    1    2    0    0 -0.19370438855E+03  0.98332557383E+02  0.53893618560E+03  0.59436343607E+03  0.12500000000E+03 0.  0.
</event>
<event>
 5    0  0.5764392E-005  0.2450339E+03  0.7546771E-02  0.1116484E+00
         21   -1    0    0  502  501  0.00000000000E+00  0.00000000000E+00  0.62774685536E+02  0.62774685536E+02  0.00000000000E+00 0.  1.
         21   -1    0    0  501  502 -0.00000000000E+00 -0.00000000000E+00 -0.95646205302E+03  0.95646205302E+03  0.00000000000E+00 0.  1.
         25    1    1    2    0    0 -0.41067609993E+02  0.21564441577E+02 -0.64210152195E+02  0.14798485523E+03  0.12500000000E+03 0.  0.
         25    1    1    2    0    0  0.31628977379E+02  0.27611965381E+02 -0.41667046597E+03  0.43703785883E+03  0.12500000000E+03 0.  0.
         25    1    1    2    0    0  0.94386326144E+01 -0.49176406958E+02 -0.41280674932E+03  0.43421402450E+03  0.12500000000E+03 0.  0.
</event>
<event>
 5    0  0.5764392E-005  0.3028560E+03  0.7546771E-02  0.1083822E+00
         21   -1    0    0  502  501  0.00000000000E+00  0.00000000000E+00  0.21814549780E+04  0.21814549780E+04  0.00000000000E+00 0.  1.
         21   -1    0    0  501  502 -0.00000000000E+00 -0.00000000000E+00 -0.42046147858E+02  0.42046147858E+02  0.00000000000E+00 0.  1.
         25    1    1    2    0    0  0.11525079786E+03 -0.45562951505E+02  0.41357224676E+03  0.44947272692E+03  0.12500000000E+03 0.  0.
         25    1    1    2    0    0  0.43630431053E+02 -0.95291102072E+02  0.62279240148E+03  0.64380073314E+03  0.12500000000E+03 0.  0.
         25    1    1    2    0    0 -0.15888122891E+03  0.14085405358E+03  0.11030441819E+04  0.11302276658E+04  0.12500000000E+03 0.  0.
</event>
<event>
 5    0  0.5764392E-005  0.4269836E+03  0.7546771E-02  0.1034817E+00
         21   -1    0    0  502  501  0.00000000000E+00  0.00000000000E+00  0.75902497659E+03  0.75902497659E+03  0.00000000000E+00 0.  1.
         21   -1    0    0  501  502 -0.00000000000E+00 -0.00000000000E+00 -0.24019629244E+03  0.24019629244E+03  0.00000000000E+00 0.  1.
         25    1    1    2    0    0  0.52842284346E+02  0.14930486994E+03 -0.52924784306E+02  0.20859118868E+03  0.12500000000E+03 0.  0.
         25    1    1    2    0    0  0.14243649243E+03  0.70380180257E+02  0.34162384779E+03  0.39695513289E+03  0.12500000000E+03 0.  0.
         25    1    1    2    0    0 -0.19527877678E+03 -0.21968505020E+03  0.23012962066E+03  0.39367494745E+03  0.12500000000E+03 0.  0.
</event>
<event>
 5    0  0.5764392E-005  0.2804383E+03  0.7546771E-02  0.1095450E+00
         21   -1    0    0  502  501  0.00000000000E+00  0.00000000000E+00  0.29948110977E+04  0.29948110977E+04  0.00000000000E+00 0. -1.
         21   -1    0    0  501  502 -0.00000000000E+00 -0.00000000000E+00 -0.26260638173E+02  0.26260638173E+02  0.00000000000E+00 0. -1.
         25    1    1    2    0    0  0.35015640714E+02 -0.55597967743E+02  0.14267628768E+04  0.14337344718E+04  0.12500000000E+03 0.  0.
         25    1    1    2    0    0 -0.74593752446E+01  0.32618697770E+02  0.13465437555E+04  0.13527470966E+04  0.12500000000E+03 0.  0.
         25    1    1    2    0    0 -0.27556265469E+02  0.22979269973E+02  0.19524382721E+03  0.23459016748E+03  0.12500000000E+03 0.  0.
</event>
<event>
 5    0  0.6920228E-005  0.3032479E+03  0.7546771E-02  0.1083628E+00
         21   -1    0    0  502  501  0.00000000000E+00  0.00000000000E+00  0.48116259142E+03  0.48116259142E+03  0.00000000000E+00 0. -1.
         21   -1    0    0  501  502 -0.00000000000E+00 -0.00000000000E+00 -0.19111899819E+03  0.19111899819E+03  0.00000000000E+00 0. -1.
         25    1    1    2    0    0  0.15838254477E+03  0.68619337863E+02 -0.12419641379E+02  0.21347808203E+03  0.12500000000E+03 0.  0.
         25    1    1    2    0    0 -0.75045239220E+02 -0.87135720554E+02  0.75223048917E+02  0.18576309864E+03  0.12500000000E+03 0.  0.
         25    1    1    2    0    0 -0.83337305551E+02  0.18516382691E+02  0.22724018569E+03  0.27304040894E+03  0.12500000000E+03 0.  0.
</event>
<event>
 5    0  0.5764392E-005  0.2873629E+03  0.7546771E-02  0.1091734E+00
         21   -1    0    0  502  501  0.00000000000E+00  0.00000000000E+00  0.70097655924E+03  0.70097655924E+03  0.00000000000E+00 0. -1.
         21   -1    0    0  501  502 -0.00000000000E+00 -0.00000000000E+00 -0.11780344713E+03  0.11780344713E+03  0.00000000000E+00 0.  1.
         25    1    1    2    0    0 -0.16129131205E+03 -0.39376765463E+02  0.43507709674E+03  0.48216438805E+03  0.12500000000E+03 0.  0.
         25    1    1    2    0    0  0.85054925763E+02  0.35190636902E+02  0.86600990405E+02  0.17775672381E+03  0.12500000000E+03 0.  0.
         25    1    1    2    0    0  0.76236386292E+02  0.41861285604E+01  0.61495024966E+02  0.15885889450E+03  0.12500000000E+03 0.  0.
</event>
<event>
 5    0  0.5764392E-005  0.3324991E+03  0.7546771E-02  0.1070036E+00
         21   -1    0    0  502  501  0.00000000000E+00  0.00000000000E+00  0.54770448580E+03  0.54770448580E+03  0.00000000000E+00 0.  1.
         21   -1    0    0  501  502 -0.00000000000E+00 -0.00000000000E+00 -0.20185270021E+03  0.20185270021E+03  0.00000000000E+00 0.  1.
         25    1    1    2    0    0 -0.63044165327E+02 -0.15148531156E+03 -0.39828662393E+02  0.21008019599E+03  0.12500000000E+03 0.  0.
         25    1    1    2    0    0  0.85409668338E+02  0.49742612681E+01  0.65196061731E+02  0.16490931201E+03  0.12500000000E+03 0.  0.
         25    1    1    2    0    0 -0.22365503012E+02  0.14651105029E+03  0.32048438625E+03  0.37456767802E+03  0.12500000000E+03 0.  0.
</event>
<event>
 5    0  0.5841179E-005  0.3180309E+03  0.7546771E-02  0.1076559E+00
         21   -1    0    0  502  501  0.00000000000E+00  0.00000000000E+00  0.12284512503E+03  0.12284512503E+03  0.00000000000E+00 0.  1.
         21   -1    0    0  501  502 -0.00000000000E+00 -0.00000000000E+00 -0.82334278069E+03  0.82334278069E+03  0.00000000000E+00 0.  1.
         25    1    1    2    0    0  0.13556304343E+03 -0.63916462845E+02 -0.25499596859E+03  0.32110838818E+03  0.12500000000E+03 0.  0.
         25    1    1    2    0    0 -0.13433956614E+03  0.93929297359E+02 -0.45154976509E+03  0.49637890999E+03  0.12500000000E+03 0.  0.
         25    1    1    2    0    0 -0.12234772858E+01 -0.30012834514E+02  0.60480780133E+01  0.12870060754E+03  0.12500000000E+03 0.  0.
</event>
<event>
 5    0  0.5764392E-005  0.3809991E+03  0.7546771E-02  0.1050565E+00
         21   -1    0    0  502  501  0.00000000000E+00  0.00000000000E+00  0.95695293237E+03  0.95695293237E+03  0.00000000000E+00 0. -1.
         21   -1    0    0  501  502 -0.00000000000E+00 -0.00000000000E+00 -0.15169010828E+03  0.15169010828E+03  0.00000000000E+00 0. -1.
         25    1    1    2    0    0  0.10400606950E+03 -0.52771625584E+02  0.24602142497E+03  0.29958913282E+03  0.12500000000E+03 0.  0.
         25    1    1    2    0    0  0.17794682209E+03 -0.78294537598E+02  0.33056441247E+03  0.40335212520E+03  0.12500000000E+03 0.  0.
         25    1    1    2    0    0 -0.28195289159E+03  0.13106616318E+03  0.22867698664E+03  0.40570178263E+03  0.12500000000E+03 0.  0.
</event>
<event>
 5    0  0.5764392E-005  0.3574523E+03  0.7546771E-02  0.1059597E+00
         21   -1    0    0  502  501  0.00000000000E+00  0.00000000000E+00  0.22907920746E+03  0.22907920746E+03  0.00000000000E+00 0. -1.
         21   -1    0    0  501  502 -0.00000000000E+00 -0.00000000000E+00 -0.55776401260E+03  0.55776401260E+03  0.00000000000E+00 0. -1.
         25    1    1    2    0    0 -0.27491382094E+03 -0.43254248332E+02 -0.12694993524E+03  0.33043883700E+03  0.12500000000E+03 0.  0.
         25    1    1    2    0    0  0.14651413739E+03  0.10224661413E+03 -0.13412245028E+03  0.25599725433E+03  0.12500000000E+03 0.  0.
         25    1    1    2    0    0  0.12839968354E+03 -0.58992365795E+02 -0.67612419618E+02  0.20040712872E+03  0.12500000000E+03 0.  0.
</event>
<event>
 5    0  0.5764392E-005  0.2604624E+03  0.7546771E-02  0.1106866E+00
         21   -1    0    0  502  501  0.00000000000E+00  0.00000000000E+00  0.75373354867E+03  0.75373354867E+03  0.00000000000E+00 0.  1.
         21   -1    0    0  501  502 -0.00000000000E+00 -0.00000000000E+00 -0.90006133111E+02  0.90006133111E+02  0.00000000000E+00 0.  1.
         25    1    1    2    0    0 -0.13923732470E+03 -0.20717864873E+02  0.17765975543E+03  0.25885179391E+03  0.12500000000E+03 0.  0.
         25    1    1    2    0    0  0.66732048494E+02 -0.39730210835E+02  0.13187637819E+03  0.19760575668E+03  0.12500000000E+03 0.  0.
         25    1    1    2    0    0  0.72505276201E+02  0.60448075708E+02  0.35419128194E+03  0.38728213118E+03  0.12500000000E+03 0.  0.
</event>
<event>
 5    0  0.5764392E-005  0.3050984E+03  0.7546771E-02  0.1082719E+00
         21   -1    0    0  502  501  0.00000000000E+00  0.00000000000E+00  0.41758693738E+03  0.41758693738E+03  0.00000000000E+00 0. -1.
         21   -1    0    0  501  502 -0.00000000000E+00 -0.00000000000E+00 -0.22291177027E+03  0.22291177027E+03  0.00000000000E+00 0. -1.
         25    1    1    2    0    0 -0.14664808167E+01  0.37752367769E+02  0.12872459155E+03  0.18336415219E+03  0.12500000000E+03 0.  0.
         25    1    1    2    0    0  0.16860802432E+03 -0.10248875180E+03  0.26418017345E+02  0.23506493092E+03  0.12500000000E+03 0.  0.
         25    1    1    2    0    0 -0.16714154350E+03  0.64736384031E+02  0.39532558218E+02  0.22206962453E+03  0.12500000000E+03 0.  0.
</event>
<event>
 5    0  0.5764392E-005  0.2977480E+03  0.7546771E-02  0.1086372E+00
         21   -1    0    0  502  501  0.00000000000E+00  0.00000000000E+00  0.23763378715E+04  0.23763378715E+04  0.00000000000E+00 0.  1.
         21   -1    0    0  501  502 -0.00000000000E+00 -0.00000000000E+00 -0.37306922434E+02  0.37306922434E+02  0.00000000000E+00 0.  1.
         25    1    1    2    0    0 -0.53744475696E+02 -0.76736756396E+02  0.47228938581E+03  0.49745277404E+03  0.12500000000E+03 0.  0.
         25    1    1    2    0    0  0.75239525776E+02 -0.12616156882E+03  0.87183050498E+03  0.89291161775E+03  0.12500000000E+03 0.  0.
         25    1    1    2    0    0 -0.21495050080E+02  0.20289832522E+03  0.99491105831E+03  0.10232804022E+04  0.12500000000E+03 0.  0.
</event>
<event>
 5    0  0.5764392E-005  0.2975447E+03  0.7546771E-02  0.1086474E+00
         21   -1    0    0  502  501  0.00000000000E+00  0.00000000000E+00  0.28112695138E+03  0.28112695138E+03  0.00000000000E+00 0. -1.
         21   -1    0    0  501  502 -0.00000000000E+00 -0.00000000000E+00 -0.31492126481E+03  0.31492126481E+03  0.00000000000E+00 0. -1.
         25    1    1    2    0    0 -0.53808348890E+02  0.70074452256E+02 -0.44931394182E+02  0.15952929967E+03  0.12500000000E+03 0.  0.
         25    1    1    2    0    0  0.20003948136E+03 -0.16108195467E+02  0.11589430218E+02  0.23671624988E+03  0.12500000000E+03 0.  0.
         25    1    1    2    0    0 -0.14623113247E+03 -0.53966256788E+02 -0.45234946526E+00  0.19980266664E+03  0.12500000000E+03 0.  0.
</event>
<event>
 5    0  0.5764392E-005  0.2731888E+03  0.7546771E-02  0.1099468E+00
         21   -1    0    0  502  501  0.00000000000E+00  0.00000000000E+00  0.32682458686E+03  0.32682458686E+03  0.00000000000E+00 0.  1.
         21   -1    0    0  501  502 -0.00000000000E+00 -0.00000000000E+00 -0.22835526777E+03  0.22835526777E+03  0.00000000000E+00 0.  1.
         25    1    1    2    0    0  0.26564185114E+02 -0.40465455511E+01 -0.96591061141E+02  0.16024001858E+03  0.12500000000E+03 0.  0.
         25    1    1    2    0    0 -0.53015561653E+02  0.35012652913E+02  0.22023492256E+03  0.26108419476E+03  0.12500000000E+03 0.  0.
         25    1    1    2    0    0  0.26451376539E+02 -0.30966107362E+02 -0.25174542325E+02  0.13385564130E+03  0.12500000000E+03 0.  0.
</event>
<event>
 5    0  0.5764392E-005  0.2196623E+03  0.7546771E-02  0.1134135E+00
         21   -1    0    0  502  501  0.00000000000E+00  0.00000000000E+00  0.19341965627E+03  0.19341965627E+03  0.00000000000E+00 0. -1.
         21   -1    0    0  501  502 -0.00000000000E+00 -0.00000000000E+00 -0.24946537551E+03  0.24946537551E+03  0.00000000000E+00 0. -1.
         25    1    1    2    0    0  0.81048866460E+01 -0.72615899101E+02 -0.91808880311E+02  0.17144278490E+03  0.12500000000E+03 0.  0.
         25    1    1    2    0    0  0.37824140503E+01  0.63733930578E+02 -0.79370882823E+00  0.14036363680E+03  0.12500000000E+03 0.  0.
         25    1    1    2    0    0 -0.11887300696E+02  0.88819685231E+01  0.36556869905E+02  0.13107861008E+03  0.12500000000E+03 0.  0.
</event>
<event>
 5    0  0.5764392E-005  0.3842745E+03  0.7546771E-02  0.1049365E+00
         21   -1    0    0  502  501  0.00000000000E+00  0.00000000000E+00  0.70183740136E+03  0.70183740136E+03  0.00000000000E+00 0.  1.
         21   -1    0    0  501  502 -0.00000000000E+00 -0.00000000000E+00 -0.21040037816E+03  0.21040037816E+03  0.00000000000E+00 0.  1.
         25    1    1    2    0    0 -0.48149412879E+02  0.74433307121E+01  0.34678283081E+03  0.37182939754E+03  0.12500000000E+03 0.  0.
         25    1    1    2    0    0  0.23797030299E+03  0.56668534188E+02  0.12968487297E+03  0.30378340005E+03  0.12500000000E+03 0.  0.
         25    1    1    2    0    0 -0.18982089011E+03 -0.64111864900E+02  0.14969319424E+02  0.23662498192E+03  0.12500000000E+03 0.  0.
</event>
<event>
 5    0  0.5764392E-005  0.3188259E+03  0.7546771E-02  0.1076191E+00
         21   -1    0    0  502  501  0.00000000000E+00  0.00000000000E+00  0.71257102966E+03  0.71257102966E+03  0.00000000000E+00 0. -1.
         21   -1    0    0  501  502 -0.00000000000E+00 -0.00000000000E+00 -0.14265235025E+03  0.14265235025E+03  0.00000000000E+00 0. -1.
         25    1    1    2    0    0  0.18724095333E+02  0.64484796455E+02  0.61118232905E+02  0.15449698739E+03  0.12500000000E+03 0.  0.
         25    1    1    2    0    0  0.11982498815E+03  0.82039971750E+02  0.39190292266E+03  0.43623558491E+03  0.12500000000E+03 0.  0.
         25    1    1    2    0    0 -0.13854908348E+03 -0.14652476821E+03  0.11689752384E+03  0.26449080761E+03  0.12500000000E+03 0.  0.
</event>
<event>
 5    0  0.5764392E-005  0.1981991E+03  0.7546771E-02  0.1151267E+00
         21   -1    0    0  502  501  0.00000000000E+00  0.00000000000E+00  0.17750959496E+03  0.17750959496E+03  0.00000000000E+00 0. -1.
         21   -1    0    0  501  502 -0.00000000000E+00 -0.00000000000E+00 -0.22130014065E+03  0.22130014065E+03  0.00000000000E+00 0. -1.
         25    1    1    2    0    0 -0.14737312733E+02  0.78300869035E+01 -0.10665149814E+02  0.12655925121E+03  0.12500000000E+03 0.  0.
         25    1    1    2    0    0 -0.14220370420E+02 -0.19910246442E+02 -0.59688095087E+02  0.14066380325E+03  0.12500000000E+03 0.  0.
         25    1    1    2    0    0  0.28957683153E+02  0.12080159539E+02  0.26562699205E+02  0.13158668115E+03  0.12500000000E+03 0.  0.
</event>
<event>
 5    0  0.5764392E-005  0.4426363E+03  0.7546771E-02  0.1029941E+00
         21   -1    0    0  502  501  0.00000000000E+00  0.00000000000E+00  0.47544588756E+03  0.47544588756E+03  0.00000000000E+00 0. -1.
         21   -1    0    0  501  502 -0.00000000000E+00 -0.00000000000E+00 -0.41209086667E+03  0.41209086667E+03  0.00000000000E+00 0. -1.
         25    1    1    2    0    0 -0.42769112345E+02  0.25122914805E+03  0.25689214003E+03  0.38283658839E+03  0.12500000000E+03 0.  0.
         25    1    1    2    0    0 -0.10754879900E+03 -0.18325319510E+03 -0.46656939390E+02  0.25089907866E+03  0.12500000000E+03 0.  0.
         25    1    1    2    0    0  0.15031791134E+03 -0.67975952949E+02 -0.14688017975E+03  0.25380108718E+03  0.12500000000E+03 0.  0.
</event>
<event>
 5    0  0.5764392E-005  0.2039493E+03  0.7546771E-02  0.1146449E+00
         21   -1    0    0  502  501  0.00000000000E+00  0.00000000000E+00  0.87431029107E+03  0.87431029107E+03  0.00000000000E+00 0. -1.
         21   -1    0    0  501  502 -0.00000000000E+00 -0.00000000000E+00 -0.47574982547E+02  0.47574982547E+02  0.00000000000E+00 0. -1.
         25    1    1    2    0    0  0.24565756353E+02  0.51427767232E+01  0.15278599351E+03  0.19899367918E+03  0.12500000000E+03 0.  0.
         25    1    1    2    0    0  0.89672373221E+01  0.16613482608E+02  0.26936413822E+03  0.29755412635E+03  0.12500000000E+03 0.  0.
         25    1    1    2    0    0 -0.33532993675E+02 -0.21756259331E+02  0.40458517679E+03  0.42533746809E+03  0.12500000000E+03 0.  0.
</event>
<event>
 5    0  0.5764392E-005  0.4143182E+03  0.7546771E-02  0.1038932E+00
         21   -1    0    0  502  501  0.00000000000E+00  0.00000000000E+00  0.50811597267E+03  0.50811597267E+03  0.00000000000E+00 0.  1.
         21   -1    0    0  501  502 -0.00000000000E+00 -0.00000000000E+00 -0.33783541176E+03  0.33783541176E+03  0.00000000000E+00 0.  1.
         25    1    1    2    0    0  0.13062275733E+03 -0.11095839135E+03 -0.19303378812E+03  0.28681198144E+03  0.12500000000E+03 0.  0.
         25    1    1    2    0    0  0.75338713285E+02 -0.21291310964E+02  0.15752057596E+03  0.21579382172E+03  0.12500000000E+03 0.  0.
         25    1    1    2    0    0 -0.20596147062E+03  0.13224970231E+03  0.20579377307E+03  0.34334558127E+03  0.12500000000E+03 0.  0.
</event>
<event>
 5    0  0.5764392E-005  0.2493106E+03  0.7546771E-02  0.1113741E+00
         21   -1    0    0  502  501  0.00000000000E+00  0.00000000000E+00  0.51021347994E+03  0.51021347994E+03  0.00000000000E+00 0.  1.
         21   -1    0    0  501  502 -0.00000000000E+00 -0.00000000000E+00 -0.12182312050E+03  0.12182312050E+03  0.00000000000E+00 0.  1.
         25    1    1    2    0    0 -0.27142357885E+02 -0.14120705336E+03  0.20754607977E+03  0.28173837995E+03  0.12500000000E+03 0.  0.
         25    1    1    2    0    0 -0.95830614338E+01  0.32042549060E+02  0.89526708790E+02  0.15734863076E+03  0.12500000000E+03 0.  0.
         25    1    1    2    0    0  0.36725419319E+02  0.10916450430E+03  0.91317570882E+02  0.19294958972E+03  0.12500000000E+03 0.  0.
</event>
<event>
 5    0  0.5764392E-005  0.2956891E+03  0.7546771E-02  0.1087416E+00
         21   -1    0    0  502  501  0.00000000000E+00  0.00000000000E+00  0.56748225574E+03  0.56748225574E+03  0.00000000000E+00 0.  1.
         21   -1    0    0  501  502 -0.00000000000E+00 -0.00000000000E+00 -0.15407011296E+03  0.15407011296E+03  0.00000000000E+00 0.  1.
         25    1    1    2    0    0 -0.32876831133E+02 -0.32228415732E+02  0.15896014921E+03  0.20739548173E+03  0.12500000000E+03 0.  0.
         25    1    1    2    0    0 -0.12267018125E+03  0.31351145879E+02  0.25938873919E+03  0.31454472772E+03  0.12500000000E+03 0.  0.
         25    1    1    2    0    0  0.15554701238E+03  0.87726985247E+00 -0.49367456269E+01  0.19961215925E+03  0.12500000000E+03 0.  0.
</event>
<event>
 5    0  0.5764392E-005  0.2919971E+03  0.7546771E-02  0.1089311E+00
         21   -1    0    0  502  501  0.00000000000E+00  0.00000000000E+00  0.47441322024E+03  0.47441322024E+03  0.00000000000E+00 0.  1.
         21   -1    0    0  501  502 -0.00000000000E+00 -0.00000000000E+00 -0.17972154788E+03  0.17972154788E+03  0.00000000000E+00 0.  1.
         25    1    1    2    0    0 -0.98298136515E+01 -0.13692346112E+02 -0.56634592284E+02  0.13826273041E+03  0.12500000000E+03 0.  0.
         25    1    1    2    0    0 -0.11316920543E+03 -0.49132365314E+02  0.24478958873E+03  0.30127761472E+03  0.12500000000E+03 0.  0.
         25    1    1    2    0    0  0.12299901908E+03  0.62824711426E+02  0.10653667592E+03  0.21459442299E+03  0.12500000000E+03 0.  0.
</event>
<event>
 5    0  0.5764392E-005  0.3993783E+03  0.7546771E-02  0.1043995E+00
         21   -1    0    0  502  501  0.00000000000E+00  0.00000000000E+00  0.18162927902E+04  0.18162927902E+04  0.00000000000E+00 0.  1.
         21   -1    0    0  501  502 -0.00000000000E+00 -0.00000000000E+00 -0.87817907591E+02  0.87817907591E+02  0.00000000000E+00 0.  1.
         25    1    1    2    0    0  0.24069152633E+03  0.13091536783E+03  0.93593011286E+03  0.98318941234E+03  0.12500000000E+03 0.  0.
         25    1    1    2    0    0 -0.67555733388E+02 -0.17668377656E+02  0.70707455573E+02  0.15968873772E+03  0.12500000000E+03 0.  0.
         25    1    1    2    0    0 -0.17313579294E+03 -0.11324699017E+03  0.72183731420E+03  0.76123254775E+03  0.12500000000E+03 0.  0.
</event>
<event>
 5    0  0.5764392E-005  0.3731603E+03  0.7546771E-02  0.1053491E+00
         21   -1    0    0  502  501  0.00000000000E+00  0.00000000000E+00  0.68436516243E+03  0.68436516243E+03  0.00000000000E+00 0. -1.
         21   -1    0    0  501  502 -0.00000000000E+00 -0.00000000000E+00 -0.20347119639E+03  0.20347119639E+03  0.00000000000E+00 0. -1.
         25    1    1    2    0    0 -0.19570092782E+03  0.21943665079E+01  0.10910007164E+03  0.25657648767E+03  0.12500000000E+03 0.  0.
         25    1    1    2    0    0  0.26153925275E+03 -0.26054538130E+02  0.39021606936E+03  0.48680098651E+03  0.12500000000E+03 0.  0.
         25    1    1    2    0    0 -0.65838324931E+02  0.23860171622E+02 -0.18422174957E+02  0.14445888463E+03  0.12500000000E+03 0.  0.
</event>
<event>
 5    0  0.5764392E-005  0.4300197E+03  0.7546771E-02  0.1033854E+00
         21   -1    0    0  502  501  0.00000000000E+00  0.00000000000E+00  0.32125551540E+03  0.32125551540E+03  0.00000000000E+00 0. -1.
         21   -1    0    0  501  502 -0.00000000000E+00 -0.00000000000E+00 -0.57560710001E+03  0.57560710001E+03  0.00000000000E+00 0. -1.
         25    1    1    2    0    0 -0.88661839806E+02  0.33952455932E+02 -0.13919526118E+03  0.20979516638E+03  0.12500000000E+03 0.  0.
         25    1    1    2    0    0  0.50204983024E+02 -0.25342645434E+03  0.14576084044E+03  0.32189552759E+03  0.12500000000E+03 0.  0.
         25    1    1    2    0    0  0.38456856782E+02  0.21947399841E+03 -0.26091716386E+03  0.36517192144E+03  0.12500000000E+03 0.  0.
</event>
<event>
 5    0  0.5881876E-005  0.3159566E+03  0.7546771E-02  0.1077525E+00
         21   -1    0    0  502  501  0.00000000000E+00  0.00000000000E+00  0.35816169730E+03  0.35816169730E+03  0.00000000000E+00 0. -1.
         21   -1    0    0  501  502 -0.00000000000E+00 -0.00000000000E+00 -0.27872485596E+03  0.27872485596E+03  0.00000000000E+00 0. -1.
         25    1    1    2    0    0  0.26586801783E+02 -0.31570076367E+02  0.10051711015E+03  0.16562674054E+03  0.12500000000E+03 0.  0.
         25    1    1    2    0    0  0.13781161847E+03  0.76654690275E+02  0.10309286172E+03  0.22609980510E+03  0.12500000000E+03 0.  0.
         25    1    1    2    0    0 -0.16439842026E+03 -0.45084613909E+02 -0.12417313052E+03  0.24516000762E+03  0.12500000000E+03 0.  0.
</event>
<event>
 5    0  0.5764392E-005  0.2674445E+03  0.7546771E-02  0.1102751E+00
         21   -1    0    0  502  501  0.00000000000E+00  0.00000000000E+00  0.16299547685E+04  0.16299547685E+04  0.00000000000E+00 0. -1.
         21   -1    0    0  501  502 -0.00000000000E+00 -0.00000000000E+00 -0.43882545884E+02  0.43882545884E+02  0.00000000000E+00 0. -1.
         25    1    1    2    0    0 -0.91977478149E+02 -0.56397170131E+02  0.38398021091E+03  0.41797882680E+03  0.12500000000E+03 0.  0.
         25    1    1    2    0    0  0.80209398117E+02  0.40552390506E+02  0.10342960819E+04  0.10456918422E+04  0.12500000000E+03 0.  0.
         25    1    1    2    0    0  0.11768080032E+02  0.15844779625E+02  0.16779592981E+03  0.21016664533E+03  0.12500000000E+03 0.  0.
</event>
<event>
 5    0  0.6450954E-005  0.2533428E+03  0.7546771E-02  0.1111210E+00
         21   -1    0    0  502  501  0.00000000000E+00  0.00000000000E+00  0.24942591936E+03  0.24942591936E+03  0.00000000000E+00 0. -1.
         21   -1    0    0  501  502 -0.00000000000E+00 -0.00000000000E+00 -0.25732110289E+03  0.25732110289E+03  0.00000000000E+00 0. -1.
         25    1    1    2    0    0 -0.99939889918E+02 -0.59911386346E+02  0.85085046112E+02  0.19089740931E+03  0.12500000000E+03 0.  0.
         25    1    1    2    0    0 -0.15065796130E+02  0.24237118308E+02 -0.42984719507E+02  0.13522981265E+03  0.12500000000E+03 0.  0.
         25    1    1    2    0    0  0.11500568605E+03  0.35674268037E+02 -0.49995510134E+02  0.18061980029E+03  0.12500000000E+03 0.  0.
</event>
<event>
 5    0  0.5764392E-005  0.3012861E+03  0.7546771E-02  0.1084599E+00
         21   -1    0    0  502  501  0.00000000000E+00  0.00000000000E+00  0.25805137886E+03  0.25805137886E+03  0.00000000000E+00 0. -1.
         21   -1    0    0  501  502 -0.00000000000E+00 -0.00000000000E+00 -0.35176444220E+03  0.35176444220E+03  0.00000000000E+00 0. -1.
         25    1    1    2    0    0  0.18706779021E+02 -0.91085437762E+02  0.11958235004E+03  0.19639612775E+03  0.12500000000E+03 0.  0.
         25    1    1    2    0    0  0.66775775705E+02 -0.67837454298E+01 -0.10811390705E+02  0.14229163571E+03  0.12500000000E+03 0.  0.
         25    1    1    2    0    0 -0.85482554727E+02  0.97869183192E+02 -0.20248402268E+03  0.27112805761E+03  0.12500000000E+03 0.  0.
</event>
<event>
 5    0  0.5764392E-005  0.3432575E+03  0.7546771E-02  0.1065417E+00
         21   -1    0    0  502  501  0.00000000000E+00  0.00000000000E+00  0.18329419419E+03  0.18329419419E+03  0.00000000000E+00 0. -1.
         21   -1    0    0  501  502 -0.00000000000E+00 -0.00000000000E+00 -0.64282288603E+03  0.64282288603E+03  0.00000000000E+00 0. -1.
         25    1    1    2    0    0  0.39627239356E+02 -0.10639317548E+02  0.72643577291E+02  0.15028507078E+03  0.12500000000E+03 0.  0.
         25    1    1    2    0    0 -0.26101361059E+02  0.11289908459E+03 -0.47388124678E+03  0.50360293923E+03  0.12500000000E+03 0.  0.
         25    1    1    2    0    0 -0.13525878296E+02 -0.10225976705E+03 -0.58291022352E+02  0.17222907021E+03  0.12500000000E+03 0.  0.
</event>
<event>
 5    0  0.5764392E-005  0.2909780E+03  0.7546771E-02  0.1089840E+00
         21   -1    0    0  502  501  0.00000000000E+00  0.00000000000E+00  0.52140918710E+03  0.52140918710E+03  0.00000000000E+00 0. -1.
         21   -1    0    0  501  502 -0.00000000000E+00 -0.00000000000E+00 -0.16238341756E+03  0.16238341756E+03  0.00000000000E+00 0. -1.
         25    1    1    2    0    0 -0.26802990288E+02  0.77555157493E+02  0.13284032039E+03  0.20001188331E+03  0.12500000000E+03 0.  0.
         25    1    1    2    0    0 -0.75421951752E+02 -0.14241476309E+03  0.23297324388E+03  0.30963198788E+03  0.12500000000E+03 0.  0.
         25    1    1    2    0    0  0.10222494204E+03  0.64859605594E+02 -0.67877947322E+01  0.17414873347E+03  0.12500000000E+03 0.  0.
</event>
<event>
 5    0  0.5764392E-005  0.3029609E+03  0.7546771E-02  0.1083770E+00
         21   -1    0    0  502  501  0.00000000000E+00  0.00000000000E+00  0.10192400908E+04  0.10192400908E+04  0.00000000000E+00 0.  1.
         21   -1    0    0  501  502 -0.00000000000E+00 -0.00000000000E+00 -0.90052667050E+02  0.90052667050E+02  0.00000000000E+00 0.  1.
         25    1    1    2    0    0  0.14733959779E+03  0.14803024506E+03  0.38235115477E+03  0.45325414072E+03  0.12500000000E+03 0.  0.
         25    1    1    2    0    0 -0.45496155977E+02 -0.14124377778E+03  0.36160014007E+03  0.41036491842E+03  0.12500000000E+03 0.  0.
         25    1    1    2    0    0 -0.10184344181E+03 -0.67864672802E+01  0.18523612887E+03  0.24567369867E+03  0.12500000000E+03 0.  0.
</event>
<event>
 5    0  0.5764392E-005  0.2126336E+03  0.7546771E-02  0.1139497E+00
         21   -1    0    0  502  501  0.00000000000E+00  0.00000000000E+00  0.19246996017E+03  0.19246996017E+03  0.00000000000E+00 0. -1.
         21   -1    0    0  501  502 -0.00000000000E+00 -0.00000000000E+00 -0.23490965068E+03  0.23490965068E+03  0.00000000000E+00 0. -1.
         25    1    1    2    0    0  0.33589723062E+02 -0.70737693196E+02 -0.46079487370E+02  0.15453287641E+03  0.12500000000E+03 0.  0.
         25    1    1    2    0    0  0.22615989489E+01  0.68609243161E+02 -0.27088350725E+01  0.14263478140E+03  0.12500000000E+03 0.  0.
         25    1    1    2    0    0 -0.35851322011E+02  0.21284500351E+01  0.63486319309E+01  0.13021195305E+03  0.12500000000E+03 0.  0.
</event>
<event>
 5    0  0.5764392E-005  0.2775834E+03  0.7546771E-02  0.1097016E+00
         21   -1    0    0  502  501  0.00000000000E+00  0.00000000000E+00  0.51933632919E+02  0.51933632919E+02  0.00000000000E+00 0. -1.
         21   -1    0    0  501  502 -0.00000000000E+00 -0.00000000000E+00 -0.14836735741E+04  0.14836735741E+04  0.00000000000E+00 0. -1.
         25    1    1    2    0    0  0.67957641849E+01 -0.21134082582E+02 -0.84307546120E+03  0.85258082616E+03  0.12500000000E+03 0.  0.
         25    1    1    2    0    0 -0.12016196745E+02 -0.56709455829E+02 -0.48150403849E+03  0.50083080022E+03  0.12500000000E+03 0.  0.
         25    1    1    2    0    0  0.52204325599E+01  0.77843538411E+02 -0.10716044152E+03  0.18219558067E+03  0.12500000000E+03 0.  0.
</event>
<event>
 5    0  0.5764392E-005  0.2519131E+03  0.7546771E-02  0.1112102E+00
         21   -1    0    0  502  501  0.00000000000E+00  0.00000000000E+00  0.76483500928E+02  0.76483500928E+02  0.00000000000E+00 0. -1.
         21   -1    0    0  501  502 -0.00000000000E+00 -0.00000000000E+00 -0.82972448635E+03  0.82972448635E+03  0.00000000000E+00 0. -1.
         25    1    1    2    0    0 -0.40234829412E+02  0.41427912363E+02 -0.67270421539E+02  0.15324954497E+03  0.12500000000E+03 0.  0.
         25    1    1    2    0    0  0.36747834509E+02  0.34297947935E+02 -0.49172084997E+03  0.50984423785E+03  0.12500000000E+03 0.  0.
         25    1    1    2    0    0  0.34869949030E+01 -0.75725860298E+02 -0.19424971390E+03  0.24311420445E+03  0.12500000000E+03 0.  0.
</event>
<event>
 5    0  0.5764392E-005  0.2714062E+03  0.7546771E-02  0.1100478E+00
         21   -1    0    0  502  501  0.00000000000E+00  0.00000000000E+00  0.88229649496E+02  0.88229649496E+02  0.00000000000E+00 0.  1.
         21   -1    0    0  501  502 -0.00000000000E+00 -0.00000000000E+00 -0.83488146893E+03  0.83488146893E+03  0.00000000000E+00 0.  1.
         25    1    1    2    0    0  0.83394270269E+02  0.53032133994E+02 -0.46369633722E+03  0.49031245620E+03  0.12500000000E+03 0.  0.
         25    1    1    2    0    0 -0.10000900042E+03 -0.10406107553E+03 -0.17723693088E+03  0.26051571406E+03  0.12500000000E+03 0.  0.
         25    1    1    2    0    0  0.16614730151E+02  0.51028941540E+02 -0.10571855134E+03  0.17228294817E+03  0.12500000000E+03 0.  0.
</event>
<event>
 5    0  0.5764392E-005  0.3031858E+03  0.7546771E-02  0.1083659E+00
         21   -1    0    0  502  501  0.00000000000E+00  0.00000000000E+00  0.45112138659E+03  0.45112138659E+03  0.00000000000E+00 0.  1.
         21   -1    0    0  501  502 -0.00000000000E+00 -0.00000000000E+00 -0.20376253180E+03  0.20376253180E+03  0.00000000000E+00 0.  1.
         25    1    1    2    0    0  0.13139941241E+02 -0.20982553795E+03  0.19962292614E+03  0.31571146174E+03  0.12500000000E+03 0.  0.
         25    1    1    2    0    0  0.23875222698E+02  0.94953805908E+02 -0.74079214281E+00  0.15878224173E+03  0.12500000000E+03 0.  0.
         25    1    1    2    0    0 -0.37015163939E+02  0.11487173204E+03  0.48476720798E+02  0.18039021493E+03  0.12500000000E+03 0.  0.
</event>
<event>
 5    0  0.5764392E-005  0.3098560E+03  0.7546771E-02  0.1080415E+00
         21   -1    0    0  502  501  0.00000000000E+00  0.00000000000E+00  0.18018568277E+03  0.18018568277E+03  0.00000000000E+00 0.  1.
         21   -1    0    0  501  502 -0.00000000000E+00 -0.00000000000E+00 -0.53284346314E+03  0.53284346314E+03  0.00000000000E+00 0.  1.
         25    1    1    2    0    0  0.36615703789E+02 -0.12868606773E+03 -0.14795126921E+03  0.23540474051E+03  0.12500000000E+03 0.  0.
         25    1    1    2    0    0  0.14282778069E+03  0.58426504429E+02 -0.65883921983E+02  0.20923461122E+03  0.12500000000E+03 0.  0.
         25    1    1    2    0    0 -0.17944348448E+03  0.70259563305E+02 -0.13882258917E+03  0.26838979419E+03  0.12500000000E+03 0.  0.
</event>
<event>
 5    0  0.5955487E-005  0.2777676E+03  0.7546771E-02  0.1096915E+00
         21   -1    0    0  502  501  0.00000000000E+00  0.00000000000E+00  0.15216832998E+03  0.15216832998E+03  0.00000000000E+00 0. -1.
         21   -1    0    0  501  502 -0.00000000000E+00 -0.00000000000E+00 -0.50703618979E+03  0.50703618979E+03  0.00000000000E+00 0. -1.
         25    1    1    2    0    0  0.53326869209E+02  0.71422837030E+02 -0.33225146461E+03  0.36600684743E+03  0.12500000000E+03 0.  0.
         25    1    1    2    0    0 -0.63238134494E+02  0.57609701368E+01 -0.37698218932E+02  0.14518404231E+03  0.12500000000E+03 0.  0.
         25    1    1    2    0    0  0.99112652846E+01 -0.77183807167E+02  0.15081823729E+02  0.14801363003E+03  0.12500000000E+03 0.  0.
</event>
<event>
 5    0  0.5764392E-005  0.4590450E+03  0.7546771E-02  0.1025059E+00
         21   -1    0    0  502  501  0.00000000000E+00  0.00000000000E+00  0.76071081486E+03  0.76071081486E+03  0.00000000000E+00 0. -1.
         21   -1    0    0  501  502 -0.00000000000E+00 -0.00000000000E+00 -0.27700711128E+03  0.27700711128E+03  0.00000000000E+00 0. -1.
         25    1    1    2    0    0  0.37868401319E+03  0.20969868433E+02  0.19912188745E+03  0.44622398332E+03  0.12500000000E+03 0.  0.
         25    1    1    2    0    0 -0.27710055115E+03 -0.12066866071E+03  0.20517936354E+03  0.38609482300E+03  0.12500000000E+03 0.  0.
         25    1    1    2    0    0 -0.10158346204E+03  0.99698792277E+02  0.79402452583E+02  0.20539911981E+03  0.12500000000E+03 0.  0.
</event>
<event>
 5    0  0.5764392E-005  0.3576689E+03  0.7546771E-02  0.1059511E+00
         21   -1    0    0  502  501  0.00000000000E+00  0.00000000000E+00  0.46125328941E+03  0.46125328941E+03  0.00000000000E+00 0. -1.
         21   -1    0    0  501  502 -0.00000000000E+00 -0.00000000000E+00 -0.27734665599E+03  0.27734665599E+03  0.00000000000E+00 0. -1.
         25    1    1    2    0    0 -0.13235429098E+03 -0.96625300039E+02  0.13651574218E+03  0.24721580615E+03  0.12500000000E+03 0.  0.
         25    1    1    2    0    0 -0.94689741145E+02 -0.51138539978E+02 -0.58195842952E+02  0.17490870043E+03  0.12500000000E+03 0.  0.
         25    1    1    2    0    0  0.22704403213E+03  0.14776384002E+03  0.10558673418E+03  0.31647543882E+03  0.12500000000E+03 0.  0.
</event>
<event>
 5    0  0.5764392E-005  0.2525709E+03  0.7546771E-02  0.1111691E+00
         21   -1    0    0  502  501  0.00000000000E+00  0.00000000000E+00  0.57368049671E+02  0.57368049671E+02  0.00000000000E+00 0. -1.
         21   -1    0    0  501  502 -0.00000000000E+00 -0.00000000000E+00 -0.11119790367E+04  0.11119790367E+04  0.00000000000E+00 0. -1.
         25    1    1    2    0    0 -0.10464462533E+03  0.36495446316E+02 -0.17199421803E+03  0.23976952736E+03  0.12500000000E+03 0.  0.
         25    1    1    2    0    0  0.90042535998E+02 -0.56884319321E+02 -0.50085121700E+03  0.52708673446E+03  0.12500000000E+03 0.  0.
         25    1    1    2    0    0  0.14602089336E+02  0.20388873005E+02 -0.38176555196E+03  0.40249082451E+03  0.12500000000E+03 0.  0.
</event>
<event>
 5    0  0.5764392E-005  0.5310624E+03  0.7546771E-02  0.1005975E+00
         21   -1    0    0  502  501  0.00000000000E+00  0.00000000000E+00  0.39687978564E+03  0.39687978564E+03  0.00000000000E+00 0.  1.
         21   -1    0    0  501  502 -0.00000000000E+00 -0.00000000000E+00 -0.71061133391E+03  0.71061133391E+03  0.00000000000E+00 0.  1.
         25    1    1    2    0    0 -0.63388788950E+02 -0.11574832473E+02 -0.62269983891E+01  0.14076892704E+03  0.12500000000E+03 0.  0.
         25    1    1    2    0    0 -0.19905351624E+03 -0.33223682427E+03 -0.31782540577E+03  0.51637350656E+03  0.12500000000E+03 0.  0.
         25    1    1    2    0    0  0.26244230519E+03  0.34381165674E+03  0.10320855888E+02  0.45034868594E+03  0.12500000000E+03 0.  0.
</event>
<event>
 5    0  0.5764392E-005  0.3006750E+03  0.7546771E-02  0.1084904E+00
         21   -1    0    0  502  501  0.00000000000E+00  0.00000000000E+00  0.36688714602E+03  0.36688714602E+03  0.00000000000E+00 0.  1.
         21   -1    0    0  501  502 -0.00000000000E+00 -0.00000000000E+00 -0.24641219285E+03  0.24641219285E+03  0.00000000000E+00 0.  1.
         25    1    1    2    0    0  0.47577456098E+02  0.17678875955E+02  0.95411824158E+02  0.16524095489E+03  0.12500000000E+03 0.  0.
         25    1    1    2    0    0  0.32416483374E+02 -0.10524608666E+03  0.15863368839E+03  0.23003741922E+03  0.12500000000E+03 0.  0.
         25    1    1    2    0    0 -0.79993939472E+02  0.87567210702E+02 -0.13357055937E+03  0.21802096476E+03  0.12500000000E+03 0.  0.
</event>
<event>
 5    0  0.5764392E-005  0.4320329E+03  0.7546771E-02  0.1033220E+00
         21   -1    0    0  502  501  0.00000000000E+00  0.00000000000E+00  0.69897413884E+03  0.69897413884E+03  0.00000000000E+00 0.  1.
         21   -1    0    0  501  502 -0.00000000000E+00 -0.00000000000E+00 -0.26703763094E+03  0.26703763094E+03  0.00000000000E+00 0.  1.
         25    1    1    2    0    0  0.12487962238E+03 -0.11610328513E+03 -0.17210978731E+03  0.27262001356E+03  0.12500000000E+03 0.  0.
         25    1    1    2    0    0 -0.74416579945E+02 -0.22372192631E+02  0.26588292226E+03  0.30390306139E+03  0.12500000000E+03 0.  0.
         25    1    1    2    0    0 -0.50463042434E+02  0.13847547776E+03  0.33816337295E+03  0.38948869483E+03  0.12500000000E+03 0.  0.
</event>
<event>
 5    0  0.5764392E-005  0.3753841E+03  0.7546771E-02  0.1052653E+00
         21   -1    0    0  502  501  0.00000000000E+00  0.00000000000E+00  0.90753003952E+03  0.90753003952E+03  0.00000000000E+00 0. -1.
         21   -1    0    0  501  502 -0.00000000000E+00 -0.00000000000E+00 -0.15527114982E+03  0.15527114982E+03  0.00000000000E+00 0. -1.
         25    1    1    2    0    0  0.13020151874E+03  0.25644960195E+02  0.33625585997E+03  0.38249588603E+03  0.12500000000E+03 0.  0.
         25    1    1    2    0    0  0.27806684779E+02 -0.20955966940E+03  0.10634031702E+03  0.26762236413E+03  0.12500000000E+03 0.  0.
         25    1    1    2    0    0 -0.15800820352E+03  0.18391470921E+03  0.30966271273E+03  0.41268293918E+03  0.12500000000E+03 0.  0.
</event>
<event>
 5    0  0.5764392E-005  0.2906611E+03  0.7546771E-02  0.1090004E+00
         21   -1    0    0  502  501  0.00000000000E+00  0.00000000000E+00  0.17749645601E+03  0.17749645601E+03  0.00000000000E+00 0. -1.
         21   -1    0    0  501  502 -0.00000000000E+00 -0.00000000000E+00 -0.47597508919E+03  0.47597508919E+03  0.00000000000E+00 0. -1.
         25    1    1    2    0    0 -0.87891916539E+02 -0.30513524809E+02  0.21589446634E+02  0.15731232754E+03  0.12500000000E+03 0.  0.
         25    1    1    2    0    0  0.16507614049E+03  0.60270473975E+02 -0.25157939969E+03  0.33136061404E+03  0.12500000000E+03 0.  0.
         25    1    1    2    0    0 -0.77184223948E+02 -0.29756949167E+02 -0.68488680124E+02  0.16479860362E+03  0.12500000000E+03 0.  0.
</event>
<event>
 5    0  0.5764392E-005  0.3824766E+03  0.7546771E-02  0.1050022E+00
         21   -1    0    0  502  501  0.00000000000E+00  0.00000000000E+00  0.52169653487E+03  0.52169653487E+03  0.00000000000E+00 0.  1.
         21   -1    0    0  501  502 -0.00000000000E+00 -0.00000000000E+00 -0.28040884946E+03  0.28040884946E+03  0.00000000000E+00 0.  1.
         25    1    1    2    0    0  0.70144910855E+02  0.12784660120E+03  0.25584102229E+03  0.31991356746E+03  0.12500000000E+03 0.  0.
         25    1    1    2    0    0  0.30227430144E+02  0.11485144118E+03  0.58884120260E+02  0.18220013912E+03  0.12500000000E+03 0.  0.
         25    1    1    2    0    0 -0.10037234100E+03 -0.24269804238E+03 -0.73437457140E+02  0.29999167776E+03  0.12500000000E+03 0.  0.
</event>
<event>
 5    0  0.5764392E-005  0.2790828E+03  0.7546771E-02  0.1096191E+00
         21   -1    0    0  502  501  0.00000000000E+00  0.00000000000E+00  0.66146636982E+03  0.66146636982E+03  0.00000000000E+00 0. -1.
         21   -1    0    0  501  502 -0.00000000000E+00 -0.00000000000E+00 -0.11774928271E+03  0.11774928271E+03  0.00000000000E+00 0. -1.
         25    1    1    2    0    0  0.47424130817E+02  0.33261428076E+02 -0.25193450820E+02  0.14005384945E+03  0.12500000000E+03 0.  0.
         25    1    1    2    0    0  0.49005931571E+01  0.41041659704E+02  0.32197825045E+03  0.34785546914E+03  0.12500000000E+03 0.  0.
         25    1    1    2    0    0 -0.52324723974E+02 -0.74303087779E+02  0.24693228748E+03  0.29130633394E+03  0.12500000000E+03 0.  0.
</event>
<event>
 5    0  0.5764392E-005  0.4733566E+03  0.7546771E-02  0.1020977E+00
         21   -1    0    0  502  501  0.00000000000E+00  0.00000000000E+00  0.61947694629E+03  0.61947694629E+03  0.00000000000E+00 0. -1.
         21   -1    0    0  501  502 -0.00000000000E+00 -0.00000000000E+00 -0.36170261012E+03  0.36170261012E+03  0.00000000000E+00 0. -1.
         25    1    1    2    0    0  0.16147975950E+03  0.16449607161E+03  0.27978783487E+03  0.38345912800E+03  0.12500000000E+03 0.  0.
         25    1    1    2    0    0 -0.14065302920E+03 -0.19826333295E+03 -0.22636596565E+03  0.35490586670E+03  0.12500000000E+03 0.  0.
         25    1    1    2    0    0 -0.20826730298E+02  0.33767261335E+02  0.20435246695E+03  0.24281456172E+03  0.12500000000E+03 0.  0.
</event>
<event>
 5    0  0.5764392E-005  0.4418113E+03  0.7546771E-02  0.1030193E+00
         21   -1    0    0  502  501  0.00000000000E+00  0.00000000000E+00  0.23572283546E+03  0.23572283546E+03  0.00000000000E+00 0. -1.
         21   -1    0    0  501  502 -0.00000000000E+00 -0.00000000000E+00 -0.82807941142E+03  0.82807941142E+03  0.00000000000E+00 0. -1.
         25    1    1    2    0    0  0.68006595780E+02  0.25434193271E+02  0.34727491701E+01  0.14459894621E+03  0.12500000000E+03 0.  0.
         25    1    1    2    0    0 -0.16946157057E+03 -0.29998769127E+03 -0.41289679607E+03  0.55210379732E+03  0.12500000000E+03 0.  0.
         25    1    1    2    0    0  0.10145497479E+03  0.27455349800E+03 -0.18293252906E+03  0.36709950336E+03  0.12500000000E+03 0.  0.
</event>
<event>
 5    0  0.5764392E-005  0.2586258E+03  0.7546771E-02  0.1107972E+00
         21   -1    0    0  502  501  0.00000000000E+00  0.00000000000E+00  0.30929350335E+03  0.30929350335E+03  0.00000000000E+00 0.  1.
         21   -1    0    0  501  502 -0.00000000000E+00 -0.00000000000E+00 -0.21625833766E+03  0.21625833766E+03  0.00000000000E+00 0.  1.
         25    1    1    2    0    0  0.89615854301E+02 -0.31594929381E+02 -0.31250035636E+02  0.16009623866E+03  0.12500000000E+03 0.  0.
         25    1    1    2    0    0 -0.14774936846E+02  0.46945211762E+02 -0.44912466137E+02  0.14164844256E+03  0.12500000000E+03 0.  0.
         25    1    1    2    0    0 -0.74840917455E+02 -0.15350282382E+02  0.16919766747E+03  0.22380715978E+03  0.12500000000E+03 0.  0.
</event>
<event>
 5    0  0.5764392E-005  0.4515461E+03  0.7546771E-02  0.1027262E+00
         21   -1    0    0  502  501  0.00000000000E+00  0.00000000000E+00  0.14712593829E+03  0.14712593829E+03  0.00000000000E+00 0.  1.
         21   -1    0    0  501  502 -0.00000000000E+00 -0.00000000000E+00 -0.13858460273E+04  0.13858460273E+04  0.00000000000E+00 0.  1.
         25    1    1    2    0    0 -0.24396411293E+03 -0.26844465174E+03 -0.73380967844E+03  0.82805957733E+03  0.12500000000E+03 0.  0.
         25    1    1    2    0    0  0.24853504473E+01  0.77154504079E+02 -0.86455978907E+02  0.17046592256E+03  0.12500000000E+03 0.  0.
         25    1    1    2    0    0  0.24147876248E+03  0.19129014766E+03 -0.41845443170E+03  0.53444646573E+03  0.12500000000E+03 0.  0.
</event>
<event>
 5    0  0.5764392E-005  0.2670607E+03  0.7546771E-02  0.1102974E+00
         21   -1    0    0  502  501  0.00000000000E+00  0.00000000000E+00  0.75868858446E+03  0.75868858446E+03  0.00000000000E+00 0.  1.
         21   -1    0    0  501  502 -0.00000000000E+00 -0.00000000000E+00 -0.94006153609E+02  0.94006153609E+02  0.00000000000E+00 0.  1.
         25    1    1    2    0    0  0.22560877641E+02  0.33576806248E+02  0.20829682072E+03  0.24627009693E+03  0.12500000000E+03 0.  0.
         25    1    1    2    0    0 -0.10431656016E+03 -0.39155096133E+02  0.52061027808E+02  0.17535796786E+03  0.12500000000E+03 0.  0.
         25    1    1    2    0    0  0.81755682517E+02  0.55782898846E+01  0.40432458232E+03  0.43106667328E+03  0.12500000000E+03 0.  0.
</event>
<event>
 5    0  0.5764392E-005  0.6845061E+03  0.7546771E-02  0.9744102E-01
         21   -1    0    0  502  501  0.00000000000E+00  0.00000000000E+00  0.23798805958E+03  0.23798805958E+03  0.00000000000E+00 0.  1.
         21   -1    0    0  501  502 -0.00000000000E+00 -0.00000000000E+00 -0.19687904472E+04  0.19687904472E+04  0.00000000000E+00 0.  1.
         25    1    1    2    0    0 -0.42275898921E+02 -0.24578132256E+03 -0.49634699849E+03  0.56936899552E+03  0.12500000000E+03 0.  0.
         25    1    1    2    0    0  0.37422565052E+03 -0.21764376605E+03 -0.76749852930E+03  0.88999586453E+03  0.12500000000E+03 0.  0.
         25    1    1    2    0    0 -0.33194975160E+03  0.46342508861E+03 -0.46695685979E+03  0.74741364668E+03  0.12500000000E+03 0.  0.
</event>
<event>
 5    0  0.5764392E-005  0.3891344E+03  0.7546771E-02  0.1047608E+00
         21   -1    0    0  502  501  0.00000000000E+00  0.00000000000E+00  0.10479321126E+04  0.10479321126E+04  0.00000000000E+00 0. -1.
         21   -1    0    0  501  502 -0.00000000000E+00 -0.00000000000E+00 -0.14449944384E+03  0.14449944384E+03  0.00000000000E+00 0. -1.
         25    1    1    2    0    0 -0.17291683178E+03  0.29467738323E+02  0.58972029977E+00  0.21539249311E+03  0.12500000000E+03 0.  0.
         25    1    1    2    0    0  0.12669099412E+03  0.54602907023E+02  0.67367764464E+03  0.69892678754E+03  0.12500000000E+03 0.  0.
         25    1    1    2    0    0  0.46225837665E+02 -0.84070645347E+02  0.22916530382E+03  0.27811227580E+03  0.12500000000E+03 0.  0.
</event>
<event>
 5    0  0.5764392E-005  0.4558138E+03  0.7546771E-02  0.1026002E+00
         21   -1    0    0  502  501  0.00000000000E+00  0.00000000000E+00  0.11899590866E+04  0.11899590866E+04  0.00000000000E+00 0. -1.
         21   -1    0    0  501  502 -0.00000000000E+00 -0.00000000000E+00 -0.17459947503E+03  0.17459947503E+03  0.00000000000E+00 0. -1.
         25    1    1    2    0    0  0.27459618186E+03 -0.24509448080E+03  0.65929934777E+03  0.76535939112E+03  0.12500000000E+03 0.  0.
         25    1    1    2    0    0 -0.28077291868E+02  0.11046217425E+03  0.17007388873E+03  0.23987570507E+03  0.12500000000E+03 0.  0.
         25    1    1    2    0    0 -0.24651888999E+03  0.13463230655E+03  0.18598637503E+03  0.35932346540E+03  0.12500000000E+03 0.  0.
</event>
<event>
 5    0  0.5764392E-005  0.2551865E+03  0.7546771E-02  0.1110070E+00
         21   -1    0    0  502  501  0.00000000000E+00  0.00000000000E+00  0.46966307923E+03  0.46966307923E+03  0.00000000000E+00 0. -1.
         21   -1    0    0  501  502 -0.00000000000E+00 -0.00000000000E+00 -0.13865291915E+03  0.13865291915E+03  0.00000000000E+00 0. -1.
         25    1    1    2    0    0 -0.11690016680E+03 -0.19104338361E+02  0.11124612979E+03  0.20501542902E+03  0.12500000000E+03 0.  0.
         25    1    1    2    0    0  0.74228686051E+02  0.97160697626E+02  0.68343762460E+02  0.18773909785E+03  0.12500000000E+03 0.  0.
         25    1    1    2    0    0  0.42671480747E+02 -0.78056359265E+02  0.15142026783E+03  0.21556147151E+03  0.12500000000E+03 0.  0.
</event>
<event>
 5    0  0.5764392E-005  0.4307730E+03  0.7546771E-02  0.1033616E+00
         21   -1    0    0  502  501  0.00000000000E+00  0.00000000000E+00  0.10234362892E+03  0.10234362892E+03  0.00000000000E+00 0. -1.
         21   -1    0    0  501  502 -0.00000000000E+00 -0.00000000000E+00 -0.18131596946E+04  0.18131596946E+04  0.00000000000E+00 0. -1.
         25    1    1    2    0    0  0.14107657848E+03  0.11816564126E+03 -0.23263433791E+03  0.32188422600E+03  0.12500000000E+03 0.  0.
         25    1    1    2    0    0 -0.14634286273E+03 -0.14531566361E+03 -0.14399567915E+04  0.14600114510E+04  0.12500000000E+03 0.  0.
         25    1    1    2    0    0  0.52662842492E+01  0.27150022346E+02 -0.38224936243E+02  0.13360764654E+03  0.12500000000E+03 0.  0.
</event>
<event>
 5    0  0.5764392E-005  0.2548719E+03  0.7546771E-02  0.1110264E+00
         21   -1    0    0  502  501  0.00000000000E+00  0.00000000000E+00  0.29256204604E+03  0.29256204604E+03  0.00000000000E+00 0.  1.
         21   -1    0    0  501  502 -0.00000000000E+00 -0.00000000000E+00 -0.22203722133E+03  0.22203722133E+03  0.00000000000E+00 0.  1.
         25    1    1    2    0    0  0.30829157003E+02  0.45680201892E+02  0.50596516752E+01  0.13670302792E+03  0.12500000000E+03 0.  0.
         25    1    1    2    0    0  0.30459611082E+02  0.94583587842E+02 -0.23079414428E+02  0.16134281009E+03  0.12500000000E+03 0.  0.
         25    1    1    2    0    0 -0.61288768085E+02 -0.14026378973E+03  0.88544587465E+02  0.21655342937E+03  0.12500000000E+03 0.  0.
</event>
<event>
 5    0  0.5764392E-005  0.3073563E+03  0.7546771E-02  0.1081620E+00
         21   -1    0    0  502  501  0.00000000000E+00  0.00000000000E+00  0.33951670555E+02  0.33951670555E+02  0.00000000000E+00 0.  1.
         21   -1    0    0  501  502 -0.00000000000E+00 -0.00000000000E+00 -0.27824218455E+04  0.27824218455E+04  0.00000000000E+00 0. -1.
         25    1    1    2    0    0  0.18724382199E+03 -0.11560814069E+03 -0.99338879023E+03  0.10251203732E+04  0.12500000000E+03 0.  0.
         25    1    1    2    0    0 -0.41065602946E+02  0.40030850645E+02 -0.47167077928E+03  0.49131169005E+03  0.12500000000E+03 0.  0.
         25    1    1    2    0    0 -0.14617821905E+03  0.75577290048E+02 -0.12834106055E+04  0.12999414528E+04  0.12500000000E+03 0.  0.
</event>
<event>
 5    0  0.5764392E-005  0.6551554E+03  0.7546771E-02  0.9797153E-01
         21   -1    0    0  502  501  0.00000000000E+00  0.00000000000E+00  0.92909233093E+03  0.92909233093E+03  0.00000000000E+00 0. -1.
         21   -1    0    0  501  502 -0.00000000000E+00 -0.00000000000E+00 -0.46198695736E+03  0.46198695736E+03  0.00000000000E+00 0. -1.
         25    1    1    2    0    0  0.30489266480E+02 -0.21990029139E+03  0.45950178072E+03  0.52540709931E+03  0.12500000000E+03 0.  0.
         25    1    1    2    0    0 -0.14608634783E+03 -0.26854035416E+03 -0.82977830856E+02  0.34053702185E+03  0.12500000000E+03 0.  0.
         25    1    1    2    0    0  0.11559708135E+03  0.48844064555E+03  0.90581423706E+02  0.52513516714E+03  0.12500000000E+03 0.  0.
</event>
<event>
 5    0  0.5764392E-005  0.2872766E+03  0.7546771E-02  0.1091780E+00
         21   -1    0    0  502  501  0.00000000000E+00  0.00000000000E+00  0.20784492473E+03  0.20784492473E+03  0.00000000000E+00 0.  1.
         21   -1    0    0  501  502 -0.00000000000E+00 -0.00000000000E+00 -0.39706459525E+03  0.39706459525E+03  0.00000000000E+00 0.  1.
         25    1    1    2    0    0 -0.81588898483E+02 -0.14818413004E+02  0.15456838227E+02  0.15079869883E+03  0.12500000000E+03 0.  0.
         25    1    1    2    0    0  0.18975880091E+03  0.52998341966E+02 -0.14260042940E+03  0.27345403497E+03  0.12500000000E+03 0.  0.
         25    1    1    2    0    0 -0.10816990243E+03 -0.38179928962E+02 -0.62076079347E+02  0.18065678619E+03  0.12500000000E+03 0.  0.
</event>
<event>
 5    0  0.5764392E-005  0.4993157E+03  0.7546771E-02  0.1013958E+00
         21   -1    0    0  502  501  0.00000000000E+00  0.00000000000E+00  0.19697687062E+03  0.19697687062E+03  0.00000000000E+00 0. -1.
         21   -1    0    0  501  502 -0.00000000000E+00 -0.00000000000E+00 -0.12657131388E+04  0.12657131388E+04  0.00000000000E+00 0. -1.
         25    1    1    2    0    0 -0.14374407234E+01  0.40412718698E+03 -0.51234965529E+03  0.66441554676E+03  0.12500000000E+03 0.  0.
         25    1    1    2    0    0  0.14674916308E+03 -0.27090622145E+03 -0.38491397325E+03  0.50863470634E+03  0.12500000000E+03 0.  0.
         25    1    1    2    0    0 -0.14531172236E+03 -0.13322096553E+03 -0.17147263968E+03  0.28963975636E+03  0.12500000000E+03 0.  0.
</event>
<event>
 5    0  0.5764392E-005  0.4004353E+03  0.7546771E-02  0.1043629E+00
         21   -1    0    0  502  501  0.00000000000E+00  0.00000000000E+00  0.13585733066E+03  0.13585733066E+03  0.00000000000E+00 0.  1.
         21   -1    0    0  501  502 -0.00000000000E+00 -0.00000000000E+00 -0.11802707362E+04  0.11802707362E+04  0.00000000000E+00 0.  1.
         25    1    1    2    0    0  0.42949250243E+02  0.12169164266E+03 -0.22196414338E+03  0.28556360926E+03  0.12500000000E+03 0.  0.
         25    1    1    2    0    0 -0.16266016396E+03  0.50411228905E+02 -0.74518301071E+03  0.77454653856E+03  0.12500000000E+03 0.  0.
         25    1    1    2    0    0  0.11971091371E+03 -0.17210287157E+03 -0.77266251481E+02  0.25601791906E+03  0.12500000000E+03 0.  0.
</event>
<event>
 5    0  0.5764392E-005  0.3838049E+03  0.7546771E-02  0.1049536E+00
         21   -1    0    0  502  501  0.00000000000E+00  0.00000000000E+00  0.19563429577E+03  0.19563429577E+03  0.00000000000E+00 0.  1.
         21   -1    0    0  501  502 -0.00000000000E+00 -0.00000000000E+00 -0.75296711516E+03  0.75296711516E+03  0.00000000000E+00 0.  1.
         25    1    1    2    0    0  0.85632429862E+02  0.22887759113E+03 -0.68146885233E+02  0.28281948790E+03  0.12500000000E+03 0.  0.
         25    1    1    2    0    0  0.21525110153E+02 -0.24584555334E+03 -0.23779009981E+03  0.36479103338E+03  0.12500000000E+03 0.  0.
         25    1    1    2    0    0 -0.10715754001E+03  0.16967962210E+02 -0.25139583435E+03  0.30099088965E+03  0.12500000000E+03 0.  0.
</event>
<event>
 5    0  0.5764392E-005  0.3031488E+03  0.7546771E-02  0.1083677E+00
         21   -1    0    0  502  501  0.00000000000E+00  0.00000000000E+00  0.11021992073E+04  0.11021992073E+04  0.00000000000E+00 0. -1.
         21   -1    0    0  501  502 -0.00000000000E+00 -0.00000000000E+00 -0.83378031559E+02  0.83378031559E+02  0.00000000000E+00 0. -1.
         25    1    1    2    0    0 -0.69079843713E+02  0.21938170907E+02  0.40898693898E+03  0.43376102223E+03  0.12500000000E+03 0.  0.
         25    1    1    2    0    0  0.33235611325E+02  0.79112770736E+02  0.55939769038E+03  0.57958106625E+03  0.12500000000E+03 0.  0.
         25    1    1    2    0    0  0.35844232388E+02 -0.10105094164E+03  0.50436546329E+02  0.17223515033E+03  0.12500000000E+03 0.  0.
</event>
<event>
 5    0  0.5764392E-005  0.3026603E+03  0.7546771E-02  0.1083918E+00
         21   -1    0    0  502  501  0.00000000000E+00  0.00000000000E+00  0.37217630015E+03  0.37217630015E+03  0.00000000000E+00 0. -1.
         21   -1    0    0  501  502 -0.00000000000E+00 -0.00000000000E+00 -0.24612872949E+03  0.24612872949E+03  0.00000000000E+00 0. -1.
         25    1    1    2    0    0  0.81674237910E+02 -0.89096090028E+02 -0.87189324115E+02  0.19451419649E+03  0.12500000000E+03 0.  0.
         25    1    1    2    0    0  0.18285188367E+02 -0.33329977075E+02  0.17547990286E+03  0.21877712813E+03  0.12500000000E+03 0.  0.
         25    1    1    2    0    0 -0.99959426277E+02  0.12242606710E+03  0.37756991904E+02  0.20501370502E+03  0.12500000000E+03 0.  0.
</event>
<event>
 5    0  0.5764392E-005  0.3372246E+03  0.7546771E-02  0.1067984E+00
         21   -1    0    0  502  501  0.00000000000E+00  0.00000000000E+00  0.23004937054E+03  0.23004937054E+03  0.00000000000E+00 0.  1.
         21   -1    0    0  501  502 -0.00000000000E+00 -0.00000000000E+00 -0.49433066203E+03  0.49433066203E+03  0.00000000000E+00 0.  1.
         25    1    1    2    0    0  0.14395917467E+03  0.52748729565E+02 -0.10820133634E+03  0.22547550117E+03  0.12500000000E+03 0.  0.
         25    1    1    2    0    0 -0.16884698922E+03  0.12353017028E+03 -0.13934548403E+03  0.28073327672E+03  0.12500000000E+03 0.  0.
         25    1    1    2    0    0  0.24887814558E+02 -0.17627889984E+03 -0.16734471126E+02  0.21817125468E+03  0.12500000000E+03 0.  0.
</event>
<event>
 5    0  0.5764392E-005  0.2992907E+03  0.7546771E-02  0.1085596E+00
         21   -1    0    0  502  501  0.00000000000E+00  0.00000000000E+00  0.64764102484E+03  0.64764102484E+03  0.00000000000E+00 0.  1.
         21   -1    0    0  501  502 -0.00000000000E+00 -0.00000000000E+00 -0.13830956508E+03  0.13830956508E+03  0.00000000000E+00 0.  1.
         25    1    1    2    0    0  0.23333006571E+02 -0.13772091860E+03  0.31382689198E+03  0.36554589144E+03  0.12500000000E+03 0.  0.
         25    1    1    2    0    0  0.38365542250E+02  0.17124927487E+03  0.17073719103E+03  0.27490801621E+03  0.12500000000E+03 0.  0.
         25    1    1    2    0    0 -0.61698548821E+02 -0.33528356271E+02  0.24767376745E+02  0.14549668227E+03  0.12500000000E+03 0.  0.
</event>
<event>
 5    0  0.5764392E-005  0.3734653E+03  0.7546771E-02  0.1053376E+00
         21   -1    0    0  502  501  0.00000000000E+00  0.00000000000E+00  0.13354444399E+03  0.13354444399E+03  0.00000000000E+00 0. -1.
         21   -1    0    0  501  502 -0.00000000000E+00 -0.00000000000E+00 -0.10444186788E+04  0.10444186788E+04  0.00000000000E+00 0. -1.
         25    1    1    2    0    0  0.14132435082E+03 -0.17267004586E+02 -0.37460047869E+03  0.41978713680E+03  0.12500000000E+03 0.  0.
         25    1    1    2    0    0 -0.17863413774E+03  0.95805011545E+02 -0.55579119695E+03  0.60466322032E+03  0.12500000000E+03 0.  0.
         25    1    1    2    0    0  0.37309786912E+02 -0.78538006959E+02  0.19517440806E+02  0.15351276570E+03  0.12500000000E+03 0.  0.
</event>
<event>
 5    0  0.5764392E-005  0.3543613E+03  0.7546771E-02  0.1060839E+00
         21   -1    0    0  502  501  0.00000000000E+00  0.00000000000E+00  0.59967073166E+03  0.59967073166E+03  0.00000000000E+00 0. -1.
         21   -1    0    0  501  502 -0.00000000000E+00 -0.00000000000E+00 -0.20940145069E+03  0.20940145069E+03  0.00000000000E+00 0. -1.
         25    1    1    2    0    0  0.22869885119E+01 -0.45835708242E+02 -0.78773809120E+02  0.15471410883E+03  0.12500000000E+03 0.  0.
         25    1    1    2    0    0  0.57188276897E+02 -0.11011339584E+03  0.44949229036E+02  0.18177153833E+03  0.12500000000E+03 0.  0.
         25    1    1    2    0    0 -0.59475265408E+02  0.15594910408E+03  0.42409386105E+03  0.47258653519E+03  0.12500000000E+03 0.  0.
</event>
<event>
 5    0  0.5764392E-005  0.2902337E+03  0.7546771E-02  0.1090227E+00
         21   -1    0    0  502  501  0.00000000000E+00  0.00000000000E+00  0.19431626963E+03  0.19431626963E+03  0.00000000000E+00 0. -1.
         21   -1    0    0  501  502 -0.00000000000E+00 -0.00000000000E+00 -0.43349739810E+03  0.43349739810E+03  0.00000000000E+00 0. -1.
         25    1    1    2    0    0  0.43685723972E+02  0.66915193615E+01 -0.11809798175E+03  0.17755380087E+03  0.12500000000E+03 0.  0.
         25    1    1    2    0    0  0.15480111828E+03 -0.70725592206E+01 -0.57231457114E+02  0.20715657604E+03  0.12500000000E+03 0.  0.
         25    1    1    2    0    0 -0.19848684225E+03  0.38103985915E+00 -0.63851689604E+02  0.24310329081E+03  0.12500000000E+03 0.  0.
</event>
<event>
 5    0  0.5764392E-005  0.2380544E+03  0.7546771E-02  0.1121096E+00
         21   -1    0    0  502  501  0.00000000000E+00  0.00000000000E+00  0.51579129363E+03  0.51579129363E+03  0.00000000000E+00 0. -1.
         21   -1    0    0  501  502 -0.00000000000E+00 -0.00000000000E+00 -0.10986982397E+03  0.10986982397E+03  0.00000000000E+00 0. -1.
         25    1    1    2    0    0 -0.34063601699E+02 -0.73934961224E+02  0.32529228224E+02  0.15267566322E+03  0.12500000000E+03 0.  0.
         25    1    1    2    0    0  0.53768202135E+01  0.45938727234E+02  0.28529884135E+03  0.31489634125E+03  0.12500000000E+03 0.  0.
         25    1    1    2    0    0  0.28686781486E+02  0.27996233990E+02  0.88093400092E+02  0.15808911313E+03  0.12500000000E+03 0.  0.
</event>
<event>
 5    0  0.5764392E-005  0.3589768E+03  0.7546771E-02  0.1058990E+00
         21   -1    0    0  502  501  0.00000000000E+00  0.00000000000E+00  0.48064351143E+03  0.48064351143E+03  0.00000000000E+00 0. -1.
         21   -1    0    0  501  502 -0.00000000000E+00 -0.00000000000E+00 -0.26810787812E+03  0.26810787812E+03  0.00000000000E+00 0.  1.
         25    1    1    2    0    0 -0.19646913332E+03 -0.59436479541E+02 -0.92444187539E+02  0.25749513249E+03  0.12500000000E+03 0.  0.
         25    1    1    2    0    0 -0.40209958634E+01 -0.30085644963E+02  0.13660236920E+03  0.18763401001E+03  0.12500000000E+03 0.  0.
         25    1    1    2    0    0  0.20049012919E+03  0.89522124504E+02  0.16837745166E+03  0.30362224705E+03  0.12500000000E+03 0.  0.
</event>
<event>
 5    0  0.5764392E-005  0.2751704E+03  0.7546771E-02  0.1098356E+00
         21   -1    0    0  502  501  0.00000000000E+00  0.00000000000E+00  0.26534560708E+03  0.26534560708E+03  0.00000000000E+00 0.  1.
         21   -1    0    0  501  502 -0.00000000000E+00 -0.00000000000E+00 -0.28535895986E+03  0.28535895986E+03  0.00000000000E+00 0.  1.
         25    1    1    2    0    0 -0.67919952110E+02 -0.18008367918E+02  0.15534445975E+02  0.14423501732E+03  0.12500000000E+03 0.  0.
         25    1    1    2    0    0 -0.38712689175E+02 -0.24830172327E+02  0.11769851452E+03  0.17774462040E+03  0.12500000000E+03 0.  0.
         25    1    1    2    0    0  0.10663264129E+03  0.42838540244E+02 -0.15324631327E+03  0.22872492922E+03  0.12500000000E+03 0.  0.
</event>
<event>
 5    0  0.5835865E-005  0.2911776E+03  0.7546771E-02  0.1089736E+00
         21   -1    0    0  502  501  0.00000000000E+00  0.00000000000E+00  0.41008615855E+03  0.41008615855E+03  0.00000000000E+00 0.  1.
         21   -1    0    0  501  502 -0.00000000000E+00 -0.00000000000E+00 -0.20674778287E+03  0.20674778287E+03  0.00000000000E+00 0.  1.
         25    1    1    2    0    0  0.14604031550E+03 -0.14246907444E+03  0.10890237792E+03  0.26288769245E+03  0.12500000000E+03 0.  0.
         25    1    1    2    0    0 -0.82950991749E+02  0.22355644485E+02  0.12811896374E+02  0.15221624933E+03  0.12500000000E+03 0.  0.
         25    1    1    2    0    0 -0.63089323751E+02  0.12011342996E+03  0.81624101386E+02  0.20172999964E+03  0.12500000000E+03 0.  0.
</event>
<event>
 5    0  0.5764392E-005  0.3493565E+03  0.7546771E-02  0.1062879E+00
         21   -1    0    0  502  501  0.00000000000E+00  0.00000000000E+00  0.21393032098E+03  0.21393032098E+03  0.00000000000E+00 0. -1.
         21   -1    0    0  501  502 -0.00000000000E+00 -0.00000000000E+00 -0.57051264072E+03  0.57051264072E+03  0.00000000000E+00 0. -1.
         25    1    1    2    0    0 -0.15018053957E+03 -0.59890128878E+02 -0.53296341662E+02  0.21120256162E+03  0.12500000000E+03 0.  0.
         25    1    1    2    0    0  0.13401995726E+03  0.19597269971E+03 -0.27744714973E+03  0.38596446581E+03  0.12500000000E+03 0.  0.
         25    1    1    2    0    0  0.16160582308E+02 -0.13608257083E+03 -0.25838828352E+02  0.18727593426E+03  0.12500000000E+03 0.  0.
</event>
<event>
 5    0  0.5764392E-005  0.5111596E+03  0.7546771E-02  0.1010906E+00
         21   -1    0    0  502  501  0.00000000000E+00  0.00000000000E+00  0.26141282960E+04  0.26141282960E+04  0.00000000000E+00 0.  1.
         21   -1    0    0  501  502 -0.00000000000E+00 -0.00000000000E+00 -0.99950767335E+02  0.99950767335E+02  0.00000000000E+00 0.  1.
         25    1    1    2    0    0 -0.32189345757E+03 -0.21025990678E+02  0.17506336543E+04  0.17844889133E+04  0.12500000000E+03 0.  0.
         25    1    1    2    0    0 -0.15523743267E+00  0.11088304228E+03  0.31272982953E+03  0.35457018972E+03  0.12500000000E+03 0.  0.
         25    1    1    2    0    0  0.32204869500E+03 -0.89857051600E+02  0.45081404483E+03  0.57501996025E+03  0.12500000000E+03 0.  0.
</event>
<event>
 5    0  0.5764392E-005  0.3160324E+03  0.7546771E-02  0.1077490E+00
         21   -1    0    0  502  501  0.00000000000E+00  0.00000000000E+00  0.36920552202E+03  0.36920552202E+03  0.00000000000E+00 0.  1.
         21   -1    0    0  501  502 -0.00000000000E+00 -0.00000000000E+00 -0.27051736745E+03  0.27051736745E+03  0.00000000000E+00 0.  1.
         25    1    1    2    0    0 -0.11521784775E+03 -0.62274178833E+00  0.18830897222E+03  0.25369432249E+03  0.12500000000E+03 0.  0.
         25    1    1    2    0    0 -0.64323193560E+02 -0.42907051498E+02 -0.67926449983E+02  0.16191816113E+03  0.12500000000E+03 0.  0.
         25    1    1    2    0    0  0.17954104131E+03  0.43529793286E+02 -0.21694367671E+02  0.22411040584E+03  0.12500000000E+03 0.  0.
</event>
<event>
 5    0  0.7523287E-005  0.5709020E+03  0.7546771E-02  0.9967685E-01
         21   -1    0    0  502  501  0.00000000000E+00  0.00000000000E+00  0.14578985775E+04  0.14578985775E+04  0.00000000000E+00 0.  1.
         21   -1    0    0  501  502 -0.00000000000E+00 -0.00000000000E+00 -0.22356085243E+03  0.22356085243E+03  0.00000000000E+00 0.  1.
         25    1    1    2    0    0  0.34905442257E+03 -0.94098315795E+02  0.22673685462E+03  0.44466626159E+03  0.12500000000E+03 0.  0.
         25    1    1    2    0    0 -0.29756230420E+03 -0.78972486253E+02  0.17464839197E+03  0.37537586401E+03  0.12500000000E+03 0.  0.
         25    1    1    2    0    0 -0.51492118374E+02  0.17307080205E+03  0.83295247849E+03  0.86141730433E+03  0.12500000000E+03 0.  0.
</event>
<event>
 5    0  0.5764392E-005  0.2308935E+03  0.7546771E-02  0.1126012E+00
         21   -1    0    0  502  501  0.00000000000E+00  0.00000000000E+00  0.18832408735E+03  0.18832408735E+03  0.00000000000E+00 0.  1.
         21   -1    0    0  501  502 -0.00000000000E+00 -0.00000000000E+00 -0.28308553581E+03  0.28308553581E+03  0.00000000000E+00 0.  1.
         25    1    1    2    0    0  0.57611850937E+02 -0.11901331774E+02  0.26194656556E+02  0.14061268470E+03  0.12500000000E+03 0.  0.
         25    1    1    2    0    0 -0.17455009634E+02  0.44781053306E+02 -0.14043718484E+03  0.19405572133E+03  0.12500000000E+03 0.  0.
         25    1    1    2    0    0 -0.40156841303E+02 -0.32879721532E+02  0.19481079823E+02  0.13674121713E+03  0.12500000000E+03 0.  0.
</event>
<event>
 5    0  0.5764392E-005  0.3319525E+03  0.7546771E-02  0.1070276E+00
         21   -1    0    0  502  501  0.00000000000E+00  0.00000000000E+00  0.31935727765E+03  0.31935727765E+03  0.00000000000E+00 0. -1.
         21   -1    0    0  501  502 -0.00000000000E+00 -0.00000000000E+00 -0.34504448385E+03  0.34504448385E+03  0.00000000000E+00 0. -1.
         25    1    1    2    0    0  0.31033764132E+02  0.19789033917E+03 -0.39491087870E+02  0.23939136759E+03  0.12500000000E+03 0.  0.
         25    1    1    2    0    0 -0.83890331279E+02 -0.69934157479E+02  0.12505530183E+03  0.20782733839E+03  0.12500000000E+03 0.  0.
         25    1    1    2    0    0  0.52856567147E+02 -0.12795618169E+03 -0.11125142016E+03  0.21718305553E+03  0.12500000000E+03 0.  0.
</event>
<event>
 5    0  0.5764392E-005  0.2668412E+03  0.7546771E-02  0.1103101E+00
         21   -1    0    0  502  501  0.00000000000E+00  0.00000000000E+00  0.22441105770E+03  0.22441105770E+03  0.00000000000E+00 0.  1.
         21   -1    0    0  501  502 -0.00000000000E+00 -0.00000000000E+00 -0.31729378474E+03  0.31729378474E+03  0.00000000000E+00 0.  1.
         25    1    1    2    0    0 -0.14940738191E+02  0.80950093288E+02 -0.93481106852E+02  0.17646489906E+03  0.12500000000E+03 0.  0.
         25    1    1    2    0    0 -0.11169328591E+03 -0.42457490302E+02 -0.42681300919E+02  0.17811435104E+03  0.12500000000E+03 0.  0.
         25    1    1    2    0    0  0.12663402410E+03 -0.38492602986E+02  0.43279680724E+02  0.18712559234E+03  0.12500000000E+03 0.  0.
</event>
<event>
 5    0  0.5764392E-005  0.3273233E+03  0.7546771E-02  0.1072327E+00
         21   -1    0    0  502  501  0.00000000000E+00  0.00000000000E+00  0.10166698396E+04  0.10166698396E+04  0.00000000000E+00 0.  1.
         21   -1    0    0  501  502 -0.00000000000E+00 -0.00000000000E+00 -0.10538380851E+03  0.10538380851E+03  0.00000000000E+00 0.  1.
         25    1    1    2    0    0 -0.92155745442E+02 -0.24662684223E+02  0.34524442111E+03  0.37936742048E+03  0.12500000000E+03 0.  0.
         25    1    1    2    0    0  0.21578447835E+03  0.99283720245E+02  0.43470906239E+03  0.51089839218E+03  0.12500000000E+03 0.  0.
         25    1    1    2    0    0 -0.12362873290E+03 -0.74621036022E+02  0.13133254762E+03  0.23178783549E+03  0.12500000000E+03 0.  0.
</event>
<event>
 5    0  0.5764392E-005  0.2335457E+03  0.7546771E-02  0.1124169E+00
         21   -1    0    0  502  501  0.00000000000E+00  0.00000000000E+00  0.13173109197E+03  0.13173109197E+03  0.00000000000E+00 0. -1.
         21   -1    0    0  501  502 -0.00000000000E+00 -0.00000000000E+00 -0.41405271757E+03  0.41405271757E+03  0.00000000000E+00 0. -1.
         25    1    1    2    0    0 -0.58145110144E+01 -0.44209454109E+02 -0.43201608328E+02  0.13956956449E+03  0.12500000000E+03 0.  0.
         25    1    1    2    0    0 -0.77673264792E+02 -0.10466327535E+02 -0.18655705899E+03  0.23784704399E+03  0.12500000000E+03 0.  0.
         25    1    1    2    0    0  0.83487775806E+02  0.54675781644E+02 -0.52562958290E+02  0.16836720106E+03  0.12500000000E+03 0.  0.
</event>
<event>
 5    0  0.5764392E-005  0.2667653E+03  0.7546771E-02  0.1103145E+00
         21   -1    0    0  502  501  0.00000000000E+00  0.00000000000E+00  0.81109326016E+02  0.81109326016E+02  0.00000000000E+00 0.  1.
         21   -1    0    0  501  502 -0.00000000000E+00 -0.00000000000E+00 -0.87738062819E+03  0.87738062819E+03  0.00000000000E+00 0.  1.
         25    1    1    2    0    0  0.81735661297E+02  0.67188163129E+02 -0.38822651595E+03  0.42135471432E+03  0.12500000000E+03 0.  0.
         25    1    1    2    0    0 -0.75441916326E+02 -0.18534088898E+02 -0.36903755228E+03  0.39730178729E+03  0.12500000000E+03 0.  0.
         25    1    1    2    0    0 -0.62937449711E+01 -0.48654074231E+02 -0.39007233941E+02  0.13983345260E+03  0.12500000000E+03 0.  0.
</event>
<event>
 5    0  0.5764392E-005  0.3719818E+03  0.7546771E-02  0.1053938E+00
         21   -1    0    0  502  501  0.00000000000E+00  0.00000000000E+00  0.11155414675E+04  0.11155414675E+04  0.00000000000E+00 0. -1.
         21   -1    0    0  501  502 -0.00000000000E+00 -0.00000000000E+00 -0.12403879889E+03  0.12403879889E+03  0.00000000000E+00 0. -1.
         25    1    1    2    0    0 -0.15725942434E+03 -0.18384678429E+03  0.36757494442E+03  0.45745656231E+03  0.12500000000E+03 0.  0.
         25    1    1    2    0    0  0.20821135769E+03  0.20127372905E+03  0.52999200971E+03  0.61674923092E+03  0.12500000000E+03 0.  0.
         25    1    1    2    0    0 -0.50951933351E+02 -0.17426944765E+02  0.93935714450E+02  0.16537447314E+03  0.12500000000E+03 0.  0.
</event>
<event>
 5    0  0.5764392E-005  0.2623573E+03  0.7546771E-02  0.1105735E+00
         21   -1    0    0  502  501  0.00000000000E+00  0.00000000000E+00  0.17127253222E+03  0.17127253222E+03  0.00000000000E+00 0.  1.
         21   -1    0    0  501  502 -0.00000000000E+00 -0.00000000000E+00 -0.40188209883E+03  0.40188209883E+03  0.00000000000E+00 0.  1.
         25    1    1    2    0    0 -0.88521949286E+02 -0.36810309180E+02  0.41733263510E+02  0.16296563948E+03  0.12500000000E+03 0.  0.
         25    1    1    2    0    0  0.66479569748E+02 -0.48783996866E+02 -0.10214060329E+03  0.18126531490E+03  0.12500000000E+03 0.  0.
         25    1    1    2    0    0  0.22042379538E+02  0.85594306047E+02 -0.17020222682E+03  0.22892367667E+03  0.12500000000E+03 0.  0.
</event>
<event>
 5    0  0.5764392E-005  0.2989691E+03  0.7546771E-02  0.1085757E+00
         21   -1    0    0  502  501  0.00000000000E+00  0.00000000000E+00  0.79522903869E+02  0.79522903869E+02  0.00000000000E+00 0. -1.
         21   -1    0    0  501  502 -0.00000000000E+00 -0.00000000000E+00 -0.11239844922E+04  0.11239844922E+04  0.00000000000E+00 0. -1.
         25    1    1    2    0    0  0.19570838116E+03  0.44435289881E+02 -0.32003595879E+03  0.39789983710E+03  0.12500000000E+03 0.  0.
         25    1    1    2    0    0 -0.11951942986E+03  0.26172331129E+02 -0.25823073568E+03  0.31189420944E+03  0.12500000000E+03 0.  0.
         25    1    1    2    0    0 -0.76188951304E+02 -0.70607621010E+02 -0.46619489390E+03  0.49371334957E+03  0.12500000000E+03 0.  0.
</event>
<event>
 5    0  0.5764392E-005  0.2402526E+03  0.7546771E-02  0.1119625E+00
         21   -1    0    0  502  501  0.00000000000E+00  0.00000000000E+00  0.98944129663E+03  0.98944129663E+03  0.00000000000E+00 0.  1.
         21   -1    0    0  501  502 -0.00000000000E+00 -0.00000000000E+00 -0.58337277503E+02  0.58337277503E+02  0.00000000000E+00 0.  1.
         25    1    1    2    0    0 -0.55837205051E+02  0.98932343640E+02  0.42962946982E+03  0.46164042655E+03  0.12500000000E+03 0.  0.
         25    1    1    2    0    0  0.54353635354E+02 -0.86381934697E+02  0.18417620033E+03  0.24487145421E+03  0.12500000000E+03 0.  0.
         25    1    1    2    0    0  0.14835696968E+01 -0.12550408943E+02  0.31729834898E+03  0.34126669338E+03  0.12500000000E+03 0.  0.
</event>
<event>
 5    0  0.5764392E-005  0.2731505E+03  0.7546771E-02  0.1099490E+00
         21   -1    0    0  502  501  0.00000000000E+00  0.00000000000E+00  0.84875546028E+03  0.84875546028E+03  0.00000000000E+00 0. -1.
         21   -1    0    0  501  502 -0.00000000000E+00 -0.00000000000E+00 -0.87906602077E+02  0.87906602077E+02  0.00000000000E+00 0. -1.
         25    1    1    2    0    0 -0.91835824085E+02  0.11105060737E+03  0.25876082900E+03  0.32147818372E+03  0.12500000000E+03 0.  0.
         25    1    1    2    0    0  0.57031989538E+02 -0.78378946186E+02  0.90163552913E+02  0.18207243973E+03  0.12500000000E+03 0.  0.
         25    1    1    2    0    0  0.34803834547E+02 -0.32671661188E+02  0.41192447629E+03  0.43311143891E+03  0.12500000000E+03 0.  0.
</event>
<event>
 5    0  0.5764392E-005  0.4310590E+03  0.7546771E-02  0.1033526E+00
         21   -1    0    0  502  501  0.00000000000E+00  0.00000000000E+00  0.63395250757E+03  0.63395250757E+03  0.00000000000E+00 0.  1.
         21   -1    0    0  501  502 -0.00000000000E+00 -0.00000000000E+00 -0.29310064610E+03  0.29310064610E+03  0.00000000000E+00 0.  1.
         25    1    1    2    0    0 -0.11477626823E+03  0.19953330143E+02  0.30741162103E+03  0.35170816294E+03  0.12500000000E+03 0.  0.
         25    1    1    2    0    0 -0.66821027663E+02 -0.19001251175E+03  0.14219335864E+03  0.27643038111E+03  0.12500000000E+03 0.  0.
         25    1    1    2    0    0  0.18159729590E+03  0.17005918160E+03 -0.10875311820E+03  0.29891460962E+03  0.12500000000E+03 0.  0.
</event>
<event>
 5    0  0.5764392E-005  0.6144404E+03  0.7546771E-02  0.9875891E-01
         21   -1    0    0  502  501  0.00000000000E+00  0.00000000000E+00  0.78418197557E+03  0.78418197557E+03  0.00000000000E+00 0.  1.
         21   -1    0    0  501  502 -0.00000000000E+00 -0.00000000000E+00 -0.48144062148E+03  0.48144062148E+03  0.00000000000E+00 0.  1.
         25    1    1    2    0    0  0.36878323626E+03 -0.17469627502E+03  0.52825609647E+03  0.67911660803E+03  0.12500000000E+03 0.  0.
         25    1    1    2    0    0 -0.21522036250E+03  0.22315513924E+03 -0.10844071287E+03  0.35142909500E+03  0.12500000000E+03 0.  0.
         25    1    1    2    0    0 -0.15356287376E+03 -0.48458864226E+02 -0.11707402950E+03  0.23507689402E+03  0.12500000000E+03 0.  0.
</event>
<event>
 5    0  0.5764392E-005  0.3151204E+03  0.7546771E-02  0.1077917E+00
         21   -1    0    0  502  501  0.00000000000E+00  0.00000000000E+00  0.29384090450E+03  0.29384090450E+03  0.00000000000E+00 0. -1.
         21   -1    0    0  501  502 -0.00000000000E+00 -0.00000000000E+00 -0.33794098868E+03  0.33794098868E+03  0.00000000000E+00 0. -1.
         25    1    1    2    0    0  0.12696810510E+03  0.13555999246E+03 -0.78183867770E+02  0.23713947046E+03  0.12500000000E+03 0.  0.
         25    1    1    2    0    0 -0.13859075337E+03 -0.16403574421E+02  0.96376835773E+02  0.21068927037E+03  0.12500000000E+03 0.  0.
         25    1    1    2    0    0  0.11622648273E+02 -0.11915641804E+03 -0.62293052188E+02  0.18395315236E+03  0.12500000000E+03 0.  0.
</event>
<event>
 5    0  0.5764392E-005  0.3763392E+03  0.7546771E-02  0.1052295E+00
         21   -1    0    0  502  501  0.00000000000E+00  0.00000000000E+00  0.20951277468E+03  0.20951277468E+03  0.00000000000E+00 0. -1.
         21   -1    0    0  501  502 -0.00000000000E+00 -0.00000000000E+00 -0.67600259584E+03  0.67600259584E+03  0.00000000000E+00 0. -1.
         25    1    1    2    0    0 -0.15936951265E+03  0.27086912099E+02  0.57121977044E+02  0.21217978846E+03  0.12500000000E+03 0.  0.
         25    1    1    2    0    0  0.38206727904E+02 -0.15709599543E+03 -0.22374278311E+03  0.30302597055E+03  0.12500000000E+03 0.  0.
         25    1    1    2    0    0  0.12116278475E+03  0.13000908333E+03 -0.29986901509E+03  0.37030961150E+03  0.12500000000E+03 0.  0.
</event>
<event>
 5    0  0.5764392E-005  0.3627289E+03  0.7546771E-02  0.1057509E+00
         21   -1    0    0  502  501  0.00000000000E+00  0.00000000000E+00  0.49500087870E+03  0.49500087870E+03  0.00000000000E+00 0. -1.
         21   -1    0    0  501  502 -0.00000000000E+00 -0.00000000000E+00 -0.26580209326E+03  0.26580209326E+03  0.00000000000E+00 0. -1.
         25    1    1    2    0    0  0.87962720846E+01 -0.10531581448E+03  0.17882666135E+03  0.24243095922E+03  0.12500000000E+03 0.  0.
         25    1    1    2    0    0 -0.63661522171E+02  0.15195412510E+03 -0.16126321622E+03  0.26224734592E+03  0.12500000000E+03 0.  0.
         25    1    1    2    0    0  0.54865250086E+02 -0.46638310621E+02  0.21163534031E+03  0.25612466682E+03  0.12500000000E+03 0.  0.
</event>
<event>
 5    0  0.5764392E-005  0.3565237E+03  0.7546771E-02  0.1059969E+00
         21   -1    0    0  502  501  0.00000000000E+00  0.00000000000E+00  0.24001898584E+03  0.24001898584E+03  0.00000000000E+00 0.  1.
         21   -1    0    0  501  502 -0.00000000000E+00 -0.00000000000E+00 -0.52957954907E+03  0.52957954907E+03  0.00000000000E+00 0.  1.
         25    1    1    2    0    0 -0.42727313210E+02 -0.48753160697E+02 -0.79757469671E+00  0.14081239327E+03  0.12500000000E+03 0.  0.
         25    1    1    2    0    0 -0.21241400807E+03 -0.32212867383E+02 -0.61493585290E+02  0.25605437056E+03  0.12500000000E+03 0.  0.
         25    1    1    2    0    0  0.25514132128E+03  0.80966028080E+02 -0.22726940324E+03  0.37273177108E+03  0.12500000000E+03 0.  0.
</event>
<event>
 5    0  0.5764392E-005  0.2986404E+03  0.7546771E-02  0.1085922E+00
         21   -1    0    0  502  501  0.00000000000E+00  0.00000000000E+00  0.26561299342E+03  0.26561299342E+03  0.00000000000E+00 0.  1.
         21   -1    0    0  501  502 -0.00000000000E+00 -0.00000000000E+00 -0.33577463917E+03  0.33577463917E+03  0.00000000000E+00 0.  1.
         25    1    1    2    0    0  0.48770387461E+01  0.16600599242E+03 -0.79050466398E+01  0.20801265536E+03  0.12500000000E+03 0.  0.
         25    1    1    2    0    0  0.64305929739E+02 -0.14537664814E+03  0.52545889743E+02  0.20893944805E+03  0.12500000000E+03 0.  0.
         25    1    1    2    0    0 -0.69182968485E+02 -0.20629344284E+02 -0.11480248886E+03  0.18443552918E+03  0.12500000000E+03 0.  0.
</event>
<event>
 5    0  0.5764392E-005  0.2800340E+03  0.7546771E-02  0.1095670E+00
         21   -1    0    0  502  501  0.00000000000E+00  0.00000000000E+00  0.15906215419E+03  0.15906215419E+03  0.00000000000E+00 0. -1.
         21   -1    0    0  501  502 -0.00000000000E+00 -0.00000000000E+00 -0.49300880437E+03  0.49300880437E+03  0.00000000000E+00 0. -1.
         25    1    1    2    0    0 -0.14941280958E+03 -0.89271143850E+01 -0.16504500053E+03  0.25547746131E+03  0.12500000000E+03 0.  0.
         25    1    1    2    0    0  0.50742235284E+02  0.16678507893E+02 -0.19225071117E+03  0.23545335634E+03  0.12500000000E+03 0.  0.
         25    1    1    2    0    0  0.98670574297E+02 -0.77513935081E+01  0.23349061526E+02  0.16114014089E+03  0.12500000000E+03 0.  0.
</event>
<event>
 5    0  0.5764392E-005  0.5660922E+03  0.7546771E-02  0.9978363E-01
         21   -1    0    0  502  501  0.00000000000E+00  0.00000000000E+00  0.54059649116E+03  0.54059649116E+03  0.00000000000E+00 0.  1.
         21   -1    0    0  501  502 -0.00000000000E+00 -0.00000000000E+00 -0.59279043027E+03  0.59279043027E+03  0.00000000000E+00 0.  1.
         25    1    1    2    0    0 -0.32067188364E+03  0.36185413017E+02  0.22477892986E+03  0.41266258418E+03  0.12500000000E+03 0.  0.
         25    1    1    2    0    0  0.36231711131E+03  0.16690105319E+03 -0.13120149148E+03  0.43814207978E+03  0.12500000000E+03 0.  0.
         25    1    1    2    0    0 -0.41645227666E+02 -0.20308646621E+03 -0.14577137748E+03  0.28258225747E+03  0.12500000000E+03 0.  0.
</event>
<event>
 5    0  0.5764392E-005  0.4948851E+03  0.7546771E-02  0.1015123E+00
         21   -1    0    0  502  501  0.00000000000E+00  0.00000000000E+00  0.16139400145E+03  0.16139400145E+03  0.00000000000E+00 0.  1.
         21   -1    0    0  501  502 -0.00000000000E+00 -0.00000000000E+00 -0.15174744020E+04  0.15174744020E+04  0.00000000000E+00 0.  1.
         25    1    1    2    0    0  0.56946899161E+02  0.32458812459E+03 -0.31293791098E+03  0.47133378414E+03  0.12500000000E+03 0.  0.
         25    1    1    2    0    0  0.13611661185E+03 -0.24226857428E+03 -0.30964008659E+03  0.43442349997E+03  0.12500000000E+03 0.  0.
         25    1    1    2    0    0 -0.19306351102E+03 -0.82319550312E+02 -0.73350240295E+03  0.77311111930E+03  0.12500000000E+03 0.  0.
</event>
<event>
 5    0  0.5764392E-005  0.3121316E+03  0.7546771E-02  0.1079329E+00
         21   -1    0    0  502  501  0.00000000000E+00  0.00000000000E+00  0.49719384970E+03  0.49719384970E+03  0.00000000000E+00 0. -1.
         21   -1    0    0  501  502 -0.00000000000E+00 -0.00000000000E+00 -0.19595204822E+03  0.19595204822E+03  0.00000000000E+00 0. -1.
         25    1    1    2    0    0  0.17768088798E+02  0.23163478177E+02  0.13318861531E+03  0.18497691464E+03  0.12500000000E+03 0.  0.
         25    1    1    2    0    0  0.14790375201E+03  0.10443887397E+03  0.14489350000E+03  0.26344282985E+03  0.12500000000E+03 0.  0.
         25    1    1    2    0    0 -0.16567184081E+03 -0.12760235215E+03  0.23159686160E+02  0.24472615343E+03  0.12500000000E+03 0.  0.
</event>
