<event>
 5    0  0.5616733E-005  0.2418822E+03  0.7546771E-02  0.1118545E+00
         21   -1    0    0  502  501  0.00000000000E+00  0.00000000000E+00  0.90867710780E+02  0.90867710780E+02  0.00000000000E+00 0.  1.
         21   -1    0    0  501  502 -0.00000000000E+00 -0.00000000000E+00 -0.64386986621E+03  0.64386986621E+03  0.00000000000E+00 0.  1.
         25    1    1    2    0    0  0.39551941531E+02  0.55493624291E+02 -0.85173532974E+02  0.16590186598E+03  0.12500000000E+03 0.  0.
         25    1    1    2    0    0 -0.31646250825E+02 -0.12563634562E+03 -0.25851647259E+03  0.31502657528E+03  0.12500000000E+03 0.  0.
         25    1    1    2    0    0 -0.79056907066E+01  0.70142721326E+02 -0.20931214986E+03  0.25380913573E+03  0.12500000000E+03 0.  0.
</event>
<event>
 5    0  0.5616733E-005  0.3102390E+03  0.7546771E-02  0.1080231E+00
         21   -1    0    0  502  501  0.00000000000E+00  0.00000000000E+00  0.28076136527E+03  0.28076136527E+03  0.00000000000E+00 0. -1.
         21   -1    0    0  501  502 -0.00000000000E+00 -0.00000000000E+00 -0.34281164805E+03  0.34281164805E+03  0.00000000000E+00 0. -1.
         25    1    1    2    0    0  0.95096863986E+02  0.13241983662E+03 -0.78380012164E+01  0.20558419427E+03  0.12500000000E+03 0.  0.
         25    1    1    2    0    0 -0.12738315443E+03  0.50986520137E+02 -0.55385572935E+02  0.19369732821E+03  0.12500000000E+03 0.  0.
         25    1    1    2    0    0  0.32286290440E+02 -0.18340635675E+03  0.11732913719E+01  0.22429149083E+03  0.12500000000E+03 0.  0.
</event>
<event>
 5    0  0.5616733E-005  0.4199446E+03  0.7546771E-02  0.1037084E+00
         21   -1    0    0  502  501  0.00000000000E+00  0.00000000000E+00  0.30556615867E+03  0.30556615867E+03  0.00000000000E+00 0.  1.
         21   -1    0    0  501  502 -0.00000000000E+00 -0.00000000000E+00 -0.57713674688E+03  0.57713674688E+03  0.00000000000E+00 0.  1.
         25    1    1    2    0    0 -0.24277992605E+03  0.17462217259E+03 -0.65147198884E+02  0.33061178620E+03  0.12500000000E+03 0.  0.
         25    1    1    2    0    0  0.18297873109E+03  0.40307352926E+02 -0.28876344558E+01  0.22525371731E+03  0.12500000000E+03 0.  0.
         25    1    1    2    0    0  0.59801194961E+02 -0.21492952552E+03 -0.20353575487E+03  0.32683740204E+03  0.12500000000E+03 0.  0.
</event>
<event>
 5    0  0.5616733E-005  0.4227688E+03  0.7546771E-02  0.1036169E+00
         21   -1    0    0  502  501  0.00000000000E+00  0.00000000000E+00  0.15973781282E+03  0.15973781282E+03  0.00000000000E+00 0.  1.
         21   -1    0    0  501  502 -0.00000000000E+00 -0.00000000000E+00 -0.11189174853E+04  0.11189174853E+04  0.00000000000E+00 0.  1.
         25    1    1    2    0    0 -0.68884084612E+02  0.17011104269E+03 -0.54948472110E+03  0.59265609140E+03  0.12500000000E+03 0.  0.
         25    1    1    2    0    0 -0.11678006574E+03  0.16292739608E+02 -0.34821203356E+03  0.38830356351E+03  0.12500000000E+03 0.  0.
         25    1    1    2    0    0  0.18566415036E+03 -0.18640378230E+03 -0.61482917785E+02  0.29769564317E+03  0.12500000000E+03 0.  0.
</event>
<event>
 5    0  0.5616733E-005  0.3322101E+03  0.7546771E-02  0.1070163E+00
         21   -1    0    0  502  501  0.00000000000E+00  0.00000000000E+00  0.22424240613E+04  0.22424240613E+04  0.00000000000E+00 0.  1.
         21   -1    0    0  501  502 -0.00000000000E+00 -0.00000000000E+00 -0.49216185680E+02  0.49216185680E+02  0.00000000000E+00 0.  1.
         25    1    1    2    0    0 -0.16508099238E+02 -0.66840187324E+02  0.97147126487E+02  0.17263456249E+03  0.12500000000E+03 0.  0.
         25    1    1    2    0    0  0.25829334048E+02 -0.45737756276E+02  0.71861793133E+03  0.73129735954E+03  0.12500000000E+03 0.  0.
         25    1    1    2    0    0 -0.93212348101E+01  0.11257794360E+03  0.13774428178E+04  0.13877083249E+04  0.12500000000E+03 0.  0.
</event>
<event>
 5    0  0.5616733E-005  0.2431267E+03  0.7546771E-02  0.1117727E+00
         21   -1    0    0  502  501  0.00000000000E+00  0.00000000000E+00  0.46727499170E+03  0.46727499170E+03  0.00000000000E+00 0.  1.
         21   -1    0    0  501  502 -0.00000000000E+00 -0.00000000000E+00 -0.12650064824E+03  0.12650064824E+03  0.00000000000E+00 0.  1.
         25    1    1    2    0    0 -0.41763088651E+02  0.58611556035E+02  0.93266864950E+02  0.17176489214E+03  0.12500000000E+03 0.  0.
         25    1    1    2    0    0 -0.89052182207E+01 -0.13470461444E+03  0.10658198084E+03  0.21262491553E+03  0.12500000000E+03 0.  0.
         25    1    1    2    0    0  0.50668306872E+02  0.76093058407E+02  0.14092549768E+03  0.20938583227E+03  0.12500000000E+03 0.  0.
</event>
<event>
 5    0  0.5616733E-005  0.4846118E+03  0.7546771E-02  0.1017875E+00
         21   -1    0    0  502  501  0.00000000000E+00  0.00000000000E+00  0.52607531522E+03  0.52607531522E+03  0.00000000000E+00 0. -1.
         21   -1    0    0  501  502 -0.00000000000E+00 -0.00000000000E+00 -0.44641637695E+03  0.44641637695E+03  0.00000000000E+00 0. -1.
         25    1    1    2    0    0  0.41053143316E+02 -0.19338080770E+03 -0.14987684502E+03  0.27779410727E+03  0.12500000000E+03 0.  0.
         25    1    1    2    0    0 -0.31261415010E+00  0.39537721834E+03  0.14438028235E+03  0.43908303138E+03  0.12500000000E+03 0.  0.
         25    1    1    2    0    0 -0.40740529166E+02 -0.20199641064E+03  0.85155500935E+02  0.25561455351E+03  0.12500000000E+03 0.  0.
</event>
<event>
 5    0  0.5616733E-005  0.3402185E+03  0.7546771E-02  0.1066703E+00
         21   -1    0    0  502  501  0.00000000000E+00  0.00000000000E+00  0.22383742612E+03  0.22383742612E+03  0.00000000000E+00 0. -1.
         21   -1    0    0  501  502 -0.00000000000E+00 -0.00000000000E+00 -0.51711012039E+03  0.51711012039E+03  0.00000000000E+00 0. -1.
         25    1    1    2    0    0 -0.15961790512E+03 -0.14383597125E+03 -0.35680864990E+02  0.25112703237E+03  0.12500000000E+03 0.  0.
         25    1    1    2    0    0  0.14645818788E+03  0.15521972440E+03 -0.58579628727E+02  0.25416478226E+03  0.12500000000E+03 0.  0.
         25    1    1    2    0    0  0.13159717240E+02 -0.11383753148E+02 -0.19901220055E+03  0.23565573187E+03  0.12500000000E+03 0.  0.
</event>
<event>
 5    0  0.5616733E-005  0.2454204E+03  0.7546771E-02  0.1116234E+00
         21   -1    0    0  502  501  0.00000000000E+00  0.00000000000E+00  0.84346073031E+03  0.84346073031E+03  0.00000000000E+00 0.  1.
         21   -1    0    0  501  502 -0.00000000000E+00 -0.00000000000E+00 -0.71409593439E+02  0.71409593439E+02  0.00000000000E+00 0.  1.
         25    1    1    2    0    0 -0.36510121765E+02  0.38641687726E+02  0.41375996738E+03  0.43548648616E+03  0.12500000000E+03 0.  0.
         25    1    1    2    0    0  0.86162632609E+02 -0.78092062718E+02  0.24772752930E+03  0.30085926658E+03  0.12500000000E+03 0.  0.
         25    1    1    2    0    0 -0.49652510844E+02  0.39450374992E+02  0.11056364020E+03  0.17852457101E+03  0.12500000000E+03 0.  0.
</event>
<event>
 5    0  0.5616733E-005  0.5575778E+03  0.7546771E-02  0.9997550E-01
         21   -1    0    0  502  501  0.00000000000E+00  0.00000000000E+00  0.94486151514E+03  0.94486151514E+03  0.00000000000E+00 0.  1.
         21   -1    0    0  501  502 -0.00000000000E+00 -0.00000000000E+00 -0.32903549334E+03  0.32903549334E+03  0.00000000000E+00 0.  1.
         25    1    1    2    0    0 -0.24981452037E+01 -0.32221382286E+03 -0.15152965219E+03  0.37737809140E+03  0.12500000000E+03 0.  0.
         25    1    1    2    0    0 -0.31734135467E+02  0.79659466134E+02  0.12054381540E+03  0.19367110608E+03  0.12500000000E+03 0.  0.
         25    1    1    2    0    0  0.34232280670E+02  0.24255435673E+03  0.64681185860E+03  0.70284781100E+03  0.12500000000E+03 0.  0.
</event>
<event>
 5    0  0.5616733E-005  0.3375228E+03  0.7546771E-02  0.1067856E+00
         21   -1    0    0  502  501  0.00000000000E+00  0.00000000000E+00  0.16657329910E+03  0.16657329910E+03  0.00000000000E+00 0. -1.
         21   -1    0    0  501  502 -0.00000000000E+00 -0.00000000000E+00 -0.68391292473E+03  0.68391292473E+03  0.00000000000E+00 0. -1.
         25    1    1    2    0    0 -0.28238091543E+02 -0.19618371031E+03 -0.13927854048E+03  0.27259667981E+03  0.12500000000E+03 0.  0.
         25    1    1    2    0    0 -0.11203805564E+03  0.43163086693E+02 -0.72414773907E+02  0.18784162863E+03  0.12500000000E+03 0.  0.
         25    1    1    2    0    0  0.14027614718E+03  0.15302062362E+03 -0.30564631125E+03  0.39004791539E+03  0.12500000000E+03 0.  0.
</event>
<event>
 5    0  0.5616733E-005  0.3089144E+03  0.7546771E-02  0.1080867E+00
         21   -1    0    0  502  501  0.00000000000E+00  0.00000000000E+00  0.80205507617E+03  0.80205507617E+03  0.00000000000E+00 0.  1.
         21   -1    0    0  501  502 -0.00000000000E+00 -0.00000000000E+00 -0.11897945551E+03  0.11897945551E+03  0.00000000000E+00 0.  1.
         25    1    1    2    0    0 -0.49230387836E+02 -0.12555841041E+03  0.56243294527E+02  0.19229366524E+03  0.12500000000E+03 0.  0.
         25    1    1    2    0    0  0.14355335348E+03  0.45187905278E+02  0.33412506282E+03  0.38718738317E+03  0.12500000000E+03 0.  0.
         25    1    1    2    0    0 -0.94322965648E+02  0.80370505128E+02  0.29270726331E+03  0.34155348327E+03  0.12500000000E+03 0.  0.
</event>
<event>
 5    0  0.5616733E-005  0.2838826E+03  0.7546771E-02  0.1093587E+00
         21   -1    0    0  502  501  0.00000000000E+00  0.00000000000E+00  0.12181416591E+04  0.12181416591E+04  0.00000000000E+00 0.  1.
         21   -1    0    0  501  502 -0.00000000000E+00 -0.00000000000E+00 -0.66157596703E+02  0.66157596703E+02  0.00000000000E+00 0.  1.
         25    1    1    2    0    0 -0.10241874767E+03  0.55612392466E+02  0.60938209297E+03  0.63289325585E+03  0.12500000000E+03 0.  0.
         25    1    1    2    0    0  0.69557769922E+02  0.38064528104E+02  0.94249037454E+02  0.17548524929E+03  0.12500000000E+03 0.  0.
         25    1    1    2    0    0  0.32860977744E+02 -0.93676920570E+02  0.44835293198E+03  0.47592075067E+03  0.12500000000E+03 0.  0.
</event>
<event>
 5    0  0.5616733E-005  0.2665761E+03  0.7546771E-02  0.1103255E+00
         21   -1    0    0  502  501  0.00000000000E+00  0.00000000000E+00  0.33088566144E+03  0.33088566144E+03  0.00000000000E+00 0. -1.
         21   -1    0    0  501  502 -0.00000000000E+00 -0.00000000000E+00 -0.21476546140E+03  0.21476546140E+03  0.00000000000E+00 0. -1.
         25    1    1    2    0    0  0.11791869716E+03 -0.41275926778E+02  0.38224157816E+01  0.17677141209E+03  0.12500000000E+03 0.  0.
         25    1    1    2    0    0 -0.10295583871E+03  0.21700455050E+02 -0.42078046318E+02  0.16871981643E+03  0.12500000000E+03 0.  0.
         25    1    1    2    0    0 -0.14962858453E+02  0.19575471728E+02  0.15437583058E+03  0.20015989432E+03  0.12500000000E+03 0.  0.
</event>
<event>
 5    0  0.5616733E-005  0.3895321E+03  0.7546771E-02  0.1047466E+00
         21   -1    0    0  502  501  0.00000000000E+00  0.00000000000E+00  0.70819024925E+03  0.70819024925E+03  0.00000000000E+00 0. -1.
         21   -1    0    0  501  502 -0.00000000000E+00 -0.00000000000E+00 -0.21425770883E+03  0.21425770883E+03  0.00000000000E+00 0. -1.
         25    1    1    2    0    0 -0.67731099505E+02 -0.30645319950E+02 -0.15286204523E+03  0.21099393913E+03  0.12500000000E+03 0.  0.
         25    1    1    2    0    0  0.98755621096E+02  0.14631934418E+02  0.28138631280E+03  0.32368197854E+03  0.12500000000E+03 0.  0.
         25    1    1    2    0    0 -0.31024521590E+02  0.16013385532E+02  0.36540827286E+03  0.38777204042E+03  0.12500000000E+03 0.  0.
</event>
<event>
 5    0  0.6231130E-005  0.2864288E+03  0.7546771E-02  0.1092229E+00
         21   -1    0    0  502  501  0.00000000000E+00  0.00000000000E+00  0.57160813225E+03  0.57160813225E+03  0.00000000000E+00 0. -1.
         21   -1    0    0  501  502 -0.00000000000E+00 -0.00000000000E+00 -0.14352742644E+03  0.14352742644E+03  0.00000000000E+00 0. -1.
         25    1    1    2    0    0  0.36652824532E+02  0.12232497915E+03  0.97386790230E+02  0.20350925527E+03  0.12500000000E+03 0.  0.
         25    1    1    2    0    0 -0.19890353000E+02  0.56895836164E+02  0.23408573425E+03  0.27212844999E+03  0.12500000000E+03 0.  0.
         25    1    1    2    0    0 -0.16762471532E+02 -0.17922081531E+03  0.96608181330E+02  0.23949785342E+03  0.12500000000E+03 0.  0.
</event>
<event>
 5    0  0.5616733E-005  0.2289484E+03  0.7546771E-02  0.1127382E+00
         21   -1    0    0  502  501  0.00000000000E+00  0.00000000000E+00  0.15279467771E+03  0.15279467771E+03  0.00000000000E+00 0. -1.
         21   -1    0    0  501  502 -0.00000000000E+00 -0.00000000000E+00 -0.34305745122E+03  0.34305745122E+03  0.00000000000E+00 0. -1.
         25    1    1    2    0    0 -0.48835642474E+02  0.88827603968E+01 -0.10016859423E+03  0.16769785532E+03  0.12500000000E+03 0.  0.
         25    1    1    2    0    0 -0.17169467480E+02  0.54959039560E+02 -0.10389505596E+03  0.17243685597E+03  0.12500000000E+03 0.  0.
         25    1    1    2    0    0  0.66005109954E+02 -0.63841799956E+02  0.13800876684E+02  0.15571741765E+03  0.12500000000E+03 0.  0.
</event>
<event>
 5    0  0.5616733E-005  0.3000116E+03  0.7546771E-02  0.1085235E+00
         21   -1    0    0  502  501  0.00000000000E+00  0.00000000000E+00  0.59704152525E+02  0.59704152525E+02  0.00000000000E+00 0. -1.
         21   -1    0    0  501  502 -0.00000000000E+00 -0.00000000000E+00 -0.15075499137E+04  0.15075499137E+04  0.00000000000E+00 0. -1.
         25    1    1    2    0    0 -0.17658301336E+03  0.18697653622E+01 -0.48020439794E+03  0.52669376342E+03  0.12500000000E+03 0.  0.
         25    1    1    2    0    0  0.30140925433E+02 -0.10315833752E+03 -0.39798710343E+03  0.43077703337E+03  0.12500000000E+03 0.  0.
         25    1    1    2    0    0  0.14644208792E+03  0.10128857216E+03 -0.56965425985E+03  0.60978326948E+03  0.12500000000E+03 0.  0.
</event>
<event>
 5    0  0.1017544E-004  0.4188985E+03  0.7546771E-02  0.1037425E+00
         21   -1    0    0  502  501  0.00000000000E+00  0.00000000000E+00  0.82008012216E+03  0.82008012216E+03  0.00000000000E+00 0.  1.
         21   -1    0    0  501  502 -0.00000000000E+00 -0.00000000000E+00 -0.21397420634E+03  0.21397420634E+03  0.00000000000E+00 0.  1.
         25    1    1    2    0    0  0.62071600655E+02  0.59750215401E+02  0.46241827468E+03  0.48670179022E+03  0.12500000000E+03 0.  0.
         25    1    1    2    0    0 -0.25219722893E+03  0.72277822156E+01  0.12899032489E+03  0.30970822887E+03  0.12500000000E+03 0.  0.
         25    1    1    2    0    0  0.19012562827E+03 -0.66977997617E+02  0.14697316257E+02  0.23764430941E+03  0.12500000000E+03 0.  0.
</event>
<event>
 5    0  0.5616733E-005  0.4929576E+03  0.7546771E-02  0.1015634E+00
         21   -1    0    0  502  501  0.00000000000E+00  0.00000000000E+00  0.26664985132E+03  0.26664985132E+03  0.00000000000E+00 0.  1.
         21   -1    0    0  501  502 -0.00000000000E+00 -0.00000000000E+00 -0.91133445383E+03  0.91133445383E+03  0.00000000000E+00 0.  1.
         25    1    1    2    0    0 -0.10123789831E+03 -0.29807763067E+03 -0.62807017933E+03  0.71358008389E+03  0.12500000000E+03 0.  0.
         25    1    1    2    0    0  0.51688133870E+02  0.10582682181E+03 -0.11846928906E+03  0.20864072433E+03  0.12500000000E+03 0.  0.
         25    1    1    2    0    0  0.49549764439E+02  0.19225080887E+03  0.10185486587E+03  0.25576349694E+03  0.12500000000E+03 0.  0.
</event>
<event>
 5    0  0.5616733E-005  0.3357794E+03  0.7546771E-02  0.1068608E+00
         21   -1    0    0  502  501  0.00000000000E+00  0.00000000000E+00  0.62148048621E+03  0.62148048621E+03  0.00000000000E+00 0. -1.
         21   -1    0    0  501  502 -0.00000000000E+00 -0.00000000000E+00 -0.18141813382E+03  0.18141813382E+03  0.00000000000E+00 0. -1.
         25    1    1    2    0    0 -0.15463484525E+02 -0.16682523373E+02  0.36398425836E+03  0.38552168068E+03  0.12500000000E+03 0.  0.
         25    1    1    2    0    0  0.95114957948E+02  0.10887332429E+03 -0.55245739933E+02  0.19894056335E+03  0.12500000000E+03 0.  0.
         25    1    1    2    0    0 -0.79651473423E+02 -0.92190800913E+02  0.13132383397E+03  0.21843637600E+03  0.12500000000E+03 0.  0.
</event>
<event>
 5    0  0.5616733E-005  0.2799170E+03  0.7546771E-02  0.1095734E+00
         21   -1    0    0  502  501  0.00000000000E+00  0.00000000000E+00  0.57516250077E+02  0.57516250077E+02  0.00000000000E+00 0. -1.
         21   -1    0    0  501  502 -0.00000000000E+00 -0.00000000000E+00 -0.13622852998E+04  0.13622852998E+04  0.00000000000E+00 0. -1.
         25    1    1    2    0    0  0.15198784615E+02  0.78693748228E+02 -0.37855406463E+03  0.40663483485E+03  0.12500000000E+03 0.  0.
         25    1    1    2    0    0 -0.12026206030E+03  0.34671024607E+02 -0.23623104072E+03  0.29511887045E+03  0.12500000000E+03 0.  0.
         25    1    1    2    0    0  0.10506327568E+03 -0.11336477284E+03 -0.68998394434E+03  0.71804784455E+03  0.12500000000E+03 0.  0.
</event>
<event>
 5    0  0.5616733E-005  0.3509056E+03  0.7546771E-02  0.1062244E+00
         21   -1    0    0  502  501  0.00000000000E+00  0.00000000000E+00  0.24879058410E+04  0.24879058410E+04  0.00000000000E+00 0. -1.
         21   -1    0    0  501  502 -0.00000000000E+00 -0.00000000000E+00 -0.49493327895E+02  0.49493327895E+02  0.00000000000E+00 0. -1.
         25    1    1    2    0    0 -0.13823323398E+03  0.18148840882E+03  0.78053721394E+03  0.82274528978E+03  0.12500000000E+03 0.  0.
         25    1    1    2    0    0  0.61053062915E+02 -0.12756214234E+02  0.22808334586E+03  0.26746440913E+03  0.12500000000E+03 0.  0.
         25    1    1    2    0    0  0.77180171064E+02 -0.16873219458E+03  0.14297919533E+04  0.14471894700E+04  0.12500000000E+03 0.  0.
</event>
<event>
 5    0  0.5874299E-005  0.2699974E+03  0.7546771E-02  0.1101281E+00
         21   -1    0    0  502  501  0.00000000000E+00  0.00000000000E+00  0.81136628940E+03  0.81136628940E+03  0.00000000000E+00 0. -1.
         21   -1    0    0  501  502 -0.00000000000E+00 -0.00000000000E+00 -0.89846716056E+02  0.89846716056E+02  0.00000000000E+00 0. -1.
         25    1    1    2    0    0  0.96168709650E+01 -0.31283053486E+02  0.52837449285E+03  0.54394459123E+03  0.12500000000E+03 0.  0.
         25    1    1    2    0    0 -0.81866297342E+02 -0.94255482954E+01  0.10976457142E+03  0.18564534128E+03  0.12500000000E+03 0.  0.
         25    1    1    2    0    0  0.72249426376E+02  0.40708601781E+02  0.83380509080E+02  0.17162307294E+03  0.12500000000E+03 0.  0.
</event>
<event>
 5    0  0.5616733E-005  0.3637233E+03  0.7546771E-02  0.1057119E+00
         21   -1    0    0  502  501  0.00000000000E+00  0.00000000000E+00  0.15171472166E+03  0.15171472166E+03  0.00000000000E+00 0. -1.
         21   -1    0    0  501  502 -0.00000000000E+00 -0.00000000000E+00 -0.87199593604E+03  0.87199593604E+03  0.00000000000E+00 0. -1.
         25    1    1    2    0    0 -0.35561380053E+02  0.19161959086E+03 -0.81935397830E+02  0.24560351946E+03  0.12500000000E+03 0.  0.
         25    1    1    2    0    0 -0.74723900619E+02 -0.22224877781E+03 -0.46570504360E+03  0.53617568781E+03  0.12500000000E+03 0.  0.
         25    1    1    2    0    0  0.11028528067E+03  0.30629186949E+02 -0.17264077295E+03  0.24193145044E+03  0.12500000000E+03 0.  0.
</event>
<event>
 5    0  0.5616733E-005  0.2690168E+03  0.7546771E-02  0.1101844E+00
         21   -1    0    0  502  501  0.00000000000E+00  0.00000000000E+00  0.10836523949E+03  0.10836523949E+03  0.00000000000E+00 0. -1.
         21   -1    0    0  501  502 -0.00000000000E+00 -0.00000000000E+00 -0.66783445751E+03  0.66783445751E+03  0.00000000000E+00 0. -1.
         25    1    1    2    0    0 -0.39604118397E+02 -0.59513490115E+01 -0.32104980340E+03  0.34684561553E+03  0.12500000000E+03 0.  0.
         25    1    1    2    0    0 -0.84570295496E+02  0.24163982447E+02 -0.29873828586E+02  0.15573528361E+03  0.12500000000E+03 0.  0.
         25    1    1    2    0    0  0.12417441389E+03 -0.18212633435E+02 -0.20854558604E+03  0.27361879785E+03  0.12500000000E+03 0.  0.
</event>
<event>
 5    0  0.5616733E-005  0.3635106E+03  0.7546771E-02  0.1057202E+00
         21   -1    0    0  502  501  0.00000000000E+00  0.00000000000E+00  0.25374260171E+03  0.25374260171E+03  0.00000000000E+00 0. -1.
         21   -1    0    0  501  502 -0.00000000000E+00 -0.00000000000E+00 -0.52076371563E+03  0.52076371563E+03  0.00000000000E+00 0. -1.
         25    1    1    2    0    0 -0.40395109788E+02  0.23177388246E+03 -0.33742094562E+02  0.26854129371E+03  0.12500000000E+03 0.  0.
         25    1    1    2    0    0  0.10192079459E+03 -0.20362477806E+03 -0.25283040227E+03  0.36249015286E+03  0.12500000000E+03 0.  0.
         25    1    1    2    0    0 -0.61525684804E+02 -0.28149104399E+02  0.19551382910E+02  0.14347487077E+03  0.12500000000E+03 0.  0.
</event>
<event>
 5    0  0.5616733E-005  0.5822119E+03  0.7546771E-02  0.9943014E-01
         21   -1    0    0  502  501  0.00000000000E+00  0.00000000000E+00  0.17587717308E+03  0.17587717308E+03  0.00000000000E+00 0. -1.
         21   -1    0    0  501  502 -0.00000000000E+00 -0.00000000000E+00 -0.19273148789E+04  0.19273148789E+04  0.00000000000E+00 0. -1.
         25    1    1    2    0    0  0.44459477510E+03  0.90159928899E+02 -0.31236009187E+03  0.56478947743E+03  0.12500000000E+03 0.  0.
         25    1    1    2    0    0 -0.23440774559E+03 -0.11256133595E+03 -0.63094537833E+03  0.69378247021E+03  0.12500000000E+03 0.  0.
         25    1    1    2    0    0 -0.21018702951E+03  0.22401407048E+02 -0.80813223567E+03  0.84462010439E+03  0.12500000000E+03 0.  0.
</event>
<event>
 5    0  0.5616733E-005  0.3804328E+03  0.7546771E-02  0.1050774E+00
         21   -1    0    0  502  501  0.00000000000E+00  0.00000000000E+00  0.26762763289E+03  0.26762763289E+03  0.00000000000E+00 0. -1.
         21   -1    0    0  501  502 -0.00000000000E+00 -0.00000000000E+00 -0.54078553450E+03  0.54078553450E+03  0.00000000000E+00 0. -1.
         25    1    1    2    0    0  0.24550426642E+02 -0.10220381730E+02  0.42593792519E+02  0.13470861447E+03  0.12500000000E+03 0.  0.
         25    1    1    2    0    0 -0.11608566769E+03 -0.52555381179E+02  0.11453421319E+03  0.21208733183E+03  0.12500000000E+03 0.  0.
         25    1    1    2    0    0  0.91535241046E+02  0.62775762910E+02 -0.43028590732E+03  0.46161722108E+03  0.12500000000E+03 0.  0.
</event>
<event>
 5    0  0.5616733E-005  0.4870860E+03  0.7546771E-02  0.1017206E+00
         21   -1    0    0  502  501  0.00000000000E+00  0.00000000000E+00  0.14312374863E+04  0.14312374863E+04  0.00000000000E+00 0. -1.
         21   -1    0    0  501  502 -0.00000000000E+00 -0.00000000000E+00 -0.16576754563E+03  0.16576754563E+03  0.00000000000E+00 0. -1.
         25    1    1    2    0    0 -0.21800108769E+02 -0.20643713798E+03  0.48426552235E+02  0.24710659166E+03  0.12500000000E+03 0.  0.
         25    1    1    2    0    0  0.56313399839E+02  0.55945340270E+02  0.36164912377E+02  0.15242696935E+03  0.12500000000E+03 0.  0.
         25    1    1    2    0    0 -0.34513291070E+02  0.15049179771E+03  0.11808784761E+04  0.11974714710E+04  0.12500000000E+03 0.  0.
</event>
<event>
 5    0  0.5616733E-005  0.2326061E+03  0.7546771E-02  0.1124819E+00
         21   -1    0    0  502  501  0.00000000000E+00  0.00000000000E+00  0.75673370925E+03  0.75673370925E+03  0.00000000000E+00 0.  1.
         21   -1    0    0  501  502 -0.00000000000E+00 -0.00000000000E+00 -0.71498846420E+02  0.71498846420E+02  0.00000000000E+00 0.  1.
         25    1    1    2    0    0 -0.21640217038E+02  0.45507692660E+02  0.40658059056E+03  0.42833634647E+03  0.12500000000E+03 0.  0.
         25    1    1    2    0    0  0.47427255381E+02 -0.24035324296E+02  0.21824630157E+03  0.25706709146E+03  0.12500000000E+03 0.  0.
         25    1    1    2    0    0 -0.25787038342E+02 -0.21472368364E+02  0.60407970707E+02  0.14282911774E+03  0.12500000000E+03 0.  0.
</event>
<event>
 5    0  0.5616733E-005  0.3574045E+03  0.7546771E-02  0.1059616E+00
         21   -1    0    0  502  501  0.00000000000E+00  0.00000000000E+00  0.11794894792E+03  0.11794894792E+03  0.00000000000E+00 0.  1.
         21   -1    0    0  501  502 -0.00000000000E+00 -0.00000000000E+00 -0.10829935886E+04  0.10829935886E+04  0.00000000000E+00 0.  1.
         25    1    1    2    0    0 -0.70158872341E+02 -0.78231560616E+02 -0.33117214878E+01  0.16333527465E+03  0.12500000000E+03 0.  0.
         25    1    1    2    0    0 -0.26110418928E+02 -0.25569774654E+02 -0.71566887587E+03  0.72742182208E+03  0.12500000000E+03 0.  0.
         25    1    1    2    0    0  0.96269291269E+02  0.10380133527E+03 -0.24606404337E+03  0.31018543983E+03  0.12500000000E+03 0.  0.
</event>
<event>
 5    0  0.5616733E-005  0.3785255E+03  0.7546771E-02  0.1051480E+00
         21   -1    0    0  502  501  0.00000000000E+00  0.00000000000E+00  0.72294500814E+02  0.72294500814E+02  0.00000000000E+00 0.  1.
         21   -1    0    0  501  502 -0.00000000000E+00 -0.00000000000E+00 -0.19819148559E+04  0.19819148559E+04  0.00000000000E+00 0.  1.
         25    1    1    2    0    0  0.67337749280E+02  0.82745326680E+02 -0.59456108306E+02  0.17476037989E+03  0.12500000000E+03 0.  0.
         25    1    1    2    0    0 -0.10664358053E+03  0.12745425268E+02 -0.79520609168E+03  0.81210407423E+03  0.12500000000E+03 0.  0.
         25    1    1    2    0    0  0.39305831251E+02 -0.95490751948E+02 -0.10549581551E+04  0.10673449026E+04  0.12500000000E+03 0.  0.
</event>
<event>
 5    0  0.5616733E-005  0.3187884E+03  0.7546771E-02  0.1076208E+00
         21   -1    0    0  502  501  0.00000000000E+00  0.00000000000E+00  0.11666266780E+03  0.11666266780E+03  0.00000000000E+00 0.  1.
         21   -1    0    0  501  502 -0.00000000000E+00 -0.00000000000E+00 -0.87111026629E+03  0.87111026629E+03  0.00000000000E+00 0.  1.
         25    1    1    2    0    0  0.14564327013E+03  0.75079287215E+02 -0.10810853642E+03  0.23272584117E+03  0.12500000000E+03 0.  0.
         25    1    1    2    0    0  0.28286389672E+02 -0.10714957445E+03 -0.21386644774E+03  0.27137613862E+03  0.12500000000E+03 0.  0.
         25    1    1    2    0    0 -0.17392965980E+03  0.32070287237E+02 -0.43247261433E+03  0.48367095430E+03  0.12500000000E+03 0.  0.
</event>
<event>
 5    0  0.5616733E-005  0.2788558E+03  0.7546771E-02  0.1096316E+00
         21   -1    0    0  502  501  0.00000000000E+00  0.00000000000E+00  0.44307859155E+03  0.44307859155E+03  0.00000000000E+00 0. -1.
         21   -1    0    0  501  502 -0.00000000000E+00 -0.00000000000E+00 -0.17550062139E+03  0.17550062139E+03  0.00000000000E+00 0. -1.
         25    1    1    2    0    0  0.70231228178E+02  0.21701481795E+02  0.65267019087E+02  0.15902252515E+03  0.12500000000E+03 0.  0.
         25    1    1    2    0    0  0.63860215988E+02  0.84094275689E+02 -0.44222865913E+01  0.16369035099E+03  0.12500000000E+03 0.  0.
         25    1    1    2    0    0 -0.13409144417E+03 -0.10579575748E+03  0.20673323766E+03  0.29586633680E+03  0.12500000000E+03 0.  0.
</event>
<event>
 5    0  0.5616733E-005  0.2729535E+03  0.7546771E-02  0.1099601E+00
         21   -1    0    0  502  501  0.00000000000E+00  0.00000000000E+00  0.39402309025E+03  0.39402309025E+03  0.00000000000E+00 0.  1.
         21   -1    0    0  501  502 -0.00000000000E+00 -0.00000000000E+00 -0.18908435286E+03  0.18908435286E+03  0.00000000000E+00 0.  1.
         25    1    1    2    0    0 -0.98861785492E+02  0.10002763728E+03  0.15502522023E+03  0.24379704624E+03  0.12500000000E+03 0.  0.
         25    1    1    2    0    0 -0.18306415979E+02 -0.74871280214E+02  0.74057689612E+02  0.16446998163E+03  0.12500000000E+03 0.  0.
         25    1    1    2    0    0  0.11716820147E+03 -0.25156357066E+02 -0.24144172443E+02  0.17484041524E+03  0.12500000000E+03 0.  0.
</event>
<event>
 5    0  0.5616733E-005  0.5257466E+03  0.7546771E-02  0.1007269E+00
         21   -1    0    0  502  501  0.00000000000E+00  0.00000000000E+00  0.21824698309E+03  0.21824698309E+03  0.00000000000E+00 0.  1.
         21   -1    0    0  501  502 -0.00000000000E+00 -0.00000000000E+00 -0.12664983412E+04  0.12664983412E+04  0.00000000000E+00 0.  1.
         25    1    1    2    0    0  0.34678634210E+02  0.36979384362E+02 -0.64277210503E+01  0.13504220872E+03  0.12500000000E+03 0.  0.
         25    1    1    2    0    0 -0.31959327121E+03  0.25735956142E+03 -0.49155540646E+03  0.65239981643E+03  0.12500000000E+03 0.  0.
         25    1    1    2    0    0  0.28491463700E+03 -0.29433894578E+03 -0.55026823055E+03  0.69730329910E+03  0.12500000000E+03 0.  0.
</event>
<event>
 5    0  0.5616733E-005  0.3973283E+03  0.7546771E-02  0.1044709E+00
         21   -1    0    0  502  501  0.00000000000E+00  0.00000000000E+00  0.92065607680E+02  0.92065607680E+02  0.00000000000E+00 0.  1.
         21   -1    0    0  501  502 -0.00000000000E+00 -0.00000000000E+00 -0.17147529748E+04  0.17147529748E+04  0.00000000000E+00 0.  1.
         25    1    1    2    0    0 -0.64884959412E+02  0.18790012249E+02 -0.51116487011E+03  0.53054467008E+03  0.12500000000E+03 0.  0.
         25    1    1    2    0    0  0.30347800400E+03  0.84143129361E+02 -0.60681137874E+03  0.69499929101E+03  0.12500000000E+03 0.  0.
         25    1    1    2    0    0 -0.23859304458E+03 -0.10293314161E+03 -0.50471111824E+03  0.58127462136E+03  0.12500000000E+03 0.  0.
</event>
<event>
 5    0  0.5616733E-005  0.2799706E+03  0.7546771E-02  0.1095705E+00
         21   -1    0    0  502  501  0.00000000000E+00  0.00000000000E+00  0.17462663115E+03  0.17462663115E+03  0.00000000000E+00 0. -1.
         21   -1    0    0  501  502 -0.00000000000E+00 -0.00000000000E+00 -0.44886369917E+03  0.44886369917E+03  0.00000000000E+00 0. -1.
         25    1    1    2    0    0 -0.59471115900E+02  0.13379576267E+03 -0.12055946339E+03  0.22715127987E+03  0.12500000000E+03 0.  0.
         25    1    1    2    0    0  0.13914218177E+03 -0.85489504631E+02 -0.11533980511E+03  0.23579073941E+03  0.12500000000E+03 0.  0.
         25    1    1    2    0    0 -0.79671065869E+02 -0.48306258042E+02 -0.38337799511E+02  0.16054831103E+03  0.12500000000E+03 0.  0.
</event>
<event>
 5    0  0.5616733E-005  0.3698386E+03  0.7546771E-02  0.1054755E+00
         21   -1    0    0  502  501  0.00000000000E+00  0.00000000000E+00  0.38223661284E+03  0.38223661284E+03  0.00000000000E+00 0.  1.
         21   -1    0    0  501  502 -0.00000000000E+00 -0.00000000000E+00 -0.35784274726E+03  0.35784274726E+03  0.00000000000E+00 0.  1.
         25    1    1    2    0    0  0.14931920023E+03 -0.16182401322E+03  0.14171114586E+03  0.29015561975E+03  0.12500000000E+03 0.  0.
         25    1    1    2    0    0 -0.15186333127E+03  0.10550511748E+03 -0.19143355965E+03  0.29405035106E+03  0.12500000000E+03 0.  0.
         25    1    1    2    0    0  0.25441310400E+01  0.56318895738E+02  0.74116279366E+02  0.15587338928E+03  0.12500000000E+03 0.  0.
</event>
<event>
 5    0  0.5616733E-005  0.3056044E+03  0.7546771E-02  0.1082472E+00
         21   -1    0    0  502  501  0.00000000000E+00  0.00000000000E+00  0.30466586757E+03  0.30466586757E+03  0.00000000000E+00 0.  1.
         21   -1    0    0  501  502 -0.00000000000E+00 -0.00000000000E+00 -0.30654590011E+03  0.30654590011E+03  0.00000000000E+00 0.  1.
         25    1    1    2    0    0 -0.47285378457E+02  0.12971246599E+03  0.59982306847E+02  0.19566325149E+03  0.12500000000E+03 0.  0.
         25    1    1    2    0    0 -0.11711043164E+03 -0.34821933443E+02 -0.69598161422E+02  0.18813910896E+03  0.12500000000E+03 0.  0.
         25    1    1    2    0    0  0.16439581010E+03 -0.94890532551E+02  0.77358220348E+01  0.22740940721E+03  0.12500000000E+03 0.  0.
</event>
<event>
 5    0  0.5616733E-005  0.3265702E+03  0.7546771E-02  0.1072665E+00
         21   -1    0    0  502  501  0.00000000000E+00  0.00000000000E+00  0.30473112719E+03  0.30473112719E+03  0.00000000000E+00 0. -1.
         21   -1    0    0  501  502 -0.00000000000E+00 -0.00000000000E+00 -0.34997438729E+03  0.34997438729E+03  0.00000000000E+00 0. -1.
         25    1    1    2    0    0  0.81966342373E+02  0.34645664822E+02 -0.14888575365E+03  0.21380077412E+03  0.12500000000E+03 0.  0.
         25    1    1    2    0    0 -0.18458298640E+02 -0.18386857540E+03  0.66555330641E+02  0.23281532133E+03  0.12500000000E+03 0.  0.
         25    1    1    2    0    0 -0.63508043733E+02  0.14922291058E+03  0.37087162908E+02  0.20808941903E+03  0.12500000000E+03 0.  0.
</event>
<event>
 5    0  0.5616733E-005  0.2522557E+03  0.7546771E-02  0.1111888E+00
         21   -1    0    0  502  501  0.00000000000E+00  0.00000000000E+00  0.68111159156E+03  0.68111159156E+03  0.00000000000E+00 0.  1.
         21   -1    0    0  501  502 -0.00000000000E+00 -0.00000000000E+00 -0.93425131009E+02  0.93425131009E+02  0.00000000000E+00 0.  1.
         25    1    1    2    0    0  0.93229470334E+02 -0.75089815060E+02  0.16711555563E+03  0.24058849390E+03  0.12500000000E+03 0.  0.
         25    1    1    2    0    0 -0.91811328086E+02  0.11764301832E+03  0.28065501272E+03  0.34155736837E+03  0.12500000000E+03 0.  0.
         25    1    1    2    0    0 -0.14181422488E+01 -0.42553203259E+02  0.13991589220E+03  0.19239086030E+03  0.12500000000E+03 0.  0.
</event>
<event>
 5    0  0.5616733E-005  0.2281674E+03  0.7546771E-02  0.1127936E+00
         21   -1    0    0  502  501  0.00000000000E+00  0.00000000000E+00  0.29780689305E+02  0.29780689305E+02  0.00000000000E+00 0.  1.
         21   -1    0    0  501  502 -0.00000000000E+00 -0.00000000000E+00 -0.17481240880E+04  0.17481240880E+04  0.00000000000E+00 0.  1.
         25    1    1    2    0    0 -0.30992748756E+02 -0.22947445222E+02 -0.28710439067E+03  0.31550129454E+03  0.12500000000E+03 0.  0.
         25    1    1    2    0    0  0.36440709039E+02  0.83765292062E+02 -0.90173668775E+03  0.91493092825E+03  0.12500000000E+03 0.  0.
         25    1    1    2    0    0 -0.54479602830E+01 -0.60817846840E+02 -0.52950232025E+03  0.54747255449E+03  0.12500000000E+03 0.  0.
</event>
<event>
 5    0  0.5616733E-005  0.2594151E+03  0.7546771E-02  0.1107495E+00
         21   -1    0    0  502  501  0.00000000000E+00  0.00000000000E+00  0.36962183088E+03  0.36962183088E+03  0.00000000000E+00 0. -1.
         21   -1    0    0  501  502 -0.00000000000E+00 -0.00000000000E+00 -0.18206766196E+03  0.18206766196E+03  0.00000000000E+00 0. -1.
         25    1    1    2    0    0 -0.11398931411E+03  0.53746148763E+02  0.66527310943E+02  0.18956026835E+03  0.12500000000E+03 0.  0.
         25    1    1    2    0    0 -0.36084557697E+02 -0.65403394131E+02  0.49367245493E+02  0.15375898086E+03  0.12500000000E+03 0.  0.
         25    1    1    2    0    0  0.15007387180E+03  0.11657245368E+02  0.71659612485E+02  0.20837024363E+03  0.12500000000E+03 0.  0.
</event>
<event>
 5    0  0.5616733E-005  0.2600193E+03  0.7546771E-02  0.1107132E+00
         21   -1    0    0  502  501  0.00000000000E+00  0.00000000000E+00  0.20296747472E+04  0.20296747472E+04  0.00000000000E+00 0.  1.
         21   -1    0    0  501  502 -0.00000000000E+00 -0.00000000000E+00 -0.33310765152E+02  0.33310765152E+02  0.00000000000E+00 0.  1.
         25    1    1    2    0    0  0.10968178545E+03 -0.10512195659E+03  0.66856210504E+03  0.69690817768E+03  0.12500000000E+03 0.  0.
         25    1    1    2    0    0  0.75946623517E+01  0.11452961052E+02  0.51150480042E+03  0.52673618640E+03  0.12500000000E+03 0.  0.
         25    1    1    2    0    0 -0.11727644781E+03  0.93668995540E+02  0.81629707656E+03  0.83934114824E+03  0.12500000000E+03 0.  0.
</event>
<event>
 5    0  0.5616733E-005  0.2274988E+03  0.7546771E-02  0.1128413E+00
         21   -1    0    0  502  501  0.00000000000E+00  0.00000000000E+00  0.18720319262E+03  0.18720319262E+03  0.00000000000E+00 0.  1.
         21   -1    0    0  501  502 -0.00000000000E+00 -0.00000000000E+00 -0.27646794798E+03  0.27646794798E+03  0.00000000000E+00 0.  1.
         25    1    1    2    0    0  0.59778792330E+01 -0.73810336098E+02 -0.16768641899E+02  0.14625282256E+03  0.12500000000E+03 0.  0.
         25    1    1    2    0    0 -0.71448705699E+01 -0.16766758737E+02 -0.99373836415E+02  0.16072439995E+03  0.12500000000E+03 0.  0.
         25    1    1    2    0    0  0.11669913369E+01  0.90577094835E+02  0.26877722952E+02  0.15669391810E+03  0.12500000000E+03 0.  0.
</event>
<event>
 5    0  0.5779023E-005  0.4079761E+03  0.7546771E-02  0.1041052E+00
         21   -1    0    0  502  501  0.00000000000E+00  0.00000000000E+00  0.86685872216E+03  0.86685872216E+03  0.00000000000E+00 0. -1.
         21   -1    0    0  501  502 -0.00000000000E+00 -0.00000000000E+00 -0.19200877841E+03  0.19200877841E+03  0.00000000000E+00 0. -1.
         25    1    1    2    0    0  0.11060954008E+03  0.82079850138E+02  0.33647750332E+03  0.38446545020E+03  0.12500000000E+03 0.  0.
         25    1    1    2    0    0 -0.47195927971E+02 -0.16017355389E+03  0.43828274586E+03  0.48538622591E+03  0.12500000000E+03 0.  0.
         25    1    1    2    0    0 -0.63413612112E+02  0.78093703750E+02 -0.99910305433E+02  0.18901582446E+03  0.12500000000E+03 0.  0.
</event>
<event>
 5    0  0.5616733E-005  0.2380250E+03  0.7546771E-02  0.1121116E+00
         21   -1    0    0  502  501  0.00000000000E+00  0.00000000000E+00  0.12681092026E+03  0.12681092026E+03  0.00000000000E+00 0.  1.
         21   -1    0    0  501  502 -0.00000000000E+00 -0.00000000000E+00 -0.44677456477E+03  0.44677456477E+03  0.00000000000E+00 0.  1.
         25    1    1    2    0    0  0.82534178065E+01 -0.31006629175E+02 -0.82185702255E+02  0.15300006410E+03  0.12500000000E+03 0.  0.
         25    1    1    2    0    0 -0.74814565300E+02  0.96800214171E+02 -0.18778485736E+03  0.25662356341E+03  0.12500000000E+03 0.  0.
         25    1    1    2    0    0  0.66561147494E+02 -0.65793584995E+02 -0.49993084898E+02  0.16396185752E+03  0.12500000000E+03 0.  0.
</event>
<event>
 5    0  0.5616733E-005  0.3176364E+03  0.7546771E-02  0.1076742E+00
         21   -1    0    0  502  501  0.00000000000E+00  0.00000000000E+00  0.13686976879E+04  0.13686976879E+04  0.00000000000E+00 0. -1.
         21   -1    0    0  501  502 -0.00000000000E+00 -0.00000000000E+00 -0.73714504713E+02  0.73714504713E+02  0.00000000000E+00 0. -1.
         25    1    1    2    0    0  0.46315175571E+02 -0.11747736421E+03  0.70179141747E+03  0.72393523206E+03  0.12500000000E+03 0.  0.
         25    1    1    2    0    0  0.87351663073E+02 -0.42536080284E+02  0.28418470403E+03  0.32530843390E+03  0.12500000000E+03 0.  0.
         25    1    1    2    0    0 -0.13366683864E+03  0.16001344449E+03  0.30900706170E+03  0.39316852666E+03  0.12500000000E+03 0.  0.
</event>
<event>
 5    0  0.5616733E-005  0.4449781E+03  0.7546771E-02  0.1029230E+00
         21   -1    0    0  502  501  0.00000000000E+00  0.00000000000E+00  0.33919367145E+03  0.33919367145E+03  0.00000000000E+00 0.  1.
         21   -1    0    0  501  502 -0.00000000000E+00 -0.00000000000E+00 -0.58375358858E+03  0.58375358858E+03  0.00000000000E+00 0.  1.
         25    1    1    2    0    0 -0.23599133786E+03  0.51708279934E+02 -0.58693191916E+02  0.27827243582E+03  0.12500000000E+03 0.  0.
         25    1    1    2    0    0  0.28409983544E+03 -0.21618241838E+03 -0.26144089716E+02  0.37915177428E+03  0.12500000000E+03 0.  0.
         25    1    1    2    0    0 -0.48108497577E+02  0.16447413845E+03 -0.15972263550E+03  0.26552304994E+03  0.12500000000E+03 0.  0.
</event>
<event>
 5    0  0.5616733E-005  0.3540219E+03  0.7546771E-02  0.1060976E+00
         21   -1    0    0  502  501  0.00000000000E+00  0.00000000000E+00  0.87563409650E+03  0.87563409650E+03  0.00000000000E+00 0.  1.
         21   -1    0    0  501  502 -0.00000000000E+00 -0.00000000000E+00 -0.14313230407E+03  0.14313230407E+03  0.00000000000E+00 0.  1.
         25    1    1    2    0    0 -0.80359255590E+02 -0.17684827911E+03  0.24732816270E+03  0.33842154755E+03  0.12500000000E+03 0.  0.
         25    1    1    2    0    0 -0.12955173685E+03  0.30884259431E+02  0.25846213699E+03  0.31648880906E+03  0.12500000000E+03 0.  0.
         25    1    1    2    0    0  0.20991099244E+03  0.14596401968E+03  0.22671149273E+03  0.36385604396E+03  0.12500000000E+03 0.  0.
</event>
<event>
 5    0  0.5616733E-005  0.3375374E+03  0.7546771E-02  0.1067850E+00
         21   -1    0    0  502  501  0.00000000000E+00  0.00000000000E+00  0.67113200282E+03  0.67113200282E+03  0.00000000000E+00 0.  1.
         21   -1    0    0  501  502 -0.00000000000E+00 -0.00000000000E+00 -0.16976019305E+03  0.16976019305E+03  0.00000000000E+00 0.  1.
         25    1    1    2    0    0 -0.12438147775E+03 -0.66535762565E+02  0.47461972415E+03  0.51067273498E+03  0.12500000000E+03 0.  0.
         25    1    1    2    0    0  0.46356445294E+02  0.11158829509E+03  0.16434004466E+00  0.17385595943E+03  0.12500000000E+03 0.  0.
         25    1    1    2    0    0  0.78025032453E+02 -0.45052532524E+02  0.26587745580E+02  0.15636350147E+03  0.12500000000E+03 0.  0.
</event>
<event>
 5    0  0.6722881E-005  0.2725409E+03  0.7546771E-02  0.1099834E+00
         21   -1    0    0  502  501  0.00000000000E+00  0.00000000000E+00  0.11947144765E+03  0.11947144765E+03  0.00000000000E+00 0. -1.
         21   -1    0    0  501  502 -0.00000000000E+00 -0.00000000000E+00 -0.62172623969E+03  0.62172623969E+03  0.00000000000E+00 0. -1.
         25    1    1    2    0    0 -0.60127807095E+02 -0.54878790798E+02 -0.23560732875E+03  0.27885990788E+03  0.12500000000E+03 0.  0.
         25    1    1    2    0    0 -0.39208488178E+02 -0.76563361882E+02 -0.18677029602E+03  0.24063955910E+03  0.12500000000E+03 0.  0.
         25    1    1    2    0    0  0.99336295272E+02  0.13144215268E+03 -0.79877167269E+02  0.22169822036E+03  0.12500000000E+03 0.  0.
</event>
<event>
 5    0  0.5616733E-005  0.2564621E+03  0.7546771E-02  0.1109288E+00
         21   -1    0    0  502  501  0.00000000000E+00  0.00000000000E+00  0.31641954683E+03  0.31641954683E+03  0.00000000000E+00 0.  1.
         21   -1    0    0  501  502 -0.00000000000E+00 -0.00000000000E+00 -0.20786576117E+03  0.20786576117E+03  0.00000000000E+00 0.  1.
         25    1    1    2    0    0  0.13352005161E+02 -0.13367185479E+03  0.25786414504E+02  0.18530078245E+03  0.12500000000E+03 0.  0.
         25    1    1    2    0    0  0.42043685646E+02  0.19227962925E+02  0.89530778968E+02  0.16055574248E+03  0.12500000000E+03 0.  0.
         25    1    1    2    0    0 -0.55395690806E+02  0.11444389186E+03 -0.67634078089E+01  0.17842878307E+03  0.12500000000E+03 0.  0.
</event>
<event>
 5    0  0.5616733E-005  0.2699004E+03  0.7546771E-02  0.1101337E+00
         21   -1    0    0  502  501  0.00000000000E+00  0.00000000000E+00  0.22781339517E+03  0.22781339517E+03  0.00000000000E+00 0.  1.
         21   -1    0    0  501  502 -0.00000000000E+00 -0.00000000000E+00 -0.31976269061E+03  0.31976269061E+03  0.00000000000E+00 0.  1.
         25    1    1    2    0    0  0.86617533628E+02 -0.18778589432E+02 -0.29486213461E+02  0.15604380583E+03  0.12500000000E+03 0.  0.
         25    1    1    2    0    0 -0.65758396567E+02 -0.11567853800E+03  0.29844922478E+02  0.18499029777E+03  0.12500000000E+03 0.  0.
         25    1    1    2    0    0 -0.20859137061E+02  0.13445712743E+03 -0.92308004453E+02  0.20654198218E+03  0.12500000000E+03 0.  0.
</event>
<event>
 5    0  0.5616733E-005  0.2310641E+03  0.7546771E-02  0.1125893E+00
         21   -1    0    0  502  501  0.00000000000E+00  0.00000000000E+00  0.37049352349E+02  0.37049352349E+02  0.00000000000E+00 0. -1.
         21   -1    0    0  501  502 -0.00000000000E+00 -0.00000000000E+00 -0.14410671644E+04  0.14410671644E+04  0.00000000000E+00 0. -1.
         25    1    1    2    0    0 -0.17359541045E+02  0.16633955879E+01 -0.35675888557E+03  0.37842571660E+03  0.12500000000E+03 0.  0.
         25    1    1    2    0    0 -0.73538615722E+02 -0.58586323202E+02 -0.35197013298E+03  0.38516004437E+03  0.12500000000E+03 0.  0.
         25    1    1    2    0    0  0.90898156767E+02  0.56922927615E+02 -0.69528879353E+03  0.71453075581E+03  0.12500000000E+03 0.  0.
</event>
<event>
 5    0  0.5616733E-005  0.3016456E+03  0.7546771E-02  0.1084421E+00
         21   -1    0    0  502  501  0.00000000000E+00  0.00000000000E+00  0.11278286966E+03  0.11278286966E+03  0.00000000000E+00 0. -1.
         21   -1    0    0  501  502 -0.00000000000E+00 -0.00000000000E+00 -0.80677215990E+03  0.80677215990E+03  0.00000000000E+00 0. -1.
         25    1    1    2    0    0  0.33068012281E+02 -0.18515565150E+03 -0.28887196389E+03  0.36667167908E+03  0.12500000000E+03 0.  0.
         25    1    1    2    0    0  0.20641796851E+02  0.19573992789E+03 -0.30359664188E+03  0.38280037109E+03  0.12500000000E+03 0.  0.
         25    1    1    2    0    0 -0.53709809131E+02 -0.10584276393E+02 -0.10152068447E+03  0.17008297939E+03  0.12500000000E+03 0.  0.
</event>
<event>
 5    0  0.5616733E-005  0.3790995E+03  0.7546771E-02  0.1051267E+00
         21   -1    0    0  502  501  0.00000000000E+00  0.00000000000E+00  0.15043855882E+03  0.15043855882E+03  0.00000000000E+00 0.  1.
         21   -1    0    0  501  502 -0.00000000000E+00 -0.00000000000E+00 -0.95531655320E+03  0.95531655320E+03  0.00000000000E+00 0.  1.
         25    1    1    2    0    0 -0.56279889414E+01 -0.40639221633E+02 -0.10245358751E+02  0.13195903899E+03  0.12500000000E+03 0.  0.
         25    1    1    2    0    0 -0.23275620842E+03 -0.11503570815E+02 -0.24935941321E+03  0.36347338507E+03  0.12500000000E+03 0.  0.
         25    1    1    2    0    0  0.23838419737E+03  0.52142792448E+02 -0.54527322241E+03  0.61032268796E+03  0.12500000000E+03 0.  0.
</event>
<event>
 5    0  0.5616733E-005  0.2128651E+03  0.7546771E-02  0.1139317E+00
         21   -1    0    0  502  501  0.00000000000E+00  0.00000000000E+00  0.23935112503E+03  0.23935112503E+03  0.00000000000E+00 0. -1.
         21   -1    0    0  501  502 -0.00000000000E+00 -0.00000000000E+00 -0.18930987897E+03  0.18930987897E+03  0.00000000000E+00 0. -1.
         25    1    1    2    0    0 -0.18971727390E+02 -0.59905615564E+02 -0.48828990889E+02  0.14818191377E+03  0.12500000000E+03 0.  0.
         25    1    1    2    0    0 -0.89179544139E+01  0.28630926175E+02  0.31152638959E+02  0.13226770868E+03  0.12500000000E+03 0.  0.
         25    1    1    2    0    0  0.27889681804E+02  0.31274689389E+02  0.67717597989E+02  0.14821138156E+03  0.12500000000E+03 0.  0.
</event>
<event>
 5    0  0.5616733E-005  0.2345868E+03  0.7546771E-02  0.1123452E+00
         21   -1    0    0  502  501  0.00000000000E+00  0.00000000000E+00  0.71605338196E+02  0.71605338196E+02  0.00000000000E+00 0.  1.
         21   -1    0    0  501  502 -0.00000000000E+00 -0.00000000000E+00 -0.76853186150E+03  0.76853186150E+03  0.00000000000E+00 0.  1.
         25    1    1    2    0    0  0.23356318462E+02  0.37090712254E+02 -0.36929445157E+03  0.39233229603E+03  0.12500000000E+03 0.  0.
         25    1    1    2    0    0 -0.37785098727E+02 -0.93180810939E+02 -0.12789359729E+03  0.20516371375E+03  0.12500000000E+03 0.  0.
         25    1    1    2    0    0  0.14428780265E+02  0.56090098685E+02 -0.19973847444E+03  0.24264118992E+03  0.12500000000E+03 0.  0.
</event>
<event>
 5    0  0.6702565E-005  0.4361848E+03  0.7546771E-02  0.1031924E+00
         21   -1    0    0  502  501  0.00000000000E+00  0.00000000000E+00  0.68300644184E+03  0.68300644184E+03  0.00000000000E+00 0. -1.
         21   -1    0    0  501  502 -0.00000000000E+00 -0.00000000000E+00 -0.27855843131E+03  0.27855843131E+03  0.00000000000E+00 0. -1.
         25    1    1    2    0    0  0.63176515765E+02  0.24716956618E+03  0.16849982372E+03  0.33030479437E+03  0.12500000000E+03 0.  0.
         25    1    1    2    0    0  0.91743332313E+02 -0.32772194401E+02  0.29307023780E+03  0.33317565943E+03  0.12500000000E+03 0.  0.
         25    1    1    2    0    0 -0.15491984808E+03 -0.21439737178E+03 -0.57122050997E+02  0.29808441936E+03  0.12500000000E+03 0.  0.
</event>
<event>
 5    0  0.5616733E-005  0.2668184E+03  0.7546771E-02  0.1103114E+00
         21   -1    0    0  502  501  0.00000000000E+00  0.00000000000E+00  0.72186828619E+02  0.72186828619E+02  0.00000000000E+00 0.  1.
         21   -1    0    0  501  502 -0.00000000000E+00 -0.00000000000E+00 -0.98621922304E+03  0.98621922304E+03  0.00000000000E+00 0.  1.
         25    1    1    2    0    0 -0.79892469177E+02  0.41108536070E+02 -0.10218409356E+03  0.18476825308E+03  0.12500000000E+03 0.  0.
         25    1    1    2    0    0 -0.43854705714E+02  0.22495733264E+02 -0.37872334665E+03  0.40185279211E+03  0.12500000000E+03 0.  0.
         25    1    1    2    0    0  0.12374717489E+03 -0.63604269334E+02 -0.43312495421E+03  0.47178500647E+03  0.12500000000E+03 0.  0.
</event>
<event>
 5    0  0.5616733E-005  0.3013319E+03  0.7546771E-02  0.1084577E+00
         21   -1    0    0  502  501  0.00000000000E+00  0.00000000000E+00  0.51975380595E+02  0.51975380595E+02  0.00000000000E+00 0.  1.
         21   -1    0    0  501  502 -0.00000000000E+00 -0.00000000000E+00 -0.17469984320E+04  0.17469984320E+04  0.00000000000E+00 0.  1.
         25    1    1    2    0    0 -0.20195495787E+01 -0.42870862786E+02 -0.46137199367E+03  0.47992823005E+03  0.12500000000E+03 0.  0.
         25    1    1    2    0    0 -0.17678576659E+03  0.57105989733E+02 -0.41328602627E+03  0.47004748786E+03  0.12500000000E+03 0.  0.
         25    1    1    2    0    0  0.17880531617E+03 -0.14235126948E+02 -0.82036503148E+03  0.84899809470E+03  0.12500000000E+03 0.  0.
</event>
<event>
 5    0  0.5616733E-005  0.2876040E+03  0.7546771E-02  0.1091607E+00
         21   -1    0    0  502  501  0.00000000000E+00  0.00000000000E+00  0.13425842913E+03  0.13425842913E+03  0.00000000000E+00 0. -1.
         21   -1    0    0  501  502 -0.00000000000E+00 -0.00000000000E+00 -0.61609570837E+03  0.61609570837E+03  0.00000000000E+00 0. -1.
         25    1    1    2    0    0 -0.26690166777E+02  0.58708312418E+02 -0.36456230287E+03  0.39075529891E+03  0.12500000000E+03 0.  0.
         25    1    1    2    0    0  0.39200123220E+02 -0.13313232435E+03 -0.29114798825E+02  0.18903316365E+03  0.12500000000E+03 0.  0.
         25    1    1    2    0    0 -0.12509956443E+02  0.74424011936E+02 -0.88160177546E+02  0.17056567494E+03  0.12500000000E+03 0.  0.
</event>
<event>
 5    0  0.5616733E-005  0.2836181E+03  0.7546771E-02  0.1093729E+00
         21   -1    0    0  502  501  0.00000000000E+00  0.00000000000E+00  0.38269760854E+03  0.38269760854E+03  0.00000000000E+00 0.  1.
         21   -1    0    0  501  502 -0.00000000000E+00 -0.00000000000E+00 -0.21019004674E+03  0.21019004674E+03  0.00000000000E+00 0.  1.
         25    1    1    2    0    0  0.51046591616E+02 -0.68551531403E+02 -0.76744539387E+02  0.16976392814E+03  0.12500000000E+03 0.  0.
         25    1    1    2    0    0  0.58122145708E+02  0.12833701784E+02  0.19632930735E+03  0.24023547750E+03  0.12500000000E+03 0.  0.
         25    1    1    2    0    0 -0.10916873732E+03  0.55717829619E+02  0.52922793837E+02  0.18288824963E+03  0.12500000000E+03 0.  0.
</event>
<event>
 5    0  0.5616733E-005  0.3168668E+03  0.7546771E-02  0.1077100E+00
         21   -1    0    0  502  501  0.00000000000E+00  0.00000000000E+00  0.58989670012E+02  0.58989670012E+02  0.00000000000E+00 0. -1.
         21   -1    0    0  501  502 -0.00000000000E+00 -0.00000000000E+00 -0.17020705177E+04  0.17020705177E+04  0.00000000000E+00 0. -1.
         25    1    1    2    0    0  0.58795879580E+02 -0.74731896043E+02 -0.53932605167E+03  0.56172893975E+03  0.12500000000E+03 0.  0.
         25    1    1    2    0    0  0.44095534315E+02  0.19499206792E+03 -0.37312106362E+03  0.44137359551E+03  0.12500000000E+03 0.  0.
         25    1    1    2    0    0 -0.10289141390E+03 -0.12026017188E+03 -0.73063373241E+03  0.75795765246E+03  0.12500000000E+03 0.  0.
</event>
<event>
 5    0  0.5616733E-005  0.2851520E+03  0.7546771E-02  0.1092908E+00
         21   -1    0    0  502  501  0.00000000000E+00  0.00000000000E+00  0.61642216178E+03  0.61642216178E+03  0.00000000000E+00 0.  1.
         21   -1    0    0  501  502 -0.00000000000E+00 -0.00000000000E+00 -0.13190906934E+03  0.13190906934E+03  0.00000000000E+00 0.  1.
         25    1    1    2    0    0 -0.25893985125E+02 -0.16280582498E+03  0.72051189794E+02  0.21907215492E+03  0.12500000000E+03 0.  0.
         25    1    1    2    0    0  0.45830393315E+02  0.14244661624E+02  0.13606304057E+03  0.19089653309E+03  0.12500000000E+03 0.  0.
         25    1    1    2    0    0 -0.19936408190E+02  0.14856116335E+03  0.27639886207E+03  0.33836254311E+03  0.12500000000E+03 0.  0.
</event>
<event>
 5    0  0.5695844E-005  0.4080218E+03  0.7546771E-02  0.1041037E+00
         21   -1    0    0  502  501  0.00000000000E+00  0.00000000000E+00  0.21349865235E+03  0.21349865235E+03  0.00000000000E+00 0.  1.
         21   -1    0    0  501  502 -0.00000000000E+00 -0.00000000000E+00 -0.77977927075E+03  0.77977927075E+03  0.00000000000E+00 0.  1.
         25    1    1    2    0    0  0.14302118967E+03  0.13048638355E+03 -0.38507638908E+03  0.44876562080E+03  0.12500000000E+03 0.  0.
         25    1    1    2    0    0 -0.26234251207E+01 -0.22877740122E+03  0.71799606335E+01  0.26081129865E+03  0.12500000000E+03 0.  0.
         25    1    1    2    0    0 -0.14039776455E+03  0.98291017670E+02 -0.18838418996E+03  0.28370100365E+03  0.12500000000E+03 0.  0.
</event>
<event>
 5    0  0.6487119E-005  0.2825805E+03  0.7546771E-02  0.1094288E+00
         21   -1    0    0  502  501  0.00000000000E+00  0.00000000000E+00  0.19150680758E+03  0.19150680758E+03  0.00000000000E+00 0.  1.
         21   -1    0    0  501  502 -0.00000000000E+00 -0.00000000000E+00 -0.41696566987E+03  0.41696566987E+03  0.00000000000E+00 0.  1.
         25    1    1    2    0    0 -0.29443960404E+02  0.97243943946E+02  0.32490110742E+02  0.16432875200E+03  0.12500000000E+03 0.  0.
         25    1    1    2    0    0 -0.66348798296E+01  0.26189479942E+02 -0.22927076906E+03  0.26252618162E+03  0.12500000000E+03 0.  0.
         25    1    1    2    0    0  0.36078840233E+02 -0.12343342389E+03 -0.28678203973E+02  0.18161754383E+03  0.12500000000E+03 0.  0.
</event>
<event>
 5    0  0.5616733E-005  0.3545815E+03  0.7546771E-02  0.1060750E+00
         21   -1    0    0  502  501  0.00000000000E+00  0.00000000000E+00  0.76892624453E+03  0.76892624453E+03  0.00000000000E+00 0.  1.
         21   -1    0    0  501  502 -0.00000000000E+00 -0.00000000000E+00 -0.16351115229E+03  0.16351115229E+03  0.00000000000E+00 0.  1.
         25    1    1    2    0    0 -0.65525735144E+01  0.52026807624E+02  0.43829142071E+03  0.45877455728E+03  0.12500000000E+03 0.  0.
         25    1    1    2    0    0  0.13384906240E+03 -0.80527787826E+02 -0.34410790272E+02  0.20300098178E+03  0.12500000000E+03 0.  0.
         25    1    1    2    0    0 -0.12729648889E+03  0.28500980202E+02  0.20153446180E+03  0.27066185776E+03  0.12500000000E+03 0.  0.
</event>
<event>
 5    0  0.5616733E-005  0.2688796E+03  0.7546771E-02  0.1101923E+00
         21   -1    0    0  502  501  0.00000000000E+00  0.00000000000E+00  0.51798737554E+03  0.51798737554E+03  0.00000000000E+00 0. -1.
         21   -1    0    0  501  502 -0.00000000000E+00 -0.00000000000E+00 -0.13957144504E+03  0.13957144504E+03  0.00000000000E+00 0. -1.
         25    1    1    2    0    0  0.95820505812E+02 -0.19045896561E+02  0.86835863770E+02  0.18085846053E+03  0.12500000000E+03 0.  0.
         25    1    1    2    0    0  0.71921231753E+01 -0.78953903503E+02  0.23743083847E+03  0.27979250986E+03  0.12500000000E+03 0.  0.
         25    1    1    2    0    0 -0.10301262899E+03  0.97999800064E+02  0.54149228253E+02  0.19690785018E+03  0.12500000000E+03 0.  0.
</event>
<event>
 5    0  0.6079973E-005  0.3073844E+03  0.7546771E-02  0.1081606E+00
         21   -1    0    0  502  501  0.00000000000E+00  0.00000000000E+00  0.69317852171E+03  0.69317852171E+03  0.00000000000E+00 0. -1.
         21   -1    0    0  501  502 -0.00000000000E+00 -0.00000000000E+00 -0.13630709585E+03  0.13630709585E+03  0.00000000000E+00 0. -1.
         25    1    1    2    0    0 -0.15647677303E+03  0.17643229727E+03  0.21901578257E+03  0.34526257983E+03  0.12500000000E+03 0.  0.
         25    1    1    2    0    0  0.63759361288E+02 -0.96516803604E+02  0.19003005052E+03  0.25518066077E+03  0.12500000000E+03 0.  0.
         25    1    1    2    0    0  0.92717411743E+02 -0.79915493663E+02  0.14782559276E+03  0.22904237696E+03  0.12500000000E+03 0.  0.
</event>
<event>
 5    0  0.5616733E-005  0.2829037E+03  0.7546771E-02  0.1094113E+00
         21   -1    0    0  502  501  0.00000000000E+00  0.00000000000E+00  0.10369524861E+03  0.10369524861E+03  0.00000000000E+00 0. -1.
         21   -1    0    0  501  502 -0.00000000000E+00 -0.00000000000E+00 -0.77182428659E+03  0.77182428659E+03  0.00000000000E+00 0. -1.
         25    1    1    2    0    0 -0.12569046299E+02  0.19508218163E+03 -0.30828222036E+03  0.38584707580E+03  0.12500000000E+03 0.  0.
         25    1    1    2    0    0  0.20690683062E+02 -0.10489823105E+03 -0.25365499740E+03  0.30232036145E+03  0.12500000000E+03 0.  0.
         25    1    1    2    0    0 -0.81216367632E+01 -0.90183950577E+02 -0.10619182022E+03  0.18735209795E+03  0.12500000000E+03 0.  0.
</event>
<event>
 5    0  0.5616733E-005  0.3777364E+03  0.7546771E-02  0.1051774E+00
         21   -1    0    0  502  501  0.00000000000E+00  0.00000000000E+00  0.27832088540E+03  0.27832088540E+03  0.00000000000E+00 0.  1.
         21   -1    0    0  501  502 -0.00000000000E+00 -0.00000000000E+00 -0.51266278926E+03  0.51266278926E+03  0.00000000000E+00 0.  1.
         25    1    1    2    0    0 -0.15157982464E+03 -0.33779518783E+02 -0.39405543499E+03  0.44161316213E+03  0.12500000000E+03 0.  0.
         25    1    1    2    0    0  0.62173752615E+02 -0.28924813315E+02  0.94436570095E+02  0.17101311678E+03  0.12500000000E+03 0.  0.
         25    1    1    2    0    0  0.89406072024E+02  0.62704332098E+02  0.65276961031E+02  0.17835739575E+03  0.12500000000E+03 0.  0.
</event>
<event>
 5    0  0.5616733E-005  0.2300702E+03  0.7546771E-02  0.1126590E+00
         21   -1    0    0  502  501  0.00000000000E+00  0.00000000000E+00  0.18384598500E+03  0.18384598500E+03  0.00000000000E+00 0.  1.
         21   -1    0    0  501  502 -0.00000000000E+00 -0.00000000000E+00 -0.28791646170E+03  0.28791646170E+03  0.00000000000E+00 0. -1.
         25    1    1    2    0    0 -0.36341922351E+02  0.46226850576E+02 -0.14736752789E+03  0.20198971585E+03  0.12500000000E+03 0.  0.
         25    1    1    2    0    0  0.19210486233E+02  0.64580110669E+01  0.40732131562E+02  0.13302201032E+03  0.12500000000E+03 0.  0.
         25    1    1    2    0    0  0.17131436118E+02 -0.52684861643E+02  0.25649196244E+01  0.13675072052E+03  0.12500000000E+03 0.  0.
</event>
<event>
 5    0  0.5616733E-005  0.3348647E+03  0.7546771E-02  0.1069004E+00
         21   -1    0    0  502  501  0.00000000000E+00  0.00000000000E+00  0.22559393666E+03  0.22559393666E+03  0.00000000000E+00 0. -1.
         21   -1    0    0  501  502 -0.00000000000E+00 -0.00000000000E+00 -0.49706289657E+03  0.49706289657E+03  0.00000000000E+00 0. -1.
         25    1    1    2    0    0  0.44860481400E+02  0.28265228815E+02 -0.12081700736E+03  0.18175020005E+03  0.12500000000E+03 0.  0.
         25    1    1    2    0    0 -0.19450896685E+03 -0.10611204509E+02  0.73921611241E+02  0.24297271546E+03  0.12500000000E+03 0.  0.
         25    1    1    2    0    0  0.14964848545E+03 -0.17654024306E+02 -0.22457356380E+03  0.29793391772E+03  0.12500000000E+03 0.  0.
</event>
<event>
 5    0  0.6248003E-005  0.2778396E+03  0.7546771E-02  0.1096875E+00
         21   -1    0    0  502  501  0.00000000000E+00  0.00000000000E+00  0.80137827429E+02  0.80137827429E+02  0.00000000000E+00 0. -1.
         21   -1    0    0  501  502 -0.00000000000E+00 -0.00000000000E+00 -0.96327613271E+03  0.96327613271E+03  0.00000000000E+00 0. -1.
         25    1    1    2    0    0  0.60188337053E+01 -0.16475234253E+03 -0.34897433898E+03  0.40569403496E+03  0.12500000000E+03 0.  0.
         25    1    1    2    0    0 -0.86840607442E+02  0.81517354438E+02 -0.21401569564E+03  0.27498015957E+03  0.12500000000E+03 0.  0.
         25    1    1    2    0    0  0.80821773737E+02  0.83234988096E+02 -0.32014827066E+03  0.36273976562E+03  0.12500000000E+03 0.  0.
</event>
<event>
 5    0  0.5616733E-005  0.2260385E+03  0.7546771E-02  0.1129460E+00
         21   -1    0    0  502  501  0.00000000000E+00  0.00000000000E+00  0.16530994367E+02  0.16530994367E+02  0.00000000000E+00 0.  1.
         21   -1    0    0  501  502 -0.00000000000E+00 -0.00000000000E+00 -0.30907633645E+04  0.30907633645E+04  0.00000000000E+00 0.  1.
         25    1    1    2    0    0 -0.17791789423E+02  0.10413768913E+03 -0.99761337918E+03  0.10109493857E+04  0.12500000000E+03 0.  0.
         25    1    1    2    0    0 -0.25215103506E+01 -0.26845233783E+02 -0.68446553055E+03  0.69630818400E+03  0.12500000000E+03 0.  0.
         25    1    1    2    0    0  0.20313299773E+02 -0.77292455343E+02 -0.13921534604E+04  0.14000367892E+04  0.12500000000E+03 0.  0.
</event>
<event>
 5    0  0.5616733E-005  0.3033277E+03  0.7546771E-02  0.1083589E+00
         21   -1    0    0  502  501  0.00000000000E+00  0.00000000000E+00  0.86216446016E+03  0.86216446016E+03  0.00000000000E+00 0.  1.
         21   -1    0    0  501  502 -0.00000000000E+00 -0.00000000000E+00 -0.10671712135E+03  0.10671712135E+03  0.00000000000E+00 0.  1.
         25    1    1    2    0    0  0.15231307874E+03  0.28403542937E+02  0.30260100989E+03  0.36221320571E+03  0.12500000000E+03 0.  0.
         25    1    1    2    0    0 -0.86686155229E+02 -0.93416144952E+02  0.40730143096E+03  0.44470273364E+03  0.12500000000E+03 0.  0.
         25    1    1    2    0    0 -0.65626923510E+02  0.65012602015E+02  0.45544897963E+02  0.16196564216E+03  0.12500000000E+03 0.  0.
</event>
<event>
 5    0  0.5616733E-005  0.2718987E+03  0.7546771E-02  0.1100198E+00
         21   -1    0    0  502  501  0.00000000000E+00  0.00000000000E+00  0.37637979825E+03  0.37637979825E+03  0.00000000000E+00 0.  1.
         21   -1    0    0  501  502 -0.00000000000E+00 -0.00000000000E+00 -0.19642099907E+03  0.19642099907E+03  0.00000000000E+00 0.  1.
         25    1    1    2    0    0  0.71548749038E+02 -0.71120401151E+02 -0.72589285939E+00  0.16063269240E+03  0.12500000000E+03 0.  0.
         25    1    1    2    0    0 -0.10298839896E+03 -0.11981121166E+02 -0.15513888917E+02  0.16314361260E+03  0.12500000000E+03 0.  0.
         25    1    1    2    0    0  0.31439649919E+02  0.83101522317E+02  0.19619858096E+03  0.24902449230E+03  0.12500000000E+03 0.  0.
</event>
<event>
 5    0  0.5616733E-005  0.3984008E+03  0.7546771E-02  0.1044335E+00
         21   -1    0    0  502  501  0.00000000000E+00  0.00000000000E+00  0.12585524753E+03  0.12585524753E+03  0.00000000000E+00 0. -1.
         21   -1    0    0  501  502 -0.00000000000E+00 -0.00000000000E+00 -0.12611570826E+04  0.12611570826E+04  0.00000000000E+00 0. -1.
         25    1    1    2    0    0  0.89586704248E+02  0.30853745044E+03 -0.32795440444E+03  0.47581532898E+03  0.12500000000E+03 0.  0.
         25    1    1    2    0    0 -0.96682951851E+02 -0.13129784974E+03 -0.39396186891E+03  0.44431708573E+03  0.12500000000E+03 0.  0.
         25    1    1    2    0    0  0.70962476025E+01 -0.17723960070E+03 -0.41338556176E+03  0.46687991546E+03  0.12500000000E+03 0.  0.
</event>
<event>
 5    0  0.5616733E-005  0.4162579E+03  0.7546771E-02  0.1038291E+00
         21   -1    0    0  502  501  0.00000000000E+00  0.00000000000E+00  0.19838524496E+04  0.19838524496E+04  0.00000000000E+00 0. -1.
         21   -1    0    0  501  502 -0.00000000000E+00 -0.00000000000E+00 -0.87340497864E+02  0.87340497864E+02  0.00000000000E+00 0. -1.
         25    1    1    2    0    0 -0.10475271470E+03 -0.84631109428E+02  0.42600961794E+03  0.46394477096E+03  0.12500000000E+03 0.  0.
         25    1    1    2    0    0 -0.23231219177E+03 -0.33079058595E+02  0.70279665096E+03  0.75140622247E+03  0.12500000000E+03 0.  0.
         25    1    1    2    0    0  0.33706490647E+03  0.11771016802E+03  0.76770568280E+03  0.85584195401E+03  0.12500000000E+03 0.  0.
</event>
<event>
 5    0  0.5880590E-005  0.2689637E+03  0.7546771E-02  0.1101874E+00
         21   -1    0    0  502  501  0.00000000000E+00  0.00000000000E+00  0.29524479262E+03  0.29524479262E+03  0.00000000000E+00 0. -1.
         21   -1    0    0  501  502 -0.00000000000E+00 -0.00000000000E+00 -0.24502196522E+03  0.24502196522E+03  0.00000000000E+00 0. -1.
         25    1    1    2    0    0  0.71293554933E+02 -0.97262473862E+02  0.55357505154E+02  0.18229704653E+03  0.12500000000E+03 0.  0.
         25    1    1    2    0    0 -0.92993104562E+02  0.91264417395E+02 -0.93413267315E+02  0.20329276890E+03  0.12500000000E+03 0.  0.
         25    1    1    2    0    0  0.21699549629E+02  0.59980564672E+01  0.88278589568E+02  0.15467694240E+03  0.12500000000E+03 0.  0.
</event>
<event>
 5    0  0.5616733E-005  0.2590322E+03  0.7546771E-02  0.1107726E+00
         21   -1    0    0  502  501  0.00000000000E+00  0.00000000000E+00  0.13260383893E+03  0.13260383893E+03  0.00000000000E+00 0.  1.
         21   -1    0    0  501  502 -0.00000000000E+00 -0.00000000000E+00 -0.50600123541E+03  0.50600123541E+03  0.00000000000E+00 0.  1.
         25    1    1    2    0    0 -0.95626566856E+02 -0.29686056031E+02 -0.19671969902E+03  0.25367172132E+03  0.12500000000E+03 0.  0.
         25    1    1    2    0    0  0.42909485477E+02  0.60639157686E+02  0.17058588236E+02  0.14640466803E+03  0.12500000000E+03 0.  0.
         25    1    1    2    0    0  0.52717081379E+02 -0.30953101655E+02 -0.19373628569E+03  0.23852868499E+03  0.12500000000E+03 0.  0.
</event>
<event>
 5    0  0.5616733E-005  0.2603403E+03  0.7546771E-02  0.1106939E+00
         21   -1    0    0  502  501  0.00000000000E+00  0.00000000000E+00  0.14650322696E+03  0.14650322696E+03  0.00000000000E+00 0.  1.
         21   -1    0    0  501  502 -0.00000000000E+00 -0.00000000000E+00 -0.46263182343E+03  0.46263182343E+03  0.00000000000E+00 0.  1.
         25    1    1    2    0    0 -0.23456309139E+02  0.58692820458E+02  0.26919183329E+02  0.14263480656E+03  0.12500000000E+03 0.  0.
         25    1    1    2    0    0 -0.71443603584E+01  0.57030763737E+02 -0.19558068126E+03  0.23912413676E+03  0.12500000000E+03 0.  0.
         25    1    1    2    0    0  0.30600669498E+02 -0.11572358419E+03 -0.14746709854E+03  0.22737610707E+03  0.12500000000E+03 0.  0.
</event>
<event>
 5    0  0.5616733E-005  0.2428649E+03  0.7546771E-02  0.1117899E+00
         21   -1    0    0  502  501  0.00000000000E+00  0.00000000000E+00  0.23753918025E+02  0.23753918025E+02  0.00000000000E+00 0.  1.
         21   -1    0    0  501  502 -0.00000000000E+00 -0.00000000000E+00 -0.24831010175E+04  0.24831010175E+04  0.00000000000E+00 0.  1.
         25    1    1    2    0    0 -0.11183016192E+03 -0.18895787930E+02 -0.86335772235E+03  0.87970142245E+03  0.12500000000E+03 0.  0.
         25    1    1    2    0    0  0.32695991844E+02  0.82648009140E+02 -0.87986125957E+03  0.89312964199E+03  0.12500000000E+03 0.  0.
         25    1    1    2    0    0  0.79134170072E+02 -0.63752221210E+02 -0.71612811756E+03  0.73402387110E+03  0.12500000000E+03 0.  0.
</event>
<event>
 5    0  0.5616733E-005  0.3432518E+03  0.7546771E-02  0.1065419E+00
         21   -1    0    0  502  501  0.00000000000E+00  0.00000000000E+00  0.64035097983E+03  0.64035097983E+03  0.00000000000E+00 0.  1.
         21   -1    0    0  501  502 -0.00000000000E+00 -0.00000000000E+00 -0.18399563934E+03  0.18399563934E+03  0.00000000000E+00 0.  1.
         25    1    1    2    0    0  0.10183111094E+03  0.86506301304E+02  0.68621388920E+02  0.19541445785E+03  0.12500000000E+03 0.  0.
         25    1    1    2    0    0  0.29816545185E+02 -0.15753308865E+03  0.96221362313E+01  0.20352711341E+03  0.12500000000E+03 0.  0.
         25    1    1    2    0    0 -0.13164765612E+03  0.71026787346E+02  0.37811181534E+03  0.42540504791E+03  0.12500000000E+03 0.  0.
</event>
<event>
 5    0  0.5616733E-005  0.2203608E+03  0.7546771E-02  0.1133614E+00
         21   -1    0    0  502  501  0.00000000000E+00  0.00000000000E+00  0.74807148249E+03  0.74807148249E+03  0.00000000000E+00 0. -1.
         21   -1    0    0  501  502 -0.00000000000E+00 -0.00000000000E+00 -0.64912105948E+02  0.64912105948E+02  0.00000000000E+00 0. -1.
         25    1    1    2    0    0 -0.93408990803E+02  0.11928328220E+02  0.16062842049E+03  0.22426326950E+03  0.12500000000E+03 0.  0.
         25    1    1    2    0    0  0.55679829807E+02  0.15719564783E+02  0.26441106261E+03  0.29813681121E+03  0.12500000000E+03 0.  0.
         25    1    1    2    0    0  0.37729160996E+02 -0.27647893003E+02  0.25811989344E+03  0.29058350773E+03  0.12500000000E+03 0.  0.
</event>
<event>
 5    0  0.6748302E-005  0.4918651E+03  0.7546771E-02  0.1015924E+00
         21   -1    0    0  502  501  0.00000000000E+00  0.00000000000E+00  0.24859863186E+03  0.24859863186E+03  0.00000000000E+00 0.  1.
         21   -1    0    0  501  502 -0.00000000000E+00 -0.00000000000E+00 -0.97318041033E+03  0.97318041033E+03  0.00000000000E+00 0.  1.
         25    1    1    2    0    0  0.19461571613E+03 -0.10472689424E+03  0.89045965461E+01  0.25406158935E+03  0.12500000000E+03 0.  0.
         25    1    1    2    0    0  0.77355661369E+02  0.16631395619E+03 -0.58949774952E+03  0.62990223611E+03  0.12500000000E+03 0.  0.
         25    1    1    2    0    0 -0.27197137750E+03 -0.61587061946E+02 -0.14398862549E+03  0.33781521673E+03  0.12500000000E+03 0.  0.
</event>
<event>
 5    0  0.5616733E-005  0.3710114E+03  0.7546771E-02  0.1054307E+00
         21   -1    0    0  502  501  0.00000000000E+00  0.00000000000E+00  0.24659229152E+03  0.24659229152E+03  0.00000000000E+00 0. -1.
         21   -1    0    0  501  502 -0.00000000000E+00 -0.00000000000E+00 -0.55820672022E+03  0.55820672022E+03  0.00000000000E+00 0. -1.
         25    1    1    2    0    0 -0.26577610438E+03  0.10588206200E+03 -0.14314668470E+03  0.34345876325E+03  0.12500000000E+03 0.  0.
         25    1    1    2    0    0  0.18940586950E+02  0.70580634654E+01 -0.21956300364E+02  0.12851319473E+03  0.12500000000E+03 0.  0.
         25    1    1    2    0    0  0.24683551743E+03 -0.11294012546E+03 -0.14651144364E+03  0.33282705377E+03  0.12500000000E+03 0.  0.
</event>
<event>
 5    0  0.5616733E-005  0.3292813E+03  0.7546771E-02  0.1071455E+00
         21   -1    0    0  502  501  0.00000000000E+00  0.00000000000E+00  0.92255810093E+02  0.92255810093E+02  0.00000000000E+00 0. -1.
         21   -1    0    0  501  502 -0.00000000000E+00 -0.00000000000E+00 -0.11752774963E+04  0.11752774963E+04  0.00000000000E+00 0. -1.
         25    1    1    2    0    0 -0.48688496760E+02 -0.21990626042E+03 -0.65053623284E+03  0.69967972911E+03  0.12500000000E+03 0.  0.
         25    1    1    2    0    0  0.35291296308E+02  0.12196621962E+03 -0.11344346370E+03  0.21122417896E+03  0.12500000000E+03 0.  0.
         25    1    1    2    0    0  0.13397200452E+02  0.97940040796E+02 -0.31904198965E+03  0.35662939830E+03  0.12500000000E+03 0.  0.
</event>
<event>
 5    0  0.5616733E-005  0.3190702E+03  0.7546771E-02  0.1076078E+00
         21   -1    0    0  502  501  0.00000000000E+00  0.00000000000E+00  0.99909132465E+02  0.99909132465E+02  0.00000000000E+00 0.  1.
         21   -1    0    0  501  502 -0.00000000000E+00 -0.00000000000E+00 -0.10189835515E+04  0.10189835515E+04  0.00000000000E+00 0.  1.
         25    1    1    2    0    0  0.20352420704E+02  0.50862096546E+02 -0.36871324053E+02  0.14137067741E+03  0.12500000000E+03 0.  0.
         25    1    1    2    0    0  0.11755056398E+03 -0.13298077328E+03 -0.43138688866E+03  0.48293029400E+03  0.12500000000E+03 0.  0.
         25    1    1    2    0    0 -0.13790298468E+03  0.82118676734E+02 -0.45081620636E+03  0.49459171260E+03  0.12500000000E+03 0.  0.
</event>
<event>
 5    0  0.5616733E-005  0.2754027E+03  0.7546771E-02  0.1098227E+00
         21   -1    0    0  502  501  0.00000000000E+00  0.00000000000E+00  0.56577025283E+02  0.56577025283E+02  0.00000000000E+00 0.  1.
         21   -1    0    0  501  502 -0.00000000000E+00 -0.00000000000E+00 -0.13405912182E+04  0.13405912182E+04  0.00000000000E+00 0.  1.
         25    1    1    2    0    0  0.11556865206E+02 -0.84637878911E+02 -0.51770649974E+03  0.53939053713E+03  0.12500000000E+03 0.  0.
         25    1    1    2    0    0  0.13090204230E+03  0.25028321484E+02 -0.30564842908E+03  0.35610072136E+03  0.12500000000E+03 0.  0.
         25    1    1    2    0    0 -0.14245890750E+03  0.59609557427E+02 -0.46065926406E+03  0.50167698495E+03  0.12500000000E+03 0.  0.
</event>
<event>
 5    0  0.6364281E-005  0.3167457E+03  0.7546771E-02  0.1077157E+00
         21   -1    0    0  502  501  0.00000000000E+00  0.00000000000E+00  0.60867544002E+03  0.60867544002E+03  0.00000000000E+00 0. -1.
         21   -1    0    0  501  502 -0.00000000000E+00 -0.00000000000E+00 -0.16482976605E+03  0.16482976605E+03  0.00000000000E+00 0. -1.
         25    1    1    2    0    0 -0.21469486375E+02 -0.13596405737E+03  0.29229989662E+03  0.34642660594E+03  0.12500000000E+03 0.  0.
         25    1    1    2    0    0 -0.10980639524E+03 -0.51390208709E+01  0.37584680833E+02  0.17065011633E+03  0.12500000000E+03 0.  0.
         25    1    1    2    0    0  0.13127588162E+03  0.14110307824E+03  0.11396109652E+03  0.25642848380E+03  0.12500000000E+03 0.  0.
</event>
<event>
 5    0  0.5616733E-005  0.3146819E+03  0.7546771E-02  0.1078123E+00
         21   -1    0    0  502  501  0.00000000000E+00  0.00000000000E+00  0.49372017711E+03  0.49372017711E+03  0.00000000000E+00 0. -1.
         21   -1    0    0  501  502 -0.00000000000E+00 -0.00000000000E+00 -0.20056850694E+03  0.20056850694E+03  0.00000000000E+00 0. -1.
         25    1    1    2    0    0  0.10688791072E+03 -0.72098947630E+00  0.45668028317E+02  0.17069304056E+03  0.12500000000E+03 0.  0.
         25    1    1    2    0    0  0.93726704933E+02 -0.46233564050E+02 -0.19312215125E+02  0.16407376181E+03  0.12500000000E+03 0.  0.
         25    1    1    2    0    0 -0.20061461566E+03  0.46954553527E+02  0.26679585698E+03  0.35952188169E+03  0.12500000000E+03 0.  0.
</event>
<event>
 5    0  0.5616733E-005  0.3754399E+03  0.7546771E-02  0.1052632E+00
         21   -1    0    0  502  501  0.00000000000E+00  0.00000000000E+00  0.66701836421E+03  0.66701836421E+03  0.00000000000E+00 0. -1.
         21   -1    0    0  501  502 -0.00000000000E+00 -0.00000000000E+00 -0.21132124392E+03  0.21132124392E+03  0.00000000000E+00 0. -1.
         25    1    1    2    0    0 -0.15052395099E+03  0.16810797223E+03  0.17061485485E+03  0.30927686439E+03  0.12500000000E+03 0.  0.
         25    1    1    2    0    0  0.95192961126E+02 -0.24935208714E+02 -0.60989521435E+02  0.17037660111E+03  0.12500000000E+03 0.  0.
         25    1    1    2    0    0  0.55330989864E+02 -0.14317276352E+03  0.34607178687E+03  0.39868614262E+03  0.12500000000E+03 0.  0.
</event>
<event>
 5    0  0.7304370E-005  0.3902225E+03  0.7546771E-02  0.1047219E+00
         21   -1    0    0  502  501  0.00000000000E+00  0.00000000000E+00  0.78164309606E+03  0.78164309606E+03  0.00000000000E+00 0. -1.
         21   -1    0    0  501  502 -0.00000000000E+00 -0.00000000000E+00 -0.19481221380E+03  0.19481221380E+03  0.00000000000E+00 0. -1.
         25    1    1    2    0    0  0.92321379666E+01  0.19832569784E+03  0.45497264567E+03  0.51190177095E+03  0.12500000000E+03 0.  0.
         25    1    1    2    0    0  0.18502594135E+02  0.45720952083E+02 -0.39455581765E+02  0.14005175608E+03  0.12500000000E+03 0.  0.
         25    1    1    2    0    0 -0.27734732101E+02 -0.24404664992E+03  0.17131381835E+03  0.32450178283E+03  0.12500000000E+03 0.  0.
</event>
<event>
 5    0  0.5747580E-005  0.2959504E+03  0.7546771E-02  0.1087283E+00
         21   -1    0    0  502  501  0.00000000000E+00  0.00000000000E+00  0.48162307128E+02  0.48162307128E+02  0.00000000000E+00 0.  1.
         21   -1    0    0  501  502 -0.00000000000E+00 -0.00000000000E+00 -0.18185727139E+04  0.18185727139E+04  0.00000000000E+00 0.  1.
         25    1    1    2    0    0  0.36367507990E+02  0.11574157866E+03 -0.25321344038E+03  0.30734468445E+03  0.12500000000E+03 0.  0.
         25    1    1    2    0    0 -0.13275149935E+03 -0.60366470869E+02 -0.75438286408E+03  0.77845075438E+03  0.12500000000E+03 0.  0.
         25    1    1    2    0    0  0.96383991362E+02 -0.55375107792E+02 -0.76281410230E+03  0.78093958219E+03  0.12500000000E+03 0.  0.
</event>
<event>
 5    0  0.5616733E-005  0.2172532E+03  0.7546771E-02  0.1135948E+00
         21   -1    0    0  502  501  0.00000000000E+00  0.00000000000E+00  0.24442817938E+03  0.24442817938E+03  0.00000000000E+00 0. -1.
         21   -1    0    0  501  502 -0.00000000000E+00 -0.00000000000E+00 -0.19309952013E+03  0.19309952013E+03  0.00000000000E+00 0. -1.
         25    1    1    2    0    0  0.63351187958E+02  0.19281771919E+02  0.35010758860E+02  0.14572547128E+03  0.12500000000E+03 0.  0.
         25    1    1    2    0    0  0.97141957198E+01 -0.61540072627E+02  0.18982563841E+02  0.14094993390E+03  0.12500000000E+03 0.  0.
         25    1    1    2    0    0 -0.73065383678E+02  0.42258300708E+02 -0.26646634525E+01  0.15085229432E+03  0.12500000000E+03 0.  0.
</event>
<event>
 5    0  0.5616733E-005  0.2410037E+03  0.7546771E-02  0.1119126E+00
         21   -1    0    0  502  501  0.00000000000E+00  0.00000000000E+00  0.20893566072E+04  0.20893566072E+04  0.00000000000E+00 0. -1.
         21   -1    0    0  501  502 -0.00000000000E+00 -0.00000000000E+00 -0.27799353113E+02  0.27799353113E+02  0.00000000000E+00 0. -1.
         25    1    1    2    0    0  0.20500176767E+02  0.45431681305E+02  0.30483095053E+03  0.33321345008E+03  0.12500000000E+03 0.  0.
         25    1    1    2    0    0  0.31444869024E+02 -0.98380962705E+02  0.10474061721E+04  0.10598831459E+04  0.12500000000E+03 0.  0.
         25    1    1    2    0    0 -0.51945045791E+02  0.52949281400E+02  0.70932013139E+03  0.72405936427E+03  0.12500000000E+03 0.  0.
</event>
<event>
 5    0  0.5616733E-005  0.2547970E+03  0.7546771E-02  0.1110310E+00
         21   -1    0    0  502  501  0.00000000000E+00  0.00000000000E+00  0.12365069812E+03  0.12365069812E+03  0.00000000000E+00 0.  1.
         21   -1    0    0  501  502 -0.00000000000E+00 -0.00000000000E+00 -0.52503963856E+03  0.52503963856E+03  0.00000000000E+00 0.  1.
         25    1    1    2    0    0  0.28451984137E+02  0.31021644936E+02 -0.95979774482E+02  0.16312257650E+03  0.12500000000E+03 0.  0.
         25    1    1    2    0    0 -0.13371626490E+02  0.12111294423E+03 -0.18461125002E+03  0.25407372806E+03  0.12500000000E+03 0.  0.
         25    1    1    2    0    0 -0.15080357647E+02 -0.15213458917E+03 -0.12079791594E+03  0.23149403211E+03  0.12500000000E+03 0.  0.
</event>
<event>
 5    0  0.5764312E-005  0.2772380E+03  0.7546771E-02  0.1097207E+00
         21   -1    0    0  502  501  0.00000000000E+00  0.00000000000E+00  0.35414348997E+03  0.35414348997E+03  0.00000000000E+00 0.  1.
         21   -1    0    0  501  502 -0.00000000000E+00 -0.00000000000E+00 -0.21703322413E+03  0.21703322413E+03  0.00000000000E+00 0.  1.
         25    1    1    2    0    0  0.11387880114E+03 -0.71880667679E+02  0.19564625359E+03  0.26839833881E+03  0.12500000000E+03 0.  0.
         25    1    1    2    0    0 -0.93547290277E+02  0.40114812397E+02 -0.39128973619E+01  0.16124702930E+03  0.12500000000E+03 0.  0.
         25    1    1    2    0    0 -0.20331510859E+02  0.31765855281E+02 -0.54623090385E+02  0.14153134599E+03  0.12500000000E+03 0.  0.
</event>
<event>
 5    0  0.5616733E-005  0.2523265E+03  0.7546771E-02  0.1111843E+00
         21   -1    0    0  502  501  0.00000000000E+00  0.00000000000E+00  0.55648019250E+02  0.55648019250E+02  0.00000000000E+00 0. -1.
         21   -1    0    0  501  502 -0.00000000000E+00 -0.00000000000E+00 -0.11441316794E+04  0.11441316794E+04  0.00000000000E+00 0. -1.
         25    1    1    2    0    0  0.10970946550E+03 -0.38648834248E+02 -0.56339380599E+03  0.58869982150E+03  0.12500000000E+03 0.  0.
         25    1    1    2    0    0 -0.93857805377E+02 -0.25927648022E+02 -0.36167098071E+03  0.39485747917E+03  0.12500000000E+03 0.  0.
         25    1    1    2    0    0 -0.15851660127E+02  0.64576482270E+02 -0.16341887345E+03  0.21622239799E+03  0.12500000000E+03 0.  0.
</event>
<event>
 5    0  0.6030675E-005  0.2854679E+03  0.7546771E-02  0.1092739E+00
         21   -1    0    0  502  501  0.00000000000E+00  0.00000000000E+00  0.23412744232E+03  0.23412744232E+03  0.00000000000E+00 0.  1.
         21   -1    0    0  501  502 -0.00000000000E+00 -0.00000000000E+00 -0.34806646443E+03  0.34806646443E+03  0.00000000000E+00 0.  1.
         25    1    1    2    0    0 -0.12484815781E+03  0.59360085235E+02 -0.47805390513E+02  0.19240851746E+03  0.12500000000E+03 0.  0.
         25    1    1    2    0    0  0.17949851856E+03 -0.46451879259E+02 -0.10544127231E+03  0.24722531658E+03  0.12500000000E+03 0.  0.
         25    1    1    2    0    0 -0.54650360747E+02 -0.12908205977E+02  0.39307640713E+02  0.14256007271E+03  0.12500000000E+03 0.  0.
</event>
<event>
 5    0  0.5616733E-005  0.3064303E+03  0.7546771E-02  0.1082070E+00
         21   -1    0    0  502  501  0.00000000000E+00  0.00000000000E+00  0.22636571213E+03  0.22636571213E+03  0.00000000000E+00 0. -1.
         21   -1    0    0  501  502 -0.00000000000E+00 -0.00000000000E+00 -0.41481326623E+03  0.41481326623E+03  0.00000000000E+00 0. -1.
         25    1    1    2    0    0  0.13042244552E+02 -0.19461742967E+03 -0.40041984255E+02  0.23510509263E+03  0.12500000000E+03 0.  0.
         25    1    1    2    0    0  0.59708209534E+02  0.18732431904E+03 -0.85258145491E+02  0.24809156004E+03  0.12500000000E+03 0.  0.
         25    1    1    2    0    0 -0.72750454086E+02  0.72931106378E+01 -0.63147424349E+02  0.15798232570E+03  0.12500000000E+03 0.  0.
</event>
<event>
 5    0  0.5616733E-005  0.4199433E+03  0.7546771E-02  0.1037085E+00
         21   -1    0    0  502  501  0.00000000000E+00  0.00000000000E+00  0.15538447444E+03  0.15538447444E+03  0.00000000000E+00 0.  1.
         21   -1    0    0  501  502 -0.00000000000E+00 -0.00000000000E+00 -0.11349421281E+04  0.11349421281E+04  0.00000000000E+00 0.  1.
         25    1    1    2    0    0  0.22056845861E+03  0.10524258932E+02 -0.12609602132E+03  0.28334856900E+03  0.12500000000E+03 0.  0.
         25    1    1    2    0    0 -0.14917937535E+03  0.57633197574E+02 -0.81456592277E+02  0.21871499244E+03  0.12500000000E+03 0.  0.
         25    1    1    2    0    0 -0.71389083260E+02 -0.68157456506E+02 -0.77200504003E+03  0.78826304107E+03  0.12500000000E+03 0.  0.
</event>
<event>
 5    0  0.5616733E-005  0.2704196E+03  0.7546771E-02  0.1101040E+00
         21   -1    0    0  502  501  0.00000000000E+00  0.00000000000E+00  0.24423791805E+03  0.24423791805E+03  0.00000000000E+00 0. -1.
         21   -1    0    0  501  502 -0.00000000000E+00 -0.00000000000E+00 -0.29940780637E+03  0.29940780637E+03  0.00000000000E+00 0. -1.
         25    1    1    2    0    0 -0.37258073659E+02  0.24698992559E+02 -0.11080215050E+03  0.17291709240E+03  0.12500000000E+03 0.  0.
         25    1    1    2    0    0 -0.37336209428E+02  0.78214448406E+02  0.10609583747E+03  0.18545301077E+03  0.12500000000E+03 0.  0.
         25    1    1    2    0    0  0.74594283087E+02 -0.10291344097E+03 -0.50463575288E+02  0.18527562125E+03  0.12500000000E+03 0.  0.
</event>
<event>
 5    0  0.7688779E-005  0.5803594E+03  0.7546771E-02  0.9947013E-01
         21   -1    0    0  502  501  0.00000000000E+00  0.00000000000E+00  0.68563011095E+03  0.68563011095E+03  0.00000000000E+00 0.  1.
         21   -1    0    0  501  502 -0.00000000000E+00 -0.00000000000E+00 -0.49125185125E+03  0.49125185125E+03  0.00000000000E+00 0.  1.
         25    1    1    2    0    0 -0.79139930341E+02  0.41163383566E+03  0.18437710112E+03  0.47468458860E+03  0.12500000000E+03 0.  0.
         25    1    1    2    0    0  0.19950869714E+03 -0.16773838954E+03  0.19648422355E+03  0.34952959483E+03  0.12500000000E+03 0.  0.
         25    1    1    2    0    0 -0.12036876680E+03 -0.24389544613E+03 -0.18648306497E+03  0.35266777877E+03  0.12500000000E+03 0.  0.
</event>
<event>
 5    0  0.6180866E-005  0.3032463E+03  0.7546771E-02  0.1083629E+00
         21   -1    0    0  502  501  0.00000000000E+00  0.00000000000E+00  0.39244554246E+03  0.39244554246E+03  0.00000000000E+00 0. -1.
         21   -1    0    0  501  502 -0.00000000000E+00 -0.00000000000E+00 -0.23432126262E+03  0.23432126262E+03  0.00000000000E+00 0. -1.
         25    1    1    2    0    0  0.10690070714E+03  0.24505675796E+01 -0.68560834471E+02  0.17821154421E+03  0.12500000000E+03 0.  0.
         25    1    1    2    0    0  0.26532699619E+02 -0.10135645828E+03  0.37224941016E+02  0.16729558278E+03  0.12500000000E+03 0.  0.
         25    1    1    2    0    0 -0.13343340675E+03  0.98905890701E+02  0.18946017329E+03  0.28125967808E+03  0.12500000000E+03 0.  0.
</event>
<event>
 5    0  0.5616733E-005  0.2929361E+03  0.7546771E-02  0.1088826E+00
         21   -1    0    0  502  501  0.00000000000E+00  0.00000000000E+00  0.44039519248E+03  0.44039519248E+03  0.00000000000E+00 0. -1.
         21   -1    0    0  501  502 -0.00000000000E+00 -0.00000000000E+00 -0.19485127409E+03  0.19485127409E+03  0.00000000000E+00 0. -1.
         25    1    1    2    0    0  0.14270610619E+03  0.53497484856E+02  0.16807391583E+03  0.25903832692E+03  0.12500000000E+03 0.  0.
         25    1    1    2    0    0 -0.12622801569E+03  0.24630387773E+02  0.12708041387E+03  0.21980582234E+03  0.12500000000E+03 0.  0.
         25    1    1    2    0    0 -0.16478090499E+02 -0.78127872629E+02 -0.49610411314E+02  0.15640231731E+03  0.12500000000E+03 0.  0.
</event>
<event>
 5    0  0.5616733E-005  0.2954408E+03  0.7546771E-02  0.1087542E+00
         21   -1    0    0  502  501  0.00000000000E+00  0.00000000000E+00  0.87677136657E+03  0.87677136657E+03  0.00000000000E+00 0. -1.
         21   -1    0    0  501  502 -0.00000000000E+00 -0.00000000000E+00 -0.99553041551E+02  0.99553041551E+02  0.00000000000E+00 0. -1.
         25    1    1    2    0    0 -0.18465795314E+02  0.33783713014E+02  0.60938366202E+03  0.62326220196E+03  0.12500000000E+03 0.  0.
         25    1    1    2    0    0  0.16911242924E+01  0.58696757912E+02  0.13526565224E+03  0.19331312932E+03  0.12500000000E+03 0.  0.
         25    1    1    2    0    0  0.16774671022E+02 -0.92480470926E+02  0.32569010765E+02  0.15974907684E+03  0.12500000000E+03 0.  0.
</event>
<event>
 5    0  0.5616733E-005  0.2683801E+03  0.7546771E-02  0.1102210E+00
         21   -1    0    0  502  501  0.00000000000E+00  0.00000000000E+00  0.40755983867E+02  0.40755983867E+02  0.00000000000E+00 0.  1.
         21   -1    0    0  501  502 -0.00000000000E+00 -0.00000000000E+00 -0.17672959327E+04  0.17672959327E+04  0.00000000000E+00 0.  1.
         25    1    1    2    0    0  0.12845296950E+02 -0.78270090154E+02 -0.10931479752E+04  0.11031267852E+04  0.12500000000E+03 0.  0.
         25    1    1    2    0    0 -0.83932519568E+02  0.12369330983E+02 -0.29822660795E+03  0.33430790879E+03  0.12500000000E+03 0.  0.
         25    1    1    2    0    0  0.71087222618E+02  0.65900759172E+02 -0.33516536575E+03  0.37061722258E+03  0.12500000000E+03 0.  0.
</event>
<event>
 5    0  0.5616733E-005  0.2623636E+03  0.7546771E-02  0.1105731E+00
         21   -1    0    0  502  501  0.00000000000E+00  0.00000000000E+00  0.46215924831E+03  0.46215924831E+03  0.00000000000E+00 0. -1.
         21   -1    0    0  501  502 -0.00000000000E+00 -0.00000000000E+00 -0.14894139348E+03  0.14894139348E+03  0.00000000000E+00 0. -1.
         25    1    1    2    0    0 -0.83657313108E+02  0.28771434075E+02  0.19149139620E+03  0.24519440506E+03  0.12500000000E+03 0.  0.
         25    1    1    2    0    0 -0.39356381211E+02  0.10956066338E+02 -0.24948316286E+02  0.13385207737E+03  0.12500000000E+03 0.  0.
         25    1    1    2    0    0  0.12301369432E+03 -0.39727500413E+02  0.14667477491E+03  0.23205415935E+03  0.12500000000E+03 0.  0.
</event>
<event>
 5    0  0.7551978E-005  0.3738933E+03  0.7546771E-02  0.1053214E+00
         21   -1    0    0  502  501  0.00000000000E+00  0.00000000000E+00  0.33920594953E+03  0.33920594953E+03  0.00000000000E+00 0.  1.
         21   -1    0    0  501  502 -0.00000000000E+00 -0.00000000000E+00 -0.41212771403E+03  0.41212771403E+03  0.00000000000E+00 0.  1.
         25    1    1    2    0    0  0.15006350282E+02 -0.14574627504E+03  0.15150886225E+03  0.24504510315E+03  0.12500000000E+03 0.  0.
         25    1    1    2    0    0  0.10453455658E+02  0.21341075216E+03 -0.99712770541E+01  0.24774553526E+03  0.12500000000E+03 0.  0.
         25    1    1    2    0    0 -0.25459805940E+02 -0.67664477122E+02 -0.21445934970E+03  0.25854302515E+03  0.12500000000E+03 0.  0.
</event>
<event>
 5    0  0.5616733E-005  0.3009190E+03  0.7546771E-02  0.1084782E+00
         21   -1    0    0  502  501  0.00000000000E+00  0.00000000000E+00  0.82777696419E+02  0.82777696419E+02  0.00000000000E+00 0.  1.
         21   -1    0    0  501  502 -0.00000000000E+00 -0.00000000000E+00 -0.10939208541E+04  0.10939208541E+04  0.00000000000E+00 0.  1.
         25    1    1    2    0    0 -0.35364187200E+02 -0.42834336878E+02 -0.67694554261E+03  0.69062701497E+03  0.12500000000E+03 0.  0.
         25    1    1    2    0    0  0.21934768310E+02  0.15489893866E+02 -0.33376236914E+03  0.35741207300E+03  0.12500000000E+03 0.  0.
         25    1    1    2    0    0  0.13429418890E+02  0.27344443012E+02 -0.43524590001E+00  0.12865946251E+03  0.12500000000E+03 0.  0.
</event>
<event>
 5    0  0.5616733E-005  0.2956509E+03  0.7546771E-02  0.1087435E+00
         21   -1    0    0  502  501  0.00000000000E+00  0.00000000000E+00  0.25675225780E+03  0.25675225780E+03  0.00000000000E+00 0.  1.
         21   -1    0    0  501  502 -0.00000000000E+00 -0.00000000000E+00 -0.34044280656E+03  0.34044280656E+03  0.00000000000E+00 0.  1.
         25    1    1    2    0    0 -0.88499037828E+02  0.14155980379E+03 -0.12682079142E+03  0.24408967795E+03  0.12500000000E+03 0.  0.
         25    1    1    2    0    0  0.44660696541E+02 -0.16828270127E+03  0.13471343328E+02  0.21475596023E+03  0.12500000000E+03 0.  0.
         25    1    1    2    0    0  0.43838341288E+02  0.26722897483E+02  0.29658899339E+02  0.13834942619E+03  0.12500000000E+03 0.  0.
</event>
<event>
 5    0  0.5616733E-005  0.2904685E+03  0.7546771E-02  0.1090105E+00
         21   -1    0    0  502  501  0.00000000000E+00  0.00000000000E+00  0.77103752297E+02  0.77103752297E+02  0.00000000000E+00 0. -1.
         21   -1    0    0  501  502 -0.00000000000E+00 -0.00000000000E+00 -0.10942650579E+04  0.10942650579E+04  0.00000000000E+00 0. -1.
         25    1    1    2    0    0 -0.84977934917E+02  0.85764630299E+02 -0.17332293646E+03  0.24544380525E+03  0.12500000000E+03 0.  0.
         25    1    1    2    0    0  0.83302572325E+02 -0.64390451918E+02 -0.75144808222E+03  0.76901538939E+03  0.12500000000E+03 0.  0.
         25    1    1    2    0    0  0.16753625924E+01 -0.21374178381E+02 -0.92390286978E+02  0.15690961560E+03  0.12500000000E+03 0.  0.
</event>
<event>
 5    0  0.5968054E-005  0.3773782E+03  0.7546771E-02  0.1051907E+00
         21   -1    0    0  502  501  0.00000000000E+00  0.00000000000E+00  0.88288538394E+02  0.88288538394E+02  0.00000000000E+00 0. -1.
         21   -1    0    0  501  502 -0.00000000000E+00 -0.00000000000E+00 -0.16130557498E+04  0.16130557498E+04  0.00000000000E+00 0. -1.
         25    1    1    2    0    0  0.12280796344E+03  0.26099809540E+02 -0.87031411383E+03  0.88816364071E+03  0.12500000000E+03 0.  0.
         25    1    1    2    0    0  0.87187273281E+02 -0.12001946576E+03 -0.15139450153E+03  0.24607232245E+03  0.12500000000E+03 0.  0.
         25    1    1    2    0    0 -0.20999523672E+03  0.93919656220E+02 -0.50305859605E+03  0.56710832504E+03  0.12500000000E+03 0.  0.
</event>
<event>
 5    0  0.5616733E-005  0.4132458E+03  0.7546771E-02  0.1039287E+00
         21   -1    0    0  502  501  0.00000000000E+00  0.00000000000E+00  0.50314160567E+03  0.50314160567E+03  0.00000000000E+00 0. -1.
         21   -1    0    0  501  502 -0.00000000000E+00 -0.00000000000E+00 -0.33941156885E+03  0.33941156885E+03  0.00000000000E+00 0. -1.
         25    1    1    2    0    0 -0.39561449525E+02 -0.81159306616E+02 -0.12267332118E+02  0.15468493390E+03  0.12500000000E+03 0.  0.
         25    1    1    2    0    0  0.15262694025E+02  0.34382628070E+03  0.48601444608E+02  0.36937320090E+03  0.12500000000E+03 0.  0.
         25    1    1    2    0    0  0.24298755500E+02 -0.26266697408E+03  0.12739592432E+03  0.31849503972E+03  0.12500000000E+03 0.  0.
</event>
<event>
 5    0  0.6244869E-005  0.4947662E+03  0.7546771E-02  0.1015154E+00
         21   -1    0    0  502  501  0.00000000000E+00  0.00000000000E+00  0.12143993424E+04  0.12143993424E+04  0.00000000000E+00 0. -1.
         21   -1    0    0  501  502 -0.00000000000E+00 -0.00000000000E+00 -0.20157583954E+03  0.20157583954E+03  0.00000000000E+00 0. -1.
         25    1    1    2    0    0 -0.68071328444E+02  0.10849787321E+03  0.72123818459E+03  0.74311170974E+03  0.12500000000E+03 0.  0.
         25    1    1    2    0    0  0.25294316979E+03 -0.18760663009E+03  0.27344027498E+03  0.43539760998E+03  0.12500000000E+03 0.  0.
         25    1    1    2    0    0 -0.18487184135E+03  0.79108756881E+02  0.18145043339E+02  0.23746586225E+03  0.12500000000E+03 0.  0.
</event>
<event>
 5    0  0.5616733E-005  0.2939469E+03  0.7546771E-02  0.1088306E+00
         21   -1    0    0  502  501  0.00000000000E+00  0.00000000000E+00  0.92552564164E+03  0.92552564164E+03  0.00000000000E+00 0.  1.
         21   -1    0    0  501  502 -0.00000000000E+00 -0.00000000000E+00 -0.93357495683E+02  0.93357495683E+02  0.00000000000E+00 0.  1.
         25    1    1    2    0    0 -0.12525934568E+03 -0.53825602067E+02  0.31274823247E+03  0.36335045896E+03  0.12500000000E+03 0.  0.
         25    1    1    2    0    0  0.10083269749E+02 -0.40601252134E+02  0.39321998305E+02  0.13755491105E+03  0.12500000000E+03 0.  0.
         25    1    1    2    0    0  0.11517607593E+03  0.94426854201E+02  0.48009791519E+03  0.51797776731E+03  0.12500000000E+03 0.  0.
</event>
<event>
 5    0  0.5616733E-005  0.3535857E+03  0.7546771E-02  0.1061153E+00
         21   -1    0    0  502  501  0.00000000000E+00  0.00000000000E+00  0.73527120912E+02  0.73527120912E+02  0.00000000000E+00 0.  1.
         21   -1    0    0  501  502 -0.00000000000E+00 -0.00000000000E+00 -0.17003633177E+04  0.17003633177E+04  0.00000000000E+00 0.  1.
         25    1    1    2    0    0 -0.10151760790E+03 -0.48103217214E+02 -0.85044619965E+02  0.18835427153E+03  0.12500000000E+03 0.  0.
         25    1    1    2    0    0  0.20864640378E+02 -0.84187436047E+02 -0.43145682865E+03  0.45749628698E+03  0.12500000000E+03 0.  0.
         25    1    1    2    0    0  0.80652967517E+02  0.13229065326E+03 -0.11103347481E+04  0.11280398801E+04  0.12500000000E+03 0.  0.
</event>
<event>
 5    0  0.5694547E-005  0.2654960E+03  0.7546771E-02  0.1103885E+00
         21   -1    0    0  502  501  0.00000000000E+00  0.00000000000E+00  0.74554562625E+03  0.74554562625E+03  0.00000000000E+00 0. -1.
         21   -1    0    0  501  502 -0.00000000000E+00 -0.00000000000E+00 -0.94545675720E+02  0.94545675720E+02  0.00000000000E+00 0. -1.
         25    1    1    2    0    0 -0.91823061713E+02  0.94598544663E+01  0.35828512540E+02  0.15946675459E+03  0.12500000000E+03 0.  0.
         25    1    1    2    0    0  0.24696525646E+02  0.46061073631E+02  0.23834547707E+03  0.27416255638E+03  0.12500000000E+03 0.  0.
         25    1    1    2    0    0  0.67126536067E+02 -0.55520928097E+02  0.37682596092E+03  0.40646199099E+03  0.12500000000E+03 0.  0.
</event>
<event>
 5    0  0.5616733E-005  0.3199168E+03  0.7546771E-02  0.1075688E+00
         21   -1    0    0  502  501  0.00000000000E+00  0.00000000000E+00  0.10344682710E+04  0.10344682710E+04  0.00000000000E+00 0. -1.
         21   -1    0    0  501  502 -0.00000000000E+00 -0.00000000000E+00 -0.98936568077E+02  0.98936568077E+02  0.00000000000E+00 0. -1.
         25    1    1    2    0    0 -0.45000256249E+01  0.68592764700E+01  0.61370256892E+03  0.62635704115E+03  0.12500000000E+03 0.  0.
         25    1    1    2    0    0 -0.11800833853E+03  0.80378043434E+02  0.11261497348E+03  0.22066655859E+03  0.12500000000E+03 0.  0.
         25    1    1    2    0    0  0.12250836416E+03 -0.87237319904E+02  0.20921416051E+03  0.28638123931E+03  0.12500000000E+03 0.  0.
</event>
<event>
 5    0  0.5616733E-005  0.4140715E+03  0.7546771E-02  0.1039013E+00
         21   -1    0    0  502  501  0.00000000000E+00  0.00000000000E+00  0.10805765465E+03  0.10805765465E+03  0.00000000000E+00 0. -1.
         21   -1    0    0  501  502 -0.00000000000E+00 -0.00000000000E+00 -0.15867010035E+04  0.15867010035E+04  0.00000000000E+00 0. -1.
         25    1    1    2    0    0 -0.73525374414E+02 -0.24296882085E+03 -0.11972763487E+04  0.12302582996E+04  0.12500000000E+03 0.  0.
         25    1    1    2    0    0  0.68801820841E+01  0.14958234805E+03 -0.18766862003E+03  0.27067827157E+03  0.12500000000E+03 0.  0.
         25    1    1    2    0    0  0.66645192330E+02  0.93386472802E+02 -0.93698380124E+02  0.19382208698E+03  0.12500000000E+03 0.  0.
</event>
<event>
 5    0  0.5616733E-005  0.3179997E+03  0.7546771E-02  0.1076574E+00
         21   -1    0    0  502  501  0.00000000000E+00  0.00000000000E+00  0.11571456839E+04  0.11571456839E+04  0.00000000000E+00 0. -1.
         21   -1    0    0  501  502 -0.00000000000E+00 -0.00000000000E+00 -0.87390723001E+02  0.87390723001E+02  0.00000000000E+00 0. -1.
         25    1    1    2    0    0 -0.14237940016E+03 -0.51607388991E+02  0.69191705261E+03  0.71924225674E+03  0.12500000000E+03 0.  0.
         25    1    1    2    0    0 -0.33828771103E+02 -0.39012955346E+01  0.76753806421E+02  0.15058470261E+03  0.12500000000E+03 0.  0.
         25    1    1    2    0    0  0.17620817127E+03  0.55508684525E+02  0.30108410184E+03  0.37470944752E+03  0.12500000000E+03 0.  0.
</event>
<event>
 5    0  0.5616733E-005  0.3389838E+03  0.7546771E-02  0.1067230E+00
         21   -1    0    0  502  501  0.00000000000E+00  0.00000000000E+00  0.38778933289E+03  0.38778933289E+03  0.00000000000E+00 0.  1.
         21   -1    0    0  501  502 -0.00000000000E+00 -0.00000000000E+00 -0.29632077895E+03  0.29632077895E+03  0.00000000000E+00 0.  1.
         25    1    1    2    0    0  0.22739072172E+03  0.67691447838E+02  0.79385369556E+02  0.27967071591E+03  0.12500000000E+03 0.  0.
         25    1    1    2    0    0 -0.23908561993E+03 -0.38675366305E+02 -0.14249889008E+02  0.27292082543E+03  0.12500000000E+03 0.  0.
         25    1    1    2    0    0  0.11694898206E+02 -0.29016081533E+02  0.26333073397E+02  0.13151857050E+03  0.12500000000E+03 0.  0.
</event>
<event>
 5    0  0.5616733E-005  0.4249087E+03  0.7546771E-02  0.1035480E+00
         21   -1    0    0  502  501  0.00000000000E+00  0.00000000000E+00  0.37253372184E+03  0.37253372184E+03  0.00000000000E+00 0. -1.
         21   -1    0    0  501  502 -0.00000000000E+00 -0.00000000000E+00 -0.48464712052E+03  0.48464712052E+03  0.00000000000E+00 0. -1.
         25    1    1    2    0    0  0.27384851565E+02  0.79705906914E+02 -0.27580404613E+02  0.15326004179E+03  0.12500000000E+03 0.  0.
         25    1    1    2    0    0  0.16772882473E+03 -0.30352431984E+03  0.80659024254E+01  0.36871402219E+03  0.12500000000E+03 0.  0.
         25    1    1    2    0    0 -0.19511367630E+03  0.22381841292E+03 -0.92598896489E+02  0.33520677838E+03  0.12500000000E+03 0.  0.
</event>
<event>
 5    0  0.5616733E-005  0.3187452E+03  0.7546771E-02  0.1076228E+00
         21   -1    0    0  502  501  0.00000000000E+00  0.00000000000E+00  0.19641575471E+03  0.19641575471E+03  0.00000000000E+00 0. -1.
         21   -1    0    0  501  502 -0.00000000000E+00 -0.00000000000E+00 -0.51726251469E+03  0.51726251469E+03  0.00000000000E+00 0. -1.
         25    1    1    2    0    0  0.10820198747E+03 -0.62808073369E+02 -0.46982690987E+02  0.18298879043E+03  0.12500000000E+03 0.  0.
         25    1    1    2    0    0 -0.13861562899E+03  0.87635784158E+02  0.21745278678E+02  0.20734555797E+03  0.12500000000E+03 0.  0.
         25    1    1    2    0    0  0.30413641520E+02 -0.24827710789E+02 -0.29560934767E+03  0.32334392099E+03  0.12500000000E+03 0.  0.
</event>
<event>
 5    0  0.5616733E-005  0.2535256E+03  0.7546771E-02  0.1111097E+00
         21   -1    0    0  502  501  0.00000000000E+00  0.00000000000E+00  0.12108463172E+03  0.12108463172E+03  0.00000000000E+00 0. -1.
         21   -1    0    0  501  502 -0.00000000000E+00 -0.00000000000E+00 -0.53082913243E+03  0.53082913243E+03  0.00000000000E+00 0. -1.
         25    1    1    2    0    0  0.93835790340E+02  0.69579294753E+02 -0.27791370738E+02  0.17333145731E+03  0.12500000000E+03 0.  0.
         25    1    1    2    0    0 -0.46192010973E+02 -0.60173730918E+02 -0.25484735196E+03  0.29381414631E+03  0.12500000000E+03 0.  0.
         25    1    1    2    0    0 -0.47643779367E+02 -0.94055638347E+01 -0.12710577801E+03  0.18476816053E+03  0.12500000000E+03 0.  0.
</event>
<event>
 5    0  0.5616733E-005  0.2166784E+03  0.7546771E-02  0.1136384E+00
         21   -1    0    0  502  501  0.00000000000E+00  0.00000000000E+00  0.10577004803E+03  0.10577004803E+03  0.00000000000E+00 0. -1.
         21   -1    0    0  501  502 -0.00000000000E+00 -0.00000000000E+00 -0.44388307053E+03  0.44388307053E+03  0.00000000000E+00 0. -1.
         25    1    1    2    0    0 -0.13685993906E+01  0.21984279911E+02 -0.44671948881E+02  0.13455766290E+03  0.12500000000E+03 0.  0.
         25    1    1    2    0    0 -0.26155140789E+02  0.20122140310E+01 -0.24473884009E+03  0.27606202246E+03  0.12500000000E+03 0.  0.
         25    1    1    2    0    0  0.27523740179E+02 -0.23996493942E+02 -0.48702233526E+02  0.13903343319E+03  0.12500000000E+03 0.  0.
</event>
<event>
 5    0  0.5616733E-005  0.4020024E+03  0.7546771E-02  0.1043089E+00
         21   -1    0    0  502  501  0.00000000000E+00  0.00000000000E+00  0.17254811506E+03  0.17254811506E+03  0.00000000000E+00 0.  1.
         21   -1    0    0  501  502 -0.00000000000E+00 -0.00000000000E+00 -0.93658457429E+03  0.93658457429E+03  0.00000000000E+00 0.  1.
         25    1    1    2    0    0  0.20855708711E+03  0.19414770681E+03 -0.21899776752E+03  0.38049232952E+03  0.12500000000E+03 0.  0.
         25    1    1    2    0    0 -0.57638925998E+02 -0.23487369174E+03 -0.38926509028E+03  0.47501600749E+03  0.12500000000E+03 0.  0.
         25    1    1    2    0    0 -0.15091816111E+03  0.40725984930E+02 -0.15577360143E+03  0.25362435235E+03  0.12500000000E+03 0.  0.
</event>
<event>
 5    0  0.5616733E-005  0.4821222E+03  0.7546771E-02  0.1018554E+00
         21   -1    0    0  502  501  0.00000000000E+00  0.00000000000E+00  0.83964113928E+03  0.83964113928E+03  0.00000000000E+00 0.  1.
         21   -1    0    0  501  502 -0.00000000000E+00 -0.00000000000E+00 -0.27683470927E+03  0.27683470927E+03  0.00000000000E+00 0.  1.
         25    1    1    2    0    0 -0.13493448733E+03  0.18971534684E+03  0.54442190942E+03  0.60516067631E+03  0.12500000000E+03 0.  0.
         25    1    1    2    0    0 -0.10167841241E+03 -0.38805791819E+02  0.99829962643E+02  0.19348232599E+03  0.12500000000E+03 0.  0.
         25    1    1    2    0    0  0.23661289974E+03 -0.15090955502E+03 -0.81445442049E+02  0.31783284624E+03  0.12500000000E+03 0.  0.
</event>
<event>
 5    0  0.5616733E-005  0.3197608E+03  0.7546771E-02  0.1075759E+00
         21   -1    0    0  502  501  0.00000000000E+00  0.00000000000E+00  0.25679521218E+03  0.25679521218E+03  0.00000000000E+00 0. -1.
         21   -1    0    0  501  502 -0.00000000000E+00 -0.00000000000E+00 -0.39816547966E+03  0.39816547966E+03  0.00000000000E+00 0. -1.
         25    1    1    2    0    0  0.12337727732E+03  0.11067211685E+03 -0.13251357146E+03  0.24628259506E+03  0.12500000000E+03 0.  0.
         25    1    1    2    0    0 -0.42811813152E+02 -0.16273291852E+03  0.83961576438E+02  0.22580832676E+03  0.12500000000E+03 0.  0.
         25    1    1    2    0    0 -0.80565464168E+02  0.52060801673E+02 -0.92818272459E+02  0.18286977003E+03  0.12500000000E+03 0.  0.
</event>
<event>
 5    0  0.5616733E-005  0.2706233E+03  0.7546771E-02  0.1100923E+00
         21   -1    0    0  502  501  0.00000000000E+00  0.00000000000E+00  0.76097793654E+03  0.76097793654E+03  0.00000000000E+00 0.  1.
         21   -1    0    0  501  502 -0.00000000000E+00 -0.00000000000E+00 -0.96240603546E+02  0.96240603546E+02  0.00000000000E+00 0.  1.
         25    1    1    2    0    0 -0.33513841538E+02 -0.79054638693E+02  0.30105804466E+03  0.33709606899E+03  0.12500000000E+03 0.  0.
         25    1    1    2    0    0 -0.97405728895E+02 -0.25072290707E+02  0.18863261311E+03  0.24763634328E+03  0.12500000000E+03 0.  0.
         25    1    1    2    0    0  0.13091957043E+03  0.10412692940E+03  0.17504667523E+03  0.27248612782E+03  0.12500000000E+03 0.  0.
</event>
<event>
 5    0  0.5616733E-005  0.3117443E+03  0.7546771E-02  0.1079513E+00
         21   -1    0    0  502  501  0.00000000000E+00  0.00000000000E+00  0.38671070741E+03  0.38671070741E+03  0.00000000000E+00 0. -1.
         21   -1    0    0  501  502 -0.00000000000E+00 -0.00000000000E+00 -0.25131062050E+03  0.25131062050E+03  0.00000000000E+00 0. -1.
         25    1    1    2    0    0 -0.48502760145E+02 -0.21440930843E+03 -0.25040465060E+02  0.25411787457E+03  0.12500000000E+03 0.  0.
         25    1    1    2    0    0  0.34504238560E+02  0.48613761677E+02  0.43337978156E+02  0.14511037404E+03  0.12500000000E+03 0.  0.
         25    1    1    2    0    0  0.13998521585E+02  0.16579554675E+03  0.11710257382E+03  0.23879307931E+03  0.12500000000E+03 0.  0.
</event>
<event>
 5    0  0.5616733E-005  0.3881823E+03  0.7546771E-02  0.1047950E+00
         21   -1    0    0  502  501  0.00000000000E+00  0.00000000000E+00  0.11348009842E+04  0.11348009842E+04  0.00000000000E+00 0. -1.
         21   -1    0    0  501  502 -0.00000000000E+00 -0.00000000000E+00 -0.13278581669E+03  0.13278581669E+03  0.00000000000E+00 0. -1.
         25    1    1    2    0    0  0.59784611609E+02 -0.17523386457E+03  0.23831006688E+03  0.32664628431E+03  0.12500000000E+03 0.  0.
         25    1    1    2    0    0  0.14188656764E+02 -0.86626445401E+02  0.40242838666E+02  0.15795551617E+03  0.12500000000E+03 0.  0.
         25    1    1    2    0    0 -0.73973268373E+02  0.26186030997E+03  0.72346226196E+03  0.78298500040E+03  0.12500000000E+03 0.  0.
</event>
<event>
 5    0  0.6220453E-005  0.5038219E+03  0.7546771E-02  0.1012786E+00
         21   -1    0    0  502  501  0.00000000000E+00  0.00000000000E+00  0.76987409614E+03  0.76987409614E+03  0.00000000000E+00 0. -1.
         21   -1    0    0  501  502 -0.00000000000E+00 -0.00000000000E+00 -0.32971174761E+03  0.32971174761E+03  0.00000000000E+00 0. -1.
         25    1    1    2    0    0  0.23186125775E+03 -0.17869608645E+03 -0.76854152391E+01  0.31839597951E+03  0.12500000000E+03 0.  0.
         25    1    1    2    0    0 -0.43835584488E+02  0.28672124635E+03  0.42548175958E+03  0.52989655529E+03  0.12500000000E+03 0.  0.
         25    1    1    2    0    0 -0.18802567327E+03 -0.10802515990E+03  0.22366004184E+02  0.25129330895E+03  0.12500000000E+03 0.  0.
</event>
<event>
 5    0  0.5616733E-005  0.3615509E+03  0.7546771E-02  0.1057971E+00
         21   -1    0    0  502  501  0.00000000000E+00  0.00000000000E+00  0.12407840329E+03  0.12407840329E+03  0.00000000000E+00 0.  1.
         21   -1    0    0  501  502 -0.00000000000E+00 -0.00000000000E+00 -0.10535197587E+04  0.10535197587E+04  0.00000000000E+00 0.  1.
         25    1    1    2    0    0  0.44170481499E+02 -0.22279433022E+03 -0.27564245845E+03  0.37840733333E+03  0.12500000000E+03 0.  0.
         25    1    1    2    0    0 -0.11396291857E+03  0.32105174910E+02 -0.46244095727E+03  0.49345205240E+03  0.12500000000E+03 0.  0.
         25    1    1    2    0    0  0.69792437068E+02  0.19068915531E+03 -0.19135793968E+03  0.30573877625E+03  0.12500000000E+03 0.  0.
</event>
<event>
 5    0  0.5616733E-005  0.3178309E+03  0.7546771E-02  0.1076652E+00
         21   -1    0    0  502  501  0.00000000000E+00  0.00000000000E+00  0.34353017922E+03  0.34353017922E+03  0.00000000000E+00 0.  1.
         21   -1    0    0  501  502 -0.00000000000E+00 -0.00000000000E+00 -0.29405420831E+03  0.29405420831E+03  0.00000000000E+00 0.  1.
         25    1    1    2    0    0 -0.13182489898E+03 -0.41465504525E+02 -0.14364019158E+03  0.23527578859E+03  0.12500000000E+03 0.  0.
         25    1    1    2    0    0  0.37949440016E+02  0.75869546261E+02 -0.53415234432E+00  0.15106830695E+03  0.12500000000E+03 0.  0.
         25    1    1    2    0    0  0.93875458966E+02 -0.34404041736E+02  0.19365031483E+03  0.25124029199E+03  0.12500000000E+03 0.  0.
</event>
<event>
 5    0  0.5616733E-005  0.3172064E+03  0.7546771E-02  0.1076942E+00
         21   -1    0    0  502  501  0.00000000000E+00  0.00000000000E+00  0.42461260104E+03  0.42461260104E+03  0.00000000000E+00 0. -1.
         21   -1    0    0  501  502 -0.00000000000E+00 -0.00000000000E+00 -0.23696864209E+03  0.23696864209E+03  0.00000000000E+00 0. -1.
         25    1    1    2    0    0  0.30340028668E+02 -0.10421954943E+03  0.86437175245E+00  0.16555355315E+03  0.12500000000E+03 0.  0.
         25    1    1    2    0    0 -0.14145020724E+03  0.19276527925E+03  0.12091923611E+03  0.29565702372E+03  0.12500000000E+03 0.  0.
         25    1    1    2    0    0  0.11111017857E+03 -0.88545729824E+02  0.65860351091E+02  0.20037066626E+03  0.12500000000E+03 0.  0.
</event>
<event>
 5    0  0.5616733E-005  0.3060111E+03  0.7546771E-02  0.1082274E+00
         21   -1    0    0  502  501  0.00000000000E+00  0.00000000000E+00  0.52457626624E+02  0.52457626624E+02  0.00000000000E+00 0.  1.
         21   -1    0    0  501  502 -0.00000000000E+00 -0.00000000000E+00 -0.17851127724E+04  0.17851127724E+04  0.00000000000E+00 0.  1.
         25    1    1    2    0    0 -0.90234796910E+02 -0.35000692397E+02 -0.15996040810E+03  0.22489930903E+03  0.12500000000E+03 0.  0.
         25    1    1    2    0    0 -0.66362651564E+02 -0.31501112227E+02 -0.69201093267E+03  0.70703638699E+03  0.12500000000E+03 0.  0.
         25    1    1    2    0    0  0.15659744847E+03  0.66501804624E+02 -0.88068380496E+03  0.90563470296E+03  0.12500000000E+03 0.  0.
</event>
<event>
 5    0  0.5616733E-005  0.3451984E+03  0.7546771E-02  0.1064603E+00
         21   -1    0    0  502  501  0.00000000000E+00  0.00000000000E+00  0.12755322696E+03  0.12755322696E+03  0.00000000000E+00 0.  1.
         21   -1    0    0  501  502 -0.00000000000E+00 -0.00000000000E+00 -0.93421367931E+03  0.93421367931E+03  0.00000000000E+00 0.  1.
         25    1    1    2    0    0 -0.19953921383E+03  0.57025186126E+02 -0.14215502563E+03  0.28089289956E+03  0.12500000000E+03 0.  0.
         25    1    1    2    0    0 -0.29673508948E+02  0.31178245767E+02 -0.17776552804E+03  0.22153596345E+03  0.12500000000E+03 0.  0.
         25    1    1    2    0    0  0.22921272278E+03 -0.88203431893E+02 -0.48673989867E+03  0.55933804326E+03  0.12500000000E+03 0.  0.
</event>
<event>
 5    0  0.5616733E-005  0.3842091E+03  0.7546771E-02  0.1049389E+00
         21   -1    0    0  502  501  0.00000000000E+00  0.00000000000E+00  0.19872236518E+03  0.19872236518E+03  0.00000000000E+00 0. -1.
         21   -1    0    0  501  502 -0.00000000000E+00 -0.00000000000E+00 -0.74282831575E+03  0.74282831575E+03  0.00000000000E+00 0. -1.
         25    1    1    2    0    0  0.14320119536E+03 -0.11604172829E+03 -0.22831231324E+03  0.31894165208E+03  0.12500000000E+03 0.  0.
         25    1    1    2    0    0  0.64874902589E+02 -0.67153261933E+02  0.33398485748E+02  0.15955805346E+03  0.12500000000E+03 0.  0.
         25    1    1    2    0    0 -0.20807609794E+03  0.18319499023E+03 -0.34919212309E+03  0.46305097539E+03  0.12500000000E+03 0.  0.
</event>
<event>
 5    0  0.5616733E-005  0.3321057E+03  0.7546771E-02  0.1070209E+00
         21   -1    0    0  502  501  0.00000000000E+00  0.00000000000E+00  0.76056251303E+02  0.76056251303E+02  0.00000000000E+00 0.  1.
         21   -1    0    0  501  502 -0.00000000000E+00 -0.00000000000E+00 -0.14501660695E+04  0.14501660695E+04  0.00000000000E+00 0.  1.
         25    1    1    2    0    0 -0.13374465401E+03 -0.93087016194E+02 -0.22365984963E+03  0.30364708692E+03  0.12500000000E+03 0.  0.
         25    1    1    2    0    0  0.79694650081E+02  0.47783804319E+01 -0.96413028509E+03  0.97547233523E+03  0.12500000000E+03 0.  0.
         25    1    1    2    0    0  0.54050003926E+02  0.88308635762E+02 -0.18631968350E+03  0.24710289868E+03  0.12500000000E+03 0.  0.
</event>
<event>
 5    0  0.5616733E-005  0.2553996E+03  0.7546771E-02  0.1109939E+00
         21   -1    0    0  502  501  0.00000000000E+00  0.00000000000E+00  0.67353880877E+02  0.67353880877E+02  0.00000000000E+00 0. -1.
         21   -1    0    0  501  502 -0.00000000000E+00 -0.00000000000E+00 -0.96845140664E+03  0.96845140664E+03  0.00000000000E+00 0. -1.
         25    1    1    2    0    0  0.35491628866E+02  0.35180465613E+02 -0.12742634797E+03  0.18536395290E+03  0.12500000000E+03 0.  0.
         25    1    1    2    0    0  0.21969664062E+02  0.22476327698E+02 -0.10768765864E+03  0.16795678988E+03  0.12500000000E+03 0.  0.
         25    1    1    2    0    0 -0.57461292928E+02 -0.57656793311E+02 -0.66598351916E+03  0.68248454473E+03  0.12500000000E+03 0.  0.
</event>
<event>
 5    0  0.5616733E-005  0.3972670E+03  0.7546771E-02  0.1044730E+00
         21   -1    0    0  502  501  0.00000000000E+00  0.00000000000E+00  0.70856768587E+03  0.70856768587E+03  0.00000000000E+00 0.  1.
         21   -1    0    0  501  502 -0.00000000000E+00 -0.00000000000E+00 -0.22273255886E+03  0.22273255886E+03  0.00000000000E+00 0.  1.
         25    1    1    2    0    0  0.30785436731E+03  0.75495944450E+02  0.30431594873E+03  0.45684477205E+03  0.12500000000E+03 0.  0.
         25    1    1    2    0    0 -0.73145979713E+02 -0.85293446090E+02  0.38798615617E+02  0.17249822859E+03  0.12500000000E+03 0.  0.
         25    1    1    2    0    0 -0.23470838759E+03  0.97975016409E+01  0.14272056267E+03  0.30195724408E+03  0.12500000000E+03 0.  0.
</event>
<event>
 5    0  0.5616733E-005  0.2910146E+03  0.7546771E-02  0.1089821E+00
         21   -1    0    0  502  501  0.00000000000E+00  0.00000000000E+00  0.31253481180E+02  0.31253481180E+02  0.00000000000E+00 0.  1.
         21   -1    0    0  501  502 -0.00000000000E+00 -0.00000000000E+00 -0.27097619383E+04  0.27097619383E+04  0.00000000000E+00 0.  1.
         25    1    1    2    0    0  0.31480501045E+02  0.12017933428E+03 -0.11136041437E+04  0.11274632071E+04  0.12500000000E+03 0.  0.
         25    1    1    2    0    0 -0.20824803164E+02 -0.52734408057E+02 -0.13421697110E+04  0.13491697904E+04  0.12500000000E+03 0.  0.
         25    1    1    2    0    0 -0.10655697881E+02 -0.67444926219E+02 -0.22273460239E+03  0.26438242202E+03  0.12500000000E+03 0.  0.
</event>
<event>
 5    0  0.5616733E-005  0.3040327E+03  0.7546771E-02  0.1083242E+00
         21   -1    0    0  502  501  0.00000000000E+00  0.00000000000E+00  0.11381821992E+04  0.11381821992E+04  0.00000000000E+00 0.  1.
         21   -1    0    0  501  502 -0.00000000000E+00 -0.00000000000E+00 -0.81213619978E+02  0.81213619978E+02  0.00000000000E+00 0.  1.
         25    1    1    2    0    0  0.10553909198E+03 -0.35909644366E+02  0.17455028420E+03  0.24191073603E+03  0.12500000000E+03 0.  0.
         25    1    1    2    0    0  0.85220371132E+02 -0.68721640093E+02  0.41382549382E+03  0.44593913801E+03  0.12500000000E+03 0.  0.
         25    1    1    2    0    0 -0.19075946311E+03  0.10463128446E+03  0.46859280124E+03  0.53154594517E+03  0.12500000000E+03 0.  0.
</event>
<event>
 5    0  0.5616733E-005  0.2296617E+03  0.7546771E-02  0.1126878E+00
         21   -1    0    0  502  501  0.00000000000E+00  0.00000000000E+00  0.15118811979E+03  0.15118811979E+03  0.00000000000E+00 0.  1.
         21   -1    0    0  501  502 -0.00000000000E+00 -0.00000000000E+00 -0.34886656339E+03  0.34886656339E+03  0.00000000000E+00 0.  1.
         25    1    1    2    0    0  0.50496529638E+01  0.98478838757E+02 -0.48116381747E+02  0.16632428226E+03  0.12500000000E+03 0.  0.
         25    1    1    2    0    0  0.86532006777E+01 -0.11134777382E+03 -0.11295344976E+03  0.20213036988E+03  0.12500000000E+03 0.  0.
         25    1    1    2    0    0 -0.13702853642E+02  0.12868935060E+02 -0.36608612088E+02  0.13160003103E+03  0.12500000000E+03 0.  0.
</event>
<event>
 5    0  0.6414062E-005  0.2974262E+03  0.7546771E-02  0.1086534E+00
         21   -1    0    0  502  501  0.00000000000E+00  0.00000000000E+00  0.77976495981E+03  0.77976495981E+03  0.00000000000E+00 0.  1.
         21   -1    0    0  501  502 -0.00000000000E+00 -0.00000000000E+00 -0.11344745931E+03  0.11344745931E+03  0.00000000000E+00 0.  1.
         25    1    1    2    0    0  0.91170154994E+02  0.26493805706E+02  0.10887283556E+03  0.19102935174E+03  0.12500000000E+03 0.  0.
         25    1    1    2    0    0 -0.12904336937E+03 -0.12652779926E+03  0.46296085136E+03  0.51246387683E+03  0.12500000000E+03 0.  0.
         25    1    1    2    0    0  0.37873214372E+02  0.10003399355E+03  0.94483813580E+02  0.18971919055E+03  0.12500000000E+03 0.  0.
</event>
<event>
 5    0  0.5616733E-005  0.4470259E+03  0.7546771E-02  0.1028613E+00
         21   -1    0    0  502  501  0.00000000000E+00  0.00000000000E+00  0.31948674147E+03  0.31948674147E+03  0.00000000000E+00 0. -1.
         21   -1    0    0  501  502 -0.00000000000E+00 -0.00000000000E+00 -0.62547881879E+03  0.62547881879E+03  0.00000000000E+00 0. -1.
         25    1    1    2    0    0  0.23131571573E+03  0.93799903723E+02 -0.40393432668E+03  0.49101254826E+03  0.12500000000E+03 0.  0.
         25    1    1    2    0    0 -0.23810075708E+03 -0.13522607795E+03  0.22044570948E+02  0.30180958531E+03  0.12500000000E+03 0.  0.
         25    1    1    2    0    0  0.67850413462E+01  0.41426174226E+02  0.75897678406E+02  0.15214342669E+03  0.12500000000E+03 0.  0.
</event>
<event>
 5    0  0.5616733E-005  0.2189551E+03  0.7546771E-02  0.1134664E+00
         21   -1    0    0  502  501  0.00000000000E+00  0.00000000000E+00  0.82465150225E+02  0.82465150225E+02  0.00000000000E+00 0. -1.
         21   -1    0    0  501  502 -0.00000000000E+00 -0.00000000000E+00 -0.58135279785E+03  0.58135279785E+03  0.00000000000E+00 0. -1.
         25    1    1    2    0    0  0.87471424745E+02  0.15843731868E+02 -0.16177412174E+03  0.22293079745E+03  0.12500000000E+03 0.  0.
         25    1    1    2    0    0 -0.19761847084E+02  0.36764211078E+02 -0.17306507700E+03  0.21752852386E+03  0.12500000000E+03 0.  0.
         25    1    1    2    0    0 -0.67709577661E+02 -0.52607942946E+02 -0.16404844888E+03  0.22335862676E+03  0.12500000000E+03 0.  0.
</event>
<event>
 5    0  0.5616733E-005  0.3244259E+03  0.7546771E-02  0.1073630E+00
         21   -1    0    0  502  501  0.00000000000E+00  0.00000000000E+00  0.11459973215E+03  0.11459973215E+03  0.00000000000E+00 0.  1.
         21   -1    0    0  501  502 -0.00000000000E+00 -0.00000000000E+00 -0.91843315921E+03  0.91843315921E+03  0.00000000000E+00 0.  1.
         25    1    1    2    0    0 -0.19871593080E+03 -0.11327720709E+02 -0.12334616520E+03  0.26543476577E+03  0.12500000000E+03 0.  0.
         25    1    1    2    0    0  0.12497449129E+03  0.72106626794E+02 -0.44684045096E+03  0.48591087425E+03  0.12500000000E+03 0.  0.
         25    1    1    2    0    0  0.73741439517E+02 -0.60778906085E+02 -0.23364681090E+03  0.28168725134E+03  0.12500000000E+03 0.  0.
</event>
<event>
 5    0  0.6832312E-005  0.4972001E+03  0.7546771E-02  0.1014512E+00
         21   -1    0    0  502  501  0.00000000000E+00  0.00000000000E+00  0.69858361206E+03  0.69858361206E+03  0.00000000000E+00 0. -1.
         21   -1    0    0  501  502 -0.00000000000E+00 -0.00000000000E+00 -0.35387022742E+03  0.35387022742E+03  0.00000000000E+00 0. -1.
         25    1    1    2    0    0 -0.53032123947E+02  0.45396903410E+02  0.50058279402E+03  0.52065479799E+03  0.12500000000E+03 0.  0.
         25    1    1    2    0    0 -0.10238322621E+03 -0.17012576293E+03 -0.17944776219E+03  0.29538381739E+03  0.12500000000E+03 0.  0.
         25    1    1    2    0    0  0.15541535015E+03  0.12472885952E+03  0.23578352819E+02  0.23641522409E+03  0.12500000000E+03 0.  0.
</event>
<event>
 5    0  0.5616733E-005  0.4511864E+03  0.7546771E-02  0.1027369E+00
         21   -1    0    0  502  501  0.00000000000E+00  0.00000000000E+00  0.15741530838E+04  0.15741530838E+04  0.00000000000E+00 0.  1.
         21   -1    0    0  501  502 -0.00000000000E+00 -0.00000000000E+00 -0.12931981930E+03  0.12931981930E+03  0.00000000000E+00 0.  1.
         25    1    1    2    0    0 -0.25001765517E+03  0.49103386171E+01  0.63302782978E+03  0.69201313036E+03  0.12500000000E+03 0.  0.
         25    1    1    2    0    0 -0.82465282239E+02  0.44264684927E+02  0.41190612732E+02  0.16149783802E+03  0.12500000000E+03 0.  0.
         25    1    1    2    0    0  0.33248293740E+03 -0.49175023544E+02  0.77061482197E+03  0.84996193470E+03  0.12500000000E+03 0.  0.
</event>
<event>
 5    0  0.5616733E-005  0.4023386E+03  0.7546771E-02  0.1042973E+00
         21   -1    0    0  502  501  0.00000000000E+00  0.00000000000E+00  0.15462042299E+04  0.15462042299E+04  0.00000000000E+00 0.  1.
         21   -1    0    0  501  502 -0.00000000000E+00 -0.00000000000E+00 -0.10469274327E+03  0.10469274327E+03  0.00000000000E+00 0.  1.
         25    1    1    2    0    0 -0.21325122060E+03 -0.17199494139E+03  0.43830189863E+03  0.53178181362E+03  0.12500000000E+03 0.  0.
         25    1    1    2    0    0  0.14165511598E+03 -0.50243363299E+02  0.23025750137E+03  0.30204980446E+03  0.12500000000E+03 0.  0.
         25    1    1    2    0    0  0.71596104625E+02  0.22223830469E+03  0.77295208660E+03  0.81706535507E+03  0.12500000000E+03 0.  0.
</event>
<event>
 5    0  0.5616733E-005  0.7636075E+03  0.7546771E-02  0.9614241E-01
         21   -1    0    0  502  501  0.00000000000E+00  0.00000000000E+00  0.65098098197E+03  0.65098098197E+03  0.00000000000E+00 0.  1.
         21   -1    0    0  501  502 -0.00000000000E+00 -0.00000000000E+00 -0.89571950573E+03  0.89571950573E+03  0.00000000000E+00 0.  1.
         25    1    1    2    0    0 -0.84757096187E+02 -0.66770831057E+03  0.19129242434E+02  0.68484237696E+03  0.12500000000E+03 0.  0.
         25    1    1    2    0    0 -0.15823532721E+03  0.26497339404E+03 -0.12598580182E+03  0.35601508478E+03  0.12500000000E+03 0.  0.
         25    1    1    2    0    0  0.24299242340E+03  0.40273491653E+03 -0.13788196437E+03  0.50584302597E+03  0.12500000000E+03 0.  0.
</event>
<event>
 5    0  0.5616733E-005  0.2868396E+03  0.7546771E-02  0.1092011E+00
         21   -1    0    0  502  501  0.00000000000E+00  0.00000000000E+00  0.21127887304E+03  0.21127887304E+03  0.00000000000E+00 0.  1.
         21   -1    0    0  501  502 -0.00000000000E+00 -0.00000000000E+00 -0.38942342161E+03  0.38942342161E+03  0.00000000000E+00 0.  1.
         25    1    1    2    0    0  0.57493107842E+02 -0.77940375934E+02 -0.77192489401E+02  0.17596545135E+03  0.12500000000E+03 0.  0.
         25    1    1    2    0    0 -0.70960178549E+02 -0.93459075720E+02  0.31447355760E+02  0.17430972996E+03  0.12500000000E+03 0.  0.
         25    1    1    2    0    0  0.13467070708E+02  0.17139945165E+03 -0.13239941493E+03  0.25042711334E+03  0.12500000000E+03 0.  0.
</event>
<event>
 5    0  0.6561490E-005  0.3039924E+03  0.7546771E-02  0.1083262E+00
         21   -1    0    0  502  501  0.00000000000E+00  0.00000000000E+00  0.75127145718E+03  0.75127145718E+03  0.00000000000E+00 0.  1.
         21   -1    0    0  501  502 -0.00000000000E+00 -0.00000000000E+00 -0.12300667159E+03  0.12300667159E+03  0.00000000000E+00 0.  1.
         25    1    1    2    0    0  0.73464170810E+02 -0.39587864820E+02  0.57812088052E+02  0.16103235997E+03  0.12500000000E+03 0.  0.
         25    1    1    2    0    0 -0.74778811801E+01 -0.48219222694E+02  0.16927777890E+02  0.13524999744E+03  0.12500000000E+03 0.  0.
         25    1    1    2    0    0 -0.65986289630E+02  0.87807087514E+02  0.55352491965E+03  0.57799577136E+03  0.12500000000E+03 0.  0.
</event>
<event>
 5    0  0.5616733E-005  0.3629492E+03  0.7546771E-02  0.1057422E+00
         21   -1    0    0  502  501  0.00000000000E+00  0.00000000000E+00  0.13415541878E+03  0.13415541878E+03  0.00000000000E+00 0. -1.
         21   -1    0    0  501  502 -0.00000000000E+00 -0.00000000000E+00 -0.98193688265E+03  0.98193688265E+03  0.00000000000E+00 0. -1.
         25    1    1    2    0    0  0.45093424004E+02  0.97511172281E+02 -0.36284835488E+02  0.16877036142E+03  0.12500000000E+03 0.  0.
         25    1    1    2    0    0 -0.13946678251E+03  0.75017886099E+02 -0.16669447282E+03  0.26170730583E+03  0.12500000000E+03 0.  0.
         25    1    1    2    0    0  0.94373358506E+02 -0.17252905838E+03 -0.64480215556E+03  0.68561463417E+03  0.12500000000E+03 0.  0.
</event>
<event>
 5    0  0.5616733E-005  0.5066343E+03  0.7546771E-02  0.1012062E+00
         21   -1    0    0  502  501  0.00000000000E+00  0.00000000000E+00  0.14623380919E+04  0.14623380919E+04  0.00000000000E+00 0. -1.
         21   -1    0    0  501  502 -0.00000000000E+00 -0.00000000000E+00 -0.17552594915E+03  0.17552594915E+03  0.00000000000E+00 0. -1.
         25    1    1    2    0    0 -0.13583043093E+03  0.66965723192E+02  0.63720227025E+02  0.20644510500E+03  0.12500000000E+03 0.  0.
         25    1    1    2    0    0  0.34180852414E+02  0.14026625748E+03  0.11402980797E+04  0.11561780418E+04  0.12500000000E+03 0.  0.
         25    1    1    2    0    0  0.10164957851E+03 -0.20723198067E+03  0.82793836076E+02  0.27524089434E+03  0.12500000000E+03 0.  0.
</event>
<event>
 5    0  0.5616733E-005  0.4647630E+03  0.7546771E-02  0.1023409E+00
         21   -1    0    0  502  501  0.00000000000E+00  0.00000000000E+00  0.80591507040E+03  0.80591507040E+03  0.00000000000E+00 0.  1.
         21   -1    0    0  501  502 -0.00000000000E+00 -0.00000000000E+00 -0.26802410088E+03  0.26802410088E+03  0.00000000000E+00 0.  1.
         25    1    1    2    0    0 -0.10762675521E+03 -0.11932902941E+03 -0.54400073059E+02  0.21073040513E+03  0.12500000000E+03 0.  0.
         25    1    1    2    0    0 -0.17741452718E+03 -0.10797026796E+03  0.21980800522E+03  0.32722171746E+03  0.12500000000E+03 0.  0.
         25    1    1    2    0    0  0.28504128239E+03  0.22729929737E+03  0.37248303735E+03  0.53598704869E+03  0.12500000000E+03 0.  0.
</event>
<event>
 5    0  0.5616733E-005  0.3538997E+03  0.7546771E-02  0.1061026E+00
         21   -1    0    0  502  501  0.00000000000E+00  0.00000000000E+00  0.30713509893E+03  0.30713509893E+03  0.00000000000E+00 0. -1.
         21   -1    0    0  501  502 -0.00000000000E+00 -0.00000000000E+00 -0.40778466396E+03  0.40778466396E+03  0.00000000000E+00 0. -1.
         25    1    1    2    0    0  0.70494968665E+02 -0.19164214217E+03 -0.66400952878E+01  0.23951063051E+03  0.12500000000E+03 0.  0.
         25    1    1    2    0    0 -0.16618495858E+03  0.87037189423E+02  0.58101281150E+02  0.23279534289E+03  0.12500000000E+03 0.  0.
         25    1    1    2    0    0  0.95689989916E+02  0.10460495275E+03 -0.15211075090E+03  0.24261378949E+03  0.12500000000E+03 0.  0.
</event>
<event>
 5    0  0.5616733E-005  0.2524252E+03  0.7546771E-02  0.1111782E+00
         21   -1    0    0  502  501  0.00000000000E+00  0.00000000000E+00  0.19650508674E+04  0.19650508674E+04  0.00000000000E+00 0. -1.
         21   -1    0    0  501  502 -0.00000000000E+00 -0.00000000000E+00 -0.32425877798E+02  0.32425877798E+02  0.00000000000E+00 0. -1.
         25    1    1    2    0    0 -0.88703712950E+02  0.99901514425E+02  0.64531579829E+03  0.67075043109E+03  0.12500000000E+03 0.  0.
         25    1    1    2    0    0  0.92027122517E+02 -0.54174317659E+02  0.45406605885E+03  0.48291286354E+03  0.12500000000E+03 0.  0.
         25    1    1    2    0    0 -0.33234095669E+01 -0.45727196767E+02  0.83324313246E+03  0.84381345057E+03  0.12500000000E+03 0.  0.
</event>
<event>
 5    0  0.6056899E-005  0.2769353E+03  0.7546771E-02  0.1097375E+00
         21   -1    0    0  502  501  0.00000000000E+00  0.00000000000E+00  0.43891337584E+03  0.43891337584E+03  0.00000000000E+00 0. -1.
         21   -1    0    0  501  502 -0.00000000000E+00 -0.00000000000E+00 -0.17473411349E+03  0.17473411349E+03  0.00000000000E+00 0. -1.
         25    1    1    2    0    0 -0.92400809846E+02  0.87268118630E+02 -0.20331090579E+02  0.17942125692E+03  0.12500000000E+03 0.  0.
         25    1    1    2    0    0  0.65029304745E+02 -0.97704005286E+02  0.72048655347E+02  0.18598626794E+03  0.12500000000E+03 0.  0.
         25    1    1    2    0    0  0.27371505101E+02  0.10435886656E+02  0.21246169759E+03  0.24823996448E+03  0.12500000000E+03 0.  0.
</event>
<event>
 5    0  0.5616733E-005  0.2243598E+03  0.7546771E-02  0.1130674E+00
         21   -1    0    0  502  501  0.00000000000E+00  0.00000000000E+00  0.11322382551E+04  0.11322382551E+04  0.00000000000E+00 0. -1.
         21   -1    0    0  501  502 -0.00000000000E+00 -0.00000000000E+00 -0.44458254334E+02  0.44458254334E+02  0.00000000000E+00 0. -1.
         25    1    1    2    0    0  0.29754060134E+02  0.57490628331E+02  0.25924607860E+03  0.29499831476E+03  0.12500000000E+03 0.  0.
         25    1    1    2    0    0 -0.30516090729E+02 -0.96085061667E+02  0.56649594994E+03  0.58881765613E+03  0.12500000000E+03 0.  0.
         25    1    1    2    0    0  0.76203059490E+00  0.38594433336E+02  0.26203797227E+03  0.29288053859E+03  0.12500000000E+03 0.  0.
</event>
<event>
 5    0  0.5616733E-005  0.3057636E+03  0.7546771E-02  0.1082394E+00
         21   -1    0    0  502  501  0.00000000000E+00  0.00000000000E+00  0.74788752314E+03  0.74788752314E+03  0.00000000000E+00 0. -1.
         21   -1    0    0  501  502 -0.00000000000E+00 -0.00000000000E+00 -0.12500726733E+03  0.12500726733E+03  0.00000000000E+00 0. -1.
         25    1    1    2    0    0  0.15157118437E+03 -0.13947625969E+03  0.21363557246E+03  0.32201336737E+03  0.12500000000E+03 0.  0.
         25    1    1    2    0    0 -0.11682583913E+03  0.93533932428E+02  0.35080464821E+03  0.40135492324E+03  0.12500000000E+03 0.  0.
         25    1    1    2    0    0 -0.34745345242E+02  0.45942327258E+02  0.58440035147E+02  0.14952649985E+03  0.12500000000E+03 0.  0.
</event>
<event>
 5    0  0.5616733E-005  0.4271102E+03  0.7546771E-02  0.1034777E+00
         21   -1    0    0  502  501  0.00000000000E+00  0.00000000000E+00  0.11231375830E+03  0.11231375830E+03  0.00000000000E+00 0.  1.
         21   -1    0    0  501  502 -0.00000000000E+00 -0.00000000000E+00 -0.16242274497E+04  0.16242274497E+04  0.00000000000E+00 0.  1.
         25    1    1    2    0    0 -0.60139368979E+02  0.10014874304E+03  0.13212840377E+02  0.17159864098E+03  0.12500000000E+03 0.  0.
         25    1    1    2    0    0  0.13568944088E+03 -0.40682951276E+02 -0.71024106824E+03  0.73493816196E+03  0.12500000000E+03 0.  0.
         25    1    1    2    0    0 -0.75550071900E+02 -0.59465791766E+02 -0.81488546350E+03  0.83000440504E+03  0.12500000000E+03 0.  0.
</event>
<event>
 5    0  0.5616733E-005  0.2562757E+03  0.7546771E-02  0.1109402E+00
         21   -1    0    0  502  501  0.00000000000E+00  0.00000000000E+00  0.23013687966E+03  0.23013687966E+03  0.00000000000E+00 0. -1.
         21   -1    0    0  501  502 -0.00000000000E+00 -0.00000000000E+00 -0.28538328404E+03  0.28538328404E+03  0.00000000000E+00 0. -1.
         25    1    1    2    0    0  0.11648869907E+01 -0.95281268122E+02  0.17197579211E+01  0.15718725961E+03  0.12500000000E+03 0.  0.
         25    1    1    2    0    0  0.43987793753E+02 -0.82893186634E+01 -0.11947758730E+03  0.17861560030E+03  0.12500000000E+03 0.  0.
         25    1    1    2    0    0 -0.45152680744E+02  0.10357058679E+03  0.62511425006E+02  0.17971730379E+03  0.12500000000E+03 0.  0.
</event>
<event>
 5    0  0.5616733E-005  0.4221223E+03  0.7546771E-02  0.1036378E+00
         21   -1    0    0  502  501  0.00000000000E+00  0.00000000000E+00  0.10334534181E+04  0.10334534181E+04  0.00000000000E+00 0.  1.
         21   -1    0    0  501  502 -0.00000000000E+00 -0.00000000000E+00 -0.17241918456E+03  0.17241918456E+03  0.00000000000E+00 0.  1.
         25    1    1    2    0    0 -0.13071426711E+03  0.11961666032E+03  0.18314145597E+03  0.28383121383E+03  0.12500000000E+03 0.  0.
         25    1    1    2    0    0 -0.14846590281E+03  0.95484621557E+02  0.40489735114E+03  0.45904934617E+03  0.12500000000E+03 0.  0.
         25    1    1    2    0    0  0.27918016992E+03 -0.21510128188E+03  0.27299542647E+03  0.46299204271E+03  0.12500000000E+03 0.  0.
</event>
<event>
 5    0  0.5616733E-005  0.2612159E+03  0.7546771E-02  0.1106415E+00
         21   -1    0    0  502  501  0.00000000000E+00  0.00000000000E+00  0.13936341021E+04  0.13936341021E+04  0.00000000000E+00 0. -1.
         21   -1    0    0  501  502 -0.00000000000E+00 -0.00000000000E+00 -0.48961019516E+02  0.48961019516E+02  0.00000000000E+00 0. -1.
         25    1    1    2    0    0  0.76090411391E+02 -0.11605524952E+02  0.34023350944E+03  0.37055131880E+03  0.12500000000E+03 0.  0.
         25    1    1    2    0    0 -0.48324478365E+02 -0.10472929144E+03  0.71404226095E+03  0.73401963879E+03  0.12500000000E+03 0.  0.
         25    1    1    2    0    0 -0.27765933026E+02  0.11633481639E+03  0.29039731215E+03  0.33802416399E+03  0.12500000000E+03 0.  0.
</event>
<event>
 5    0  0.5616733E-005  0.2936980E+03  0.7546771E-02  0.1088434E+00
         21   -1    0    0  502  501  0.00000000000E+00  0.00000000000E+00  0.57990983299E+03  0.57990983299E+03  0.00000000000E+00 0.  1.
         21   -1    0    0  501  502 -0.00000000000E+00 -0.00000000000E+00 -0.14874468199E+03  0.14874468199E+03  0.00000000000E+00 0.  1.
         25    1    1    2    0    0 -0.70867671982E+02 -0.14285028717E+02  0.11426596442E+03  0.18414124905E+03  0.12500000000E+03 0.  0.
         25    1    1    2    0    0 -0.84565475489E+02  0.68133570173E+01 -0.20538429493E+02  0.15246169540E+03  0.12500000000E+03 0.  0.
         25    1    1    2    0    0  0.15543314747E+03  0.74716716995E+01  0.33743761607E+03  0.39205157052E+03  0.12500000000E+03 0.  0.
</event>
<event>
 5    0  0.5616733E-005  0.2772414E+03  0.7546771E-02  0.1097205E+00
         21   -1    0    0  502  501  0.00000000000E+00  0.00000000000E+00  0.10901333452E+04  0.10901333452E+04  0.00000000000E+00 0. -1.
         21   -1    0    0  501  502 -0.00000000000E+00 -0.00000000000E+00 -0.70507723977E+02  0.70507723977E+02  0.00000000000E+00 0. -1.
         25    1    1    2    0    0 -0.14039152266E+03 -0.50362373441E+02  0.44268275127E+03  0.48356919522E+03  0.12500000000E+03 0.  0.
         25    1    1    2    0    0 -0.27622357830E+02 -0.15419786394E+02  0.27548518314E+03  0.30416747130E+03  0.12500000000E+03 0.  0.
         25    1    1    2    0    0  0.16801388049E+03  0.65782159835E+02  0.30145768685E+03  0.37290440270E+03  0.12500000000E+03 0.  0.
</event>
<event>
 5    0  0.5616733E-005  0.3232167E+03  0.7546771E-02  0.1074178E+00
         21   -1    0    0  502  501  0.00000000000E+00  0.00000000000E+00  0.17820879057E+03  0.17820879057E+03  0.00000000000E+00 0. -1.
         21   -1    0    0  501  502 -0.00000000000E+00 -0.00000000000E+00 -0.58621717709E+03  0.58621717709E+03  0.00000000000E+00 0. -1.
         25    1    1    2    0    0  0.55939481091E+02  0.44494108871E+02 -0.41813004154E+03  0.44222921987E+03  0.12500000000E+03 0.  0.
         25    1    1    2    0    0  0.14972910135E+02  0.15510273164E+02 -0.72290005396E+02  0.14599863524E+03  0.12500000000E+03 0.  0.
         25    1    1    2    0    0 -0.70912391226E+02 -0.60004382035E+02  0.82411660416E+02  0.17619811255E+03  0.12500000000E+03 0.  0.
</event>
<event>
 5    0  0.5616733E-005  0.2941732E+03  0.7546771E-02  0.1088190E+00
         21   -1    0    0  502  501  0.00000000000E+00  0.00000000000E+00  0.52948329252E+02  0.52948329252E+02  0.00000000000E+00 0. -1.
         21   -1    0    0  501  502 -0.00000000000E+00 -0.00000000000E+00 -0.16343838828E+04  0.16343838828E+04  0.00000000000E+00 0. -1.
         25    1    1    2    0    0 -0.77918916157E+02 -0.16555565730E+03 -0.36880234357E+03  0.43025597239E+03  0.12500000000E+03 0.  0.
         25    1    1    2    0    0  0.82539291445E+02  0.75787523877E+02 -0.48200452266E+03  0.51040164897E+03  0.12500000000E+03 0.  0.
         25    1    1    2    0    0 -0.46203752875E+01  0.89768133420E+02 -0.73062868735E+03  0.74667459072E+03  0.12500000000E+03 0.  0.
</event>
<event>
 5    0  0.5818767E-005  0.3295897E+03  0.7546771E-02  0.1071319E+00
         21   -1    0    0  502  501  0.00000000000E+00  0.00000000000E+00  0.34986667984E+03  0.34986667984E+03  0.00000000000E+00 0.  1.
         21   -1    0    0  501  502 -0.00000000000E+00 -0.00000000000E+00 -0.31048795846E+03  0.31048795846E+03  0.00000000000E+00 0.  1.
         25    1    1    2    0    0  0.49569530353E+02  0.19663190643E+02  0.12908982377E+03  0.18743788840E+03  0.12500000000E+03 0.  0.
         25    1    1    2    0    0 -0.87449275085E+02 -0.45802495460E+02  0.13691840267E+03  0.21004021827E+03  0.12500000000E+03 0.  0.
         25    1    1    2    0    0  0.37879744732E+02  0.26139304817E+02 -0.22662950506E+03  0.26287653163E+03  0.12500000000E+03 0.  0.
</event>
<event>
 5    0  0.5616733E-005  0.3459779E+03  0.7546771E-02  0.1064278E+00
         21   -1    0    0  502  501  0.00000000000E+00  0.00000000000E+00  0.41676563157E+03  0.41676563157E+03  0.00000000000E+00 0.  1.
         21   -1    0    0  501  502 -0.00000000000E+00 -0.00000000000E+00 -0.28721345817E+03  0.28721345817E+03  0.00000000000E+00 0.  1.
         25    1    1    2    0    0  0.19426177974E+03  0.47878613025E+02  0.15541992967E+03  0.28250726573E+03  0.12500000000E+03 0.  0.
         25    1    1    2    0    0 -0.20673576462E+03 -0.10377965832E+03 -0.78253971102E+02  0.27433296894E+03  0.12500000000E+03 0.  0.
         25    1    1    2    0    0  0.12473984878E+02  0.55901045299E+02  0.52386214829E+02  0.14713885506E+03  0.12500000000E+03 0.  0.
</event>
<event>
 5    0  0.5616733E-005  0.3314241E+03  0.7546771E-02  0.1070508E+00
         21   -1    0    0  502  501  0.00000000000E+00  0.00000000000E+00  0.10110176365E+04  0.10110176365E+04  0.00000000000E+00 0. -1.
         21   -1    0    0  501  502 -0.00000000000E+00 -0.00000000000E+00 -0.10864489795E+03  0.10864489795E+03  0.00000000000E+00 0. -1.
         25    1    1    2    0    0 -0.82546614086E+02  0.12911143480E+03  0.13987024300E+03  0.24222384476E+03  0.12500000000E+03 0.  0.
         25    1    1    2    0    0 -0.40233996827E+02  0.83440733582E+02  0.32710716201E+03  0.36222261934E+03  0.12500000000E+03 0.  0.
         25    1    1    2    0    0  0.12278061091E+03 -0.21255216838E+03  0.43539533357E+03  0.51521607040E+03  0.12500000000E+03 0.  0.
</event>
<event>
 5    0  0.5616733E-005  0.3910456E+03  0.7546771E-02  0.1046925E+00
         21   -1    0    0  502  501  0.00000000000E+00  0.00000000000E+00  0.97757550278E+02  0.97757550278E+02  0.00000000000E+00 0. -1.
         21   -1    0    0  501  502 -0.00000000000E+00 -0.00000000000E+00 -0.15642439091E+04  0.15642439091E+04  0.00000000000E+00 0. -1.
         25    1    1    2    0    0 -0.16020187235E+02  0.78291440368E+02 -0.12345397367E+04  0.12434225177E+04  0.12500000000E+03 0.  0.
         25    1    1    2    0    0 -0.88089905246E+02  0.20859567254E+02 -0.13385627766E+03  0.20429746945E+03  0.12500000000E+03 0.  0.
         25    1    1    2    0    0  0.10411009248E+03 -0.99151007622E+02 -0.98090344475E+02  0.21428147225E+03  0.12500000000E+03 0.  0.
</event>
<event>
 5    0  0.5616733E-005  0.2811617E+03  0.7546771E-02  0.1095056E+00
         21   -1    0    0  502  501  0.00000000000E+00  0.00000000000E+00  0.96539310644E+02  0.96539310644E+02  0.00000000000E+00 0.  1.
         21   -1    0    0  501  502 -0.00000000000E+00 -0.00000000000E+00 -0.81885701884E+03  0.81885701884E+03  0.00000000000E+00 0.  1.
         25    1    1    2    0    0 -0.17866149536E+03 -0.37512460682E+02 -0.17402993410E+03  0.28149339707E+03  0.12500000000E+03 0.  0.
         25    1    1    2    0    0  0.95411023473E+02 -0.41518910673E+01 -0.33121175312E+03  0.36666977924E+03  0.12500000000E+03 0.  0.
         25    1    1    2    0    0  0.83250471887E+02  0.41664351749E+02 -0.21707602097E+03  0.26723315318E+03  0.12500000000E+03 0.  0.
</event>
<event>
 5    0  0.5616733E-005  0.3618942E+03  0.7546771E-02  0.1057836E+00
         21   -1    0    0  502  501  0.00000000000E+00  0.00000000000E+00  0.16663702513E+04  0.16663702513E+04  0.00000000000E+00 0. -1.
         21   -1    0    0  501  502 -0.00000000000E+00 -0.00000000000E+00 -0.78594442265E+02  0.78594442265E+02  0.00000000000E+00 0. -1.
         25    1    1    2    0    0 -0.13034498288E+03 -0.69025779505E+02  0.12190044147E+04  0.12342411174E+04  0.12500000000E+03 0.  0.
         25    1    1    2    0    0  0.68984084955E+02 -0.39891692980E+02  0.27050970148E+03  0.30846498949E+03  0.12500000000E+03 0.  0.
         25    1    1    2    0    0  0.61360897929E+02  0.10891747249E+03  0.98261692865E+02  0.20225858670E+03  0.12500000000E+03 0.  0.
</event>
<event>
 5    0  0.5616733E-005  0.7994156E+03  0.7546771E-02  0.9560863E-01
         21   -1    0    0  502  501  0.00000000000E+00  0.00000000000E+00  0.42649420008E+03  0.42649420008E+03  0.00000000000E+00 0.  1.
         21   -1    0    0  501  502 -0.00000000000E+00 -0.00000000000E+00 -0.14984151050E+04  0.14984151050E+04  0.00000000000E+00 0.  1.
         25    1    1    2    0    0  0.46566796505E+03  0.29846718201E+03 -0.44835859072E+02  0.56882736104E+03  0.12500000000E+03 0.  0.
         25    1    1    2    0    0  0.14796682714E+03 -0.13382031251E+02 -0.27618731319E+03  0.33760582439E+03  0.12500000000E+03 0.  0.
         25    1    1    2    0    0 -0.61363479219E+03 -0.28508515076E+03 -0.75089773262E+03  0.10184761196E+04  0.12500000000E+03 0.  0.
</event>
<event>
 5    0  0.5616733E-005  0.3438080E+03  0.7546771E-02  0.1065186E+00
         21   -1    0    0  502  501  0.00000000000E+00  0.00000000000E+00  0.48062032992E+03  0.48062032992E+03  0.00000000000E+00 0. -1.
         21   -1    0    0  501  502 -0.00000000000E+00 -0.00000000000E+00 -0.24594043484E+03  0.24594043484E+03  0.00000000000E+00 0. -1.
         25    1    1    2    0    0 -0.11906167825E+03 -0.83444606649E+02 -0.99604885014E+02  0.21606669971E+03  0.12500000000E+03 0.  0.
         25    1    1    2    0    0 -0.77372476552E+01  0.10833005509E+03  0.27533236598E+03  0.32129142160E+03  0.12500000000E+03 0.  0.
         25    1    1    2    0    0  0.12679892590E+03 -0.24885448441E+02  0.58952414110E+02  0.18920264344E+03  0.12500000000E+03 0.  0.
</event>
<event>
 5    0  0.5616733E-005  0.2621683E+03  0.7546771E-02  0.1105847E+00
         21   -1    0    0  502  501  0.00000000000E+00  0.00000000000E+00  0.11898669512E+03  0.11898669512E+03  0.00000000000E+00 0. -1.
         21   -1    0    0  501  502 -0.00000000000E+00 -0.00000000000E+00 -0.57764618373E+03  0.57764618373E+03  0.00000000000E+00 0. -1.
         25    1    1    2    0    0  0.23562138423E+02 -0.59422101990E+02 -0.16836845236E+03  0.21922384980E+03  0.12500000000E+03 0.  0.
         25    1    1    2    0    0 -0.10643542014E+03  0.36108733024E+02 -0.27833897628E+03  0.32516138298E+03  0.12500000000E+03 0.  0.
         25    1    1    2    0    0  0.82873281718E+02  0.23313368965E+02 -0.11952059969E+02  0.15224764607E+03  0.12500000000E+03 0.  0.
</event>
<event>
 5    0  0.5616733E-005  0.2418277E+03  0.7546771E-02  0.1118581E+00
         21   -1    0    0  502  501  0.00000000000E+00  0.00000000000E+00  0.10675699229E+04  0.10675699229E+04  0.00000000000E+00 0. -1.
         21   -1    0    0  501  502 -0.00000000000E+00 -0.00000000000E+00 -0.54779190418E+02  0.54779190418E+02  0.00000000000E+00 0. -1.
         25    1    1    2    0    0 -0.94911588356E+02 -0.21782492680E+02  0.39533470108E+03  0.42590751634E+03  0.12500000000E+03 0.  0.
         25    1    1    2    0    0  0.23747483906E+02  0.33768236230E+02  0.47779491550E+03  0.49559783902E+03  0.12500000000E+03 0.  0.
         25    1    1    2    0    0  0.71164104450E+02 -0.11985743550E+02  0.13966111586E+03  0.20084375792E+03  0.12500000000E+03 0.  0.
</event>
<event>
 5    0  0.5616733E-005  0.3117247E+03  0.7546771E-02  0.1079522E+00
         21   -1    0    0  502  501  0.00000000000E+00  0.00000000000E+00  0.11566418858E+04  0.11566418858E+04  0.00000000000E+00 0.  1.
         21   -1    0    0  501  502 -0.00000000000E+00 -0.00000000000E+00 -0.84012417867E+02  0.84012417867E+02  0.00000000000E+00 0.  1.
         25    1    1    2    0    0  0.16865978296E+02 -0.84428095839E+02  0.10191745117E+03  0.18282431853E+03  0.12500000000E+03 0.  0.
         25    1    1    2    0    0  0.19469431945E+02  0.19514707937E+03  0.40672407319E+03  0.46851991748E+03  0.12500000000E+03 0.  0.
         25    1    1    2    0    0 -0.36335410241E+02 -0.11071898353E+03  0.56398794354E+03  0.58931006763E+03  0.12500000000E+03 0.  0.
</event>
<event>
 5    0  0.5616733E-005  0.3181216E+03  0.7546771E-02  0.1076517E+00
         21   -1    0    0  502  501  0.00000000000E+00  0.00000000000E+00  0.11077594868E+03  0.11077594868E+03  0.00000000000E+00 0. -1.
         21   -1    0    0  501  502 -0.00000000000E+00 -0.00000000000E+00 -0.91356788622E+03  0.91356788622E+03  0.00000000000E+00 0. -1.
         25    1    1    2    0    0 -0.10790408997E+03 -0.64297411050E+02 -0.15024995131E+03  0.23233057820E+03  0.12500000000E+03 0.  0.
         25    1    1    2    0    0  0.11662753184E+03 -0.13199206274E+03 -0.31361348772E+03  0.38079168254E+03  0.12500000000E+03 0.  0.
         25    1    1    2    0    0 -0.87234418715E+01  0.19628947379E+03 -0.33892849850E+03  0.41122157416E+03  0.12500000000E+03 0.  0.
</event>
<event>
 5    0  0.5616733E-005  0.3437549E+03  0.7546771E-02  0.1065208E+00
         21   -1    0    0  502  501  0.00000000000E+00  0.00000000000E+00  0.46688935356E+03  0.46688935356E+03  0.00000000000E+00 0.  1.
         21   -1    0    0  501  502 -0.00000000000E+00 -0.00000000000E+00 -0.25309520735E+03  0.25309520735E+03  0.00000000000E+00 0.  1.
         25    1    1    2    0    0 -0.11237210577E+03  0.93527437425E+02 -0.70935963110E+02  0.20501654218E+03  0.12500000000E+03 0.  0.
         25    1    1    2    0    0  0.73474744171E+02 -0.13720394349E+03  0.31571200550E+03  0.37352714835E+03  0.12500000000E+03 0.  0.
         25    1    1    2    0    0  0.38897361598E+02  0.43676506065E+02 -0.30981896173E+02  0.14144087037E+03  0.12500000000E+03 0.  0.
</event>
<event>
 5    0  0.5803748E-005  0.3121840E+03  0.7546771E-02  0.1079304E+00
         21   -1    0    0  502  501  0.00000000000E+00  0.00000000000E+00  0.39729819957E+03  0.39729819957E+03  0.00000000000E+00 0. -1.
         21   -1    0    0  501  502 -0.00000000000E+00 -0.00000000000E+00 -0.24530404696E+03  0.24530404696E+03  0.00000000000E+00 0. -1.
         25    1    1    2    0    0 -0.88261874895E+02  0.11743889901E+03  0.53359255983E+02  0.20013561342E+03  0.12500000000E+03 0.  0.
         25    1    1    2    0    0  0.51584479666E+02 -0.44679843198E+02 -0.11419297858E+03  0.18254392153E+03  0.12500000000E+03 0.  0.
         25    1    1    2    0    0  0.36677395229E+02 -0.72759055815E+02  0.21282787522E+03  0.25992271158E+03  0.12500000000E+03 0.  0.
</event>
<event>
 5    0  0.5616733E-005  0.2537836E+03  0.7546771E-02  0.1110937E+00
         21   -1    0    0  502  501  0.00000000000E+00  0.00000000000E+00  0.70831909556E+02  0.70831909556E+02  0.00000000000E+00 0.  1.
         21   -1    0    0  501  502 -0.00000000000E+00 -0.00000000000E+00 -0.90928092043E+03  0.90928092043E+03  0.00000000000E+00 0.  1.
         25    1    1    2    0    0  0.53497871006E+02  0.21194197657E+02 -0.16727274999E+03  0.21660191391E+03  0.12500000000E+03 0.  0.
         25    1    1    2    0    0  0.73369778428E+02 -0.56405171281E+02 -0.45700175648E+03  0.48274245013E+03  0.12500000000E+03 0.  0.
         25    1    1    2    0    0 -0.12686764943E+03  0.35210973624E+02 -0.21417450440E+03  0.28076846595E+03  0.12500000000E+03 0.  0.
</event>
<event>
 5    0  0.6805497E-005  0.4622099E+03  0.7546771E-02  0.1024142E+00
         21   -1    0    0  502  501  0.00000000000E+00  0.00000000000E+00  0.65435970025E+03  0.65435970025E+03  0.00000000000E+00 0. -1.
         21   -1    0    0  501  502 -0.00000000000E+00 -0.00000000000E+00 -0.32648400877E+03  0.32648400877E+03  0.00000000000E+00 0. -1.
         25    1    1    2    0    0 -0.10107727321E+03  0.17982052800E+03  0.17887763771E+02  0.24186155036E+03  0.12500000000E+03 0.  0.
         25    1    1    2    0    0  0.14961229325E+03 -0.59515782024E+02 -0.14465253211E+03  0.24995063842E+03  0.12500000000E+03 0.  0.
         25    1    1    2    0    0 -0.48535020037E+02 -0.12030474598E+03  0.45464045982E+03  0.48903152023E+03  0.12500000000E+03 0.  0.
</event>
<event>
 5    0  0.5616733E-005  0.2804961E+03  0.7546771E-02  0.1095418E+00
         21   -1    0    0  502  501  0.00000000000E+00  0.00000000000E+00  0.19611830939E+04  0.19611830939E+04  0.00000000000E+00 0. -1.
         21   -1    0    0  501  502 -0.00000000000E+00 -0.00000000000E+00 -0.40117661508E+02  0.40117661508E+02  0.00000000000E+00 0. -1.
         25    1    1    2    0    0 -0.16750944100E+03  0.25956648445E+02  0.11661221020E+04  0.11849889945E+04  0.12500000000E+03 0.  0.
         25    1    1    2    0    0  0.58583614365E+02 -0.12345137753E+02  0.26769358633E+03  0.30144534904E+03  0.12500000000E+03 0.  0.
         25    1    1    2    0    0  0.10892582663E+03 -0.13611510692E+02  0.48724974409E+03  0.51486641184E+03  0.12500000000E+03 0.  0.
</event>
<event>
 5    0  0.5616733E-005  0.2648603E+03  0.7546771E-02  0.1104258E+00
         21   -1    0    0  502  501  0.00000000000E+00  0.00000000000E+00  0.21428276879E+03  0.21428276879E+03  0.00000000000E+00 0. -1.
         21   -1    0    0  501  502 -0.00000000000E+00 -0.00000000000E+00 -0.32737563125E+03  0.32737563125E+03  0.00000000000E+00 0. -1.
         25    1    1    2    0    0 -0.15850915471E+02 -0.12622124516E+03  0.37242792498E+01  0.17838700767E+03  0.12500000000E+03 0.  0.
         25    1    1    2    0    0  0.96691064237E+02  0.59941937967E+02 -0.11838760368E+02  0.16943244694E+03  0.12500000000E+03 0.  0.
         25    1    1    2    0    0 -0.80840148767E+02  0.66279307190E+02 -0.10497838134E+03  0.19383894542E+03  0.12500000000E+03 0.  0.
</event>
<event>
 5    0  0.5616733E-005  0.3319232E+03  0.7546771E-02  0.1070289E+00
         21   -1    0    0  502  501  0.00000000000E+00  0.00000000000E+00  0.77463697680E+02  0.77463697680E+02  0.00000000000E+00 0. -1.
         21   -1    0    0  501  502 -0.00000000000E+00 -0.00000000000E+00 -0.14222531341E+04  0.14222531341E+04  0.00000000000E+00 0. -1.
         25    1    1    2    0    0 -0.55391095807E+02 -0.10891131289E+03 -0.53458509970E+03  0.56243762000E+03  0.12500000000E+03 0.  0.
         25    1    1    2    0    0 -0.13743831706E+03  0.14543589899E+03 -0.35860185895E+03  0.42925654911E+03  0.12500000000E+03 0.  0.
         25    1    1    2    0    0  0.19282941286E+03 -0.36524586097E+02 -0.45160247774E+03  0.50802266264E+03  0.12500000000E+03 0.  0.
</event>
<event>
 5    0  0.5616733E-005  0.2449611E+03  0.7546771E-02  0.1116531E+00
         21   -1    0    0  502  501  0.00000000000E+00  0.00000000000E+00  0.75001757792E+03  0.75001757792E+03  0.00000000000E+00 0.  1.
         21   -1    0    0  501  502 -0.00000000000E+00 -0.00000000000E+00 -0.80006065521E+02  0.80006065521E+02  0.00000000000E+00 0.  1.
         25    1    1    2    0    0  0.13356913208E+03 -0.13660112330E+02  0.21743469210E+03  0.28448226138E+03  0.12500000000E+03 0.  0.
         25    1    1    2    0    0 -0.75909600976E+02  0.14908736378E+02  0.13572882147E+03  0.20007961145E+03  0.12500000000E+03 0.  0.
         25    1    1    2    0    0 -0.57659531103E+02 -0.12486240482E+01  0.31684799883E+03  0.34546177061E+03  0.12500000000E+03 0.  0.
</event>
<event>
 5    0  0.5616733E-005  0.3762371E+03  0.7546771E-02  0.1052333E+00
         21   -1    0    0  502  501  0.00000000000E+00  0.00000000000E+00  0.53096727495E+02  0.53096727495E+02  0.00000000000E+00 0. -1.
         21   -1    0    0  501  502 -0.00000000000E+00 -0.00000000000E+00 -0.26659710165E+04  0.26659710165E+04  0.00000000000E+00 0.  1.
         25    1    1    2    0    0 -0.97299540015E+02 -0.43801836572E+02 -0.97805384244E+03  0.99176616200E+03  0.12500000000E+03 0.  0.
         25    1    1    2    0    0  0.22389366508E+03 -0.14530960940E+03 -0.96129045534E+03  0.10054588979E+04  0.12500000000E+03 0.  0.
         25    1    1    2    0    0 -0.12659412506E+03  0.18911144598E+03 -0.67352999122E+03  0.72184268409E+03  0.12500000000E+03 0.  0.
</event>
<event>
 5    0  0.5616733E-005  0.2674957E+03  0.7546771E-02  0.1102721E+00
         21   -1    0    0  502  501  0.00000000000E+00  0.00000000000E+00  0.43689585014E+02  0.43689585014E+02  0.00000000000E+00 0. -1.
         21   -1    0    0  501  502 -0.00000000000E+00 -0.00000000000E+00 -0.16377804420E+04  0.16377804420E+04  0.00000000000E+00 0. -1.
         25    1    1    2    0    0  0.21166633921E+02 -0.78112385752E+02 -0.10126633327E+04  0.10235534166E+04  0.12500000000E+03 0.  0.
         25    1    1    2    0    0  0.77735999911E+01 -0.42010855331E+02 -0.25394290413E+03  0.28624699017E+03  0.12500000000E+03 0.  0.
         25    1    1    2    0    0 -0.28940233913E+02  0.12012324108E+03 -0.32748462014E+03  0.37166962025E+03  0.12500000000E+03 0.  0.
</event>
<event>
 5    0  0.5616733E-005  0.2433160E+03  0.7546771E-02  0.1117603E+00
         21   -1    0    0  502  501  0.00000000000E+00  0.00000000000E+00  0.27247863686E+02  0.27247863686E+02  0.00000000000E+00 0.  1.
         21   -1    0    0  501  502 -0.00000000000E+00 -0.00000000000E+00 -0.21727447914E+04  0.21727447914E+04  0.00000000000E+00 0.  1.
         25    1    1    2    0    0 -0.14941972624E+02 -0.24660731178E+02 -0.55366769960E+03  0.56833470402E+03  0.12500000000E+03 0.  0.
         25    1    1    2    0    0 -0.11497416925E+03 -0.58876305621E+01 -0.62512532326E+03  0.64781200480E+03  0.12500000000E+03 0.  0.
         25    1    1    2    0    0  0.12991614188E+03  0.30548361740E+02 -0.96670390489E+03  0.98384594631E+03  0.12500000000E+03 0.  0.
</event>
<event>
 5    0  0.5616733E-005  0.2813216E+03  0.7546771E-02  0.1094969E+00
         21   -1    0    0  502  501  0.00000000000E+00  0.00000000000E+00  0.26251928561E+03  0.26251928561E+03  0.00000000000E+00 0.  1.
         21   -1    0    0  501  502 -0.00000000000E+00 -0.00000000000E+00 -0.30147049366E+03  0.30147049366E+03  0.00000000000E+00 0.  1.
         25    1    1    2    0    0  0.43005307422E+01 -0.29646221582E+02 -0.26374081386E+02  0.13121732046E+03  0.12500000000E+03 0.  0.
         25    1    1    2    0    0  0.10790328437E+03  0.17512898447E+02 -0.14349119171E+03  0.21946421687E+03  0.12500000000E+03 0.  0.
         25    1    1    2    0    0 -0.11220381511E+03  0.12133323135E+02  0.13091406505E+03  0.21330824195E+03  0.12500000000E+03 0.  0.
</event>
<event>
 5    0  0.5616733E-005  0.2683711E+03  0.7546771E-02  0.1102215E+00
         21   -1    0    0  502  501  0.00000000000E+00  0.00000000000E+00  0.40898853630E+03  0.40898853630E+03  0.00000000000E+00 0. -1.
         21   -1    0    0  501  502 -0.00000000000E+00 -0.00000000000E+00 -0.17610044072E+03  0.17610044072E+03  0.00000000000E+00 0. -1.
         25    1    1    2    0    0 -0.17029127172E+03  0.29983929276E+02  0.63974042504E+02  0.22274611411E+03  0.12500000000E+03 0.  0.
         25    1    1    2    0    0  0.27718960725E+02 -0.21874996637E+02  0.55484247273E+02  0.14124573607E+03  0.12500000000E+03 0.  0.
         25    1    1    2    0    0  0.14257231099E+03 -0.81089326383E+01  0.11342980580E+03  0.22109712683E+03  0.12500000000E+03 0.  0.
</event>
<event>
 5    0  0.8344218E-005  0.4085082E+03  0.7546771E-02  0.1040873E+00
         21   -1    0    0  502  501  0.00000000000E+00  0.00000000000E+00  0.44643435191E+03  0.44643435191E+03  0.00000000000E+00 0. -1.
         21   -1    0    0  501  502 -0.00000000000E+00 -0.00000000000E+00 -0.37380392572E+03  0.37380392572E+03  0.00000000000E+00 0. -1.
         25    1    1    2    0    0  0.28262579850E+01  0.23503078547E+03  0.10569269808E+03  0.28643219839E+03  0.12500000000E+03 0.  0.
         25    1    1    2    0    0 -0.38226403309E+02 -0.24566479517E+02 -0.19655153016E+03  0.23732314222E+03  0.12500000000E+03 0.  0.
         25    1    1    2    0    0  0.35400145324E+02 -0.21046430595E+03  0.16348925828E+03  0.29648293701E+03  0.12500000000E+03 0.  0.
</event>
<event>
 5    0  0.5616733E-005  0.3686504E+03  0.7546771E-02  0.1055210E+00
         21   -1    0    0  502  501  0.00000000000E+00  0.00000000000E+00  0.12952301587E+03  0.12952301587E+03  0.00000000000E+00 0. -1.
         21   -1    0    0  501  502 -0.00000000000E+00 -0.00000000000E+00 -0.10492581945E+04  0.10492581945E+04  0.00000000000E+00 0. -1.
         25    1    1    2    0    0  0.76263016639E+02  0.71180694543E+02 -0.66450091460E+03  0.68415583349E+03  0.12500000000E+03 0.  0.
         25    1    1    2    0    0  0.11706167107E+03  0.16761299792E+02 -0.67567551218E+02  0.18486413925E+03  0.12500000000E+03 0.  0.
         25    1    1    2    0    0 -0.19332468770E+03 -0.87941994335E+02 -0.18766671283E+03  0.30976123764E+03  0.12500000000E+03 0.  0.
</event>
<event>
 5    0  0.5616733E-005  0.2842293E+03  0.7546771E-02  0.1093401E+00
         21   -1    0    0  502  501  0.00000000000E+00  0.00000000000E+00  0.13415564824E+03  0.13415564824E+03  0.00000000000E+00 0. -1.
         21   -1    0    0  501  502 -0.00000000000E+00 -0.00000000000E+00 -0.60218342715E+03  0.60218342715E+03  0.00000000000E+00 0. -1.
         25    1    1    2    0    0 -0.37517377576E+02  0.15772621474E+03 -0.11606202871E+03  0.23533063325E+03  0.12500000000E+03 0.  0.
         25    1    1    2    0    0 -0.11755062172E+02  0.25301532187E+02 -0.14883162590E+03  0.19635223932E+03  0.12500000000E+03 0.  0.
         25    1    1    2    0    0  0.49272439748E+02 -0.18302774693E+03 -0.20313412429E+03  0.30465620282E+03  0.12500000000E+03 0.  0.
</event>
<event>
 5    0  0.5616733E-005  0.3451080E+03  0.7546771E-02  0.1064641E+00
         21   -1    0    0  502  501  0.00000000000E+00  0.00000000000E+00  0.28557647243E+03  0.28557647243E+03  0.00000000000E+00 0. -1.
         21   -1    0    0  501  502 -0.00000000000E+00 -0.00000000000E+00 -0.41704959048E+03  0.41704959048E+03  0.00000000000E+00 0. -1.
         25    1    1    2    0    0 -0.52638986997E+02 -0.16885147290E+03  0.87004853215E+02  0.23340207226E+03  0.12500000000E+03 0.  0.
         25    1    1    2    0    0 -0.83066050669E+02  0.35619085208E+02 -0.72920458993E+00  0.15425375115E+03  0.12500000000E+03 0.  0.
         25    1    1    2    0    0  0.13570503767E+03  0.13323238769E+03 -0.21774876668E+03  0.31497023949E+03  0.12500000000E+03 0.  0.
</event>
<event>
 5    0  0.5616733E-005  0.3444413E+03  0.7546771E-02  0.1064920E+00
         21   -1    0    0  502  501  0.00000000000E+00  0.00000000000E+00  0.64258348372E+02  0.64258348372E+02  0.00000000000E+00 0.  1.
         21   -1    0    0  501  502 -0.00000000000E+00 -0.00000000000E+00 -0.18462942694E+04  0.18462942694E+04  0.00000000000E+00 0.  1.
         25    1    1    2    0    0  0.26059956173E+03 -0.75236631837E+01 -0.84215468772E+03  0.89040342268E+03  0.12500000000E+03 0.  0.
         25    1    1    2    0    0 -0.12650556227E+03  0.36474111686E+02 -0.27245844932E+03  0.32740284775E+03  0.12500000000E+03 0.  0.
         25    1    1    2    0    0 -0.13409399946E+03 -0.28950448502E+02 -0.66742278395E+03  0.69274634730E+03  0.12500000000E+03 0.  0.
</event>
<event>
 5    0  0.5616733E-005  0.2340820E+03  0.7546771E-02  0.1123799E+00
         21   -1    0    0  502  501  0.00000000000E+00  0.00000000000E+00  0.32252920761E+02  0.32252920761E+02  0.00000000000E+00 0.  1.
         21   -1    0    0  501  502 -0.00000000000E+00 -0.00000000000E+00 -0.16988973389E+04  0.16988973389E+04  0.00000000000E+00 0.  1.
         25    1    1    2    0    0 -0.34650840152E+02  0.49054280992E+02 -0.35231430158E+03  0.37862563345E+03  0.12500000000E+03 0.  0.
         25    1    1    2    0    0 -0.38111265879E+02 -0.99931349058E+02 -0.61868515456E+03  0.64018361709E+03  0.12500000000E+03 0.  0.
         25    1    1    2    0    0  0.72762106032E+02  0.50877068066E+02 -0.69564496197E+03  0.71234100910E+03  0.12500000000E+03 0.  0.
</event>
<event>
 5    0  0.5616733E-005  0.3548399E+03  0.7546771E-02  0.1060646E+00
         21   -1    0    0  502  501  0.00000000000E+00  0.00000000000E+00  0.23302128662E+03  0.23302128662E+03  0.00000000000E+00 0.  1.
         21   -1    0    0  501  502 -0.00000000000E+00 -0.00000000000E+00 -0.54034256829E+03  0.54034256829E+03  0.00000000000E+00 0.  1.
         25    1    1    2    0    0 -0.19346944960E+02  0.11307420683E+03  0.13679903134E+03  0.21794278035E+03  0.12500000000E+03 0.  0.
         25    1    1    2    0    0  0.47551195029E+02 -0.12040780419E+03 -0.35850193440E+03  0.40113313554E+03  0.12500000000E+03 0.  0.
         25    1    1    2    0    0 -0.28204250070E+02  0.73335973618E+01 -0.85618378603E+02  0.15428793902E+03  0.12500000000E+03 0.  0.
</event>
<event>
 5    0  0.5616733E-005  0.4442856E+03  0.7546771E-02  0.1029440E+00
         21   -1    0    0  502  501  0.00000000000E+00  0.00000000000E+00  0.44689228814E+03  0.44689228814E+03  0.00000000000E+00 0.  1.
         21   -1    0    0  501  502 -0.00000000000E+00 -0.00000000000E+00 -0.44169417173E+03  0.44169417173E+03  0.00000000000E+00 0.  1.
         25    1    1    2    0    0 -0.77560540323E+02 -0.99066249321E+02 -0.36419834123E+03  0.40508664619E+03  0.12500000000E+03 0.  0.
         25    1    1    2    0    0 -0.11151976379E+02  0.41752495332E+02  0.24323686138E+03  0.27686965918E+03  0.12500000000E+03 0.  0.
         25    1    1    2    0    0  0.88712516702E+02  0.57313753989E+02  0.12615959626E+03  0.20663015449E+03  0.12500000000E+03 0.  0.
</event>
<event>
 5    0  0.5616733E-005  0.2806111E+03  0.7546771E-02  0.1095356E+00
         21   -1    0    0  502  501  0.00000000000E+00  0.00000000000E+00  0.62530708581E+03  0.62530708581E+03  0.00000000000E+00 0. -1.
         21   -1    0    0  501  502 -0.00000000000E+00 -0.00000000000E+00 -0.12592627241E+03  0.12592627241E+03  0.00000000000E+00 0. -1.
         25    1    1    2    0    0 -0.74565069798E+02 -0.12133324248E+02  0.26080914585E+03  0.29892068806E+03  0.12500000000E+03 0.  0.
         25    1    1    2    0    0  0.46410407300E+02  0.43390248907E+02  0.28077070180E+03  0.31383726132E+03  0.12500000000E+03 0.  0.
         25    1    1    2    0    0  0.28154662499E+02 -0.31256924660E+02 -0.42199034249E+02  0.13847540883E+03  0.12500000000E+03 0.  0.
</event>
<event>
 5    0  0.5616733E-005  0.4030893E+03  0.7546771E-02  0.1042715E+00
         21   -1    0    0  502  501  0.00000000000E+00  0.00000000000E+00  0.17911100356E+03  0.17911100356E+03  0.00000000000E+00 0. -1.
         21   -1    0    0  501  502 -0.00000000000E+00 -0.00000000000E+00 -0.90715262024E+03  0.90715262024E+03  0.00000000000E+00 0. -1.
         25    1    1    2    0    0  0.15305388616E+03  0.11707503996E+03 -0.19376252787E+03  0.30050120508E+03  0.12500000000E+03 0.  0.
         25    1    1    2    0    0 -0.20334569710E+03  0.10549879991E+03 -0.99923946841E+02  0.27944456420E+03  0.12500000000E+03 0.  0.
         25    1    1    2    0    0  0.50291810936E+02 -0.22257383987E+03 -0.43435514197E+03  0.50631785451E+03  0.12500000000E+03 0.  0.
</event>
<event>
 5    0  0.5616733E-005  0.3095138E+03  0.7546771E-02  0.1080579E+00
         21   -1    0    0  502  501  0.00000000000E+00  0.00000000000E+00  0.56037917260E+02  0.56037917260E+02  0.00000000000E+00 0. -1.
         21   -1    0    0  501  502 -0.00000000000E+00 -0.00000000000E+00 -0.17095346950E+04  0.17095346950E+04  0.00000000000E+00 0. -1.
         25    1    1    2    0    0  0.26544334095E+02  0.15884220727E+03 -0.28095544860E+03  0.34712593188E+03  0.12500000000E+03 0.  0.
         25    1    1    2    0    0 -0.11182022250E+03 -0.67540899359E+02 -0.72787767703E+03  0.74999763197E+03  0.12500000000E+03 0.  0.
         25    1    1    2    0    0  0.85275888403E+02 -0.91301307915E+02 -0.64466365216E+03  0.66844904846E+03  0.12500000000E+03 0.  0.
</event>
<event>
 5    0  0.5616733E-005  0.2077784E+03  0.7546771E-02  0.1143337E+00
         21   -1    0    0  502  501  0.00000000000E+00  0.00000000000E+00  0.18581598068E+03  0.18581598068E+03  0.00000000000E+00 0. -1.
         21   -1    0    0  501  502 -0.00000000000E+00 -0.00000000000E+00 -0.23233655991E+03  0.23233655991E+03  0.00000000000E+00 0. -1.
         25    1    1    2    0    0  0.44277592934E+02 -0.14123856244E+02 -0.14189991998E+02  0.13411317767E+03  0.12500000000E+03 0.  0.
         25    1    1    2    0    0 -0.58739768845E+02  0.55048865166E+02 -0.40819246831E+01  0.14873600811E+03  0.12500000000E+03 0.  0.
         25    1    1    2    0    0  0.14462175911E+02 -0.40925008922E+02 -0.28248662553E+02  0.13530335481E+03  0.12500000000E+03 0.  0.
</event>
<event>
 5    0  0.5756623E-005  0.3728186E+03  0.7546771E-02  0.1053620E+00
         21   -1    0    0  502  501  0.00000000000E+00  0.00000000000E+00  0.10783457958E+04  0.10783457958E+04  0.00000000000E+00 0.  1.
         21   -1    0    0  501  502 -0.00000000000E+00 -0.00000000000E+00 -0.12889531742E+03  0.12889531742E+03  0.00000000000E+00 0.  1.
         25    1    1    2    0    0 -0.20523544870E+03 -0.91626908247E+02  0.36129163225E+03  0.44347911253E+03  0.12500000000E+03 0.  0.
         25    1    1    2    0    0 -0.14302136154E+02  0.69546342086E+02  0.24697117133E+02  0.14586360886E+03  0.12500000000E+03 0.  0.
         25    1    1    2    0    0  0.21953758485E+03  0.22080566162E+02  0.56346172898E+03  0.61789839180E+03  0.12500000000E+03 0.  0.
</event>
<event>
 5    0  0.7135042E-005  0.2990937E+03  0.7546771E-02  0.1085695E+00
         21   -1    0    0  502  501  0.00000000000E+00  0.00000000000E+00  0.88369705169E+03  0.88369705169E+03  0.00000000000E+00 0.  1.
         21   -1    0    0  501  502 -0.00000000000E+00 -0.00000000000E+00 -0.10123043196E+03  0.10123043196E+03  0.00000000000E+00 0.  1.
         25    1    1    2    0    0 -0.11638399379E+03  0.25731602907E+02  0.13243437606E+03  0.21764928982E+03  0.12500000000E+03 0.  0.
         25    1    1    2    0    0  0.29101265978E+02  0.29189038384E+02  0.42206221115E+02  0.13822173760E+03  0.12500000000E+03 0.  0.
         25    1    1    2    0    0  0.87282727816E+02 -0.54920641290E+02  0.60782602256E+03  0.62905645623E+03  0.12500000000E+03 0.  0.
</event>
<event>
 5    0  0.5616733E-005  0.3434780E+03  0.7546771E-02  0.1065324E+00
         21   -1    0    0  502  501  0.00000000000E+00  0.00000000000E+00  0.60955496952E+03  0.60955496952E+03  0.00000000000E+00 0. -1.
         21   -1    0    0  501  502 -0.00000000000E+00 -0.00000000000E+00 -0.19354629357E+03  0.19354629357E+03  0.00000000000E+00 0. -1.
         25    1    1    2    0    0  0.48524427975E+02 -0.63987843747E+02  0.37292417197E+03  0.40143056970E+03  0.12500000000E+03 0.  0.
         25    1    1    2    0    0 -0.15225852363E+03 -0.26159694987E+02 -0.32019012303E+02  0.20128885913E+03  0.12500000000E+03 0.  0.
         25    1    1    2    0    0  0.10373409566E+03  0.90147538734E+02  0.75103516280E+02  0.20038183426E+03  0.12500000000E+03 0.  0.
</event>
<event>
 5    0  0.5616733E-005  0.2954271E+03  0.7546771E-02  0.1087549E+00
         21   -1    0    0  502  501  0.00000000000E+00  0.00000000000E+00  0.10033586746E+03  0.10033586746E+03  0.00000000000E+00 0. -1.
         21   -1    0    0  501  502 -0.00000000000E+00 -0.00000000000E+00 -0.86985025636E+03  0.86985025636E+03  0.00000000000E+00 0. -1.
         25    1    1    2    0    0 -0.19028574628E+02 -0.11009816536E+03 -0.15505412796E+03  0.22836478552E+03  0.12500000000E+03 0.  0.
         25    1    1    2    0    0  0.16275438040E+03  0.89901250611E+02 -0.32715937460E+03  0.39652172651E+03  0.12500000000E+03 0.  0.
         25    1    1    2    0    0 -0.14372580577E+03  0.20196914746E+02 -0.28730088635E+03  0.34529961179E+03  0.12500000000E+03 0.  0.
</event>
<event>
 5    0  0.5616733E-005  0.3558004E+03  0.7546771E-02  0.1060259E+00
         21   -1    0    0  502  501  0.00000000000E+00  0.00000000000E+00  0.23649587573E+03  0.23649587573E+03  0.00000000000E+00 0.  1.
         21   -1    0    0  501  502 -0.00000000000E+00 -0.00000000000E+00 -0.53529034554E+03  0.53529034554E+03  0.00000000000E+00 0. -1.
         25    1    1    2    0    0  0.14583606561E+03  0.12533412411E+03 -0.64420288118E+01  0.22944127884E+03  0.12500000000E+03 0.  0.
         25    1    1    2    0    0 -0.18571227168E+03 -0.10595114084E+03 -0.32220783970E+03  0.40639584651E+03  0.12500000000E+03 0.  0.
         25    1    1    2    0    0  0.39876206066E+02 -0.19382983276E+02  0.29855398698E+02  0.13594909592E+03  0.12500000000E+03 0.  0.
</event>
<event>
 5    0  0.5616733E-005  0.5445008E+03  0.7546771E-02  0.1002775E+00
         21   -1    0    0  502  501  0.00000000000E+00  0.00000000000E+00  0.20305193748E+04  0.20305193748E+04  0.00000000000E+00 0.  1.
         21   -1    0    0  501  502 -0.00000000000E+00 -0.00000000000E+00 -0.14601243235E+03  0.14601243235E+03  0.00000000000E+00 0.  1.
         25    1    1    2    0    0  0.35538637643E+03  0.82254875922E+02  0.20969980841E+03  0.43893547455E+03  0.12500000000E+03 0.  0.
         25    1    1    2    0    0 -0.17655861607E+03 -0.75653240027E+02  0.63409799860E+03  0.67424152161E+03  0.12500000000E+03 0.  0.
         25    1    1    2    0    0 -0.17882776036E+03 -0.66016358951E+01  0.10407091354E+04  0.10633548110E+04  0.12500000000E+03 0.  0.
</event>
<event>
 5    0  0.5616733E-005  0.3394527E+03  0.7546771E-02  0.1067029E+00
         21   -1    0    0  502  501  0.00000000000E+00  0.00000000000E+00  0.17418288348E+03  0.17418288348E+03  0.00000000000E+00 0. -1.
         21   -1    0    0  501  502 -0.00000000000E+00 -0.00000000000E+00 -0.66153552167E+03  0.66153552167E+03  0.00000000000E+00 0. -1.
         25    1    1    2    0    0 -0.24877275423E+02  0.78314482829E+01  0.37078617672E+02  0.13296629010E+03  0.12500000000E+03 0.  0.
         25    1    1    2    0    0  0.16174846963E+03 -0.11266623895E+03 -0.37819028904E+03  0.44442000804E+03  0.12500000000E+03 0.  0.
         25    1    1    2    0    0 -0.13687119420E+03  0.10483479066E+03 -0.14624096682E+03  0.25833210701E+03  0.12500000000E+03 0.  0.
</event>
<event>
 5    0  0.5616733E-005  0.2178434E+03  0.7546771E-02  0.1135501E+00
         21   -1    0    0  502  501  0.00000000000E+00  0.00000000000E+00  0.85814787936E+03  0.85814787936E+03  0.00000000000E+00 0.  1.
         21   -1    0    0  501  502 -0.00000000000E+00 -0.00000000000E+00 -0.55300179943E+02  0.55300179943E+02  0.00000000000E+00 0.  1.
         25    1    1    2    0    0  0.14184742277E+02  0.64425841201E+02  0.45100511271E+03  0.47263358706E+03  0.12500000000E+03 0.  0.
         25    1    1    2    0    0 -0.12448376295E+02 -0.57897585315E+02  0.15717174951E+03  0.20936821941E+03  0.12500000000E+03 0.  0.
         25    1    1    2    0    0 -0.17363659823E+01 -0.65282558858E+01  0.19467083720E+03  0.23144625283E+03  0.12500000000E+03 0.  0.
</event>
<event>
 5    0  0.5616733E-005  0.6028005E+03  0.7546771E-02  0.9899613E-01
         21   -1    0    0  502  501  0.00000000000E+00  0.00000000000E+00  0.86918117554E+03  0.86918117554E+03  0.00000000000E+00 0. -1.
         21   -1    0    0  501  502 -0.00000000000E+00 -0.00000000000E+00 -0.41805837967E+03  0.41805837967E+03  0.00000000000E+00 0. -1.
         25    1    1    2    0    0 -0.10760142765E+03  0.20094770905E+02  0.64073380324E+03  0.66192648660E+03  0.12500000000E+03 0.  0.
         25    1    1    2    0    0 -0.11589944041E+03  0.40070763104E+02  0.12505277858E+03  0.21517793515E+03  0.12500000000E+03 0.  0.
         25    1    1    2    0    0  0.22350086806E+03 -0.60165534009E+02 -0.31466378596E+03  0.41013513346E+03  0.12500000000E+03 0.  0.
</event>
<event>
 5    0  0.5616733E-005  0.3158116E+03  0.7546771E-02  0.1077593E+00
         21   -1    0    0  502  501  0.00000000000E+00  0.00000000000E+00  0.11993161941E+03  0.11993161941E+03  0.00000000000E+00 0.  1.
         21   -1    0    0  501  502 -0.00000000000E+00 -0.00000000000E+00 -0.83161501418E+03  0.83161501418E+03  0.00000000000E+00 0.  1.
         25    1    1    2    0    0  0.42696225907E+02  0.22782779104E+03 -0.43766969574E+03  0.51079177033E+03  0.12500000000E+03 0.  0.
         25    1    1    2    0    0 -0.18737266966E+02 -0.11735032844E+03 -0.17288856627E+03  0.24420819213E+03  0.12500000000E+03 0.  0.
         25    1    1    2    0    0 -0.23958958940E+02 -0.11047746260E+03 -0.10112513276E+03  0.19654667113E+03  0.12500000000E+03 0.  0.
</event>
<event>
 5    0  0.7121748E-005  0.3047825E+03  0.7546771E-02  0.1082874E+00
         21   -1    0    0  502  501  0.00000000000E+00  0.00000000000E+00  0.12552830490E+03  0.12552830490E+03  0.00000000000E+00 0. -1.
         21   -1    0    0  501  502 -0.00000000000E+00 -0.00000000000E+00 -0.74001137737E+03  0.74001137737E+03  0.00000000000E+00 0. -1.
         25    1    1    2    0    0 -0.25254209171E+02 -0.12644531548E+03 -0.16459196605E+03  0.24360153566E+03  0.12500000000E+03 0.  0.
         25    1    1    2    0    0  0.39306299062E+02 -0.10002775478E+03 -0.12776882696E+03  0.20856751908E+03  0.12500000000E+03 0.  0.
         25    1    1    2    0    0 -0.14052089891E+02  0.22647307026E+03 -0.32212227945E+03  0.41337062753E+03  0.12500000000E+03 0.  0.
</event>
<event>
 5    0  0.5616733E-005  0.6650313E+03  0.7546771E-02  0.9778976E-01
         21   -1    0    0  502  501  0.00000000000E+00  0.00000000000E+00  0.10476035954E+04  0.10476035954E+04  0.00000000000E+00 0. -1.
         21   -1    0    0  501  502 -0.00000000000E+00 -0.00000000000E+00 -0.42216977290E+03  0.42216977290E+03  0.00000000000E+00 0. -1.
         25    1    1    2    0    0 -0.34124703045E+03 -0.22045050841E+03  0.16644177329E+03  0.45648201098E+03  0.12500000000E+03 0.  0.
         25    1    1    2    0    0  0.58694924659E+03  0.15463308189E+03  0.30404592029E+03  0.69028235507E+03  0.12500000000E+03 0.  0.
         25    1    1    2    0    0 -0.24570221613E+03  0.65817426528E+02  0.15494612888E+03  0.32300900220E+03  0.12500000000E+03 0.  0.
</event>
<event>
 5    0  0.5616733E-005  0.4337973E+03  0.7546771E-02  0.1032667E+00
         21   -1    0    0  502  501  0.00000000000E+00  0.00000000000E+00  0.34483052770E+03  0.34483052770E+03  0.00000000000E+00 0. -1.
         21   -1    0    0  501  502 -0.00000000000E+00 -0.00000000000E+00 -0.54571769309E+03  0.54571769309E+03  0.00000000000E+00 0. -1.
         25    1    1    2    0    0  0.54321098635E+02  0.46882158866E+02  0.15180148207E+02  0.14492810451E+03  0.12500000000E+03 0.  0.
         25    1    1    2    0    0  0.19595053478E+03 -0.16481716104E+03  0.10507614954E+03  0.30368948921E+03  0.12500000000E+03 0.  0.
         25    1    1    2    0    0 -0.25027163341E+03  0.11793500217E+03 -0.32114346313E+03  0.44193062707E+03  0.12500000000E+03 0.  0.
</event>
<event>
 5    0  0.5616733E-005  0.3336497E+03  0.7546771E-02  0.1069533E+00
         21   -1    0    0  502  501  0.00000000000E+00  0.00000000000E+00  0.32135187494E+03  0.32135187494E+03  0.00000000000E+00 0. -1.
         21   -1    0    0  501  502 -0.00000000000E+00 -0.00000000000E+00 -0.34641825312E+03  0.34641825312E+03  0.00000000000E+00 0. -1.
         25    1    1    2    0    0 -0.11482975487E+01 -0.14334866265E+03  0.32126493053E+02  0.19289185889E+03  0.12500000000E+03 0.  0.
         25    1    1    2    0    0  0.14551160860E+03  0.41555389641E+02  0.87151071035E+02  0.21475750937E+03  0.12500000000E+03 0.  0.
         25    1    1    2    0    0 -0.14436331106E+03  0.10179327301E+03 -0.14434394226E+03  0.26012075980E+03  0.12500000000E+03 0.  0.
</event>
<event>
 5    0  0.5616733E-005  0.3463492E+03  0.7546771E-02  0.1064124E+00
         21   -1    0    0  502  501  0.00000000000E+00  0.00000000000E+00  0.46139867220E+03  0.46139867220E+03  0.00000000000E+00 0. -1.
         21   -1    0    0  501  502 -0.00000000000E+00 -0.00000000000E+00 -0.25998719717E+03  0.25998719717E+03  0.00000000000E+00 0. -1.
         25    1    1    2    0    0  0.73141016917E+02  0.44711975851E+02 -0.16517999473E+03  0.22418340661E+03  0.12500000000E+03 0.  0.
         25    1    1    2    0    0 -0.95243044755E+02  0.58855126959E+02  0.22486184356E+03  0.28057621466E+03  0.12500000000E+03 0.  0.
         25    1    1    2    0    0  0.22102027838E+02 -0.10356710281E+03  0.14172962620E+03  0.21662624809E+03  0.12500000000E+03 0.  0.
</event>
<event>
 5    0  0.5616733E-005  0.2794154E+03  0.7546771E-02  0.1096009E+00
         21   -1    0    0  502  501  0.00000000000E+00  0.00000000000E+00  0.16685512673E+04  0.16685512673E+04  0.00000000000E+00 0. -1.
         21   -1    0    0  501  502 -0.00000000000E+00 -0.00000000000E+00 -0.46790859902E+02  0.46790859902E+02  0.00000000000E+00 0. -1.
         25    1    1    2    0    0 -0.10920273238E+03 -0.12479737614E+03  0.44140101217E+03  0.48781090127E+03  0.12500000000E+03 0.  0.
         25    1    1    2    0    0  0.12042573970E+03  0.47168663695E+02  0.50046017836E+03  0.53180130852E+03  0.12500000000E+03 0.  0.
         25    1    1    2    0    0 -0.11223007327E+02  0.77628712446E+02  0.67989921685E+03  0.69572991740E+03  0.12500000000E+03 0.  0.
</event>
<event>
 5    0  0.5616733E-005  0.4186108E+03  0.7546771E-02  0.1037519E+00
         21   -1    0    0  502  501  0.00000000000E+00  0.00000000000E+00  0.24274558791E+03  0.24274558791E+03  0.00000000000E+00 0. -1.
         21   -1    0    0  501  502 -0.00000000000E+00 -0.00000000000E+00 -0.72188734373E+03  0.72188734373E+03  0.00000000000E+00 0. -1.
         25    1    1    2    0    0  0.16109091195E+03  0.10069464018E+03 -0.10745856870E+03  0.25151945544E+03  0.12500000000E+03 0.  0.
         25    1    1    2    0    0  0.16915035037E+02  0.33180008306E+02  0.10821778353E+03  0.16947896635E+03  0.12500000000E+03 0.  0.
         25    1    1    2    0    0 -0.17800594699E+03 -0.13387464849E+03 -0.47990097065E+03  0.54363450986E+03  0.12500000000E+03 0.  0.
</event>
<event>
 5    0  0.5616733E-005  0.5588448E+03  0.7546771E-02  0.9994672E-01
         21   -1    0    0  502  501  0.00000000000E+00  0.00000000000E+00  0.19139917748E+04  0.19139917748E+04  0.00000000000E+00 0. -1.
         21   -1    0    0  501  502 -0.00000000000E+00 -0.00000000000E+00 -0.16317077705E+03  0.16317077705E+03  0.00000000000E+00 0. -1.
         25    1    1    2    0    0 -0.41908166446E+02  0.10163099652E+03  0.34166433854E+03  0.38005877716E+03  0.12500000000E+03 0.  0.
         25    1    1    2    0    0  0.18350718965E+01  0.18795388096E+03 -0.25931330514E+02  0.22721677482E+03  0.12500000000E+03 0.  0.
         25    1    1    2    0    0  0.40073094550E+02 -0.28958487748E+03  0.14350879898E+04  0.14698869999E+04  0.12500000000E+03 0.  0.
</event>
<event>
 5    0  0.5805803E-005  0.4424016E+03  0.7546771E-02  0.1030013E+00
         21   -1    0    0  502  501  0.00000000000E+00  0.00000000000E+00  0.51369769706E+03  0.51369769706E+03  0.00000000000E+00 0.  1.
         21   -1    0    0  501  502 -0.00000000000E+00 -0.00000000000E+00 -0.38100061707E+03  0.38100061707E+03  0.00000000000E+00 0.  1.
         25    1    1    2    0    0  0.24388699181E+03  0.51620921820E+02  0.11748694046E+03  0.30261157533E+03  0.12500000000E+03 0.  0.
         25    1    1    2    0    0  0.22807272077E+02  0.15031620281E+03 -0.94728637525E+02  0.21843453769E+03  0.12500000000E+03 0.  0.
         25    1    1    2    0    0 -0.26669426389E+03 -0.20193712463E+03  0.10993877706E+03  0.37365220111E+03  0.12500000000E+03 0.  0.
</event>
<event>
 5    0  0.5616733E-005  0.3921092E+03  0.7546771E-02  0.1046547E+00
         21   -1    0    0  502  501  0.00000000000E+00  0.00000000000E+00  0.46890408284E+03  0.46890408284E+03  0.00000000000E+00 0. -1.
         21   -1    0    0  501  502 -0.00000000000E+00 -0.00000000000E+00 -0.32789140946E+03  0.32789140946E+03  0.00000000000E+00 0. -1.
         25    1    1    2    0    0  0.19744216403E+03  0.34420318395E+02  0.14565402511E+02  0.23665442613E+03  0.12500000000E+03 0.  0.
         25    1    1    2    0    0 -0.31012870621E+03 -0.53114900041E+02  0.17883217081E+03  0.38289287319E+03  0.12500000000E+03 0.  0.
         25    1    1    2    0    0  0.11268654218E+03  0.18694581646E+02 -0.52384899945E+02  0.17724819298E+03  0.12500000000E+03 0.  0.
</event>
<event>
 5    0  0.5616733E-005  0.2255198E+03  0.7546771E-02  0.1129833E+00
         21   -1    0    0  502  501  0.00000000000E+00  0.00000000000E+00  0.11746549504E+03  0.11746549504E+03  0.00000000000E+00 0. -1.
         21   -1    0    0  501  502 -0.00000000000E+00 -0.00000000000E+00 -0.43297133032E+03  0.43297133032E+03  0.00000000000E+00 0. -1.
         25    1    1    2    0    0  0.19245685955E+02 -0.80619679417E+02 -0.98044489728E+02  0.17918607955E+03  0.12500000000E+03 0.  0.
         25    1    1    2    0    0  0.35699265292E+02  0.13102856569E+02 -0.38437123602E+02  0.13619300593E+03  0.12500000000E+03 0.  0.
         25    1    1    2    0    0 -0.54944951247E+02  0.67516822848E+02 -0.17902422195E+03  0.23505773989E+03  0.12500000000E+03 0.  0.
</event>
<event>
 5    0  0.5616733E-005  0.3037829E+03  0.7546771E-02  0.1083365E+00
         21   -1    0    0  502  501  0.00000000000E+00  0.00000000000E+00  0.68308211164E+03  0.68308211164E+03  0.00000000000E+00 0. -1.
         21   -1    0    0  501  502 -0.00000000000E+00 -0.00000000000E+00 -0.13509950994E+03  0.13509950994E+03  0.00000000000E+00 0. -1.
         25    1    1    2    0    0  0.13400617262E+02  0.14085408654E+03  0.16918628093E+03  0.25351222435E+03  0.12500000000E+03 0.  0.
         25    1    1    2    0    0  0.62836771169E+02 -0.78550738035E+02  0.37231782123E+03  0.40541859635E+03  0.12500000000E+03 0.  0.
         25    1    1    2    0    0 -0.76237388431E+02 -0.62303348500E+02  0.64784995366E+01  0.15925080089E+03  0.12500000000E+03 0.  0.
</event>
<event>
 5    0  0.5616733E-005  0.2558589E+03  0.7546771E-02  0.1109657E+00
         21   -1    0    0  502  501  0.00000000000E+00  0.00000000000E+00  0.79344969584E+02  0.79344969584E+02  0.00000000000E+00 0.  1.
         21   -1    0    0  501  502 -0.00000000000E+00 -0.00000000000E+00 -0.82505236979E+03  0.82505236979E+03  0.00000000000E+00 0.  1.
         25    1    1    2    0    0  0.10005628873E+03  0.39793360222E+02 -0.20921713831E+03  0.26644245795E+03  0.12500000000E+03 0.  0.
         25    1    1    2    0    0 -0.79883427463E+02 -0.12121314603E+03 -0.25751985562E+03  0.32096022307E+03  0.12500000000E+03 0.  0.
         25    1    1    2    0    0 -0.20172861269E+02  0.81419785806E+02 -0.27897040628E+03  0.31699465836E+03  0.12500000000E+03 0.  0.
</event>
<event>
 5    0  0.5616733E-005  0.3288887E+03  0.7546771E-02  0.1071630E+00
         21   -1    0    0  502  501  0.00000000000E+00  0.00000000000E+00  0.11190401291E+04  0.11190401291E+04  0.00000000000E+00 0. -1.
         21   -1    0    0  501  502 -0.00000000000E+00 -0.00000000000E+00 -0.96661236158E+02  0.96661236158E+02  0.00000000000E+00 0. -1.
         25    1    1    2    0    0 -0.83183613147E+02 -0.18023606625E+03  0.52965695345E+03  0.57928062406E+03  0.12500000000E+03 0.  0.
         25    1    1    2    0    0  0.16776397939E+03  0.10008265288E+03  0.28271341941E+03  0.36566811141E+03  0.12500000000E+03 0.  0.
         25    1    1    2    0    0 -0.84580366243E+02  0.80153413375E+02  0.21000852009E+03  0.27075262979E+03  0.12500000000E+03 0.  0.
</event>
<event>
 5    0  0.5616733E-005  0.3720450E+03  0.7546771E-02  0.1053914E+00
         21   -1    0    0  502  501  0.00000000000E+00  0.00000000000E+00  0.10026661346E+04  0.10026661346E+04  0.00000000000E+00 0. -1.
         21   -1    0    0  501  502 -0.00000000000E+00 -0.00000000000E+00 -0.13804942415E+03  0.13804942415E+03  0.00000000000E+00 0. -1.
         25    1    1    2    0    0  0.10329400872E+03 -0.14029291181E+03  0.24917738006E+03  0.32873411760E+03  0.12500000000E+03 0.  0.
         25    1    1    2    0    0 -0.17462289125E+03  0.11443139590E+03  0.78800812866E+02  0.25577776805E+03  0.12500000000E+03 0.  0.
         25    1    1    2    0    0  0.71328882531E+02  0.25861515904E+02  0.53663851751E+03  0.55620367309E+03  0.12500000000E+03 0.  0.
</event>
<event>
 5    0  0.5616733E-005  0.5020382E+03  0.7546771E-02  0.1013248E+00
         21   -1    0    0  502  501  0.00000000000E+00  0.00000000000E+00  0.24457918492E+03  0.24457918492E+03  0.00000000000E+00 0.  1.
         21   -1    0    0  501  502 -0.00000000000E+00 -0.00000000000E+00 -0.10305145050E+04  0.10305145050E+04  0.00000000000E+00 0.  1.
         25    1    1    2    0    0 -0.95065038889E+02  0.79612275044E+02 -0.63876375555E+03  0.66258555022E+03  0.12500000000E+03 0.  0.
         25    1    1    2    0    0  0.19572996777E+03  0.10971232434E+03  0.87092063953E+02  0.27121401512E+03  0.12500000000E+03 0.  0.
         25    1    1    2    0    0 -0.10066492888E+03 -0.18932459939E+03 -0.23426362846E+03  0.34129412456E+03  0.12500000000E+03 0.  0.
</event>
<event>
 5    0  0.5616733E-005  0.3254889E+03  0.7546771E-02  0.1073151E+00
         21   -1    0    0  502  501  0.00000000000E+00  0.00000000000E+00  0.22635826067E+03  0.22635826067E+03  0.00000000000E+00 0.  1.
         21   -1    0    0  501  502 -0.00000000000E+00 -0.00000000000E+00 -0.46803258435E+03  0.46803258435E+03  0.00000000000E+00 0.  1.
         25    1    1    2    0    0  0.73988245510E+02  0.38371489231E+02 -0.44175728278E+02  0.15659861630E+03  0.12500000000E+03 0.  0.
         25    1    1    2    0    0 -0.98416546107E+02  0.44676400654E+02  0.10740121613E+03  0.19708327821E+03  0.12500000000E+03 0.  0.
         25    1    1    2    0    0  0.24428300597E+02 -0.83047889885E+02 -0.30489981154E+03  0.34070895051E+03  0.12500000000E+03 0.  0.
</event>
<event>
 5    0  0.5616733E-005  0.5299110E+03  0.7546771E-02  0.1006254E+00
         21   -1    0    0  502  501  0.00000000000E+00  0.00000000000E+00  0.15306367760E+04  0.15306367760E+04  0.00000000000E+00 0. -1.
         21   -1    0    0  501  502 -0.00000000000E+00 -0.00000000000E+00 -0.18345674626E+03  0.18345674626E+03  0.00000000000E+00 0. -1.
         25    1    1    2    0    0 -0.73786662718E+02  0.62627133398E+02  0.26305891404E+03  0.30690653575E+03  0.12500000000E+03 0.  0.
         25    1    1    2    0    0  0.26909129556E+03 -0.21989943690E+03  0.98083109824E+02  0.38211409831E+03  0.12500000000E+03 0.  0.
         25    1    1    2    0    0 -0.19530463285E+03  0.15727230350E+03  0.98603800583E+03  0.10250728881E+04  0.12500000000E+03 0.  0.
</event>
<event>
 5    0  0.6295397E-005  0.4819566E+03  0.7546771E-02  0.1018599E+00
         21   -1    0    0  502  501  0.00000000000E+00  0.00000000000E+00  0.20616612211E+03  0.20616612211E+03  0.00000000000E+00 0. -1.
         21   -1    0    0  501  502 -0.00000000000E+00 -0.00000000000E+00 -0.11266746422E+04  0.11266746422E+04  0.00000000000E+00 0. -1.
         25    1    1    2    0    0  0.77363652462E+00  0.23795359063E+03 -0.40673107908E+03  0.48752197950E+03  0.12500000000E+03 0.  0.
         25    1    1    2    0    0  0.11048892038E+03 -0.24145829756E+03 -0.59185198003E+03  0.66062370322E+03  0.12500000000E+03 0.  0.
         25    1    1    2    0    0 -0.11126255690E+03  0.35047069269E+01  0.78074538986E+02  0.18469508163E+03  0.12500000000E+03 0.  0.
</event>
<event>
 5    0  0.5616733E-005  0.2162545E+03  0.7546771E-02  0.1136707E+00
         21   -1    0    0  502  501  0.00000000000E+00  0.00000000000E+00  0.10647511081E+03  0.10647511081E+03  0.00000000000E+00 0.  1.
         21   -1    0    0  501  502 -0.00000000000E+00 -0.00000000000E+00 -0.43922004042E+03  0.43922004042E+03  0.00000000000E+00 0.  1.
         25    1    1    2    0    0  0.15328285192E+02  0.38135776349E+02 -0.50842540584E+02  0.14106472875E+03  0.12500000000E+03 0.  0.
         25    1    1    2    0    0 -0.39072328198E+02 -0.33258857087E+02 -0.23077043688E+03  0.26741875952E+03  0.12500000000E+03 0.  0.
         25    1    1    2    0    0  0.23744043006E+02 -0.48769192613E+01 -0.51131952149E+02  0.13721166295E+03  0.12500000000E+03 0.  0.
</event>
<event>
 5    0  0.5616733E-005  0.2874134E+03  0.7546771E-02  0.1091707E+00
         21   -1    0    0  502  501  0.00000000000E+00  0.00000000000E+00  0.14618171133E+04  0.14618171133E+04  0.00000000000E+00 0. -1.
         21   -1    0    0  501  502 -0.00000000000E+00 -0.00000000000E+00 -0.56509436087E+02  0.56509436087E+02  0.00000000000E+00 0. -1.
         25    1    1    2    0    0 -0.16650962004E+03  0.74952696462E+02  0.50234149363E+03  0.54892197669E+03  0.12500000000E+03 0.  0.
         25    1    1    2    0    0  0.17952863144E+03 -0.45010238160E+02  0.58621340463E+03  0.62731778774E+03  0.12500000000E+03 0.  0.
         25    1    1    2    0    0 -0.13019011401E+02 -0.29942458301E+02  0.31675277895E+03  0.34208678495E+03  0.12500000000E+03 0.  0.
</event>
<event>
 5    0  0.5997592E-005  0.3883774E+03  0.7546771E-02  0.1047880E+00
         21   -1    0    0  502  501  0.00000000000E+00  0.00000000000E+00  0.85375517230E+03  0.85375517230E+03  0.00000000000E+00 0. -1.
         21   -1    0    0  501  502 -0.00000000000E+00 -0.00000000000E+00 -0.17667476439E+03  0.17667476439E+03  0.00000000000E+00 0. -1.
         25    1    1    2    0    0 -0.30918527920E+02 -0.21596469543E+03  0.49180468432E+03  0.55235274287E+03  0.12500000000E+03 0.  0.
         25    1    1    2    0    0  0.92956464826E+02  0.10438424939E+03  0.22716431396E+03  0.29456001326E+03  0.12500000000E+03 0.  0.
         25    1    1    2    0    0 -0.62037936905E+02  0.11158044605E+03 -0.41888590371E+02  0.18351718055E+03  0.12500000000E+03 0.  0.
</event>
<event>
 5    0  0.5616733E-005  0.3485429E+03  0.7546771E-02  0.1063215E+00
         21   -1    0    0  502  501  0.00000000000E+00  0.00000000000E+00  0.44925425623E+03  0.44925425623E+03  0.00000000000E+00 0.  1.
         21   -1    0    0  501  502 -0.00000000000E+00 -0.00000000000E+00 -0.27040841012E+03  0.27040841012E+03  0.00000000000E+00 0.  1.
         25    1    1    2    0    0 -0.12163308714E+03 -0.53133285534E+02  0.15053829672E+02  0.18294636292E+03  0.12500000000E+03 0.  0.
         25    1    1    2    0    0  0.49217749271E+02 -0.18364834621E+03  0.32524423685E+02  0.22985199596E+03  0.12500000000E+03 0.  0.
         25    1    1    2    0    0  0.72415337865E+02  0.23678163175E+03  0.13126759276E+03  0.30686430747E+03  0.12500000000E+03 0.  0.
</event>
<event>
 5    0  0.5616733E-005  0.2468561E+03  0.7546771E-02  0.1115308E+00
         21   -1    0    0  502  501  0.00000000000E+00  0.00000000000E+00  0.13274978273E+04  0.13274978273E+04  0.00000000000E+00 0.  1.
         21   -1    0    0  501  502 -0.00000000000E+00 -0.00000000000E+00 -0.45904357164E+02  0.45904357164E+02  0.00000000000E+00 0.  1.
         25    1    1    2    0    0  0.10839291638E+03  0.76864975628E+02  0.68776113899E+03  0.71154594588E+03  0.12500000000E+03 0.  0.
         25    1    1    2    0    0 -0.63426931586E+02 -0.30076376550E+01  0.27795839172E+03  0.31131638097E+03  0.12500000000E+03 0.  0.
         25    1    1    2    0    0 -0.44965984790E+02 -0.73857337973E+02  0.31587393940E+03  0.35053985758E+03  0.12500000000E+03 0.  0.
</event>
<event>
 5    0  0.5616733E-005  0.3177854E+03  0.7546771E-02  0.1076673E+00
         21   -1    0    0  502  501  0.00000000000E+00  0.00000000000E+00  0.94111805155E+02  0.94111805155E+02  0.00000000000E+00 0.  1.
         21   -1    0    0  501  502 -0.00000000000E+00 -0.00000000000E+00 -0.10730593082E+04  0.10730593082E+04  0.00000000000E+00 0.  1.
         25    1    1    2    0    0  0.11171561186E+02  0.12435387026E+03 -0.18204693861E+03  0.25368243275E+03  0.12500000000E+03 0.  0.
         25    1    1    2    0    0 -0.12728852631E+03  0.93627959881E+01 -0.15686855948E+03  0.23774519098E+03  0.12500000000E+03 0.  0.
         25    1    1    2    0    0  0.11611696512E+03 -0.13371666624E+03 -0.64003200497E+03  0.67574348965E+03  0.12500000000E+03 0.  0.
</event>
<event>
 5    0  0.5616733E-005  0.4465402E+03  0.7546771E-02  0.1028759E+00
         21   -1    0    0  502  501  0.00000000000E+00  0.00000000000E+00  0.54561574632E+03  0.54561574632E+03  0.00000000000E+00 0. -1.
         21   -1    0    0  501  502 -0.00000000000E+00 -0.00000000000E+00 -0.36545521322E+03  0.36545521322E+03  0.00000000000E+00 0. -1.
         25    1    1    2    0    0  0.17756475412E+03  0.30657309042E+03  0.10488965869E+03  0.39005530656E+03  0.12500000000E+03 0.  0.
         25    1    1    2    0    0 -0.10751345447E+03 -0.32077113996E+03  0.10145579004E+03  0.37466190687E+03  0.12500000000E+03 0.  0.
         25    1    1    2    0    0 -0.70051299648E+02  0.14198049544E+02 -0.26184915626E+02  0.14635374611E+03  0.12500000000E+03 0.  0.
</event>
<event>
 5    0  0.5616733E-005  0.2640449E+03  0.7546771E-02  0.1104737E+00
         21   -1    0    0  502  501  0.00000000000E+00  0.00000000000E+00  0.50517880436E+02  0.50517880436E+02  0.00000000000E+00 0. -1.
         21   -1    0    0  501  502 -0.00000000000E+00 -0.00000000000E+00 -0.13800995580E+04  0.13800995580E+04  0.00000000000E+00 0. -1.
         25    1    1    2    0    0  0.50590862513E+02  0.12724110499E+03 -0.30961635541E+03  0.36088366783E+03  0.12500000000E+03 0.  0.
         25    1    1    2    0    0  0.14498709869E+02 -0.10656925518E+03 -0.38220515436E+03  0.41626073410E+03  0.12500000000E+03 0.  0.
         25    1    1    2    0    0 -0.65089572382E+02 -0.20671849812E+02 -0.63776016782E+03  0.65347303652E+03  0.12500000000E+03 0.  0.
</event>
<event>
 5    0  0.5676568E-005  0.2495700E+03  0.7546771E-02  0.1113577E+00
         21   -1    0    0  502  501  0.00000000000E+00  0.00000000000E+00  0.39680769193E+03  0.39680769193E+03  0.00000000000E+00 0.  1.
         21   -1    0    0  501  502 -0.00000000000E+00 -0.00000000000E+00 -0.15696568894E+03  0.15696568894E+03  0.00000000000E+00 0.  1.
         25    1    1    2    0    0 -0.13314064509E+02  0.14645627574E+03  0.13060126410E+03  0.23304161689E+03  0.12500000000E+03 0.  0.
         25    1    1    2    0    0 -0.33294842001E+02 -0.60105996660E+02  0.51513232859E+02  0.15165714786E+03  0.12500000000E+03 0.  0.
         25    1    1    2    0    0  0.46608906510E+02 -0.86350279076E+02  0.57727506034E+02  0.16907461612E+03  0.12500000000E+03 0.  0.
</event>
<event>
 5    0  0.5616733E-005  0.2563858E+03  0.7546771E-02  0.1109334E+00
         21   -1    0    0  502  501  0.00000000000E+00  0.00000000000E+00  0.11853427985E+04  0.11853427985E+04  0.00000000000E+00 0. -1.
         21   -1    0    0  501  502 -0.00000000000E+00 -0.00000000000E+00 -0.55455428409E+02  0.55455428409E+02  0.00000000000E+00 0. -1.
         25    1    1    2    0    0 -0.14567413819E+03  0.52665383708E+02  0.52453273719E+03  0.56102957994E+03  0.12500000000E+03 0.  0.
         25    1    1    2    0    0  0.39290104782E+02 -0.30246166796E+02  0.35448473262E+03  0.37913449936E+03  0.12500000000E+03 0.  0.
         25    1    1    2    0    0  0.10638403341E+03 -0.22419216911E+02  0.25086990031E+03  0.30063414765E+03  0.12500000000E+03 0.  0.
</event>
<event>
 5    0  0.5616733E-005  0.3031557E+03  0.7546771E-02  0.1083674E+00
         21   -1    0    0  502  501  0.00000000000E+00  0.00000000000E+00  0.37980139549E+03  0.37980139549E+03  0.00000000000E+00 0.  1.
         21   -1    0    0  501  502 -0.00000000000E+00 -0.00000000000E+00 -0.24197740257E+03  0.24197740257E+03  0.00000000000E+00 0.  1.
         25    1    1    2    0    0 -0.16695498026E+01 -0.16431230106E+03  0.10177881935E+03  0.23018524658E+03  0.12500000000E+03 0.  0.
         25    1    1    2    0    0 -0.20686191714E+02  0.11950130181E+03 -0.99455596860E+02  0.20056145046E+03  0.12500000000E+03 0.  0.
         25    1    1    2    0    0  0.22355741516E+02  0.44810999244E+02  0.13550077043E+03  0.19103210102E+03  0.12500000000E+03 0.  0.
</event>
<event>
 5    0  0.5616733E-005  0.2501765E+03  0.7546771E-02  0.1113193E+00
         21   -1    0    0  502  501  0.00000000000E+00  0.00000000000E+00  0.50932663596E+03  0.50932663596E+03  0.00000000000E+00 0. -1.
         21   -1    0    0  501  502 -0.00000000000E+00 -0.00000000000E+00 -0.12288440899E+03  0.12288440899E+03  0.00000000000E+00 0. -1.
         25    1    1    2    0    0 -0.98187543981E+02 -0.29480972450E+02  0.25975676706E+03  0.30595506135E+03  0.12500000000E+03 0.  0.
         25    1    1    2    0    0  0.87596371568E+01 -0.36349570434E+02  0.78431003773E+02  0.15223155017E+03  0.12500000000E+03 0.  0.
         25    1    1    2    0    0  0.89427906825E+02  0.65830542885E+02  0.48254456136E+02  0.17402443344E+03  0.12500000000E+03 0.  0.
</event>
<event>
 5    0  0.6689220E-005  0.2983929E+03  0.7546771E-02  0.1086047E+00
         21   -1    0    0  502  501  0.00000000000E+00  0.00000000000E+00  0.21465004670E+03  0.21465004670E+03  0.00000000000E+00 0.  1.
         21   -1    0    0  501  502 -0.00000000000E+00 -0.00000000000E+00 -0.41480680211E+03  0.41480680211E+03  0.00000000000E+00 0.  1.
         25    1    1    2    0    0 -0.20910305518E+03  0.36552497456E+02 -0.45703564296E+02  0.25054737785E+03  0.12500000000E+03 0.  0.
         25    1    1    2    0    0  0.99943477053E+02  0.49257173317E+01 -0.20057591215E+02  0.16136997324E+03  0.12500000000E+03 0.  0.
         25    1    1    2    0    0  0.10915957813E+03 -0.41478214788E+02 -0.13439559990E+03  0.21753949773E+03  0.12500000000E+03 0.  0.
</event>
<event>
 5    0  0.5616733E-005  0.3157703E+03  0.7546771E-02  0.1077613E+00
         21   -1    0    0  502  501  0.00000000000E+00  0.00000000000E+00  0.26677492693E+03  0.26677492693E+03  0.00000000000E+00 0.  1.
         21   -1    0    0  501  502 -0.00000000000E+00 -0.00000000000E+00 -0.37376403718E+03  0.37376403718E+03  0.00000000000E+00 0.  1.
         25    1    1    2    0    0 -0.72451326182E+02 -0.97002239542E+01 -0.80019767591E+02  0.16544319936E+03  0.12500000000E+03 0.  0.
         25    1    1    2    0    0 -0.13617250278E+03 -0.31437203277E+01  0.89196714790E+02  0.20526540727E+03  0.12500000000E+03 0.  0.
         25    1    1    2    0    0  0.20862382896E+03  0.12843944282E+02 -0.11616605744E+03  0.26983035748E+03  0.12500000000E+03 0.  0.
</event>
<event>
 5    0  0.5616733E-005  0.3043730E+03  0.7546771E-02  0.1083075E+00
         21   -1    0    0  502  501  0.00000000000E+00  0.00000000000E+00  0.16203115290E+03  0.16203115290E+03  0.00000000000E+00 0.  1.
         21   -1    0    0  501  502 -0.00000000000E+00 -0.00000000000E+00 -0.57176008105E+03  0.57176008105E+03  0.00000000000E+00 0.  1.
         25    1    1    2    0    0  0.11467995680E+02  0.14897294009E+03 -0.23211679890E+03  0.30303079074E+03  0.12500000000E+03 0.  0.
         25    1    1    2    0    0  0.14406572233E+02  0.24582570073E+02  0.29884968677E+02  0.13164331896E+03  0.12500000000E+03 0.  0.
         25    1    1    2    0    0 -0.25874567912E+02 -0.17355551016E+03 -0.20749709793E+03  0.29911712425E+03  0.12500000000E+03 0.  0.
</event>
<event>
 5    0  0.5616733E-005  0.3673781E+03  0.7546771E-02  0.1055700E+00
         21   -1    0    0  502  501  0.00000000000E+00  0.00000000000E+00  0.51397420097E+03  0.51397420097E+03  0.00000000000E+00 0. -1.
         21   -1    0    0  501  502 -0.00000000000E+00 -0.00000000000E+00 -0.26259428936E+03  0.26259428936E+03  0.00000000000E+00 0. -1.
         25    1    1    2    0    0 -0.56319151833E+02  0.44969754237E+02 -0.62961667083E+02  0.15742711705E+03  0.12500000000E+03 0.  0.
         25    1    1    2    0    0  0.44913314597E+02 -0.22836805649E+03  0.41794908033E+02  0.26747147397E+03  0.12500000000E+03 0.  0.
         25    1    1    2    0    0  0.11405837236E+02  0.18339830225E+03  0.27254667066E+03  0.35166989931E+03  0.12500000000E+03 0.  0.
</event>
<event>
 5    0  0.6233590E-005  0.3457791E+03  0.7546771E-02  0.1064361E+00
         21   -1    0    0  502  501  0.00000000000E+00  0.00000000000E+00  0.21069522754E+03  0.21069522754E+03  0.00000000000E+00 0. -1.
         21   -1    0    0  501  502 -0.00000000000E+00 -0.00000000000E+00 -0.56746978583E+03  0.56746978583E+03  0.00000000000E+00 0. -1.
         25    1    1    2    0    0 -0.18653648701E+03 -0.25230108719E+02 -0.80704419346E+02  0.23993878943E+03  0.12500000000E+03 0.  0.
         25    1    1    2    0    0 -0.50194956097E+01 -0.91804026815E+02 -0.22960705176E+03  0.27712375014E+03  0.12500000000E+03 0.  0.
         25    1    1    2    0    0  0.19155598261E+03  0.11703413553E+03 -0.46463087184E+02  0.26110247380E+03  0.12500000000E+03 0.  0.
</event>
<event>
 5    0  0.5616733E-005  0.4562803E+03  0.7546771E-02  0.1025866E+00
         21   -1    0    0  502  501  0.00000000000E+00  0.00000000000E+00  0.91536216306E+03  0.91536216306E+03  0.00000000000E+00 0. -1.
         21   -1    0    0  501  502 -0.00000000000E+00 -0.00000000000E+00 -0.22744189969E+03  0.22744189969E+03  0.00000000000E+00 0. -1.
         25    1    1    2    0    0 -0.17599820292E+03  0.25449182185E+03  0.53529879765E+03  0.63080207481E+03  0.12500000000E+03 0.  0.
         25    1    1    2    0    0  0.15255363636E+03  0.74869463795E+01  0.55616404658E+02  0.20505328771E+03  0.12500000000E+03 0.  0.
         25    1    1    2    0    0  0.23444566563E+02 -0.26197876823E+03  0.97005061072E+02  0.30694870024E+03  0.12500000000E+03 0.  0.
</event>
<event>
 5    0  0.5616733E-005  0.2120082E+03  0.7546771E-02  0.1139985E+00
         21   -1    0    0  502  501  0.00000000000E+00  0.00000000000E+00  0.45588385973E+03  0.45588385973E+03  0.00000000000E+00 0. -1.
         21   -1    0    0  501  502 -0.00000000000E+00 -0.00000000000E+00 -0.98594180480E+02  0.98594180480E+02  0.00000000000E+00 0. -1.
         25    1    1    2    0    0  0.47664510720E+02  0.32350136539E+02  0.77960618745E+02  0.15818120935E+03  0.12500000000E+03 0.  0.
         25    1    1    2    0    0 -0.53025829847E+02 -0.46135701361E+02  0.20479503785E+03  0.25001249788E+03  0.12500000000E+03 0.  0.
         25    1    1    2    0    0  0.53613191270E+01  0.13785564821E+02  0.74534022654E+02  0.14628433297E+03  0.12500000000E+03 0.  0.
</event>
<event>
 5    0  0.5616733E-005  0.2491171E+03  0.7546771E-02  0.1113864E+00
         21   -1    0    0  502  501  0.00000000000E+00  0.00000000000E+00  0.79025069639E+02  0.79025069639E+02  0.00000000000E+00 0. -1.
         21   -1    0    0  501  502 -0.00000000000E+00 -0.00000000000E+00 -0.78531166276E+03  0.78531166276E+03  0.00000000000E+00 0. -1.
         25    1    1    2    0    0  0.53508446884E+01 -0.37884358742E+02 -0.26587323865E+03  0.29627256911E+03  0.12500000000E+03 0.  0.
         25    1    1    2    0    0  0.36460121965E+02  0.30717741053E+02 -0.30219009811E+02  0.13715359515E+03  0.12500000000E+03 0.  0.
         25    1    1    2    0    0 -0.41810966653E+02  0.71666176883E+01 -0.41019434465E+03  0.43091056813E+03  0.12500000000E+03 0.  0.
</event>
<event>
 5    0  0.5616733E-005  0.2146321E+03  0.7546771E-02  0.1137950E+00
         21   -1    0    0  502  501  0.00000000000E+00  0.00000000000E+00  0.68747342738E+02  0.68747342738E+02  0.00000000000E+00 0.  1.
         21   -1    0    0  501  502 -0.00000000000E+00 -0.00000000000E+00 -0.67009018510E+03  0.67009018510E+03  0.00000000000E+00 0.  1.
         25    1    1    2    0    0  0.48824101678E+02 -0.59590063320E+02 -0.20197077083E+03  0.24970374611E+03  0.12500000000E+03 0.  0.
         25    1    1    2    0    0 -0.94615732618E+01  0.29477443197E+02 -0.28447532163E+03  0.31226535133E+03  0.12500000000E+03 0.  0.
         25    1    1    2    0    0 -0.39362528417E+02  0.30112620123E+02 -0.11489674991E+03  0.17686843040E+03  0.12500000000E+03 0.  0.
</event>
<event>
 5    0  0.5616733E-005  0.5612474E+03  0.7546771E-02  0.9989236E-01
         21   -1    0    0  502  501  0.00000000000E+00  0.00000000000E+00  0.77783361645E+03  0.77783361645E+03  0.00000000000E+00 0.  1.
         21   -1    0    0  501  502 -0.00000000000E+00 -0.00000000000E+00 -0.40496915602E+03  0.40496915602E+03  0.00000000000E+00 0.  1.
         25    1    1    2    0    0  0.12922908984E+03  0.27318156482E+03 -0.85082566553E+02  0.33792361290E+03  0.12500000000E+03 0.  0.
         25    1    1    2    0    0  0.49232672456E+02  0.16619808668E+03  0.90585760963E+02  0.23211299004E+03  0.12500000000E+03 0.  0.
         25    1    1    2    0    0 -0.17846176230E+03 -0.43937965151E+03  0.36736126602E+03  0.61276616954E+03  0.12500000000E+03 0.  0.
</event>
<event>
 5    0  0.5616733E-005  0.4412134E+03  0.7546771E-02  0.1030375E+00
         21   -1    0    0  502  501  0.00000000000E+00  0.00000000000E+00  0.51425632887E+03  0.51425632887E+03  0.00000000000E+00 0. -1.
         21   -1    0    0  501  502 -0.00000000000E+00 -0.00000000000E+00 -0.37854519850E+03  0.37854519850E+03  0.00000000000E+00 0. -1.
         25    1    1    2    0    0 -0.74218114882E+02  0.12698529690E+03 -0.12106741729E+03  0.22785063909E+03  0.12500000000E+03 0.  0.
         25    1    1    2    0    0 -0.14485606020E+03  0.77759267539E+02 -0.55998200142E+02  0.21398733674E+03  0.12500000000E+03 0.  0.
         25    1    1    2    0    0  0.21907417508E+03 -0.20474456444E+03  0.31277674780E+03  0.45096355154E+03  0.12500000000E+03 0.  0.
</event>
<event>
 5    0  0.5819070E-005  0.2572047E+03  0.7546771E-02  0.1108834E+00
         21   -1    0    0  502  501  0.00000000000E+00  0.00000000000E+00  0.10302062577E+03  0.10302062577E+03  0.00000000000E+00 0. -1.
         21   -1    0    0  501  502 -0.00000000000E+00 -0.00000000000E+00 -0.64214556309E+03  0.64214556309E+03  0.00000000000E+00 0. -1.
         25    1    1    2    0    0  0.90929468742E+01  0.13503505358E+03 -0.86965227403E+02  0.20372800042E+03  0.12500000000E+03 0.  0.
         25    1    1    2    0    0 -0.31152401651E+02 -0.86866551870E+02 -0.29759980987E+03  0.33571850827E+03  0.12500000000E+03 0.  0.
         25    1    1    2    0    0  0.22059454776E+02 -0.48168501714E+02 -0.15455990005E+03  0.20571968016E+03  0.12500000000E+03 0.  0.
</event>
<event>
 5    0  0.5616733E-005  0.6879630E+03  0.7546771E-02  0.9738041E-01
         21   -1    0    0  502  501  0.00000000000E+00  0.00000000000E+00  0.97635856967E+03  0.97635856967E+03  0.00000000000E+00 0. -1.
         21   -1    0    0  501  502 -0.00000000000E+00 -0.00000000000E+00 -0.48475336302E+03  0.48475336302E+03  0.00000000000E+00 0.  1.
         25    1    1    2    0    0  0.55953606517E+02 -0.68510679731E+02  0.37028636915E+03  0.40070127838E+03  0.12500000000E+03 0.  0.
         25    1    1    2    0    0  0.15666362464E+03 -0.43051888945E+03 -0.51203379219E+02  0.47763667311E+03  0.12500000000E+03 0.  0.
         25    1    1    2    0    0 -0.21261723115E+03  0.49902956918E+03  0.17252221672E+03  0.58277398120E+03  0.12500000000E+03 0.  0.
</event>
<event>
 5    0  0.5616733E-005  0.2727573E+03  0.7546771E-02  0.1099712E+00
         21   -1    0    0  502  501  0.00000000000E+00  0.00000000000E+00  0.13687725351E+03  0.13687725351E+03  0.00000000000E+00 0. -1.
         21   -1    0    0  501  502 -0.00000000000E+00 -0.00000000000E+00 -0.54352750491E+03  0.54352750491E+03  0.00000000000E+00 0. -1.
         25    1    1    2    0    0  0.42286323197E+00  0.60143370781E+02  0.50122823220E+01  0.13880751722E+03  0.12500000000E+03 0.  0.
         25    1    1    2    0    0 -0.32605123557E+02 -0.14394527633E+03 -0.27215716423E+03  0.33388300152E+03  0.12500000000E+03 0.  0.
         25    1    1    2    0    0  0.32182260325E+02  0.83801905550E+02 -0.13950536949E+03  0.20771423969E+03  0.12500000000E+03 0.  0.
</event>
<event>
 5    0  0.7830461E-005  0.5132372E+03  0.7546771E-02  0.1010380E+00
         21   -1    0    0  502  501  0.00000000000E+00  0.00000000000E+00  0.38821630725E+03  0.38821630725E+03  0.00000000000E+00 0.  1.
         21   -1    0    0  501  502 -0.00000000000E+00 -0.00000000000E+00 -0.67851975135E+03  0.67851975135E+03  0.00000000000E+00 0.  1.
         25    1    1    2    0    0  0.37076800204E+02  0.11534579335E+03 -0.35695802033E+03  0.39714401598E+03  0.12500000000E+03 0.  0.
         25    1    1    2    0    0  0.26879985599E+03  0.38171655460E+02 -0.16338028319E+01  0.29889480955E+03  0.12500000000E+03 0.  0.
         25    1    1    2    0    0 -0.30587665620E+03 -0.15351744881E+03  0.68288379050E+02  0.37069723307E+03  0.12500000000E+03 0.  0.
</event>
<event>
 5    0  0.5616733E-005  0.2853645E+03  0.7546771E-02  0.1092795E+00
         21   -1    0    0  502  501  0.00000000000E+00  0.00000000000E+00  0.33925706481E+03  0.33925706481E+03  0.00000000000E+00 0. -1.
         21   -1    0    0  501  502 -0.00000000000E+00 -0.00000000000E+00 -0.24003304328E+03  0.24003304328E+03  0.00000000000E+00 0. -1.
         25    1    1    2    0    0 -0.92338510722E+02 -0.98508936659E+02  0.63527078374E+01  0.18410803367E+03  0.12500000000E+03 0.  0.
         25    1    1    2    0    0  0.10906154137E+03  0.31357384893E+02  0.16418307116E+03  0.23549689223E+03  0.12500000000E+03 0.  0.
         25    1    1    2    0    0 -0.16723030644E+02  0.67151551766E+02 -0.71311757473E+02  0.15968518219E+03  0.12500000000E+03 0.  0.
</event>
<event>
 5    0  0.5616733E-005  0.4350380E+03  0.7546771E-02  0.1032280E+00
         21   -1    0    0  502  501  0.00000000000E+00  0.00000000000E+00  0.17978847503E+03  0.17978847503E+03  0.00000000000E+00 0. -1.
         21   -1    0    0  501  502 -0.00000000000E+00 -0.00000000000E+00 -0.10526704803E+04  0.10526704803E+04  0.00000000000E+00 0. -1.
         25    1    1    2    0    0  0.15755359547E+03 -0.18290177322E+03 -0.64193954435E+02  0.27932428802E+03  0.12500000000E+03 0.  0.
         25    1    1    2    0    0 -0.14420171023E+03  0.27740667304E+03 -0.63552521150E+03  0.71921199234E+03  0.12500000000E+03 0.  0.
         25    1    1    2    0    0 -0.13351885231E+02 -0.94504899827E+02 -0.17316283929E+03  0.23392267492E+03  0.12500000000E+03 0.  0.
</event>
<event>
 5    0  0.5616733E-005  0.3008529E+03  0.7546771E-02  0.1084815E+00
         21   -1    0    0  502  501  0.00000000000E+00  0.00000000000E+00  0.75450663762E+02  0.75450663762E+02  0.00000000000E+00 0.  1.
         21   -1    0    0  501  502 -0.00000000000E+00 -0.00000000000E+00 -0.11996247365E+04  0.11996247365E+04  0.00000000000E+00 0.  1.
         25    1    1    2    0    0 -0.70798351307E+01  0.14805631370E+03 -0.20639447895E+03  0.28318629386E+03  0.12500000000E+03 0.  0.
         25    1    1    2    0    0  0.34009314380E+02  0.43490874209E+02 -0.24163523713E+03  0.27759805011E+03  0.12500000000E+03 0.  0.
         25    1    1    2    0    0 -0.26929479249E+02 -0.19154718791E+03 -0.67614435665E+03  0.71429105628E+03  0.12500000000E+03 0.  0.
</event>
<event>
 5    0  0.5616733E-005  0.3039743E+03  0.7546771E-02  0.1083271E+00
         21   -1    0    0  502  501  0.00000000000E+00  0.00000000000E+00  0.78839979261E+02  0.78839979261E+02  0.00000000000E+00 0.  1.
         21   -1    0    0  501  502 -0.00000000000E+00 -0.00000000000E+00 -0.11719991489E+04  0.11719991489E+04  0.00000000000E+00 0.  1.
         25    1    1    2    0    0  0.56693989594E+02 -0.27579144762E+02 -0.68917871018E+02  0.15604323320E+03  0.12500000000E+03 0.  0.
         25    1    1    2    0    0 -0.10610165365E+03  0.11861219883E+03 -0.74300344498E+03  0.77006852544E+03  0.12500000000E+03 0.  0.
         25    1    1    2    0    0  0.49407664057E+02 -0.91033054066E+02 -0.28123785369E+03  0.32472736957E+03  0.12500000000E+03 0.  0.
</event>
<event>
 5    0  0.5616733E-005  0.3960528E+03  0.7546771E-02  0.1045155E+00
         21   -1    0    0  502  501  0.00000000000E+00  0.00000000000E+00  0.63039359858E+03  0.63039359858E+03  0.00000000000E+00 0.  1.
         21   -1    0    0  501  502 -0.00000000000E+00 -0.00000000000E+00 -0.24882524291E+03  0.24882524291E+03  0.00000000000E+00 0.  1.
         25    1    1    2    0    0  0.33194976498E+02 -0.97990432453E+02 -0.13360044054E+02  0.16281130825E+03  0.12500000000E+03 0.  0.
         25    1    1    2    0    0 -0.27406714476E+03  0.85461561533E+02  0.13690383054E+03  0.34173694145E+03  0.12500000000E+03 0.  0.
         25    1    1    2    0    0  0.24087216826E+03  0.12528870920E+02  0.25802456919E+03  0.37467059179E+03  0.12500000000E+03 0.  0.
</event>
<event>
 5    0  0.5616733E-005  0.2338620E+03  0.7546771E-02  0.1123951E+00
         21   -1    0    0  502  501  0.00000000000E+00  0.00000000000E+00  0.92604186567E+03  0.92604186567E+03  0.00000000000E+00 0. -1.
         21   -1    0    0  501  502 -0.00000000000E+00 -0.00000000000E+00 -0.59059361789E+02  0.59059361789E+02  0.00000000000E+00 0. -1.
         25    1    1    2    0    0 -0.26770347184E+02  0.70396691858E+02  0.31536441230E+03  0.34749396866E+03  0.12500000000E+03 0.  0.
         25    1    1    2    0    0  0.87950076500E+02 -0.92751670022E+02  0.31385166682E+03  0.36120071569E+03  0.12500000000E+03 0.  0.
         25    1    1    2    0    0 -0.61179729316E+02  0.22354978165E+02  0.23776642476E+03  0.27640654310E+03  0.12500000000E+03 0.  0.
</event>
<event>
 5    0  0.5616733E-005  0.3647517E+03  0.7546771E-02  0.1056718E+00
         21   -1    0    0  502  501  0.00000000000E+00  0.00000000000E+00  0.15715222547E+03  0.15715222547E+03  0.00000000000E+00 0. -1.
         21   -1    0    0  501  502 -0.00000000000E+00 -0.00000000000E+00 -0.84659199671E+03  0.84659199671E+03  0.00000000000E+00 0. -1.
         25    1    1    2    0    0  0.19359952926E+02  0.15260509796E+03  0.19522937668E+02  0.19917145577E+03  0.12500000000E+03 0.  0.
         25    1    1    2    0    0  0.72694679725E+02 -0.10215588524E+03 -0.18627272805E+03  0.25698807475E+03  0.12500000000E+03 0.  0.
         25    1    1    2    0    0 -0.92054632650E+02 -0.50449212719E+02 -0.52268998086E+03  0.54758469167E+03  0.12500000000E+03 0.  0.
</event>
<event>
 5    0  0.5616733E-005  0.2821334E+03  0.7546771E-02  0.1094529E+00
         21   -1    0    0  502  501  0.00000000000E+00  0.00000000000E+00  0.90766768492E+02  0.90766768492E+02  0.00000000000E+00 0. -1.
         21   -1    0    0  501  502 -0.00000000000E+00 -0.00000000000E+00 -0.87696471101E+03  0.87696471101E+03  0.00000000000E+00 0. -1.
         25    1    1    2    0    0 -0.84079836328E+02 -0.37154492520E+02 -0.30490509977E+03  0.34211400886E+03  0.12500000000E+03 0.  0.
         25    1    1    2    0    0  0.15619952949E+03 -0.78153800510E+02 -0.26832268385E+03  0.34369808294E+03  0.12500000000E+03 0.  0.
         25    1    1    2    0    0 -0.72119693162E+02  0.11530829303E+03 -0.21297015890E+03  0.28191938771E+03  0.12500000000E+03 0.  0.
</event>
<event>
 5    0  0.5616733E-005  0.3436650E+03  0.7546771E-02  0.1065246E+00
         21   -1    0    0  502  501  0.00000000000E+00  0.00000000000E+00  0.10012188523E+03  0.10012188523E+03  0.00000000000E+00 0. -1.
         21   -1    0    0  501  502 -0.00000000000E+00 -0.00000000000E+00 -0.11796186525E+04  0.11796186525E+04  0.00000000000E+00 0. -1.
         25    1    1    2    0    0  0.86897246227E+02 -0.10635377401E+03 -0.47237935104E+02  0.19162118662E+03  0.12500000000E+03 0.  0.
         25    1    1    2    0    0 -0.34795629946E+02  0.11704952904E+03 -0.80163615779E+03  0.82046136874E+03  0.12500000000E+03 0.  0.
         25    1    1    2    0    0 -0.52101616281E+02 -0.10695755027E+02 -0.23062267438E+03  0.26765798238E+03  0.12500000000E+03 0.  0.
</event>
<event>
 5    0  0.5616733E-005  0.2513594E+03  0.7546771E-02  0.1112449E+00
         21   -1    0    0  502  501  0.00000000000E+00  0.00000000000E+00  0.34604164870E+03  0.34604164870E+03  0.00000000000E+00 0.  1.
         21   -1    0    0  501  502 -0.00000000000E+00 -0.00000000000E+00 -0.18258365273E+03  0.18258365273E+03  0.00000000000E+00 0.  1.
         25    1    1    2    0    0  0.62196744771E+02  0.58411779393E+02 -0.94195839286E+01  0.15163805457E+03  0.12500000000E+03 0.  0.
         25    1    1    2    0    0 -0.69372978129E+02 -0.10258731592E+03  0.24134466529E+02  0.17760698173E+03  0.12500000000E+03 0.  0.
         25    1    1    2    0    0  0.71762333577E+01  0.44175536532E+02  0.14874311337E+03  0.19938026514E+03  0.12500000000E+03 0.  0.
</event>
<event>
 5    0  0.5616733E-005  0.2969440E+03  0.7546771E-02  0.1086778E+00
         21   -1    0    0  502  501  0.00000000000E+00  0.00000000000E+00  0.99707909229E+03  0.99707909229E+03  0.00000000000E+00 0.  1.
         21   -1    0    0  501  502 -0.00000000000E+00 -0.00000000000E+00 -0.88434062338E+02  0.88434062338E+02  0.00000000000E+00 0.  1.
         25    1    1    2    0    0 -0.43268881081E+02 -0.27367597542E+02  0.81405208412E+02  0.15771172887E+03  0.12500000000E+03 0.  0.
         25    1    1    2    0    0  0.59313255740E+02  0.72626238332E+02  0.93831376474E+02  0.18226892223E+03  0.12500000000E+03 0.  0.
         25    1    1    2    0    0 -0.16044374659E+02 -0.45258640791E+02  0.73340844506E+03  0.74553250353E+03  0.12500000000E+03 0.  0.
</event>
<event>
 5    0  0.5616733E-005  0.2718836E+03  0.7546771E-02  0.1100206E+00
         21   -1    0    0  502  501  0.00000000000E+00  0.00000000000E+00  0.59057017287E+03  0.59057017287E+03  0.00000000000E+00 0.  1.
         21   -1    0    0  501  502 -0.00000000000E+00 -0.00000000000E+00 -0.12516830564E+03  0.12516830564E+03  0.00000000000E+00 0.  1.
         25    1    1    2    0    0 -0.42009902900E+02 -0.16121061050E+02  0.23055453030E+03  0.26609229976E+03  0.12500000000E+03 0.  0.
         25    1    1    2    0    0 -0.10377959285E+03 -0.30448978108E+02  0.35718610265E+02  0.16910991479E+03  0.12500000000E+03 0.  0.
         25    1    1    2    0    0  0.14578949575E+03  0.46570039158E+02  0.19912872667E+03  0.28053626397E+03  0.12500000000E+03 0.  0.
</event>
<event>
 5    0  0.5616733E-005  0.3534254E+03  0.7546771E-02  0.1061218E+00
         21   -1    0    0  502  501  0.00000000000E+00  0.00000000000E+00  0.74104005824E+02  0.74104005824E+02  0.00000000000E+00 0.  1.
         21   -1    0    0  501  502 -0.00000000000E+00 -0.00000000000E+00 -0.16855973703E+04  0.16855973703E+04  0.00000000000E+00 0.  1.
         25    1    1    2    0    0 -0.31840114835E+02 -0.97951801257E+01 -0.15869803568E+03  0.20474326605E+03  0.12500000000E+03 0.  0.
         25    1    1    2    0    0  0.71914482631E+02  0.21377099448E+03 -0.41020902513E+03  0.48452675384E+03  0.12500000000E+03 0.  0.
         25    1    1    2    0    0 -0.40074367796E+02 -0.20397581435E+03 -0.10425863036E+04  0.10704313562E+04  0.12500000000E+03 0.  0.
</event>
<event>
 5    0  0.5616733E-005  0.3191199E+03  0.7546771E-02  0.1076055E+00
         21   -1    0    0  502  501  0.00000000000E+00  0.00000000000E+00  0.49023452039E+03  0.49023452039E+03  0.00000000000E+00 0. -1.
         21   -1    0    0  501  502 -0.00000000000E+00 -0.00000000000E+00 -0.20773218651E+03  0.20773218651E+03  0.00000000000E+00 0. -1.
         25    1    1    2    0    0  0.15607068172E+03  0.59888887966E+02  0.31057994060E+03  0.37420533948E+03  0.12500000000E+03 0.  0.
         25    1    1    2    0    0 -0.42887168026E+02  0.23587370284E+02 -0.16420467439E+02  0.13524165397E+03  0.12500000000E+03 0.  0.
         25    1    1    2    0    0 -0.11318351369E+03 -0.83476258249E+02 -0.11657139272E+02  0.18851971345E+03  0.12500000000E+03 0.  0.
</event>
<event>
 5    0  0.5616733E-005  0.2357085E+03  0.7546771E-02  0.1122685E+00
         21   -1    0    0  502  501  0.00000000000E+00  0.00000000000E+00  0.14900917559E+04  0.14900917559E+04  0.00000000000E+00 0. -1.
         21   -1    0    0  501  502 -0.00000000000E+00 -0.00000000000E+00 -0.37285276287E+02  0.37285276287E+02  0.00000000000E+00 0. -1.
         25    1    1    2    0    0  0.50493095264E+02  0.87715135425E+02  0.37219606408E+03  0.40546073518E+03  0.12500000000E+03 0.  0.
         25    1    1    2    0    0 -0.93051997746E+01 -0.11005890669E+03  0.65188613560E+03  0.67288935455E+03  0.12500000000E+03 0.  0.
         25    1    1    2    0    0 -0.41187895489E+02  0.22343771266E+02  0.42872427991E+03  0.44902694244E+03  0.12500000000E+03 0.  0.
</event>
<event>
 5    0  0.5616733E-005  0.2646324E+03  0.7546771E-02  0.1104392E+00
         21   -1    0    0  502  501  0.00000000000E+00  0.00000000000E+00  0.23021297647E+03  0.23021297647E+03  0.00000000000E+00 0. -1.
         21   -1    0    0  501  502 -0.00000000000E+00 -0.00000000000E+00 -0.30419790314E+03  0.30419790314E+03  0.00000000000E+00 0. -1.
         25    1    1    2    0    0  0.13174568224E+03  0.22451571374E+02  0.60130070697E+01  0.18309056257E+03  0.12500000000E+03 0.  0.
         25    1    1    2    0    0  0.19503197125E+02  0.83527244158E+01  0.20968818431E+02  0.12851005427E+03  0.12500000000E+03 0.  0.
         25    1    1    2    0    0 -0.15124887937E+03 -0.30804295790E+02 -0.10096675217E+03  0.22281026276E+03  0.12500000000E+03 0.  0.
</event>
<event>
 5    0  0.5694985E-005  0.2824913E+03  0.7546771E-02  0.1094336E+00
         21   -1    0    0  502  501  0.00000000000E+00  0.00000000000E+00  0.48418397808E+03  0.48418397808E+03  0.00000000000E+00 0. -1.
         21   -1    0    0  501  502 -0.00000000000E+00 -0.00000000000E+00 -0.16481611614E+03  0.16481611614E+03  0.00000000000E+00 0. -1.
         25    1    1    2    0    0  0.77610049097E+02 -0.36502097457E+01  0.24036592270E+03  0.28184644853E+03  0.12500000000E+03 0.  0.
         25    1    1    2    0    0 -0.50774391173E+02 -0.10786011092E+03 -0.14686678671E+02  0.17335668680E+03  0.12500000000E+03 0.  0.
         25    1    1    2    0    0 -0.26835657924E+02  0.11151032067E+03  0.93688617910E+02  0.19379695890E+03  0.12500000000E+03 0.  0.
</event>
<event>
 5    0  0.5616733E-005  0.3774236E+03  0.7546771E-02  0.1051890E+00
         21   -1    0    0  502  501  0.00000000000E+00  0.00000000000E+00  0.18192351086E+04  0.18192351086E+04  0.00000000000E+00 0. -1.
         21   -1    0    0  501  502 -0.00000000000E+00 -0.00000000000E+00 -0.78301346723E+02  0.78301346723E+02  0.00000000000E+00 0. -1.
         25    1    1    2    0    0  0.86891009905E+02  0.14446165075E+03  0.20441844039E+03  0.29296947778E+03  0.12500000000E+03 0.  0.
         25    1    1    2    0    0 -0.99712557119E+02  0.97247335224E+02  0.54124625763E+03  0.57268852760E+03  0.12500000000E+03 0.  0.
         25    1    1    2    0    0  0.12821547214E+02 -0.24170898597E+03  0.99526906391E+03  0.10318784500E+04  0.12500000000E+03 0.  0.
</event>
<event>
 5    0  0.5833904E-005  0.4174099E+03  0.7546771E-02  0.1037913E+00
         21   -1    0    0  502  501  0.00000000000E+00  0.00000000000E+00  0.42661076065E+03  0.42661076065E+03  0.00000000000E+00 0. -1.
         21   -1    0    0  501  502 -0.00000000000E+00 -0.00000000000E+00 -0.40840749266E+03  0.40840749266E+03  0.00000000000E+00 0.  1.
         25    1    1    2    0    0 -0.12535132638E+03 -0.19934485713E+03 -0.10470844570E+03  0.28642657993E+03  0.12500000000E+03 0.  0.
         25    1    1    2    0    0  0.99689320256E+01 -0.14584526494E+02  0.22404267859E+03  0.25716183591E+03  0.12500000000E+03 0.  0.
         25    1    1    2    0    0  0.11538239435E+03  0.21392938363E+03 -0.10113096489E+03  0.29142983747E+03  0.12500000000E+03 0.  0.
</event>
<event>
 5    0  0.5616733E-005  0.4664289E+03  0.7546771E-02  0.1022933E+00
         21   -1    0    0  502  501  0.00000000000E+00  0.00000000000E+00  0.38305129757E+03  0.38305129757E+03  0.00000000000E+00 0.  1.
         21   -1    0    0  501  502 -0.00000000000E+00 -0.00000000000E+00 -0.56795493400E+03  0.56795493400E+03  0.00000000000E+00 0.  1.
         25    1    1    2    0    0  0.15167192345E+03  0.18814099349E+03  0.14168388722E+03  0.30675842237E+03  0.12500000000E+03 0.  0.
         25    1    1    2    0    0  0.19474435847E+02  0.11080026123E+03 -0.18859048253E+03  0.25268027552E+03  0.12500000000E+03 0.  0.
         25    1    1    2    0    0 -0.17114635930E+03 -0.29894125471E+03 -0.13799704113E+03  0.39156753368E+03  0.12500000000E+03 0.  0.
</event>
<event>
 5    0  0.5616733E-005  0.3405396E+03  0.7546771E-02  0.1066566E+00
         21   -1    0    0  502  501  0.00000000000E+00  0.00000000000E+00  0.70495188402E+03  0.70495188402E+03  0.00000000000E+00 0.  1.
         21   -1    0    0  501  502 -0.00000000000E+00 -0.00000000000E+00 -0.16450374672E+03  0.16450374672E+03  0.00000000000E+00 0.  1.
         25    1    1    2    0    0 -0.70226387740E+02  0.17178886253E+03  0.80027142475E+02  0.23763943772E+03  0.12500000000E+03 0.  0.
         25    1    1    2    0    0  0.83010453340E+02 -0.15324313456E+03  0.45692246732E+03  0.50475472737E+03  0.12500000000E+03 0.  0.
         25    1    1    2    0    0 -0.12784065600E+02 -0.18545727971E+02  0.34985275059E+01  0.12706146565E+03  0.12500000000E+03 0.  0.
</event>
<event>
 5    0  0.5616733E-005  0.3190550E+03  0.7546771E-02  0.1076085E+00
         21   -1    0    0  502  501  0.00000000000E+00  0.00000000000E+00  0.44457375458E+02  0.44457375458E+02  0.00000000000E+00 0. -1.
         21   -1    0    0  501  502 -0.00000000000E+00 -0.00000000000E+00 -0.22897463382E+04  0.22897463382E+04  0.00000000000E+00 0. -1.
         25    1    1    2    0    0  0.26706104865E+02  0.25891397492E+02 -0.89324943058E+03  0.90271984897E+03  0.12500000000E+03 0.  0.
         25    1    1    2    0    0 -0.21057826503E+03 -0.34746500929E+02 -0.74112828955E+03  0.78131086426E+03  0.12500000000E+03 0.  0.
         25    1    1    2    0    0  0.18387216017E+03  0.88551034361E+01 -0.61091124265E+03  0.65017300047E+03  0.12500000000E+03 0.  0.
</event>
<event>
 5    0  0.5616733E-005  0.5045329E+03  0.7546771E-02  0.1012602E+00
         21   -1    0    0  502  501  0.00000000000E+00  0.00000000000E+00  0.28784734901E+03  0.28784734901E+03  0.00000000000E+00 0.  1.
         21   -1    0    0  501  502 -0.00000000000E+00 -0.00000000000E+00 -0.88433499283E+03  0.88433499283E+03  0.00000000000E+00 0.  1.
         25    1    1    2    0    0 -0.20846583840E+03 -0.40973053076E+01 -0.44723448323E+03  0.50903681269E+03  0.12500000000E+03 0.  0.
         25    1    1    2    0    0 -0.90489555247E+00 -0.38551640423E+02 -0.33108636958E+03  0.35599189869E+03  0.12500000000E+03 0.  0.
         25    1    1    2    0    0  0.20937073395E+03  0.42648945731E+02  0.18183320898E+03  0.30715363045E+03  0.12500000000E+03 0.  0.
</event>
<event>
 5    0  0.5616733E-005  0.2100268E+03  0.7546771E-02  0.1141545E+00
         21   -1    0    0  502  501  0.00000000000E+00  0.00000000000E+00  0.75888378594E+02  0.75888378594E+02  0.00000000000E+00 0.  1.
         21   -1    0    0  501  502 -0.00000000000E+00 -0.00000000000E+00 -0.58126492488E+03  0.58126492488E+03  0.00000000000E+00 0.  1.
         25    1    1    2    0    0  0.23924369347E+02 -0.64398349361E+00 -0.69262371785E+02  0.14489674361E+03  0.12500000000E+03 0.  0.
         25    1    1    2    0    0 -0.10500511495E+02 -0.47443888670E+02 -0.21951709384E+03  0.25724295482E+03  0.12500000000E+03 0.  0.
         25    1    1    2    0    0 -0.13423857852E+02  0.48087872164E+02 -0.21659708065E+03  0.25501360504E+03  0.12500000000E+03 0.  0.
</event>
<event>
 5    0  0.5616733E-005  0.4430765E+03  0.7546771E-02  0.1029807E+00
         21   -1    0    0  502  501  0.00000000000E+00  0.00000000000E+00  0.29937227710E+03  0.29937227710E+03  0.00000000000E+00 0. -1.
         21   -1    0    0  501  502 -0.00000000000E+00 -0.00000000000E+00 -0.65576131336E+03  0.65576131336E+03  0.00000000000E+00 0. -1.
         25    1    1    2    0    0 -0.79074286026E+02  0.11385259714E+03 -0.20877085233E+03  0.28004539877E+03  0.12500000000E+03 0.  0.
         25    1    1    2    0    0  0.15690085842E+03  0.11465720644E+03 -0.28792282966E+03  0.36917300849E+03  0.12500000000E+03 0.  0.
         25    1    1    2    0    0 -0.77826572390E+02 -0.22850980358E+03  0.14030464572E+03  0.30591518320E+03  0.12500000000E+03 0.  0.
</event>
<event>
 5    0  0.5616733E-005  0.2784542E+03  0.7546771E-02  0.1096536E+00
         21   -1    0    0  502  501  0.00000000000E+00  0.00000000000E+00  0.64433278295E+03  0.64433278295E+03  0.00000000000E+00 0.  1.
         21   -1    0    0  501  502 -0.00000000000E+00 -0.00000000000E+00 -0.12033646748E+03  0.12033646748E+03  0.00000000000E+00 0.  1.
         25    1    1    2    0    0  0.83045746356E+02 -0.60818306425E+02  0.39700313097E+03  0.42875628087E+03  0.12500000000E+03 0.  0.
         25    1    1    2    0    0 -0.85748976357E+02  0.97857422441E+02  0.78945748501E+02  0.19694261418E+03  0.12500000000E+03 0.  0.
         25    1    1    2    0    0  0.27032300011E+01 -0.37039116015E+02  0.48047435994E+02  0.13897035538E+03  0.12500000000E+03 0.  0.
</event>
<event>
 5    0  0.6188292E-005  0.3309995E+03  0.7546771E-02  0.1070695E+00
         21   -1    0    0  502  501  0.00000000000E+00  0.00000000000E+00  0.13997753613E+03  0.13997753613E+03  0.00000000000E+00 0.  1.
         21   -1    0    0  501  502 -0.00000000000E+00 -0.00000000000E+00 -0.78270176719E+03  0.78270176719E+03  0.00000000000E+00 0.  1.
         25    1    1    2    0    0 -0.70610757097E+02 -0.51664190886E+02  0.17062494788E+02  0.15352913849E+03  0.12500000000E+03 0.  0.
         25    1    1    2    0    0  0.12436317950E+03  0.13301556509E+03 -0.27316642749E+03  0.35128939363E+03  0.12500000000E+03 0.  0.
         25    1    1    2    0    0 -0.53752422404E+02 -0.81351374202E+02 -0.38662029836E+03  0.41786077120E+03  0.12500000000E+03 0.  0.
</event>
<event>
 5    0  0.5616733E-005  0.2515638E+03  0.7546771E-02  0.1112321E+00
         21   -1    0    0  502  501  0.00000000000E+00  0.00000000000E+00  0.17192096226E+03  0.17192096226E+03  0.00000000000E+00 0. -1.
         21   -1    0    0  501  502 -0.00000000000E+00 -0.00000000000E+00 -0.36810129976E+03  0.36810129976E+03  0.00000000000E+00 0. -1.
         25    1    1    2    0    0  0.97910778760E+02 -0.65538767340E+02 -0.10229214796E+03  0.19992632182E+03  0.12500000000E+03 0.  0.
         25    1    1    2    0    0 -0.12081472421E+03 -0.16762913976E+02 -0.38217152754E+02  0.17878127317E+03  0.12500000000E+03 0.  0.
         25    1    1    2    0    0  0.22903945449E+02  0.82301681316E+02 -0.55671036792E+02  0.16131466704E+03  0.12500000000E+03 0.  0.
</event>
<event>
 5    0  0.5616733E-005  0.2973531E+03  0.7546771E-02  0.1086571E+00
         21   -1    0    0  502  501  0.00000000000E+00  0.00000000000E+00  0.12621416655E+04  0.12621416655E+04  0.00000000000E+00 0.  1.
         21   -1    0    0  501  502 -0.00000000000E+00 -0.00000000000E+00 -0.70054651437E+02  0.70054651437E+02  0.00000000000E+00 0.  1.
         25    1    1    2    0    0  0.14145398179E+03 -0.56201766644E+01  0.21157309805E+03  0.28360005495E+03  0.12500000000E+03 0.  0.
         25    1    1    2    0    0 -0.10598972860E+03 -0.10712662606E+03  0.59645677613E+03  0.62777035799E+03  0.12500000000E+03 0.  0.
         25    1    1    2    0    0 -0.35464253191E+02  0.11274680273E+03  0.38405713988E+03  0.42082590399E+03  0.12500000000E+03 0.  0.
</event>
<event>
 5    0  0.5616733E-005  0.3501172E+03  0.7546771E-02  0.1062567E+00
         21   -1    0    0  502  501  0.00000000000E+00  0.00000000000E+00  0.17896133259E+03  0.17896133259E+03  0.00000000000E+00 0.  1.
         21   -1    0    0  501  502 -0.00000000000E+00 -0.00000000000E+00 -0.68496391551E+03  0.68496391551E+03  0.00000000000E+00 0.  1.
         25    1    1    2    0    0  0.28862563200E+02  0.18503276144E+03 -0.41953170872E+03  0.47613236077E+03  0.12500000000E+03 0.  0.
         25    1    1    2    0    0  0.75980497348E+02 -0.28034101768E+02 -0.11932268597E+02  0.14941996477E+03  0.12500000000E+03 0.  0.
         25    1    1    2    0    0 -0.10484306055E+03 -0.15699865967E+03 -0.74538605607E+02  0.23837292256E+03  0.12500000000E+03 0.  0.
</event>
<event>
 5    0  0.5616733E-005  0.3270361E+03  0.7546771E-02  0.1072456E+00
         21   -1    0    0  502  501  0.00000000000E+00  0.00000000000E+00  0.19855619005E+03  0.19855619005E+03  0.00000000000E+00 0.  1.
         21   -1    0    0  501  502 -0.00000000000E+00 -0.00000000000E+00 -0.53865165945E+03  0.53865165945E+03  0.00000000000E+00 0.  1.
         25    1    1    2    0    0  0.42578958329E+02 -0.63973601912E+02 -0.21365467598E+03  0.25918894653E+03  0.12500000000E+03 0.  0.
         25    1    1    2    0    0  0.85579315062E+02 -0.12779257720E+03 -0.64992108887E+02  0.20857549274E+03  0.12500000000E+03 0.  0.
         25    1    1    2    0    0 -0.12815827339E+03  0.19176617911E+03 -0.61448684526E+02  0.26944341024E+03  0.12500000000E+03 0.  0.
</event>
<event>
 5    0  0.5616733E-005  0.4028022E+03  0.7546771E-02  0.1042814E+00
         21   -1    0    0  502  501  0.00000000000E+00  0.00000000000E+00  0.13692282314E+03  0.13692282314E+03  0.00000000000E+00 0. -1.
         21   -1    0    0  501  502 -0.00000000000E+00 -0.00000000000E+00 -0.11849710954E+04  0.11849710954E+04  0.00000000000E+00 0. -1.
         25    1    1    2    0    0 -0.17571034078E+03 -0.28039447758E+03 -0.38091818010E+03  0.51982578509E+03  0.12500000000E+03 0.  0.
         25    1    1    2    0    0  0.13449198044E+03  0.82381429908E+02 -0.23990350321E+03  0.31313492882E+03  0.12500000000E+03 0.  0.
         25    1    1    2    0    0  0.41218360337E+02  0.19801304767E+03 -0.42722658893E+03  0.48893320461E+03  0.12500000000E+03 0.  0.
</event>
<event>
 5    0  0.5616733E-005  0.5431108E+03  0.7546771E-02  0.1003101E+00
         21   -1    0    0  502  501  0.00000000000E+00  0.00000000000E+00  0.40788013491E+03  0.40788013491E+03  0.00000000000E+00 0.  1.
         21   -1    0    0  501  502 -0.00000000000E+00 -0.00000000000E+00 -0.72317657925E+03  0.72317657925E+03  0.00000000000E+00 0. -1.
         25    1    1    2    0    0 -0.45097121498E+03  0.49537278104E+02 -0.18696934054E+03  0.50637092429E+03  0.12500000000E+03 0.  0.
         25    1    1    2    0    0  0.42541418132E+03 -0.52015361678E+02 -0.18726345978E+03  0.48412335916E+03  0.12500000000E+03 0.  0.
         25    1    1    2    0    0  0.25557033663E+02  0.24780835745E+01  0.58936355977E+02  0.14056243070E+03  0.12500000000E+03 0.  0.
</event>
<event>
 5    0  0.5616733E-005  0.2404196E+03  0.7546771E-02  0.1119514E+00
         21   -1    0    0  502  501  0.00000000000E+00  0.00000000000E+00  0.11682522015E+04  0.11682522015E+04  0.00000000000E+00 0. -1.
         21   -1    0    0  501  502 -0.00000000000E+00 -0.00000000000E+00 -0.49476976761E+02  0.49476976761E+02  0.00000000000E+00 0. -1.
         25    1    1    2    0    0 -0.50815685098E+02 -0.31446003400E+01  0.26808763423E+03  0.30014680073E+03  0.12500000000E+03 0.  0.
         25    1    1    2    0    0  0.40520145911E+02 -0.38390444842E+02  0.14414450359E+03  0.19879221915E+03  0.12500000000E+03 0.  0.
         25    1    1    2    0    0  0.10295539187E+02  0.41535045182E+02  0.70654308695E+03  0.71879015841E+03  0.12500000000E+03 0.  0.
</event>
<event>
 5    0  0.6470864E-005  0.3365094E+03  0.7546771E-02  0.1068292E+00
         21   -1    0    0  502  501  0.00000000000E+00  0.00000000000E+00  0.24949820049E+03  0.24949820049E+03  0.00000000000E+00 0.  1.
         21   -1    0    0  501  502 -0.00000000000E+00 -0.00000000000E+00 -0.45386525992E+03  0.45386525992E+03  0.00000000000E+00 0.  1.
         25    1    1    2    0    0  0.13075210058E+03  0.45896120156E+02  0.81838708949E+02  0.20377718207E+03  0.12500000000E+03 0.  0.
         25    1    1    2    0    0  0.33704009195E+02 -0.89981990698E+02 -0.23374535205E+03  0.28194788258E+03  0.12500000000E+03 0.  0.
         25    1    1    2    0    0 -0.16445610978E+03  0.44085870542E+02 -0.52460416330E+02  0.21763839575E+03  0.12500000000E+03 0.  0.
</event>
<event>
 5    0  0.5616733E-005  0.2975738E+03  0.7546771E-02  0.1086460E+00
         21   -1    0    0  502  501  0.00000000000E+00  0.00000000000E+00  0.61536649803E+03  0.61536649803E+03  0.00000000000E+00 0.  1.
         21   -1    0    0  501  502 -0.00000000000E+00 -0.00000000000E+00 -0.14389828906E+03  0.14389828906E+03  0.00000000000E+00 0.  1.
         25    1    1    2    0    0 -0.30311481804E+02 -0.41379743388E+02  0.65452008777E+02  0.15013338917E+03  0.12500000000E+03 0.  0.
         25    1    1    2    0    0 -0.15482727199E+03  0.10031748243E+03  0.19013827598E+03  0.29293795491E+03  0.12500000000E+03 0.  0.
         25    1    1    2    0    0  0.18513875379E+03 -0.58937739044E+02  0.21587792421E+03  0.31619344301E+03  0.12500000000E+03 0.  0.
</event>
<event>
 5    0  0.5616733E-005  0.3827070E+03  0.7546771E-02  0.1049938E+00
         21   -1    0    0  502  501  0.00000000000E+00  0.00000000000E+00  0.97069657075E+02  0.97069657075E+02  0.00000000000E+00 0.  1.
         21   -1    0    0  501  502 -0.00000000000E+00 -0.00000000000E+00 -0.15088611695E+04  0.15088611695E+04  0.00000000000E+00 0.  1.
         25    1    1    2    0    0  0.24896163275E+03  0.10269454797E+03 -0.73497132604E+03  0.79267642508E+03  0.12500000000E+03 0.  0.
         25    1    1    2    0    0  0.11027645803E+02  0.41649287371E+01 -0.31031159942E+03  0.33474952477E+03  0.12500000000E+03 0.  0.
         25    1    1    2    0    0 -0.25998927855E+03 -0.10685947670E+03 -0.36650858692E+03  0.47850487668E+03  0.12500000000E+03 0.  0.
</event>
<event>
 5    0  0.5616733E-005  0.4565117E+03  0.7546771E-02  0.1025798E+00
         21   -1    0    0  502  501  0.00000000000E+00  0.00000000000E+00  0.30212188649E+04  0.30212188649E+04  0.00000000000E+00 0.  1.
         21   -1    0    0  501  502 -0.00000000000E+00 -0.00000000000E+00 -0.68979741047E+02  0.68979741047E+02  0.00000000000E+00 0.  1.
         25    1    1    2    0    0  0.21074727469E+03  0.88715783751E+01  0.17293518059E+04  0.17466470128E+04  0.12500000000E+03 0.  0.
         25    1    1    2    0    0  0.20590508237E+02 -0.81649648974E+02  0.84216249378E+02  0.17264996631E+03  0.12500000000E+03 0.  0.
         25    1    1    2    0    0 -0.23133778292E+03  0.72778070599E+02  0.11386710686E+04  0.11709016269E+04  0.12500000000E+03 0.  0.
</event>
<event>
 5    0  0.5616733E-005  0.2286541E+03  0.7546771E-02  0.1127591E+00
         21   -1    0    0  502  501  0.00000000000E+00  0.00000000000E+00  0.79871266097E+02  0.79871266097E+02  0.00000000000E+00 0.  1.
         21   -1    0    0  501  502 -0.00000000000E+00 -0.00000000000E+00 -0.65458683712E+03  0.65458683712E+03  0.00000000000E+00 0.  1.
         25    1    1    2    0    0 -0.27882172765E+02 -0.87958325369E+01 -0.14954362680E+03  0.19708647479E+03  0.12500000000E+03 0.  0.
         25    1    1    2    0    0 -0.79649363962E+02  0.29645358506E+02 -0.13348961733E+03  0.20166146482E+03  0.12500000000E+03 0.  0.
         25    1    1    2    0    0  0.10753153673E+03 -0.20849525970E+02 -0.29168232690E+03  0.33571016361E+03  0.12500000000E+03 0.  0.
</event>
<event>
 5    0  0.5616733E-005  0.2217542E+03  0.7546771E-02  0.1132582E+00
         21   -1    0    0  502  501  0.00000000000E+00  0.00000000000E+00  0.87703071790E+02  0.87703071790E+02  0.00000000000E+00 0. -1.
         21   -1    0    0  501  502 -0.00000000000E+00 -0.00000000000E+00 -0.56069795606E+03  0.56069795606E+03  0.00000000000E+00 0. -1.
         25    1    1    2    0    0  0.50076653977E+02  0.66985597633E+02 -0.22897450401E+03  0.27395084422E+03  0.12500000000E+03 0.  0.
         25    1    1    2    0    0 -0.78388826020E+02 -0.41578767728E+02 -0.12768824255E+03  0.19950661457E+03  0.12500000000E+03 0.  0.
         25    1    1    2    0    0  0.28312172043E+02 -0.25406829905E+02 -0.11633213771E+03  0.17494356906E+03  0.12500000000E+03 0.  0.
</event>
<event>
 5    0  0.5616733E-005  0.5614156E+03  0.7546771E-02  0.9988857E-01
         21   -1    0    0  502  501  0.00000000000E+00  0.00000000000E+00  0.14245551774E+04  0.14245551774E+04  0.00000000000E+00 0.  1.
         21   -1    0    0  501  502 -0.00000000000E+00 -0.00000000000E+00 -0.22125328537E+03  0.22125328537E+03  0.00000000000E+00 0. -1.
         25    1    1    2    0    0  0.32968384072E+03 -0.32542171726E+03  0.38639414303E+03  0.61604883140E+03  0.12500000000E+03 0.  0.
         25    1    1    2    0    0 -0.11730888360E+03  0.31509987000E+03  0.34714720902E+03  0.49918482246E+03  0.12500000000E+03 0.  0.
         25    1    1    2    0    0 -0.21237495712E+03  0.10321847258E+02  0.46976054000E+03  0.53057480895E+03  0.12500000000E+03 0.  0.
</event>
<event>
 5    0  0.5616733E-005  0.3158532E+03  0.7546771E-02  0.1077574E+00
         21   -1    0    0  502  501  0.00000000000E+00  0.00000000000E+00  0.12109280153E+04  0.12109280153E+04  0.00000000000E+00 0. -1.
         21   -1    0    0  501  502 -0.00000000000E+00 -0.00000000000E+00 -0.82385783530E+02  0.82385783530E+02  0.00000000000E+00 0. -1.
         25    1    1    2    0    0  0.55082395829E+01  0.89919961660E+02  0.28892250829E+03  0.32744030907E+03  0.12500000000E+03 0.  0.
         25    1    1    2    0    0  0.23639246949E+02 -0.20739644489E+03  0.70522645158E+03  0.74601705567E+03  0.12500000000E+03 0.  0.
         25    1    1    2    0    0 -0.29147486532E+02  0.11747648323E+03  0.13439327194E+03  0.21985643413E+03  0.12500000000E+03 0.  0.
</event>
<event>
 5    0  0.5616733E-005  0.3944220E+03  0.7546771E-02  0.1045728E+00
         21   -1    0    0  502  501  0.00000000000E+00  0.00000000000E+00  0.16322530841E+03  0.16322530841E+03  0.00000000000E+00 0.  1.
         21   -1    0    0  501  502 -0.00000000000E+00 -0.00000000000E+00 -0.95309167910E+03  0.95309167910E+03  0.00000000000E+00 0.  1.
         25    1    1    2    0    0 -0.19436496350E+03  0.21933085832E+03 -0.16692665660E+03  0.35968496373E+03  0.12500000000E+03 0.  0.
         25    1    1    2    0    0  0.16038332390E+03 -0.20709696443E+03 -0.35320206991E+03  0.45715278130E+03  0.12500000000E+03 0.  0.
         25    1    1    2    0    0  0.33981639603E+02 -0.12233893889E+02 -0.26973764417E+03  0.29947924247E+03  0.12500000000E+03 0.  0.
</event>
<event>
 5    0  0.5616733E-005  0.2978922E+03  0.7546771E-02  0.1086299E+00
         21   -1    0    0  502  501  0.00000000000E+00  0.00000000000E+00  0.48231024850E+03  0.48231024850E+03  0.00000000000E+00 0. -1.
         21   -1    0    0  501  502 -0.00000000000E+00 -0.00000000000E+00 -0.18398891119E+03  0.18398891119E+03  0.00000000000E+00 0. -1.
         25    1    1    2    0    0  0.12714222468E+03 -0.13663898283E+03  0.78510552998E+02  0.23795853390E+03  0.12500000000E+03 0.  0.
         25    1    1    2    0    0  0.38237310621E+01 -0.38790348644E+01  0.25087597690E+02  0.12760899415E+03  0.12500000000E+03 0.  0.
         25    1    1    2    0    0 -0.13096595574E+03  0.14051801770E+03  0.19472318662E+03  0.30073163164E+03  0.12500000000E+03 0.  0.
</event>
<event>
 5    0  0.6730918E-005  0.3850783E+03  0.7546771E-02  0.1049073E+00
         21   -1    0    0  502  501  0.00000000000E+00  0.00000000000E+00  0.29803076360E+03  0.29803076360E+03  0.00000000000E+00 0. -1.
         21   -1    0    0  501  502 -0.00000000000E+00 -0.00000000000E+00 -0.49755033948E+03  0.49755033948E+03  0.00000000000E+00 0. -1.
         25    1    1    2    0    0  0.77574722048E+02  0.14378025960E+03 -0.19637646730E+03  0.28439289277E+03  0.12500000000E+03 0.  0.
         25    1    1    2    0    0 -0.13622396746E+03 -0.13673336679E+03 -0.17619223690E+03  0.28969240109E+03  0.12500000000E+03 0.  0.
         25    1    1    2    0    0  0.58649245416E+02 -0.70468928098E+01  0.17304912832E+03  0.22149580921E+03  0.12500000000E+03 0.  0.
</event>
<event>
 5    0  0.6602351E-005  0.2974484E+03  0.7546771E-02  0.1086523E+00
         21   -1    0    0  502  501  0.00000000000E+00  0.00000000000E+00  0.12667433030E+03  0.12667433030E+03  0.00000000000E+00 0. -1.
         21   -1    0    0  501  502 -0.00000000000E+00 -0.00000000000E+00 -0.69844902998E+03  0.69844902998E+03  0.00000000000E+00 0. -1.
         25    1    1    2    0    0 -0.59653624690E+00  0.65216108558E+02 -0.17353395818E+02  0.14205504925E+03  0.12500000000E+03 0.  0.
         25    1    1    2    0    0 -0.85100020226E+02 -0.15688714375E+03 -0.35309518801E+03  0.41491782453E+03  0.12500000000E+03 0.  0.
         25    1    1    2    0    0  0.85696556473E+02  0.91671035191E+02 -0.20132611585E+03  0.26815048650E+03  0.12500000000E+03 0.  0.
</event>
<event>
 5    0  0.5616733E-005  0.3992347E+03  0.7546771E-02  0.1044045E+00
         21   -1    0    0  502  501  0.00000000000E+00  0.00000000000E+00  0.16350237872E+03  0.16350237872E+03  0.00000000000E+00 0. -1.
         21   -1    0    0  501  502 -0.00000000000E+00 -0.00000000000E+00 -0.97483822796E+03  0.97483822796E+03  0.00000000000E+00 0. -1.
         25    1    1    2    0    0  0.12919145786E+03  0.82153434288E+02 -0.16423431233E+03  0.25697768171E+03  0.12500000000E+03 0.  0.
         25    1    1    2    0    0  0.17216689592E+03  0.87834701038E+02 -0.23507350611E+03  0.32899989062E+03  0.12500000000E+03 0.  0.
         25    1    1    2    0    0 -0.30135835378E+03 -0.16998813533E+03 -0.41202803081E+03  0.55236303435E+03  0.12500000000E+03 0.  0.
</event>
<event>
 5    0  0.5902383E-005  0.2602249E+03  0.7546771E-02  0.1107008E+00
         21   -1    0    0  502  501  0.00000000000E+00  0.00000000000E+00  0.11689274197E+03  0.11689274197E+03  0.00000000000E+00 0. -1.
         21   -1    0    0  501  502 -0.00000000000E+00 -0.00000000000E+00 -0.57930903276E+03  0.57930903276E+03  0.00000000000E+00 0. -1.
         25    1    1    2    0    0 -0.30125475406E+02  0.91158564370E+02 -0.10431297094E+03  0.18900694176E+03  0.12500000000E+03 0.  0.
         25    1    1    2    0    0 -0.87652127051E+02  0.20371466826E+02 -0.16522331584E+03  0.22587969394E+03  0.12500000000E+03 0.  0.
         25    1    1    2    0    0  0.11777760246E+03 -0.11153003120E+03 -0.19288000401E+03  0.28131513902E+03  0.12500000000E+03 0.  0.
</event>
<event>
 5    0  0.5616733E-005  0.2451689E+03  0.7546771E-02  0.1116397E+00
         21   -1    0    0  502  501  0.00000000000E+00  0.00000000000E+00  0.20399892391E+03  0.20399892391E+03  0.00000000000E+00 0. -1.
         21   -1    0    0  501  502 -0.00000000000E+00 -0.00000000000E+00 -0.29464755352E+03  0.29464755352E+03  0.00000000000E+00 0. -1.
         25    1    1    2    0    0 -0.86231563959E+01  0.30598342943E+02 -0.14711661581E+03  0.19564998355E+03  0.12500000000E+03 0.  0.
         25    1    1    2    0    0  0.26600925068E+02 -0.70870281172E+02 -0.23764149160E+02  0.14805384410E+03  0.12500000000E+03 0.  0.
         25    1    1    2    0    0 -0.17977768672E+02  0.40271938229E+02  0.80232135360E+02  0.15494264978E+03  0.12500000000E+03 0.  0.
</event>
<event>
 5    0  0.5616733E-005  0.2430895E+03  0.7546771E-02  0.1117752E+00
         21   -1    0    0  502  501  0.00000000000E+00  0.00000000000E+00  0.13231631819E+03  0.13231631819E+03  0.00000000000E+00 0.  1.
         21   -1    0    0  501  502 -0.00000000000E+00 -0.00000000000E+00 -0.44660026851E+03  0.44660026851E+03  0.00000000000E+00 0.  1.
         25    1    1    2    0    0  0.55921219942E+02  0.11477035539E+03 -0.61417448476E+02  0.18893522777E+03  0.12500000000E+03 0.  0.
         25    1    1    2    0    0 -0.81503997366E+01 -0.79337989897E+02 -0.18109134275E+03  0.23405131932E+03  0.12500000000E+03 0.  0.
         25    1    1    2    0    0 -0.47770820206E+02 -0.35432365497E+02 -0.71775159095E+02  0.15593003960E+03  0.12500000000E+03 0.  0.
</event>
<event>
 5    0  0.5616733E-005  0.2856235E+03  0.7546771E-02  0.1092657E+00
         21   -1    0    0  502  501  0.00000000000E+00  0.00000000000E+00  0.11414197569E+04  0.11414197569E+04  0.00000000000E+00 0. -1.
         21   -1    0    0  501  502 -0.00000000000E+00 -0.00000000000E+00 -0.71473085787E+02  0.71473085787E+02  0.00000000000E+00 0. -1.
         25    1    1    2    0    0  0.14838928342E+02  0.14997057801E+03  0.67350939355E+03  0.70139238039E+03  0.12500000000E+03 0.  0.
         25    1    1    2    0    0  0.45361366947E+02 -0.91816286202E+02  0.13815929770E+03  0.21260497540E+03  0.12500000000E+03 0.  0.
         25    1    1    2    0    0 -0.60200295289E+02 -0.58154291806E+02  0.25827797985E+03  0.29889548689E+03  0.12500000000E+03 0.  0.
</event>
<event>
 5    0  0.5616733E-005  0.2381619E+03  0.7546771E-02  0.1121023E+00
         21   -1    0    0  502  501  0.00000000000E+00  0.00000000000E+00  0.33100090198E+02  0.33100090198E+02  0.00000000000E+00 0. -1.
         21   -1    0    0  501  502 -0.00000000000E+00 -0.00000000000E+00 -0.17136232435E+04  0.17136232435E+04  0.00000000000E+00 0. -1.
         25    1    1    2    0    0  0.58085221787E+01 -0.44882650969E+02 -0.35750298661E+03  0.38142047235E+03  0.12500000000E+03 0.  0.
         25    1    1    2    0    0 -0.28657948382E+00  0.13167872688E+03 -0.81344125809E+03  0.83345728721E+03  0.12500000000E+03 0.  0.
         25    1    1    2    0    0 -0.55219426949E+01 -0.86796075908E+02 -0.50957890858E+03  0.53184557412E+03  0.12500000000E+03 0.  0.
</event>
<event>
 5    0  0.5616733E-005  0.4187954E+03  0.7546771E-02  0.1037459E+00
         21   -1    0    0  502  501  0.00000000000E+00  0.00000000000E+00  0.10179000716E+04  0.10179000716E+04  0.00000000000E+00 0. -1.
         21   -1    0    0  501  502 -0.00000000000E+00 -0.00000000000E+00 -0.17230532188E+03  0.17230532188E+03  0.00000000000E+00 0. -1.
         25    1    1    2    0    0 -0.59499526993E+02  0.73125588208E+02  0.35373713829E+03  0.38683653960E+03  0.12500000000E+03 0.  0.
         25    1    1    2    0    0 -0.20322413086E+02  0.69402556846E+02  0.56644783885E+03  0.58456639444E+03  0.12500000000E+03 0.  0.
         25    1    1    2    0    0  0.79821940080E+02 -0.14252814505E+03 -0.74590227385E+02  0.21880245947E+03  0.12500000000E+03 0.  0.
</event>
<event>
 5    0  0.5616733E-005  0.2651824E+03  0.7546771E-02  0.1104069E+00
         21   -1    0    0  502  501  0.00000000000E+00  0.00000000000E+00  0.31321987691E+02  0.31321987691E+02  0.00000000000E+00 0.  1.
         21   -1    0    0  501  502 -0.00000000000E+00 -0.00000000000E+00 -0.22451223440E+04  0.22451223440E+04  0.00000000000E+00 0.  1.
         25    1    1    2    0    0  0.11428507228E+01 -0.38640956947E+02 -0.22341438900E+03  0.25890812825E+03  0.12500000000E+03 0.  0.
         25    1    1    2    0    0  0.94834939293E+02 -0.16027112215E+02 -0.78744673638E+03  0.80308648144E+03  0.12500000000E+03 0.  0.
         25    1    1    2    0    0 -0.95977790016E+02  0.54668069162E+02 -0.12029392309E+04  0.12144497220E+04  0.12500000000E+03 0.  0.
</event>
<event>
 5    0  0.5616733E-005  0.2778134E+03  0.7546771E-02  0.1096889E+00
         21   -1    0    0  502  501  0.00000000000E+00  0.00000000000E+00  0.42352619390E+03  0.42352619390E+03  0.00000000000E+00 0. -1.
         21   -1    0    0  501  502 -0.00000000000E+00 -0.00000000000E+00 -0.18223263307E+03  0.18223263307E+03  0.00000000000E+00 0. -1.
         25    1    1    2    0    0 -0.23294101184E+02  0.32490348828E+02  0.99109847373E+02  0.16445668051E+03  0.12500000000E+03 0.  0.
         25    1    1    2    0    0 -0.30195322901E+01 -0.14373165962E+03 -0.37718814060E+02  0.19420508873E+03  0.12500000000E+03 0.  0.
         25    1    1    2    0    0  0.26313633474E+02  0.11124131079E+03  0.17990252752E+03  0.24709705774E+03  0.12500000000E+03 0.  0.
</event>
<event>
 5    0  0.5616733E-005  0.3494144E+03  0.7546771E-02  0.1062856E+00
         21   -1    0    0  502  501  0.00000000000E+00  0.00000000000E+00  0.60758133506E+02  0.60758133506E+02  0.00000000000E+00 0.  1.
         21   -1    0    0  501  502 -0.00000000000E+00 -0.00000000000E+00 -0.20094496489E+04  0.20094496489E+04  0.00000000000E+00 0.  1.
         25    1    1    2    0    0  0.18312148054E+03 -0.12217556485E+03 -0.11123745347E+04  0.11408165719E+04  0.12500000000E+03 0.  0.
         25    1    1    2    0    0 -0.96738570623E+02  0.27457880096E+01 -0.61764909608E+03  0.63755885711E+03  0.12500000000E+03 0.  0.
         25    1    1    2    0    0 -0.86382909915E+02  0.11942977684E+03 -0.21866788461E+03  0.29183235338E+03  0.12500000000E+03 0.  0.
</event>
<event>
 5    0  0.5616733E-005  0.3121978E+03  0.7546771E-02  0.1079297E+00
         21   -1    0    0  502  501  0.00000000000E+00  0.00000000000E+00  0.23809796872E+03  0.23809796872E+03  0.00000000000E+00 0. -1.
         21   -1    0    0  501  502 -0.00000000000E+00 -0.00000000000E+00 -0.40935858992E+03  0.40935858992E+03  0.00000000000E+00 0. -1.
         25    1    1    2    0    0 -0.62825101998E+02  0.11025763748E+03 -0.10041083660E+03  0.20447756887E+03  0.12500000000E+03 0.  0.
         25    1    1    2    0    0  0.18367565159E+03 -0.83559069579E+01  0.17322437000E+02  0.22300590349E+03  0.12500000000E+03 0.  0.
         25    1    1    2    0    0 -0.12085054959E+03 -0.10190173053E+03 -0.88172221604E+02  0.21997308627E+03  0.12500000000E+03 0.  0.
</event>
<event>
 5    0  0.5616733E-005  0.2979136E+03  0.7546771E-02  0.1086288E+00
         21   -1    0    0  502  501  0.00000000000E+00  0.00000000000E+00  0.12928513194E+03  0.12928513194E+03  0.00000000000E+00 0.  1.
         21   -1    0    0  501  502 -0.00000000000E+00 -0.00000000000E+00 -0.68648654479E+03  0.68648654479E+03  0.00000000000E+00 0.  1.
         25    1    1    2    0    0 -0.42423505609E+02  0.45137386482E+02 -0.23927769485E+03  0.27697644799E+03  0.12500000000E+03 0.  0.
         25    1    1    2    0    0 -0.15094221271E+03  0.10029498850E+02 -0.11855877039E+03  0.22927129009E+03  0.12500000000E+03 0.  0.
         25    1    1    2    0    0  0.19336571832E+03 -0.55166885332E+02 -0.19936494761E+03  0.30952393864E+03  0.12500000000E+03 0.  0.
</event>
<event>
 5    0  0.5616733E-005  0.4930456E+03  0.7546771E-02  0.1015610E+00
         21   -1    0    0  502  501  0.00000000000E+00  0.00000000000E+00  0.19144796083E+04  0.19144796083E+04  0.00000000000E+00 0.  1.
         21   -1    0    0  501  502 -0.00000000000E+00 -0.00000000000E+00 -0.12697654098E+03  0.12697654098E+03  0.00000000000E+00 0.  1.
         25    1    1    2    0    0 -0.14385801910E+02  0.32371001811E+03  0.32066397744E+03  0.47270023646E+03  0.12500000000E+03 0.  0.
         25    1    1    2    0    0 -0.15216891530E+03 -0.98876564956E+02  0.87451593192E+03  0.90185091288E+03  0.12500000000E+03 0.  0.
         25    1    1    2    0    0  0.16655471721E+03 -0.22483345316E+03  0.59232315793E+03  0.66690499991E+03  0.12500000000E+03 0.  0.
</event>
<event>
 5    0  0.5687605E-005  0.2678550E+03  0.7546771E-02  0.1102514E+00
         21   -1    0    0  502  501  0.00000000000E+00  0.00000000000E+00  0.41630206220E+03  0.41630206220E+03  0.00000000000E+00 0.  1.
         21   -1    0    0  501  502 -0.00000000000E+00 -0.00000000000E+00 -0.17234197252E+03  0.17234197252E+03  0.00000000000E+00 0.  1.
         25    1    1    2    0    0 -0.59844781503E+02  0.39023414368E+02  0.23542526781E+02  0.14588857155E+03  0.12500000000E+03 0.  0.
         25    1    1    2    0    0  0.75283032966E+02  0.82658585971E+02  0.20800074616E+03  0.26718773791E+03  0.12500000000E+03 0.  0.
         25    1    1    2    0    0 -0.15438251463E+02 -0.12168200034E+03  0.12416816737E+02  0.17556772526E+03  0.12500000000E+03 0.  0.
</event>
<event>
 5    0  0.5616733E-005  0.3251006E+03  0.7546771E-02  0.1073326E+00
         21   -1    0    0  502  501  0.00000000000E+00  0.00000000000E+00  0.57294002096E+03  0.57294002096E+03  0.00000000000E+00 0. -1.
         21   -1    0    0  501  502 -0.00000000000E+00 -0.00000000000E+00 -0.18447024377E+03  0.18447024377E+03  0.00000000000E+00 0. -1.
         25    1    1    2    0    0 -0.18853865820E+03  0.74055241791E+02  0.11053339516E+03  0.26243787058E+03  0.12500000000E+03 0.  0.
         25    1    1    2    0    0 -0.34315705372E+02  0.42794507550E+01  0.15115554668E+03  0.19917048132E+03  0.12500000000E+03 0.  0.
         25    1    1    2    0    0  0.22285436357E+03 -0.78334692546E+02  0.12678083535E+03  0.29580191282E+03  0.12500000000E+03 0.  0.
</event>
<event>
 5    0  0.5616733E-005  0.3016232E+03  0.7546771E-02  0.1084432E+00
         21   -1    0    0  502  501  0.00000000000E+00  0.00000000000E+00  0.49613085523E+03  0.49613085523E+03  0.00000000000E+00 0. -1.
         21   -1    0    0  501  502 -0.00000000000E+00 -0.00000000000E+00 -0.18337212820E+03  0.18337212820E+03  0.00000000000E+00 0. -1.
         25    1    1    2    0    0 -0.46998224003E+02  0.20214335158E+02  0.37739464515E+01  0.13511733818E+03  0.12500000000E+03 0.  0.
         25    1    1    2    0    0  0.14099434776E+03 -0.10679977665E+03  0.29375873357E+03  0.36497231668E+03  0.12500000000E+03 0.  0.
         25    1    1    2    0    0 -0.93996123753E+02  0.86585441495E+02  0.15226047013E+02  0.17941332857E+03  0.12500000000E+03 0.  0.
</event>
<event>
 5    0  0.6056001E-005  0.3075770E+03  0.7546771E-02  0.1081513E+00
         21   -1    0    0  502  501  0.00000000000E+00  0.00000000000E+00  0.44114580907E+03  0.44114580907E+03  0.00000000000E+00 0.  1.
         21   -1    0    0  501  502 -0.00000000000E+00 -0.00000000000E+00 -0.21444971534E+03  0.21444971534E+03  0.00000000000E+00 0.  1.
         25    1    1    2    0    0  0.89571278920E+02  0.14267454186E+03  0.43952275653E+02  0.21432648329E+03  0.12500000000E+03 0.  0.
         25    1    1    2    0    0  0.66605764215E+02 -0.12827731530E+03  0.40360044286E+02  0.19530829635E+03  0.12500000000E+03 0.  0.
         25    1    1    2    0    0 -0.15617704313E+03 -0.14397226560E+02  0.14238377378E+03  0.24596074478E+03  0.12500000000E+03 0.  0.
</event>
<event>
 5    0  0.5616733E-005  0.2560437E+03  0.7546771E-02  0.1109544E+00
         21   -1    0    0  502  501  0.00000000000E+00  0.00000000000E+00  0.26869462982E+02  0.26869462982E+02  0.00000000000E+00 0.  1.
         21   -1    0    0  501  502 -0.00000000000E+00 -0.00000000000E+00 -0.24398833218E+04  0.24398833218E+04  0.00000000000E+00 0.  1.
         25    1    1    2    0    0 -0.10682873570E+02  0.70249604893E+02 -0.48174043512E+03  0.50274046744E+03  0.12500000000E+03 0.  0.
         25    1    1    2    0    0  0.63249775368E+02 -0.49375234867E+02 -0.15788869630E+04  0.15858585970E+04  0.12500000000E+03 0.  0.
         25    1    1    2    0    0 -0.52566901798E+02 -0.20874370026E+02 -0.35238646074E+03  0.37815372033E+03  0.12500000000E+03 0.  0.
</event>
<event>
 5    0  0.5616733E-005  0.2645060E+03  0.7546771E-02  0.1104466E+00
         21   -1    0    0  502  501  0.00000000000E+00  0.00000000000E+00  0.70453335550E+03  0.70453335550E+03  0.00000000000E+00 0. -1.
         21   -1    0    0  501  502 -0.00000000000E+00 -0.00000000000E+00 -0.99304634368E+02  0.99304634368E+02  0.00000000000E+00 0. -1.
         25    1    1    2    0    0 -0.10927655969E+03  0.98315210066E+02  0.27782248072E+03  0.33825667447E+03  0.12500000000E+03 0.  0.
         25    1    1    2    0    0  0.93392739118E+02 -0.11317563623E+03  0.25446377461E+03  0.31922991862E+03  0.12500000000E+03 0.  0.
         25    1    1    2    0    0  0.15883820568E+02  0.14860426161E+02  0.72942465802E+02  0.14635139678E+03  0.12500000000E+03 0.  0.
</event>
<event>
 5    0  0.5616733E-005  0.2356624E+03  0.7546771E-02  0.1122717E+00
         21   -1    0    0  502  501  0.00000000000E+00  0.00000000000E+00  0.82060979034E+02  0.82060979034E+02  0.00000000000E+00 0. -1.
         21   -1    0    0  501  502 -0.00000000000E+00 -0.00000000000E+00 -0.67677440256E+03  0.67677440256E+03  0.00000000000E+00 0. -1.
         25    1    1    2    0    0 -0.66272635851E+02  0.56364297900E+02 -0.83230925272E+02  0.17355513032E+03  0.12500000000E+03 0.  0.
         25    1    1    2    0    0  0.64397810414E+02 -0.16768499191E+02 -0.34795486894E+03  0.37566720827E+03  0.12500000000E+03 0.  0.
         25    1    1    2    0    0  0.18748254366E+01 -0.39595798709E+02 -0.16352762931E+03  0.20961304300E+03  0.12500000000E+03 0.  0.
</event>
<event>
 5    0  0.5616733E-005  0.4029579E+03  0.7546771E-02  0.1042760E+00
         21   -1    0    0  502  501  0.00000000000E+00  0.00000000000E+00  0.49676524883E+03  0.49676524883E+03  0.00000000000E+00 0.  1.
         21   -1    0    0  501  502 -0.00000000000E+00 -0.00000000000E+00 -0.32686471634E+03  0.32686471634E+03  0.00000000000E+00 0.  1.
         25    1    1    2    0    0  0.43437849968E+02 -0.25815087019E+02 -0.14687533712E+03  0.19937560077E+03  0.12500000000E+03 0.  0.
         25    1    1    2    0    0 -0.75591149263E+02 -0.13600592428E+03  0.36108397304E+03  0.41257516754E+03  0.12500000000E+03 0.  0.
         25    1    1    2    0    0  0.32153299295E+02  0.16182101129E+03 -0.44308103430E+02  0.21167919686E+03  0.12500000000E+03 0.  0.
</event>
<event>
 5    0  0.5616733E-005  0.3646857E+03  0.7546771E-02  0.1056744E+00
         21   -1    0    0  502  501  0.00000000000E+00  0.00000000000E+00  0.42939515157E+03  0.42939515157E+03  0.00000000000E+00 0.  1.
         21   -1    0    0  501  502 -0.00000000000E+00 -0.00000000000E+00 -0.30972782001E+03  0.30972782001E+03  0.00000000000E+00 0.  1.
         25    1    1    2    0    0  0.64480518403E+02 -0.43085294073E+02  0.23666132985E+02  0.14899384440E+03  0.12500000000E+03 0.  0.
         25    1    1    2    0    0  0.22808943231E+03  0.89689903525E+01  0.18549437729E+02  0.26091054705E+03  0.12500000000E+03 0.  0.
         25    1    1    2    0    0 -0.29256995072E+03  0.34116303721E+02  0.77451760845E+02  0.32921858013E+03  0.12500000000E+03 0.  0.
</event>
<event>
 5    0  0.5616733E-005  0.2148010E+03  0.7546771E-02  0.1137820E+00
         21   -1    0    0  502  501  0.00000000000E+00  0.00000000000E+00  0.11633141383E+03  0.11633141383E+03  0.00000000000E+00 0. -1.
         21   -1    0    0  501  502 -0.00000000000E+00 -0.00000000000E+00 -0.39662091992E+03  0.39662091992E+03  0.00000000000E+00 0. -1.
         25    1    1    2    0    0  0.27147933499E+02 -0.16125968260E+02 -0.13462314087E+03  0.18640130687E+03  0.12500000000E+03 0.  0.
         25    1    1    2    0    0  0.40971701823E+02 -0.29642512435E+01 -0.12491669541E+03  0.18142945717E+03  0.12500000000E+03 0.  0.
         25    1    1    2    0    0 -0.68119635322E+02  0.19090219504E+02 -0.20749669813E+02  0.14512156971E+03  0.12500000000E+03 0.  0.
</event>
<event>
 5    0  0.5616733E-005  0.3096813E+03  0.7546771E-02  0.1080499E+00
         21   -1    0    0  502  501  0.00000000000E+00  0.00000000000E+00  0.10449562672E+04  0.10449562672E+04  0.00000000000E+00 0.  1.
         21   -1    0    0  501  502 -0.00000000000E+00 -0.00000000000E+00 -0.91776601309E+02  0.91776601309E+02  0.00000000000E+00 0.  1.
         25    1    1    2    0    0 -0.16121992304E+02 -0.80565100255E+02  0.54923868806E+02  0.15934956975E+03  0.12500000000E+03 0.  0.
         25    1    1    2    0    0  0.13242839446E+03  0.34301159563E+02  0.29191239095E+03  0.34576248090E+03  0.12500000000E+03 0.  0.
         25    1    1    2    0    0 -0.11630640216E+03  0.46263940692E+02  0.60634340615E+03  0.63162081787E+03  0.12500000000E+03 0.  0.
</event>
<event>
 5    0  0.5616733E-005  0.3205707E+03  0.7546771E-02  0.1075387E+00
         21   -1    0    0  502  501  0.00000000000E+00  0.00000000000E+00  0.29058901044E+03  0.29058901044E+03  0.00000000000E+00 0. -1.
         21   -1    0    0  501  502 -0.00000000000E+00 -0.00000000000E+00 -0.35364570305E+03  0.35364570305E+03  0.00000000000E+00 0. -1.
         25    1    1    2    0    0  0.30582866387E+02 -0.11732039045E+02 -0.41796839606E+02  0.13581210645E+03  0.12500000000E+03 0.  0.
         25    1    1    2    0    0  0.17078934354E+03 -0.67282481713E+02  0.83835333105E+02  0.23738006506E+03  0.12500000000E+03 0.  0.
         25    1    1    2    0    0 -0.20137220993E+03  0.79014520759E+02 -0.10509518611E+03  0.27104254198E+03  0.12500000000E+03 0.  0.
</event>
<event>
 5    0  0.5616733E-005  0.4244639E+03  0.7546771E-02  0.1035623E+00
         21   -1    0    0  502  501  0.00000000000E+00  0.00000000000E+00  0.97801386599E+02  0.97801386599E+02  0.00000000000E+00 0. -1.
         21   -1    0    0  501  502 -0.00000000000E+00 -0.00000000000E+00 -0.18421991034E+04  0.18421991034E+04  0.00000000000E+00 0. -1.
         25    1    1    2    0    0  0.11364153464E+03  0.23056516485E+03 -0.33071874168E+03  0.43712078392E+03  0.12500000000E+03 0.  0.
         25    1    1    2    0    0 -0.34644089837E+02 -0.10352157109E+03 -0.12085421118E+04  0.12198835865E+04  0.12500000000E+03 0.  0.
         25    1    1    2    0    0 -0.78997444801E+02 -0.12704359377E+03 -0.20513686336E+03  0.28299611960E+03  0.12500000000E+03 0.  0.
</event>
<event>
 5    0  0.6003198E-005  0.3697455E+03  0.7546771E-02  0.1054790E+00
         21   -1    0    0  502  501  0.00000000000E+00  0.00000000000E+00  0.30865518248E+03  0.30865518248E+03  0.00000000000E+00 0.  1.
         21   -1    0    0  501  502 -0.00000000000E+00 -0.00000000000E+00 -0.44292716674E+03  0.44292716674E+03  0.00000000000E+00 0.  1.
         25    1    1    2    0    0  0.58316547572E+02 -0.18831226308E+03  0.23078426133E+02  0.23456330041E+03  0.12500000000E+03 0.  0.
         25    1    1    2    0    0 -0.10742834753E+03  0.13674744705E+03  0.88855542219E+02  0.23186423077E+03  0.12500000000E+03 0.  0.
         25    1    1    2    0    0  0.49111799956E+02  0.51564816029E+02 -0.24620595261E+03  0.28515481804E+03  0.12500000000E+03 0.  0.
</event>
<event>
 5    0  0.5616733E-005  0.3113672E+03  0.7546771E-02  0.1079692E+00
         21   -1    0    0  502  501  0.00000000000E+00  0.00000000000E+00  0.65044306384E+03  0.65044306384E+03  0.00000000000E+00 0.  1.
         21   -1    0    0  501  502 -0.00000000000E+00 -0.00000000000E+00 -0.14905149729E+03  0.14905149729E+03  0.00000000000E+00 0.  1.
         25    1    1    2    0    0  0.49609762830E+02 -0.25502724488E+02  0.47472969484E+03  0.49406963142E+03  0.12500000000E+03 0.  0.
         25    1    1    2    0    0  0.10434539863E+02  0.56697647484E+02  0.73142636830E+02  0.15587927436E+03  0.12500000000E+03 0.  0.
         25    1    1    2    0    0 -0.60044302692E+02 -0.31194922995E+02 -0.46480765121E+02  0.14954565535E+03  0.12500000000E+03 0.  0.
</event>
<event>
 5    0  0.5616733E-005  0.3433501E+03  0.7546771E-02  0.1065378E+00
         21   -1    0    0  502  501  0.00000000000E+00  0.00000000000E+00  0.92807838405E+02  0.92807838405E+02  0.00000000000E+00 0.  1.
         21   -1    0    0  501  502 -0.00000000000E+00 -0.00000000000E+00 -0.12702516107E+04  0.12702516107E+04  0.00000000000E+00 0.  1.
         25    1    1    2    0    0  0.22694405367E+03 -0.49744247981E+02 -0.39035570332E+03  0.47114824505E+03  0.12500000000E+03 0.  0.
         25    1    1    2    0    0  0.32225942844E+01 -0.55765390146E+02 -0.24313730939E+03  0.27903568780E+03  0.12500000000E+03 0.  0.
         25    1    1    2    0    0 -0.23016664795E+03  0.10550963813E+03 -0.54395075964E+03  0.61287551630E+03  0.12500000000E+03 0.  0.
</event>
<event>
 5    0  0.5616733E-005  0.2770988E+03  0.7546771E-02  0.1097284E+00
         21   -1    0    0  502  501  0.00000000000E+00  0.00000000000E+00  0.37910528310E+03  0.37910528310E+03  0.00000000000E+00 0. -1.
         21   -1    0    0  501  502 -0.00000000000E+00 -0.00000000000E+00 -0.20253933342E+03  0.20253933342E+03  0.00000000000E+00 0. -1.
         25    1    1    2    0    0 -0.28477029647E+02  0.57286016013E+02 -0.11861606490E+03  0.18381349162E+03  0.12500000000E+03 0.  0.
         25    1    1    2    0    0 -0.15837367001E+02 -0.12256227243E+02  0.14445370353E+03  0.19207527108E+03  0.12500000000E+03 0.  0.
         25    1    1    2    0    0  0.44314396648E+02 -0.45029788770E+02  0.15072831105E+03  0.20575585381E+03  0.12500000000E+03 0.  0.
</event>
<event>
 5    0  0.5616733E-005  0.2284616E+03  0.7546771E-02  0.1127727E+00
         21   -1    0    0  502  501  0.00000000000E+00  0.00000000000E+00  0.44475788267E+03  0.44475788267E+03  0.00000000000E+00 0. -1.
         21   -1    0    0  501  502 -0.00000000000E+00 -0.00000000000E+00 -0.11735535398E+03  0.11735535398E+03  0.00000000000E+00 0. -1.
         25    1    1    2    0    0  0.17309011170E+01 -0.63144985181E+02  0.15274972614E+03  0.20723842309E+03  0.12500000000E+03 0.  0.
         25    1    1    2    0    0 -0.64545832265E+02  0.43409793483E+02  0.15231683013E+03  0.21183954157E+03  0.12500000000E+03 0.  0.
         25    1    1    2    0    0  0.62814931148E+02  0.19735191698E+02  0.22335972428E+02  0.14303527198E+03  0.12500000000E+03 0.  0.
</event>
<event>
 5    0  0.5616733E-005  0.2345037E+03  0.7546771E-02  0.1123509E+00
         21   -1    0    0  502  501  0.00000000000E+00  0.00000000000E+00  0.64189660963E+02  0.64189660963E+02  0.00000000000E+00 0. -1.
         21   -1    0    0  501  502 -0.00000000000E+00 -0.00000000000E+00 -0.85671118969E+03  0.85671118969E+03  0.00000000000E+00 0. -1.
         25    1    1    2    0    0 -0.78591429657E+02 -0.12730393626E+02 -0.20681418972E+03  0.25443227941E+03  0.12500000000E+03 0.  0.
         25    1    1    2    0    0  0.35889232788E+02  0.94760343902E+02 -0.33122938885E+03  0.36824647703E+03  0.12500000000E+03 0.  0.
         25    1    1    2    0    0  0.42702196869E+02 -0.82029950276E+02 -0.25447795016E+03  0.29822209421E+03  0.12500000000E+03 0.  0.
</event>
<event>
 5    0  0.6300952E-005  0.2604965E+03  0.7546771E-02  0.1106845E+00
         21   -1    0    0  502  501  0.00000000000E+00  0.00000000000E+00  0.40168946609E+03  0.40168946609E+03  0.00000000000E+00 0.  1.
         21   -1    0    0  501  502 -0.00000000000E+00 -0.00000000000E+00 -0.16893250071E+03  0.16893250071E+03  0.00000000000E+00 0.  1.
         25    1    1    2    0    0 -0.65911340515E+02 -0.57988677347E+02  0.93233153412E+02  0.17895365993E+03  0.12500000000E+03 0.  0.
         25    1    1    2    0    0 -0.52475914674E+02  0.12056156981E+03  0.52499228720E+02  0.18886498551E+03  0.12500000000E+03 0.  0.
         25    1    1    2    0    0  0.11838725519E+03 -0.62572892465E+02  0.87024583244E+02  0.20280332135E+03  0.12500000000E+03 0.  0.
</event>
<event>
 5    0  0.5616733E-005  0.4164958E+03  0.7546771E-02  0.1038213E+00
         21   -1    0    0  502  501  0.00000000000E+00  0.00000000000E+00  0.22085349317E+03  0.22085349317E+03  0.00000000000E+00 0.  1.
         21   -1    0    0  501  502 -0.00000000000E+00 -0.00000000000E+00 -0.78544725535E+03  0.78544725535E+03  0.00000000000E+00 0.  1.
         25    1    1    2    0    0 -0.42216177155E+02 -0.28832067181E+03 -0.16793409385E+03  0.35880060658E+03  0.12500000000E+03 0.  0.
         25    1    1    2    0    0 -0.80485894922E+02  0.28974753247E+03 -0.19173659021E+03  0.37791471508E+03  0.12500000000E+03 0.  0.
         25    1    1    2    0    0  0.12270207208E+03 -0.14268606564E+01 -0.20492307812E+03  0.26958542685E+03  0.12500000000E+03 0.  0.
</event>
<event>
 5    0  0.6835508E-005  0.3433255E+03  0.7546771E-02  0.1065388E+00
         21   -1    0    0  502  501  0.00000000000E+00  0.00000000000E+00  0.23779332347E+03  0.23779332347E+03  0.00000000000E+00 0. -1.
         21   -1    0    0  501  502 -0.00000000000E+00 -0.00000000000E+00 -0.49569275845E+03  0.49569275845E+03  0.00000000000E+00 0. -1.
         25    1    1    2    0    0 -0.12364534179E+03  0.88508648138E+02 -0.66585375528E+01  0.19695503919E+03  0.12500000000E+03 0.  0.
         25    1    1    2    0    0 -0.18489330729E+01  0.15737606504E+02 -0.29992535016E+03  0.32531723975E+03  0.12500000000E+03 0.  0.
         25    1    1    2    0    0  0.12549427486E+03 -0.10424625464E+03  0.48684452724E+02  0.21121380298E+03  0.12500000000E+03 0.  0.
</event>
<event>
 5    0  0.5616733E-005  0.2778655E+03  0.7546771E-02  0.1096861E+00
         21   -1    0    0  502  501  0.00000000000E+00  0.00000000000E+00  0.70191526340E+03  0.70191526340E+03  0.00000000000E+00 0. -1.
         21   -1    0    0  501  502 -0.00000000000E+00 -0.00000000000E+00 -0.10999791211E+03  0.10999791211E+03  0.00000000000E+00 0. -1.
         25    1    1    2    0    0  0.15835745722E+03  0.21714607069E+01  0.30192701819E+03  0.36313458085E+03  0.12500000000E+03 0.  0.
         25    1    1    2    0    0 -0.11468466993E+03  0.48142872722E+02  0.75690408397E+02  0.19189671085E+03  0.12500000000E+03 0.  0.
         25    1    1    2    0    0 -0.43672787295E+02 -0.50314333429E+02  0.21429992471E+03  0.25688188381E+03  0.12500000000E+03 0.  0.
</event>
<event>
 5    0  0.5616733E-005  0.3805013E+03  0.7546771E-02  0.1050749E+00
         21   -1    0    0  502  501  0.00000000000E+00  0.00000000000E+00  0.16654689142E+03  0.16654689142E+03  0.00000000000E+00 0.  1.
         21   -1    0    0  501  502 -0.00000000000E+00 -0.00000000000E+00 -0.86931236255E+03  0.86931236255E+03  0.00000000000E+00 0.  1.
         25    1    1    2    0    0  0.15161021252E+03  0.17371443608E+02 -0.41766543808E+03  0.46190566327E+03  0.12500000000E+03 0.  0.
         25    1    1    2    0    0  0.63978040299E+02  0.14369741303E+03 -0.12771392450E+03  0.23807138144E+03  0.12500000000E+03 0.  0.
         25    1    1    2    0    0 -0.21558825281E+03 -0.16106885663E+03 -0.15738610856E+03  0.33588220926E+03  0.12500000000E+03 0.  0.
</event>
<event>
 5    0  0.5616733E-005  0.2739779E+03  0.7546771E-02  0.1099024E+00
         21   -1    0    0  502  501  0.00000000000E+00  0.00000000000E+00  0.28635479308E+03  0.28635479308E+03  0.00000000000E+00 0.  1.
         21   -1    0    0  501  502 -0.00000000000E+00 -0.00000000000E+00 -0.26213593379E+03  0.26213593379E+03  0.00000000000E+00 0.  1.
         25    1    1    2    0    0  0.67737487787E+02 -0.76792157435E+02 -0.89234913926E+02  0.18458947034E+03  0.12500000000E+03 0.  0.
         25    1    1    2    0    0  0.47904466210E+02 -0.36170117506E+02  0.68517237665E+02  0.15466973570E+03  0.12500000000E+03 0.  0.
         25    1    1    2    0    0 -0.11564195400E+03  0.11296227494E+03  0.44936535547E+02  0.20923152084E+03  0.12500000000E+03 0.  0.
</event>
<event>
 5    0  0.5616733E-005  0.3145017E+03  0.7546771E-02  0.1078208E+00
         21   -1    0    0  502  501  0.00000000000E+00  0.00000000000E+00  0.13234015556E+04  0.13234015556E+04  0.00000000000E+00 0. -1.
         21   -1    0    0  501  502 -0.00000000000E+00 -0.00000000000E+00 -0.74740239832E+02  0.74740239832E+02  0.00000000000E+00 0. -1.
         25    1    1    2    0    0 -0.95976483409E+02 -0.14988040984E+03  0.78473643538E+03  0.81431682756E+03  0.12500000000E+03 0.  0.
         25    1    1    2    0    0  0.74946497669E+02  0.12397299311E+02  0.10819648338E+03  0.18193996141E+03  0.12500000000E+03 0.  0.
         25    1    1    2    0    0  0.21029985739E+02  0.13748311053E+03  0.35572839696E+03  0.40188500642E+03  0.12500000000E+03 0.  0.
</event>
<event>
 5    0  0.5616733E-005  0.2873840E+03  0.7546771E-02  0.1091723E+00
         21   -1    0    0  502  501  0.00000000000E+00  0.00000000000E+00  0.40906724054E+03  0.40906724054E+03  0.00000000000E+00 0.  1.
         21   -1    0    0  501  502 -0.00000000000E+00 -0.00000000000E+00 -0.20189723214E+03  0.20189723214E+03  0.00000000000E+00 0.  1.
         25    1    1    2    0    0 -0.11555535877E+03  0.75796472397E+02  0.28530473088E+02  0.18851295463E+03  0.12500000000E+03 0.  0.
         25    1    1    2    0    0 -0.51312207778E+02  0.38441790482E+02  0.98472920381E+02  0.17155940654E+03  0.12500000000E+03 0.  0.
         25    1    1    2    0    0  0.16686756655E+03 -0.11423826288E+03  0.80166614934E+02  0.25089211152E+03  0.12500000000E+03 0.  0.
</event>
<event>
 5    0  0.6387613E-005  0.2732246E+03  0.7546771E-02  0.1099448E+00
         21   -1    0    0  502  501  0.00000000000E+00  0.00000000000E+00  0.19962323107E+03  0.19962323107E+03  0.00000000000E+00 0.  1.
         21   -1    0    0  501  502 -0.00000000000E+00 -0.00000000000E+00 -0.37396287831E+03  0.37396287831E+03  0.00000000000E+00 0.  1.
         25    1    1    2    0    0 -0.91422970432E+02 -0.15983199205E+02  0.71135655295E+02  0.17116922514E+03  0.12500000000E+03 0.  0.
         25    1    1    2    0    0  0.16153795670E+02  0.22355308988E+02 -0.21946391475E+03  0.25406714630E+03  0.12500000000E+03 0.  0.
         25    1    1    2    0    0  0.75269174762E+02 -0.63721097830E+01 -0.26011387781E+02  0.14834973794E+03  0.12500000000E+03 0.  0.
</event>
<event>
 5    0  0.5616733E-005  0.2691837E+03  0.7546771E-02  0.1101748E+00
         21   -1    0    0  502  501  0.00000000000E+00  0.00000000000E+00  0.15819739143E+03  0.15819739143E+03  0.00000000000E+00 0. -1.
         21   -1    0    0  501  502 -0.00000000000E+00 -0.00000000000E+00 -0.45803437003E+03  0.45803437003E+03  0.00000000000E+00 0. -1.
         25    1    1    2    0    0 -0.44966518702E+01  0.93915211639E+01  0.62125871404E+02  0.13997515653E+03  0.12500000000E+03 0.  0.
         25    1    1    2    0    0  0.43683550470E+02 -0.39449062354E+02 -0.29574527430E+03  0.32642724821E+03  0.12500000000E+03 0.  0.
         25    1    1    2    0    0 -0.39186898600E+02  0.30057541190E+02 -0.66217575702E+02  0.14982935672E+03  0.12500000000E+03 0.  0.
</event>
<event>
 5    0  0.6972927E-005  0.5011677E+03  0.7546771E-02  0.1013475E+00
         21   -1    0    0  502  501  0.00000000000E+00  0.00000000000E+00  0.48641116603E+03  0.48641116603E+03  0.00000000000E+00 0.  1.
         21   -1    0    0  501  502 -0.00000000000E+00 -0.00000000000E+00 -0.51637186167E+03  0.51637186167E+03  0.00000000000E+00 0.  1.
         25    1    1    2    0    0  0.10176200264E+03 -0.69517502033E+02  0.16280916581E+03  0.23941598264E+03  0.12500000000E+03 0.  0.
         25    1    1    2    0    0 -0.11562134211E+03 -0.26804124510E+03 -0.24272500208E+03  0.39969342059E+03  0.12500000000E+03 0.  0.
         25    1    1    2    0    0  0.13859339470E+02  0.33755874714E+03  0.49955140637E+02  0.36367362447E+03  0.12500000000E+03 0.  0.
</event>
<event>
 5    0  0.5616733E-005  0.2528531E+03  0.7546771E-02  0.1111515E+00
         21   -1    0    0  502  501  0.00000000000E+00  0.00000000000E+00  0.45360464807E+02  0.45360464807E+02  0.00000000000E+00 0. -1.
         21   -1    0    0  501  502 -0.00000000000E+00 -0.00000000000E+00 -0.14094807306E+04  0.14094807306E+04  0.00000000000E+00 0. -1.
         25    1    1    2    0    0 -0.63352392502E+02  0.82378444775E+02 -0.41533997008E+03  0.44601796438E+03  0.12500000000E+03 0.  0.
         25    1    1    2    0    0  0.64703297147E+02 -0.83280507274E+02 -0.24860863288E+03  0.29757925313E+03  0.12500000000E+03 0.  0.
         25    1    1    2    0    0 -0.13509046449E+01  0.90206249917E+00 -0.70017166287E+03  0.71124397793E+03  0.12500000000E+03 0.  0.
</event>
<event>
 5    0  0.5616733E-005  0.4480895E+03  0.7546771E-02  0.1028293E+00
         21   -1    0    0  502  501  0.00000000000E+00  0.00000000000E+00  0.14753137462E+04  0.14753137462E+04  0.00000000000E+00 0.  1.
         21   -1    0    0  501  502 -0.00000000000E+00 -0.00000000000E+00 -0.13609593320E+03  0.13609593320E+03  0.00000000000E+00 0.  1.
         25    1    1    2    0    0 -0.57235469452E+02  0.22562744119E+03  0.10006085187E+03  0.28252577804E+03  0.12500000000E+03 0.  0.
         25    1    1    2    0    0 -0.12661141159E+03 -0.63331385545E+02  0.34485996288E+03  0.39318533535E+03  0.12500000000E+03 0.  0.
         25    1    1    2    0    0  0.18384688105E+03 -0.16229605564E+03  0.89429699824E+03  0.93569856599E+03  0.12500000000E+03 0.  0.
</event>
<event>
 5    0  0.5616733E-005  0.2360085E+03  0.7546771E-02  0.1122481E+00
         21   -1    0    0  502  501  0.00000000000E+00  0.00000000000E+00  0.27465511276E+03  0.27465511276E+03  0.00000000000E+00 0. -1.
         21   -1    0    0  501  502 -0.00000000000E+00 -0.00000000000E+00 -0.20279986937E+03  0.20279986937E+03  0.00000000000E+00 0. -1.
         25    1    1    2    0    0  0.18484128957E+02  0.88737305044E+01  0.56189512718E+02  0.13857368962E+03  0.12500000000E+03 0.  0.
         25    1    1    2    0    0  0.71911177222E+02  0.65042445390E+02  0.46886311809E+02  0.16500019196E+03  0.12500000000E+03 0.  0.
         25    1    1    2    0    0 -0.90395306179E+02 -0.73916175894E+02 -0.31220581138E+02  0.17388110054E+03  0.12500000000E+03 0.  0.
</event>
<event>
 5    0  0.5616733E-005  0.3587772E+03  0.7546771E-02  0.1059069E+00
         21   -1    0    0  502  501  0.00000000000E+00  0.00000000000E+00  0.13664402440E+03  0.13664402440E+03  0.00000000000E+00 0. -1.
         21   -1    0    0  501  502 -0.00000000000E+00 -0.00000000000E+00 -0.94201757923E+03  0.94201757923E+03  0.00000000000E+00 0. -1.
         25    1    1    2    0    0 -0.10699765907E+03  0.20633373597E+03 -0.20421445990E+03  0.33369245613E+03  0.12500000000E+03 0.  0.
         25    1    1    2    0    0  0.46061222073E+02  0.15291169337E+02 -0.66391772932E+02  0.14962728211E+03  0.12500000000E+03 0.  0.
         25    1    1    2    0    0  0.60936437000E+02 -0.22162490531E+03 -0.53476732199E+03  0.59534186538E+03  0.12500000000E+03 0.  0.
</event>
<event>
 5    0  0.5616733E-005  0.2715103E+03  0.7546771E-02  0.1100418E+00
         21   -1    0    0  502  501  0.00000000000E+00  0.00000000000E+00  0.16804495880E+04  0.16804495880E+04  0.00000000000E+00 0.  1.
         21   -1    0    0  501  502 -0.00000000000E+00 -0.00000000000E+00 -0.43867924175E+02  0.43867924175E+02  0.00000000000E+00 0.  1.
         25    1    1    2    0    0  0.29422964790E+02  0.10575475939E+03  0.80893621143E+03  0.82586474325E+03  0.12500000000E+03 0.  0.
         25    1    1    2    0    0 -0.50110615233E+02  0.32221246648E+02  0.52126598951E+03  0.53934452283E+03  0.12500000000E+03 0.  0.
         25    1    1    2    0    0  0.20687650443E+02 -0.13797600604E+03  0.30637946288E+03  0.35910824607E+03  0.12500000000E+03 0.  0.
</event>
<event>
 5    0  0.6042313E-005  0.2683597E+03  0.7546771E-02  0.1102222E+00
         21   -1    0    0  502  501  0.00000000000E+00  0.00000000000E+00  0.73367808218E+02  0.73367808218E+02  0.00000000000E+00 0. -1.
         21   -1    0    0  501  502 -0.00000000000E+00 -0.00000000000E+00 -0.98158751552E+03  0.98158751552E+03  0.00000000000E+00 0. -1.
         25    1    1    2    0    0 -0.69610681981E+02 -0.13791257159E+03 -0.42429881399E+03  0.46852962340E+03  0.12500000000E+03 0.  0.
         25    1    1    2    0    0 -0.34928804784E+02  0.10021813545E+03 -0.24002823022E+03  0.29069270266E+03  0.12500000000E+03 0.  0.
         25    1    1    2    0    0  0.10453948677E+03  0.37694436137E+02 -0.24389266309E+03  0.29573299768E+03  0.12500000000E+03 0.  0.
</event>
<event>
 5    0  0.5616733E-005  0.3318258E+03  0.7546771E-02  0.1070332E+00
         21   -1    0    0  502  501  0.00000000000E+00  0.00000000000E+00  0.12404372701E+03  0.12404372701E+03  0.00000000000E+00 0. -1.
         21   -1    0    0  501  502 -0.00000000000E+00 -0.00000000000E+00 -0.88765739367E+03  0.88765739367E+03  0.00000000000E+00 0. -1.
         25    1    1    2    0    0  0.18200207933E+03 -0.14979036083E+02 -0.19617202207E+03  0.29573229558E+03  0.12500000000E+03 0.  0.
         25    1    1    2    0    0 -0.13396071752E+03  0.14776983063E+03 -0.22827473888E+03  0.32789594858E+03  0.12500000000E+03 0.  0.
         25    1    1    2    0    0 -0.48041361818E+02 -0.13279079454E+03 -0.33916690571E+03  0.38807287652E+03  0.12500000000E+03 0.  0.
</event>
<event>
 5    0  0.5616733E-005  0.3072222E+03  0.7546771E-02  0.1081685E+00
         21   -1    0    0  502  501  0.00000000000E+00  0.00000000000E+00  0.63520663963E+03  0.63520663963E+03  0.00000000000E+00 0.  1.
         21   -1    0    0  501  502 -0.00000000000E+00 -0.00000000000E+00 -0.14859022080E+03  0.14859022080E+03  0.00000000000E+00 0.  1.
         25    1    1    2    0    0  0.84596751198E+02  0.56871317938E+02  0.30137973835E+01  0.16132278231E+03  0.12500000000E+03 0.  0.
         25    1    1    2    0    0  0.91693908108E+02  0.37916704276E+01  0.12393705774E+03  0.19851333414E+03  0.12500000000E+03 0.  0.
         25    1    1    2    0    0 -0.17629065931E+03 -0.60662988365E+02  0.35966556371E+03  0.42396074398E+03  0.12500000000E+03 0.  0.
</event>
<event>
 5    0  0.5616733E-005  0.7896653E+03  0.7546771E-02  0.9575098E-01
         21   -1    0    0  502  501  0.00000000000E+00  0.00000000000E+00  0.10759804188E+04  0.10759804188E+04  0.00000000000E+00 0. -1.
         21   -1    0    0  501  502 -0.00000000000E+00 -0.00000000000E+00 -0.57953769288E+03  0.57953769288E+03  0.00000000000E+00 0. -1.
         25    1    1    2    0    0  0.63920502151E+02  0.94800740197E+02 -0.14326867485E+03  0.22186465273E+03  0.12500000000E+03 0.  0.
         25    1    1    2    0    0 -0.38576765030E+03  0.13459384852E+03 -0.21900093750E+03  0.48012352026E+03  0.12500000000E+03 0.  0.
         25    1    1    2    0    0  0.32184714815E+03 -0.22939458872E+03  0.85871233830E+03  0.95352993873E+03  0.12500000000E+03 0.  0.
</event>
<event>
 5    0  0.5616733E-005  0.3638526E+03  0.7546771E-02  0.1057069E+00
         21   -1    0    0  502  501  0.00000000000E+00  0.00000000000E+00  0.21903417755E+04  0.21903417755E+04  0.00000000000E+00 0. -1.
         21   -1    0    0  501  502 -0.00000000000E+00 -0.00000000000E+00 -0.60442028203E+02  0.60442028203E+02  0.00000000000E+00 0. -1.
         25    1    1    2    0    0  0.21100713370E+03  0.27401829653E+01  0.46932757876E+03  0.52955159830E+03  0.12500000000E+03 0.  0.
         25    1    1    2    0    0 -0.17032318249E+03  0.97985842206E+01  0.14928889345E+04  0.15077958647E+04  0.12500000000E+03 0.  0.
         25    1    1    2    0    0 -0.40683951208E+02 -0.12538767186E+02  0.16768323399E+03  0.21343634070E+03  0.12500000000E+03 0.  0.
</event>
<event>
 5    0  0.5616733E-005  0.5035262E+03  0.7546771E-02  0.1012863E+00
         21   -1    0    0  502  501  0.00000000000E+00  0.00000000000E+00  0.19074669286E+04  0.19074669286E+04  0.00000000000E+00 0.  1.
         21   -1    0    0  501  502 -0.00000000000E+00 -0.00000000000E+00 -0.13291901305E+03  0.13291901305E+03  0.00000000000E+00 0.  1.
         25    1    1    2    0    0 -0.20717969194E+03  0.16048730524E+03  0.57405018964E+03  0.64330258831E+03  0.12500000000E+03 0.  0.
         25    1    1    2    0    0  0.13047944783E+03  0.19647160899E+03  0.78904600432E+03  0.83297333474E+03  0.12500000000E+03 0.  0.
         25    1    1    2    0    0  0.76700244107E+02 -0.35695891424E+03  0.41145172163E+03  0.56411001864E+03  0.12500000000E+03 0.  0.
</event>
<event>
 5    0  0.5616733E-005  0.6533670E+03  0.7546771E-02  0.9800482E-01
         21   -1    0    0  502  501  0.00000000000E+00  0.00000000000E+00  0.27801946307E+03  0.27801946307E+03  0.00000000000E+00 0. -1.
         21   -1    0    0  501  502 -0.00000000000E+00 -0.00000000000E+00 -0.15354623761E+04  0.15354623761E+04  0.00000000000E+00 0. -1.
         25    1    1    2    0    0  0.90019354903E+01 -0.20373202558E+03 -0.38258349784E+03  0.45120162445E+03  0.12500000000E+03 0.  0.
         25    1    1    2    0    0  0.33140993987E+03 -0.17877773630E+03 -0.70415603213E+03  0.80824176138E+03  0.12500000000E+03 0.  0.
         25    1    1    2    0    0 -0.34041187537E+03  0.38250976188E+03 -0.17070338309E+03  0.55403845338E+03  0.12500000000E+03 0.  0.
</event>
<event>
 5    0  0.5616733E-005  0.2469100E+03  0.7546771E-02  0.1115273E+00
         21   -1    0    0  502  501  0.00000000000E+00  0.00000000000E+00  0.17488778724E+03  0.17488778724E+03  0.00000000000E+00 0.  1.
         21   -1    0    0  501  502 -0.00000000000E+00 -0.00000000000E+00 -0.34859228667E+03  0.34859228667E+03  0.00000000000E+00 0.  1.
         25    1    1    2    0    0  0.11833910958E+03  0.35281894571E+02 -0.16989610458E+03  0.24441489990E+03  0.12500000000E+03 0.  0.
         25    1    1    2    0    0 -0.54456971622E+02 -0.19655832533E+02 -0.41719719035E+01  0.13781987832E+03  0.12500000000E+03 0.  0.
         25    1    1    2    0    0 -0.63882137959E+02 -0.15626062038E+02  0.36357705810E+00  0.14124529569E+03  0.12500000000E+03 0.  0.
</event>
<event>
 5    0  0.5616733E-005  0.2819982E+03  0.7546771E-02  0.1094603E+00
         21   -1    0    0  502  501  0.00000000000E+00  0.00000000000E+00  0.23395092953E+02  0.23395092953E+02  0.00000000000E+00 0. -1.
         21   -1    0    0  501  502 -0.00000000000E+00 -0.00000000000E+00 -0.33991297912E+04  0.33991297912E+04  0.00000000000E+00 0. -1.
         25    1    1    2    0    0 -0.18076917859E+02 -0.15139919913E+03 -0.11167586086E+04  0.11340296655E+04  0.12500000000E+03 0.  0.
         25    1    1    2    0    0 -0.15498644167E+01  0.10947717250E+03 -0.55574366776E+03  0.58005489191E+03  0.12500000000E+03 0.  0.
         25    1    1    2    0    0  0.19626782276E+02  0.41922026631E+02 -0.17032324219E+04  0.17084403268E+04  0.12500000000E+03 0.  0.
</event>
<event>
 5    0  0.5616733E-005  0.2831914E+03  0.7546771E-02  0.1093959E+00
         21   -1    0    0  502  501  0.00000000000E+00  0.00000000000E+00  0.18355918847E+03  0.18355918847E+03  0.00000000000E+00 0.  1.
         21   -1    0    0  501  502 -0.00000000000E+00 -0.00000000000E+00 -0.43690209316E+03  0.43690209316E+03  0.00000000000E+00 0.  1.
         25    1    1    2    0    0  0.17988985776E+02 -0.50104315746E+02 -0.25706258309E+03  0.29075800538E+03  0.12500000000E+03 0.  0.
         25    1    1    2    0    0  0.64399803067E+02  0.24791162915E+02 -0.72140876962E+02  0.15997263054E+03  0.12500000000E+03 0.  0.
         25    1    1    2    0    0 -0.82388788843E+02  0.25313152830E+02  0.75860555365E+02  0.16973064571E+03  0.12500000000E+03 0.  0.
</event>
<event>
 5    0  0.5616733E-005  0.7795844E+03  0.7546771E-02  0.9590047E-01
         21   -1    0    0  502  501  0.00000000000E+00  0.00000000000E+00  0.25187885375E+03  0.25187885375E+03  0.00000000000E+00 0. -1.
         21   -1    0    0  501  502 -0.00000000000E+00 -0.00000000000E+00 -0.24128738406E+04  0.24128738406E+04  0.00000000000E+00 0. -1.
         25    1    1    2    0    0  0.15154496165E+03  0.24296860215E+03 -0.20088099096E+04  0.20329638142E+04  0.12500000000E+03 0.  0.
         25    1    1    2    0    0 -0.25232432265E+03 -0.14146846100E+03 -0.26423252267E+03  0.41124775415E+03  0.12500000000E+03 0.  0.
         25    1    1    2    0    0  0.10077936100E+03 -0.10150014115E+03  0.11204744537E+03  0.22054112603E+03  0.12500000000E+03 0.  0.
</event>
<event>
 5    0  0.5616733E-005  0.3053654E+03  0.7546771E-02  0.1082589E+00
         21   -1    0    0  502  501  0.00000000000E+00  0.00000000000E+00  0.91208228112E+02  0.91208228112E+02  0.00000000000E+00 0.  1.
         21   -1    0    0  501  502 -0.00000000000E+00 -0.00000000000E+00 -0.10223639645E+04  0.10223639645E+04  0.00000000000E+00 0.  1.
         25    1    1    2    0    0  0.15686647797E+02  0.14859608169E+03 -0.10391931852E+03  0.22079649267E+03  0.12500000000E+03 0.  0.
         25    1    1    2    0    0  0.49001286020E+02 -0.23407426838E+02 -0.23913818484E+03  0.27524735259E+03  0.12500000000E+03 0.  0.
         25    1    1    2    0    0 -0.64687933817E+02 -0.12518865485E+03 -0.58809823307E+03  0.61752834739E+03  0.12500000000E+03 0.  0.
</event>
<event>
 5    0  0.5616733E-005  0.3191483E+03  0.7546771E-02  0.1076042E+00
         21   -1    0    0  502  501  0.00000000000E+00  0.00000000000E+00  0.61776713058E+03  0.61776713058E+03  0.00000000000E+00 0.  1.
         21   -1    0    0  501  502 -0.00000000000E+00 -0.00000000000E+00 -0.16487711882E+03  0.16487711882E+03  0.00000000000E+00 0.  1.
         25    1    1    2    0    0 -0.17194166524E+03 -0.14298964507E+03  0.18441180538E+03  0.31566230185E+03  0.12500000000E+03 0.  0.
         25    1    1    2    0    0  0.15031413433E+03  0.15963833428E+03  0.15667352759E+03  0.29706957266E+03  0.12500000000E+03 0.  0.
         25    1    1    2    0    0  0.21627530905E+02 -0.16648689208E+02  0.11180467879E+03  0.16991237490E+03  0.12500000000E+03 0.  0.
</event>
<event>
 5    0  0.5616733E-005  0.2668208E+03  0.7546771E-02  0.1103113E+00
         21   -1    0    0  502  501  0.00000000000E+00  0.00000000000E+00  0.60067456741E+02  0.60067456741E+02  0.00000000000E+00 0.  1.
         21   -1    0    0  501  502 -0.00000000000E+00 -0.00000000000E+00 -0.11852233154E+04  0.11852233154E+04  0.00000000000E+00 0.  1.
         25    1    1    2    0    0  0.17047859522E+03 -0.31499683257E+02 -0.39460744289E+03  0.44877078276E+03  0.12500000000E+03 0.  0.
         25    1    1    2    0    0 -0.12998733411E+03  0.13400466493E+02 -0.35830151279E+03  0.40134929126E+03  0.12500000000E+03 0.  0.
         25    1    1    2    0    0 -0.40491261116E+02  0.18099216763E+02 -0.37224690300E+03  0.39517069814E+03  0.12500000000E+03 0.  0.
</event>
<event>
 5    0  0.5616733E-005  0.2150878E+03  0.7546771E-02  0.1137599E+00
         21   -1    0    0  502  501  0.00000000000E+00  0.00000000000E+00  0.18993910892E+02  0.18993910892E+02  0.00000000000E+00 0. -1.
         21   -1    0    0  501  502 -0.00000000000E+00 -0.00000000000E+00 -0.24356635905E+04  0.24356635905E+04  0.00000000000E+00 0. -1.
         25    1    1    2    0    0  0.23174298001E+01 -0.63027822787E+02 -0.94151699237E+03  0.95187032933E+03  0.12500000000E+03 0.  0.
         25    1    1    2    0    0  0.27277441267E+02  0.81462709790E+02 -0.64784661059E+03  0.66536490946E+03  0.12500000000E+03 0.  0.
         25    1    1    2    0    0 -0.29594871067E+02 -0.18434887003E+02 -0.82730607660E+03  0.83742226256E+03  0.12500000000E+03 0.  0.
</event>
<event>
 5    0  0.5616733E-005  0.6971734E+03  0.7546771E-02  0.9722078E-01
         21   -1    0    0  502  501  0.00000000000E+00  0.00000000000E+00  0.36008737656E+03  0.36008737656E+03  0.00000000000E+00 0.  1.
         21   -1    0    0  501  502 -0.00000000000E+00 -0.00000000000E+00 -0.13498133956E+04  0.13498133956E+04  0.00000000000E+00 0.  1.
         25    1    1    2    0    0 -0.95594010824E+01  0.90287378037E+01 -0.21799695297E+03  0.25163579189E+03  0.12500000000E+03 0.  0.
         25    1    1    2    0    0 -0.45387408982E+03 -0.27454802484E+03 -0.72604754021E+03  0.90782616067E+03  0.12500000000E+03 0.  0.
         25    1    1    2    0    0  0.46343349090E+03  0.26551928704E+03 -0.45681525812E+02  0.55043881956E+03  0.12500000000E+03 0.  0.
</event>
<event>
 5    0  0.5616733E-005  0.2656469E+03  0.7546771E-02  0.1103797E+00
         21   -1    0    0  502  501  0.00000000000E+00  0.00000000000E+00  0.25107925165E+03  0.25107925165E+03  0.00000000000E+00 0. -1.
         21   -1    0    0  501  502 -0.00000000000E+00 -0.00000000000E+00 -0.28105969315E+03  0.28105969315E+03  0.00000000000E+00 0. -1.
         25    1    1    2    0    0  0.78801953056E+02 -0.16075013506E+02 -0.73519969255E+02  0.16582623358E+03  0.12500000000E+03 0.  0.
         25    1    1    2    0    0  0.54956720350E+02  0.18382171134E+02  0.10495063808E+03  0.17319867713E+03  0.12500000000E+03 0.  0.
         25    1    1    2    0    0 -0.13375867341E+03 -0.23071576279E+01 -0.61411110330E+02  0.19311403408E+03  0.12500000000E+03 0.  0.
</event>
<event>
 5    0  0.5838161E-005  0.2534170E+03  0.7546771E-02  0.1111164E+00
         21   -1    0    0  502  501  0.00000000000E+00  0.00000000000E+00  0.15153692727E+03  0.15153692727E+03  0.00000000000E+00 0. -1.
         21   -1    0    0  501  502 -0.00000000000E+00 -0.00000000000E+00 -0.42379227928E+03  0.42379227928E+03  0.00000000000E+00 0. -1.
         25    1    1    2    0    0  0.26991813777E+01  0.17297761554E+02  0.13576639363E+02  0.12694811252E+03  0.12500000000E+03 0.  0.
         25    1    1    2    0    0  0.55352241230E+02  0.46029196378E+02 -0.25593741445E+03  0.29378821904E+03  0.12500000000E+03 0.  0.
         25    1    1    2    0    0 -0.58051422608E+02 -0.63326957932E+02 -0.29894576921E+02  0.15459287499E+03  0.12500000000E+03 0.  0.
</event>
<event>
 5    0  0.5616733E-005  0.2602720E+03  0.7546771E-02  0.1106980E+00
         21   -1    0    0  502  501  0.00000000000E+00  0.00000000000E+00  0.70912606704E+02  0.70912606704E+02  0.00000000000E+00 0. -1.
         21   -1    0    0  501  502 -0.00000000000E+00 -0.00000000000E+00 -0.95528171820E+03  0.95528171820E+03  0.00000000000E+00 0. -1.
         25    1    1    2    0    0 -0.40160776954E+02  0.95585305922E+02 -0.56688318110E+03  0.58968718803E+03  0.12500000000E+03 0.  0.
         25    1    1    2    0    0  0.72276866386E+02 -0.83298300023E+02 -0.14645290856E+03  0.22189188049E+03  0.12500000000E+03 0.  0.
         25    1    1    2    0    0 -0.32116089432E+02 -0.12287005899E+02 -0.17103302184E+03  0.21461525638E+03  0.12500000000E+03 0.  0.
</event>
<event>
 5    0  0.5616733E-005  0.3575537E+03  0.7546771E-02  0.1059557E+00
         21   -1    0    0  502  501  0.00000000000E+00  0.00000000000E+00  0.14190360868E+03  0.14190360868E+03  0.00000000000E+00 0.  1.
         21   -1    0    0  501  502 -0.00000000000E+00 -0.00000000000E+00 -0.90092589477E+03  0.90092589477E+03  0.00000000000E+00 0.  1.
         25    1    1    2    0    0 -0.22029927189E+03  0.49636538314E+02 -0.39458190100E+03  0.47150337404E+03  0.12500000000E+03 0.  0.
         25    1    1    2    0    0  0.16849227296E+02  0.96324797639E+02 -0.11007779718E+03  0.19314368882E+03  0.12500000000E+03 0.  0.
         25    1    1    2    0    0  0.20345004460E+03 -0.14596133595E+03 -0.25436258791E+03  0.37818244059E+03  0.12500000000E+03 0.  0.
</event>
<event>
 5    0  0.5616733E-005  0.2489042E+03  0.7546771E-02  0.1113999E+00
         21   -1    0    0  502  501  0.00000000000E+00  0.00000000000E+00  0.46202074939E+02  0.46202074939E+02  0.00000000000E+00 0. -1.
         21   -1    0    0  501  502 -0.00000000000E+00 -0.00000000000E+00 -0.13409205679E+04  0.13409205679E+04  0.00000000000E+00 0. -1.
         25    1    1    2    0    0  0.11102961271E+03 -0.22158549675E+02 -0.63834158960E+03  0.66024507665E+03  0.12500000000E+03 0.  0.
         25    1    1    2    0    0 -0.35736209827E+02 -0.47317632978E+02 -0.40545950154E+03  0.42841386820E+03  0.12500000000E+03 0.  0.
         25    1    1    2    0    0 -0.75293402884E+02  0.69476182654E+02 -0.25091740178E+03  0.29846369794E+03  0.12500000000E+03 0.  0.
</event>
<event>
 5    0  0.6366297E-005  0.5382268E+03  0.7546771E-02  0.1004256E+00
         21   -1    0    0  502  501  0.00000000000E+00  0.00000000000E+00  0.19239827449E+03  0.19239827449E+03  0.00000000000E+00 0. -1.
         21   -1    0    0  501  502 -0.00000000000E+00 -0.00000000000E+00 -0.15056690692E+04  0.15056690692E+04  0.00000000000E+00 0. -1.
         25    1    1    2    0    0  0.92211756064E+02 -0.93691977296E+02 -0.68104176102E+03  0.70478654558E+03  0.12500000000E+03 0.  0.
         25    1    1    2    0    0  0.21349134418E+03 -0.13212530884E+03 -0.47021041916E+02  0.28437937629E+03  0.12500000000E+03 0.  0.
         25    1    1    2    0    0 -0.30570310025E+03  0.22581728614E+03 -0.58520799177E+03  0.70890142181E+03  0.12500000000E+03 0.  0.
</event>
<event>
 5    0  0.6481794E-005  0.2936382E+03  0.7546771E-02  0.1088465E+00
         21   -1    0    0  502  501  0.00000000000E+00  0.00000000000E+00  0.11340358495E+03  0.11340358495E+03  0.00000000000E+00 0.  1.
         21   -1    0    0  501  502 -0.00000000000E+00 -0.00000000000E+00 -0.76032339459E+03  0.76032339459E+03  0.00000000000E+00 0.  1.
         25    1    1    2    0    0  0.10271538348E+02  0.10968419204E+03 -0.15451107305E+03  0.22723291614E+03  0.12500000000E+03 0.  0.
         25    1    1    2    0    0 -0.92400757695E+02 -0.18458312654E+03 -0.35884728980E+03  0.43244098790E+03  0.12500000000E+03 0.  0.
         25    1    1    2    0    0  0.82129219347E+02  0.74898934500E+02 -0.13356144679E+03  0.21405307549E+03  0.12500000000E+03 0.  0.
</event>
<event>
 5    0  0.6316802E-005  0.2783032E+03  0.7546771E-02  0.1096619E+00
         21   -1    0    0  502  501  0.00000000000E+00  0.00000000000E+00  0.18053463744E+03  0.18053463744E+03  0.00000000000E+00 0. -1.
         21   -1    0    0  501  502 -0.00000000000E+00 -0.00000000000E+00 -0.42901842842E+03  0.42901842842E+03  0.00000000000E+00 0. -1.
         25    1    1    2    0    0  0.18384805751E+03  0.48957197173E+02 -0.50919587947E+02  0.23326962906E+03  0.12500000000E+03 0.  0.
         25    1    1    2    0    0 -0.11854614227E+03 -0.68359188425E+01 -0.11850531991E+03  0.20920905449E+03  0.12500000000E+03 0.  0.
         25    1    1    2    0    0 -0.65301915243E+02 -0.42121278331E+02 -0.79058883128E+02  0.16707438231E+03  0.12500000000E+03 0.  0.
</event>
<event>
 5    0  0.5616733E-005  0.2719453E+03  0.7546771E-02  0.1100171E+00
         21   -1    0    0  502  501  0.00000000000E+00  0.00000000000E+00  0.10718961520E+03  0.10718961520E+03  0.00000000000E+00 0.  1.
         21   -1    0    0  501  502 -0.00000000000E+00 -0.00000000000E+00 -0.68993833139E+03  0.68993833139E+03  0.00000000000E+00 0.  1.
         25    1    1    2    0    0  0.94179394894E+02 -0.11560335447E+02 -0.24681926221E+03  0.29248615006E+03  0.12500000000E+03 0.  0.
         25    1    1    2    0    0 -0.15280712959E+03 -0.77299742955E+02 -0.20048967095E+03  0.29179852171E+03  0.12500000000E+03 0.  0.
         25    1    1    2    0    0  0.58627734700E+02  0.88860078402E+02 -0.13543978303E+03  0.21284327482E+03  0.12500000000E+03 0.  0.
</event>
<event>
 5    0  0.5616733E-005  0.2447141E+03  0.7546771E-02  0.1116692E+00
         21   -1    0    0  502  501  0.00000000000E+00  0.00000000000E+00  0.37678521208E+03  0.37678521208E+03  0.00000000000E+00 0.  1.
         21   -1    0    0  501  502 -0.00000000000E+00 -0.00000000000E+00 -0.15893663051E+03  0.15893663051E+03  0.00000000000E+00 0.  1.
         25    1    1    2    0    0  0.27697699759E+02  0.12241315883E+03  0.81542945832E+02  0.19500357956E+03  0.12500000000E+03 0.  0.
         25    1    1    2    0    0 -0.11843176177E+01 -0.13427076545E+03  0.89482553689E+02  0.20411312667E+03  0.12500000000E+03 0.  0.
         25    1    1    2    0    0 -0.26513382141E+02  0.11857606622E+02  0.46823082049E+02  0.13660513636E+03  0.12500000000E+03 0.  0.
</event>
<event>
 5    0  0.5616733E-005  0.2528140E+03  0.7546771E-02  0.1111539E+00
         21   -1    0    0  502  501  0.00000000000E+00  0.00000000000E+00  0.37280817986E+03  0.37280817986E+03  0.00000000000E+00 0. -1.
         21   -1    0    0  501  502 -0.00000000000E+00 -0.00000000000E+00 -0.17144187931E+03  0.17144187931E+03  0.00000000000E+00 0. -1.
         25    1    1    2    0    0 -0.18072306249E+02  0.10420632299E+02 -0.42649139954E+01  0.12680058092E+03  0.12500000000E+03 0.  0.
         25    1    1    2    0    0  0.58194966268E+02 -0.73239031196E+02 -0.10951680588E+02  0.15651053989E+03  0.12500000000E+03 0.  0.
         25    1    1    2    0    0 -0.40122660018E+02  0.62818398897E+02  0.21658289513E+03  0.26093893836E+03  0.12500000000E+03 0.  0.
</event>
<event>
 5    0  0.5616733E-005  0.2758020E+03  0.7546771E-02  0.1098004E+00
         21   -1    0    0  502  501  0.00000000000E+00  0.00000000000E+00  0.38326752740E+03  0.38326752740E+03  0.00000000000E+00 0. -1.
         21   -1    0    0  501  502 -0.00000000000E+00 -0.00000000000E+00 -0.19846904780E+03  0.19846904780E+03  0.00000000000E+00 0. -1.
         25    1    1    2    0    0  0.14682503210E+03 -0.48121278854E+02  0.48527766838E+02  0.20458052616E+03  0.12500000000E+03 0.  0.
         25    1    1    2    0    0  0.29735191760E+02  0.42242119909E+02  0.50768898568E+02  0.14446819506E+03  0.12500000000E+03 0.  0.
         25    1    1    2    0    0 -0.17656022386E+03  0.58791589455E+01  0.85501814199E+02  0.23268785398E+03  0.12500000000E+03 0.  0.
</event>
<event>
 5    0  0.5616733E-005  0.3954141E+03  0.7546771E-02  0.1045379E+00
         21   -1    0    0  502  501  0.00000000000E+00  0.00000000000E+00  0.45552440497E+03  0.45552440497E+03  0.00000000000E+00 0.  1.
         21   -1    0    0  501  502 -0.00000000000E+00 -0.00000000000E+00 -0.34323583851E+03  0.34323583851E+03  0.00000000000E+00 0.  1.
         25    1    1    2    0    0  0.64259174604E+02  0.11149391256E+03 -0.81486144967E+02  0.19704092438E+03  0.12500000000E+03 0.  0.
         25    1    1    2    0    0 -0.16007021380E+02 -0.18761209382E+03  0.32734539280E+03  0.39778703934E+03  0.12500000000E+03 0.  0.
         25    1    1    2    0    0 -0.48252153225E+02  0.76118181262E+02 -0.13357068137E+03  0.20393227977E+03  0.12500000000E+03 0.  0.
</event>
<event>
 5    0  0.5616733E-005  0.2017473E+03  0.7546771E-02  0.1148273E+00
         21   -1    0    0  502  501  0.00000000000E+00  0.00000000000E+00  0.10070454708E+03  0.10070454708E+03  0.00000000000E+00 0.  1.
         21   -1    0    0  501  502 -0.00000000000E+00 -0.00000000000E+00 -0.40417226767E+03  0.40417226767E+03  0.00000000000E+00 0.  1.
         25    1    1    2    0    0  0.45859663291E+02 -0.36881018808E+02 -0.66834854117E+02  0.15347708621E+03  0.12500000000E+03 0.  0.
         25    1    1    2    0    0 -0.23691944475E+02  0.49244049581E+01 -0.97525487088E+02  0.16038010671E+03  0.12500000000E+03 0.  0.
         25    1    1    2    0    0 -0.22167718817E+02  0.31956613850E+02 -0.13910737938E+03  0.19101962183E+03  0.12500000000E+03 0.  0.
</event>
<event>
 5    0  0.5616733E-005  0.3965762E+03  0.7546771E-02  0.1044972E+00
         21   -1    0    0  502  501  0.00000000000E+00  0.00000000000E+00  0.73935449966E+03  0.73935449966E+03  0.00000000000E+00 0. -1.
         21   -1    0    0  501  502 -0.00000000000E+00 -0.00000000000E+00 -0.21271615872E+03  0.21271615872E+03  0.00000000000E+00 0. -1.
         25    1    1    2    0    0 -0.20814354783E+03  0.18262458313E+03  0.39011627289E+03  0.49446049513E+03  0.12500000000E+03 0.  0.
         25    1    1    2    0    0  0.65945497661E+02 -0.48231535224E+02  0.16632541870E+03  0.22352680948E+03  0.12500000000E+03 0.  0.
         25    1    1    2    0    0  0.14219805017E+03 -0.13439304791E+03 -0.29803350663E+02  0.23408335376E+03  0.12500000000E+03 0.  0.
</event>
<event>
 5    0  0.5616733E-005  0.2609618E+03  0.7546771E-02  0.1106567E+00
         21   -1    0    0  502  501  0.00000000000E+00  0.00000000000E+00  0.80406388964E+02  0.80406388964E+02  0.00000000000E+00 0.  1.
         21   -1    0    0  501  502 -0.00000000000E+00 -0.00000000000E+00 -0.84696070994E+03  0.84696070994E+03  0.00000000000E+00 0.  1.
         25    1    1    2    0    0 -0.28976682802E+02 -0.26088615185E+02 -0.25184648945E+03  0.28385193013E+03  0.12500000000E+03 0.  0.
         25    1    1    2    0    0  0.14924777137E+03  0.68836565272E+02 -0.30008105509E+03  0.36426228133E+03  0.12500000000E+03 0.  0.
         25    1    1    2    0    0 -0.12027108857E+03 -0.42747950087E+02 -0.21462677644E+03  0.27925288745E+03  0.12500000000E+03 0.  0.
</event>
<event>
 5    0  0.5616733E-005  0.3480077E+03  0.7546771E-02  0.1063436E+00
         21   -1    0    0  502  501  0.00000000000E+00  0.00000000000E+00  0.17209763106E+03  0.17209763106E+03  0.00000000000E+00 0. -1.
         21   -1    0    0  501  502 -0.00000000000E+00 -0.00000000000E+00 -0.70372490478E+03  0.70372490478E+03  0.00000000000E+00 0. -1.
         25    1    1    2    0    0 -0.11763113122E+02  0.88512562824E+01  0.11381017323E+03  0.16968933702E+03  0.12500000000E+03 0.  0.
         25    1    1    2    0    0  0.50150056586E+02  0.16893106906E+02 -0.44652841125E+03  0.46670443247E+03  0.12500000000E+03 0.  0.
         25    1    1    2    0    0 -0.38386943464E+02 -0.25744363189E+02 -0.19890903571E+03  0.23942876634E+03  0.12500000000E+03 0.  0.
</event>
<event>
 5    0  0.5616733E-005  0.4638411E+03  0.7546771E-02  0.1023673E+00
         21   -1    0    0  502  501  0.00000000000E+00  0.00000000000E+00  0.20641954423E+04  0.20641954423E+04  0.00000000000E+00 0. -1.
         21   -1    0    0  501  502 -0.00000000000E+00 -0.00000000000E+00 -0.10422878935E+03  0.10422878935E+03  0.00000000000E+00 0. -1.
         25    1    1    2    0    0 -0.45282115348E+02 -0.17792699949E+03  0.67460765828E+03  0.71023163808E+03  0.12500000000E+03 0.  0.
         25    1    1    2    0    0  0.31136453157E+03  0.26719163059E+02  0.46760246672E+03  0.57614134731E+03  0.12500000000E+03 0.  0.
         25    1    1    2    0    0 -0.26608241622E+03  0.15120783643E+03  0.81775652791E+03  0.88205124622E+03  0.12500000000E+03 0.  0.
</event>
<event>
 5    0  0.5616733E-005  0.2595050E+03  0.7546771E-02  0.1107441E+00
         21   -1    0    0  502  501  0.00000000000E+00  0.00000000000E+00  0.70162375180E+03  0.70162375180E+03  0.00000000000E+00 0. -1.
         21   -1    0    0  501  502 -0.00000000000E+00 -0.00000000000E+00 -0.95981401598E+02  0.95981401598E+02  0.00000000000E+00 0. -1.
         25    1    1    2    0    0  0.62149253634E+01  0.34645370698E+02  0.67706492274E+00  0.12986294862E+03  0.12500000000E+03 0.  0.
         25    1    1    2    0    0 -0.27471429889E+01 -0.15199715033E+02  0.45196676764E+03  0.46918816820E+03  0.12500000000E+03 0.  0.
         25    1    1    2    0    0 -0.34677823745E+01 -0.19445655665E+02  0.15299851764E+03  0.19855403657E+03  0.12500000000E+03 0.  0.
</event>
<event>
 5    0  0.5616733E-005  0.3778247E+03  0.7546771E-02  0.1051741E+00
         21   -1    0    0  502  501  0.00000000000E+00  0.00000000000E+00  0.12193644016E+04  0.12193644016E+04  0.00000000000E+00 0.  1.
         21   -1    0    0  501  502 -0.00000000000E+00 -0.00000000000E+00 -0.11707042299E+03  0.11707042299E+03  0.00000000000E+00 0.  1.
         25    1    1    2    0    0  0.40460337325E+02 -0.12190947187E+02  0.45935049909E+03  0.47792629045E+03  0.12500000000E+03 0.  0.
         25    1    1    2    0    0 -0.11157375422E+03 -0.98293314772E+02  0.64860225551E+03  0.67706732621E+03  0.12500000000E+03 0.  0.
         25    1    1    2    0    0  0.71113416900E+02  0.11048426196E+03 -0.56587759656E+01  0.18144120797E+03  0.12500000000E+03 0.  0.
</event>
<event>
 5    0  0.5616733E-005  0.2772851E+03  0.7546771E-02  0.1097181E+00
         21   -1    0    0  502  501  0.00000000000E+00  0.00000000000E+00  0.23925738592E+03  0.23925738592E+03  0.00000000000E+00 0.  1.
         21   -1    0    0  501  502 -0.00000000000E+00 -0.00000000000E+00 -0.32135687309E+03  0.32135687309E+03  0.00000000000E+00 0.  1.
         25    1    1    2    0    0  0.48627490371E+02 -0.10943288015E+03 -0.66072637831E+01  0.17323060934E+03  0.12500000000E+03 0.  0.
         25    1    1    2    0    0 -0.68148649030E+02  0.36274699780E+02 -0.16108297263E+03  0.21802021989E+03  0.12500000000E+03 0.  0.
         25    1    1    2    0    0  0.19521158659E+02  0.73158180373E+02  0.85590749247E+02  0.16936342978E+03  0.12500000000E+03 0.  0.
</event>
<event>
 5    0  0.5616733E-005  0.4548838E+03  0.7546771E-02  0.1026276E+00
         21   -1    0    0  502  501  0.00000000000E+00  0.00000000000E+00  0.24623075339E+03  0.24623075339E+03  0.00000000000E+00 0.  1.
         21   -1    0    0  501  502 -0.00000000000E+00 -0.00000000000E+00 -0.84034695720E+03  0.84034695720E+03  0.00000000000E+00 0.  1.
         25    1    1    2    0    0  0.33586707505E+02  0.22825483416E+03 -0.77849071905E+02  0.27370388056E+03  0.12500000000E+03 0.  0.
         25    1    1    2    0    0  0.17535762812E+03 -0.17746568422E+03 -0.48852988316E+03  0.56261071227E+03  0.12500000000E+03 0.  0.
         25    1    1    2    0    0 -0.20894433562E+03 -0.50789149943E+02 -0.27737248744E+02  0.25026311776E+03  0.12500000000E+03 0.  0.
</event>
<event>
 5    0  0.5616733E-005  0.3113543E+03  0.7546771E-02  0.1079699E+00
         21   -1    0    0  502  501  0.00000000000E+00  0.00000000000E+00  0.44418166426E+03  0.44418166426E+03  0.00000000000E+00 0.  1.
         21   -1    0    0  501  502 -0.00000000000E+00 -0.00000000000E+00 -0.21824735951E+03  0.21824735951E+03  0.00000000000E+00 0.  1.
         25    1    1    2    0    0  0.78347082725E+02 -0.12899972489E+03 -0.94487217604E+02  0.21755925327E+03  0.12500000000E+03 0.  0.
         25    1    1    2    0    0 -0.28282738216E+02  0.11635145141E+03  0.17068620507E+03  0.24309741695E+03  0.12500000000E+03 0.  0.
         25    1    1    2    0    0 -0.50064344509E+02  0.12648273479E+02  0.14973531729E+03  0.20177235355E+03  0.12500000000E+03 0.  0.
</event>
<event>
 5    0  0.5616733E-005  0.3397583E+03  0.7546771E-02  0.1066899E+00
         21   -1    0    0  502  501  0.00000000000E+00  0.00000000000E+00  0.44226024212E+03  0.44226024212E+03  0.00000000000E+00 0.  1.
         21   -1    0    0  501  502 -0.00000000000E+00 -0.00000000000E+00 -0.26101309908E+03  0.26101309908E+03  0.00000000000E+00 0.  1.
         25    1    1    2    0    0  0.23682437300E+02 -0.18757849998E+03  0.80895168831E+02  0.24065655992E+03  0.12500000000E+03 0.  0.
         25    1    1    2    0    0  0.63901852967E+02  0.23501805433E+03  0.12491409113E+03  0.30090773143E+03  0.12500000000E+03 0.  0.
         25    1    1    2    0    0 -0.87584290266E+02 -0.47439554347E+02 -0.24562116920E+02  0.16170904986E+03  0.12500000000E+03 0.  0.
</event>
<event>
 5    0  0.5616733E-005  0.3046732E+03  0.7546771E-02  0.1082928E+00
         21   -1    0    0  502  501  0.00000000000E+00  0.00000000000E+00  0.58853034522E+02  0.58853034522E+02  0.00000000000E+00 0.  1.
         21   -1    0    0  501  502 -0.00000000000E+00 -0.00000000000E+00 -0.15772469949E+04  0.15772469949E+04  0.00000000000E+00 0.  1.
         25    1    1    2    0    0 -0.52268346017E+01  0.14560338770E+03 -0.52864009301E+03  0.56241711767E+03  0.12500000000E+03 0.  0.
         25    1    1    2    0    0  0.87631561147E+02  0.40738318499E+02 -0.24518127280E+03  0.29168091750E+03  0.12500000000E+03 0.  0.
         25    1    1    2    0    0 -0.82404726545E+02 -0.18634170620E+03 -0.74457259454E+03  0.78200199422E+03  0.12500000000E+03 0.  0.
</event>
<event>
 5    0  0.5616733E-005  0.2106230E+03  0.7546771E-02  0.1141074E+00
         21   -1    0    0  502  501  0.00000000000E+00  0.00000000000E+00  0.23635319702E+03  0.23635319702E+03  0.00000000000E+00 0.  1.
         21   -1    0    0  501  502 -0.00000000000E+00 -0.00000000000E+00 -0.18769384031E+03  0.18769384031E+03  0.00000000000E+00 0.  1.
         25    1    1    2    0    0 -0.41902919582E+02 -0.25278780603E+02 -0.17379119441E+02  0.13535843236E+03  0.12500000000E+03 0.  0.
         25    1    1    2    0    0 -0.14227210810E+02  0.11220659990E+02  0.81134750294E+02  0.15012049974E+03  0.12500000000E+03 0.  0.
         25    1    1    2    0    0  0.56130130392E+02  0.14058120614E+02 -0.15096274138E+02  0.13856810523E+03  0.12500000000E+03 0.  0.
</event>
<event>
 5    0  0.5616733E-005  0.2985258E+03  0.7546771E-02  0.1085980E+00
         21   -1    0    0  502  501  0.00000000000E+00  0.00000000000E+00  0.12875231075E+03  0.12875231075E+03  0.00000000000E+00 0. -1.
         21   -1    0    0  501  502 -0.00000000000E+00 -0.00000000000E+00 -0.69216367149E+03  0.69216367149E+03  0.00000000000E+00 0. -1.
         25    1    1    2    0    0 -0.66046057663E+02  0.30182925049E+02 -0.37655836139E+03  0.40335380280E+03  0.12500000000E+03 0.  0.
         25    1    1    2    0    0  0.10867015463E+02 -0.41999820725E+02  0.51975140676E+02  0.14215657640E+03  0.12500000000E+03 0.  0.
         25    1    1    2    0    0  0.55179042199E+02  0.11816895676E+02 -0.23882814002E+03  0.27540560305E+03  0.12500000000E+03 0.  0.
</event>
<event>
 5    0  0.5616733E-005  0.3486640E+03  0.7546771E-02  0.1063165E+00
         21   -1    0    0  502  501  0.00000000000E+00  0.00000000000E+00  0.14070853987E+04  0.14070853987E+04  0.00000000000E+00 0. -1.
         21   -1    0    0  501  502 -0.00000000000E+00 -0.00000000000E+00 -0.86396008846E+02  0.86396008846E+02  0.00000000000E+00 0. -1.
         25    1    1    2    0    0  0.23852573163E+02 -0.10253521494E+03  0.13767622036E+03  0.21368705436E+03  0.12500000000E+03 0.  0.
         25    1    1    2    0    0 -0.13514500432E+02  0.21964001477E+03  0.36614392038E+03  0.44509633591E+03  0.12500000000E+03 0.  0.
         25    1    1    2    0    0 -0.10338072731E+02 -0.11710479983E+03  0.81686924909E+03  0.83469801725E+03  0.12500000000E+03 0.  0.
</event>
<event>
 5    0  0.5616733E-005  0.4270594E+03  0.7546771E-02  0.1034793E+00
         21   -1    0    0  502  501  0.00000000000E+00  0.00000000000E+00  0.13504270440E+04  0.13504270440E+04  0.00000000000E+00 0.  1.
         21   -1    0    0  501  502 -0.00000000000E+00 -0.00000000000E+00 -0.13505339836E+03  0.13505339836E+03  0.00000000000E+00 0.  1.
         25    1    1    2    0    0 -0.92851266078E+02 -0.24303071685E+03  0.36821746023E+03  0.46786150191E+03  0.12500000000E+03 0.  0.
         25    1    1    2    0    0 -0.11121106391E+03 -0.56340654504E+02  0.21308873136E+03  0.27672003455E+03  0.12500000000E+03 0.  0.
         25    1    1    2    0    0  0.20406232999E+03  0.29937137135E+03  0.63406745402E+03  0.74089890589E+03  0.12500000000E+03 0.  0.
</event>
<event>
 5    0  0.5616733E-005  0.2877754E+03  0.7546771E-02  0.1091516E+00
         21   -1    0    0  502  501  0.00000000000E+00  0.00000000000E+00  0.79395941416E+03  0.79395941416E+03  0.00000000000E+00 0. -1.
         21   -1    0    0  501  502 -0.00000000000E+00 -0.00000000000E+00 -0.10430591618E+03  0.10430591618E+03  0.00000000000E+00 0. -1.
         25    1    1    2    0    0 -0.14674274871E+03 -0.27794350112E+02  0.27478335372E+03  0.33680387717E+03  0.12500000000E+03 0.  0.
         25    1    1    2    0    0  0.16515083962E+03  0.89143593763E+02  0.32191048795E+03  0.39303020544E+03  0.12500000000E+03 0.  0.
         25    1    1    2    0    0 -0.18408090906E+02 -0.61349243651E+02  0.92959656306E+02  0.16843124772E+03  0.12500000000E+03 0.  0.
</event>
<event>
 5    0  0.5616733E-005  0.2811609E+03  0.7546771E-02  0.1095057E+00
         21   -1    0    0  502  501  0.00000000000E+00  0.00000000000E+00  0.49192546453E+02  0.49192546453E+02  0.00000000000E+00 0. -1.
         21   -1    0    0  501  502 -0.00000000000E+00 -0.00000000000E+00 -0.16069800597E+04  0.16069800597E+04  0.00000000000E+00 0. -1.
         25    1    1    2    0    0  0.13255539369E+03  0.43843743732E+02 -0.46925076191E+03  0.50528653635E+03  0.12500000000E+03 0.  0.
         25    1    1    2    0    0 -0.10152331936E+03 -0.86895268793E+01 -0.92883531389E+03  0.94273142123E+03  0.12500000000E+03 0.  0.
         25    1    1    2    0    0 -0.31032074329E+02 -0.35154216853E+02 -0.15970143745E+03  0.20815464857E+03  0.12500000000E+03 0.  0.
</event>
<event>
 5    0  0.5616733E-005  0.2984724E+03  0.7546771E-02  0.1086007E+00
         21   -1    0    0  502  501  0.00000000000E+00  0.00000000000E+00  0.12831557595E+04  0.12831557595E+04  0.00000000000E+00 0.  1.
         21   -1    0    0  501  502 -0.00000000000E+00 -0.00000000000E+00 -0.69427080902E+02  0.69427080902E+02  0.00000000000E+00 0.  1.
         25    1    1    2    0    0 -0.75999254447E+02  0.83439907052E+02  0.26857802458E+03  0.31701302821E+03  0.12500000000E+03 0.  0.
         25    1    1    2    0    0  0.93412940885E+02  0.10345502340E+03  0.54477131851E+03  0.57604662039E+03  0.12500000000E+03 0.  0.
         25    1    1    2    0    0 -0.17413686437E+02 -0.18689493045E+03  0.40037933550E+03  0.45952319180E+03  0.12500000000E+03 0.  0.
</event>
<event>
 5    0  0.5616733E-005  0.3353288E+03  0.7546771E-02  0.1068803E+00
         21   -1    0    0  502  501  0.00000000000E+00  0.00000000000E+00  0.13593552444E+04  0.13593552444E+04  0.00000000000E+00 0.  1.
         21   -1    0    0  501  502 -0.00000000000E+00 -0.00000000000E+00 -0.82719660859E+02  0.82719660859E+02  0.00000000000E+00 0.  1.
         25    1    1    2    0    0 -0.13992106049E+03 -0.41504457519E+02  0.26960096417E+03  0.33107431649E+03  0.12500000000E+03 0.  0.
         25    1    1    2    0    0  0.19809831710E+03 -0.94676641524E+02  0.73336692413E+03  0.77566658758E+03  0.12500000000E+03 0.  0.
         25    1    1    2    0    0 -0.58177256611E+02  0.13618109904E+03  0.27366769521E+03  0.33533400115E+03  0.12500000000E+03 0.  0.
</event>
<event>
 5    0  0.5616733E-005  0.3085535E+03  0.7546771E-02  0.1081041E+00
         21   -1    0    0  502  501  0.00000000000E+00  0.00000000000E+00  0.10741982844E+03  0.10741982844E+03  0.00000000000E+00 0.  1.
         21   -1    0    0  501  502 -0.00000000000E+00 -0.00000000000E+00 -0.88629140321E+03  0.88629140321E+03  0.00000000000E+00 0.  1.
         25    1    1    2    0    0 -0.83674976098E+02 -0.14381999483E+03 -0.46262542816E+03  0.50727998119E+03  0.12500000000E+03 0.  0.
         25    1    1    2    0    0 -0.47559877789E+00  0.12463651010E+03 -0.27879708041E+03  0.32998075382E+03  0.12500000000E+03 0.  0.
         25    1    1    2    0    0  0.84150574876E+02  0.19183484726E+02 -0.37449066200E+02  0.15645049664E+03  0.12500000000E+03 0.  0.
</event>
<event>
 5    0  0.5616733E-005  0.5730164E+03  0.7546771E-02  0.9963026E-01
         21   -1    0    0  502  501  0.00000000000E+00  0.00000000000E+00  0.48265717885E+03  0.48265717885E+03  0.00000000000E+00 0. -1.
         21   -1    0    0  501  502 -0.00000000000E+00 -0.00000000000E+00 -0.68029203302E+03  0.68029203302E+03  0.00000000000E+00 0. -1.
         25    1    1    2    0    0  0.10015872593E+03  0.86773038311E+01 -0.13169369362E+03  0.20754588630E+03  0.12500000000E+03 0.  0.
         25    1    1    2    0    0 -0.15106342228E+03  0.27982133844E+03  0.31092299462E+03  0.46197212858E+03  0.12500000000E+03 0.  0.
         25    1    1    2    0    0  0.50904696353E+02 -0.28849864227E+03 -0.37686415517E+03  0.49343119698E+03  0.12500000000E+03 0.  0.
</event>
<event>
 5    0  0.5616733E-005  0.3952865E+03  0.7546771E-02  0.1045424E+00
         21   -1    0    0  502  501  0.00000000000E+00  0.00000000000E+00  0.23731919265E+04  0.23731919265E+04  0.00000000000E+00 0. -1.
         21   -1    0    0  501  502 -0.00000000000E+00 -0.00000000000E+00 -0.65840194618E+02  0.65840194618E+02  0.00000000000E+00 0. -1.
         25    1    1    2    0    0  0.28548184305E+03 -0.11169199314E+03  0.95623686449E+03  0.10119233790E+04  0.12500000000E+03 0.  0.
         25    1    1    2    0    0 -0.21111564342E+03 -0.37580365959E+02  0.81291506888E+03  0.84996353334E+03  0.12500000000E+03 0.  0.
         25    1    1    2    0    0 -0.74366199630E+02  0.14927235910E+03  0.53819979849E+03  0.57714520871E+03  0.12500000000E+03 0.  0.
</event>
<event>
 5    0  0.5616733E-005  0.2283568E+03  0.7546771E-02  0.1127802E+00
         21   -1    0    0  502  501  0.00000000000E+00  0.00000000000E+00  0.12381851332E+03  0.12381851332E+03  0.00000000000E+00 0. -1.
         21   -1    0    0  501  502 -0.00000000000E+00 -0.00000000000E+00 -0.42115521377E+03  0.42115521377E+03  0.00000000000E+00 0. -1.
         25    1    1    2    0    0 -0.64385936425E+02 -0.65415919465E+02 -0.72744855549E+02  0.17129391506E+03  0.12500000000E+03 0.  0.
         25    1    1    2    0    0  0.18968441363E+02  0.57866749370E+02 -0.19108787794E+03  0.23632168657E+03  0.12500000000E+03 0.  0.
         25    1    1    2    0    0  0.45417495062E+02  0.75491700958E+01 -0.33503966965E+02  0.13735812546E+03  0.12500000000E+03 0.  0.
</event>
<event>
 5    0  0.5616733E-005  0.3458148E+03  0.7546771E-02  0.1064346E+00
         21   -1    0    0  502  501  0.00000000000E+00  0.00000000000E+00  0.11040531728E+04  0.11040531728E+04  0.00000000000E+00 0. -1.
         21   -1    0    0  501  502 -0.00000000000E+00 -0.00000000000E+00 -0.10831712681E+03  0.10831712681E+03  0.00000000000E+00 0. -1.
         25    1    1    2    0    0 -0.60278483861E+02  0.10246315466E+03  0.18724470945E+03  0.25459335203E+03  0.12500000000E+03 0.  0.
         25    1    1    2    0    0 -0.95512527583E+02 -0.16125137077E+03  0.15902301569E+03  0.27574982687E+03  0.12500000000E+03 0.  0.
         25    1    1    2    0    0  0.15579101144E+03  0.58788216106E+02  0.64946832087E+03  0.68202712073E+03  0.12500000000E+03 0.  0.
</event>
<event>
 5    0  0.5662172E-005  0.3452791E+03  0.7546771E-02  0.1064570E+00
         21   -1    0    0  502  501  0.00000000000E+00  0.00000000000E+00  0.41896661358E+03  0.41896661358E+03  0.00000000000E+00 0. -1.
         21   -1    0    0  501  502 -0.00000000000E+00 -0.00000000000E+00 -0.28455175641E+03  0.28455175641E+03  0.00000000000E+00 0. -1.
         25    1    1    2    0    0 -0.34109253507E+02 -0.16101968976E+03  0.24863469132E+03  0.32331871488E+03  0.12500000000E+03 0.  0.
         25    1    1    2    0    0  0.10038589942E+03  0.10331812298E+03 -0.22027418903E+01  0.19074017776E+03  0.12500000000E+03 0.  0.
         25    1    1    2    0    0 -0.66276645913E+02  0.57701566777E+02 -0.11201709226E+03  0.18945947736E+03  0.12500000000E+03 0.  0.
</event>
<event>
 5    0  0.5616733E-005  0.2769450E+03  0.7546771E-02  0.1097369E+00
         21   -1    0    0  502  501  0.00000000000E+00  0.00000000000E+00  0.68511779579E+02  0.68511779579E+02  0.00000000000E+00 0. -1.
         21   -1    0    0  501  502 -0.00000000000E+00 -0.00000000000E+00 -0.11194939831E+04  0.11194939831E+04  0.00000000000E+00 0. -1.
         25    1    1    2    0    0 -0.10800621924E+03 -0.34853827822E+02 -0.11180642180E+03  0.20249891028E+03  0.12500000000E+03 0.  0.
         25    1    1    2    0    0  0.12289371060E+02  0.38538647821E+02 -0.30544936669E+03  0.33250649863E+03  0.12500000000E+03 0.  0.
         25    1    1    2    0    0  0.95716848176E+02 -0.36848199990E+01 -0.63372641500E+03  0.65300035374E+03  0.12500000000E+03 0.  0.
</event>
<event>
 5    0  0.5616733E-005  0.3505146E+03  0.7546771E-02  0.1062404E+00
         21   -1    0    0  502  501  0.00000000000E+00  0.00000000000E+00  0.58270461573E+03  0.58270461573E+03  0.00000000000E+00 0.  1.
         21   -1    0    0  501  502 -0.00000000000E+00 -0.00000000000E+00 -0.21084517055E+03  0.21084517055E+03  0.00000000000E+00 0.  1.
         25    1    1    2    0    0  0.10289797509E+03  0.14208770971E+03 -0.76352020105E+02  0.22854220946E+03  0.12500000000E+03 0.  0.
         25    1    1    2    0    0 -0.26814174093E+02  0.14785126600E+02  0.14989438080E+03  0.19756245923E+03  0.12500000000E+03 0.  0.
         25    1    1    2    0    0 -0.76083801001E+02 -0.15687283631E+03  0.29831708449E+03  0.36744511760E+03  0.12500000000E+03 0.  0.
</event>
<event>
 5    0  0.5616733E-005  0.4062480E+03  0.7546771E-02  0.1041637E+00
         21   -1    0    0  502  501  0.00000000000E+00  0.00000000000E+00  0.15299258383E+03  0.15299258383E+03  0.00000000000E+00 0.  1.
         21   -1    0    0  501  502 -0.00000000000E+00 -0.00000000000E+00 -0.10787282578E+04  0.10787282578E+04  0.00000000000E+00 0.  1.
         25    1    1    2    0    0 -0.56071029724E+02  0.16099645695E+03 -0.23720993635E+03  0.31773790052E+03  0.12500000000E+03 0.  0.
         25    1    1    2    0    0  0.19593748636E+03  0.94865168874E+02 -0.45637373083E+03  0.52085783187E+03  0.12500000000E+03 0.  0.
         25    1    1    2    0    0 -0.13986645664E+03 -0.25586162582E+03 -0.23215200681E+03  0.39312510925E+03  0.12500000000E+03 0.  0.
</event>
<event>
 5    0  0.5616733E-005  0.3305837E+03  0.7546771E-02  0.1070879E+00
         21   -1    0    0  502  501  0.00000000000E+00  0.00000000000E+00  0.12755195312E+04  0.12755195312E+04  0.00000000000E+00 0.  1.
         21   -1    0    0  501  502 -0.00000000000E+00 -0.00000000000E+00 -0.85679256241E+02  0.85679256241E+02  0.00000000000E+00 0.  1.
         25    1    1    2    0    0 -0.91906414642E+02 -0.14012774026E+03  0.47092033443E+03  0.51524123867E+03  0.12500000000E+03 0.  0.
         25    1    1    2    0    0 -0.99645508034E+02 -0.63829785160E+01  0.37504640067E+03  0.40774351293E+03  0.12500000000E+03 0.  0.
         25    1    1    2    0    0  0.19155192268E+03  0.14651071877E+03  0.34387353988E+03  0.43821403586E+03  0.12500000000E+03 0.  0.
</event>
<event>
 5    0  0.5616733E-005  0.3678226E+03  0.7546771E-02  0.1055529E+00
         21   -1    0    0  502  501  0.00000000000E+00  0.00000000000E+00  0.60926862569E+02  0.60926862569E+02  0.00000000000E+00 0. -1.
         21   -1    0    0  501  502 -0.00000000000E+00 -0.00000000000E+00 -0.22205875715E+04  0.22205875715E+04  0.00000000000E+00 0. -1.
         25    1    1    2    0    0  0.10836835877E+03  0.62088370743E+02 -0.35969144290E+03  0.40075129577E+03  0.12500000000E+03 0.  0.
         25    1    1    2    0    0  0.10398558605E+03  0.12140339693E+03 -0.41279672770E+03  0.45997600513E+03  0.12500000000E+03 0.  0.
         25    1    1    2    0    0 -0.21235394482E+03 -0.18349176768E+03 -0.13871725383E+04  0.14207871331E+04  0.12500000000E+03 0.  0.
</event>
<event>
 5    0  0.5616733E-005  0.2535489E+03  0.7546771E-02  0.1111082E+00
         21   -1    0    0  502  501  0.00000000000E+00  0.00000000000E+00  0.34962774826E+03  0.34962774826E+03  0.00000000000E+00 0.  1.
         21   -1    0    0  501  502 -0.00000000000E+00 -0.00000000000E+00 -0.18387281661E+03  0.18387281661E+03  0.00000000000E+00 0.  1.
         25    1    1    2    0    0 -0.25135324026E+02  0.76980391435E+02 -0.70453239185E+02  0.16476171913E+03  0.12500000000E+03 0.  0.
         25    1    1    2    0    0  0.22847903232E+02 -0.66515333170E+02  0.18288682201E+03  0.23241967622E+03  0.12500000000E+03 0.  0.
         25    1    1    2    0    0  0.22874207948E+01 -0.10465058265E+02  0.53321348830E+02  0.13631916952E+03  0.12500000000E+03 0.  0.
</event>
<event>
 5    0  0.6007427E-005  0.3442187E+03  0.7546771E-02  0.1065013E+00
         21   -1    0    0  502  501  0.00000000000E+00  0.00000000000E+00  0.27621671473E+03  0.27621671473E+03  0.00000000000E+00 0.  1.
         21   -1    0    0  501  502 -0.00000000000E+00 -0.00000000000E+00 -0.42896213738E+03  0.42896213738E+03  0.00000000000E+00 0.  1.
         25    1    1    2    0    0  0.17843795778E+03  0.27828094437E+02  0.11401807081E+03  0.24746641810E+03  0.12500000000E+03 0.  0.
         25    1    1    2    0    0 -0.15832355529E+03 -0.83803234973E+02 -0.97931082578E+02  0.23938426700E+03  0.12500000000E+03 0.  0.
         25    1    1    2    0    0 -0.20114402493E+02  0.55975140536E+02 -0.16883241088E+03  0.21832816701E+03  0.12500000000E+03 0.  0.
</event>
<event>
 5    0  0.5616733E-005  0.2119016E+03  0.7546771E-02  0.1140069E+00
         21   -1    0    0  502  501  0.00000000000E+00  0.00000000000E+00  0.18540238933E+04  0.18540238933E+04  0.00000000000E+00 0.  1.
         21   -1    0    0  501  502 -0.00000000000E+00 -0.00000000000E+00 -0.24218838238E+02  0.24218838238E+02  0.00000000000E+00 0.  1.
         25    1    1    2    0    0  0.56096757271E+02  0.26289576439E+02  0.59608925011E+03  0.61219717583E+03  0.12500000000E+03 0.  0.
         25    1    1    2    0    0 -0.50421324211E+02  0.38862373054E+02  0.52447231428E+03  0.54290772920E+03  0.12500000000E+03 0.  0.
         25    1    1    2    0    0 -0.56754330597E+01 -0.65151949493E+02  0.70924349069E+03  0.72313782652E+03  0.12500000000E+03 0.  0.
</event>
<event>
 5    0  0.7752198E-005  0.3390461E+03  0.7546771E-02  0.1067203E+00
         21   -1    0    0  502  501  0.00000000000E+00  0.00000000000E+00  0.28016206970E+03  0.28016206970E+03  0.00000000000E+00 0. -1.
         21   -1    0    0  501  502 -0.00000000000E+00 -0.00000000000E+00 -0.41030623895E+03  0.41030623895E+03  0.00000000000E+00 0. -1.
         25    1    1    2    0    0 -0.13187728645E+01 -0.84641789680E+02 -0.20437559882E+03  0.25408730215E+03  0.12500000000E+03 0.  0.
         25    1    1    2    0    0 -0.36968722146E+02  0.16248967302E+03 -0.76775531387E+02  0.22201140168E+03  0.12500000000E+03 0.  0.
         25    1    1    2    0    0  0.38287495011E+02 -0.77847883342E+02  0.15100696096E+03  0.21436960482E+03  0.12500000000E+03 0.  0.
</event>
<event>
 5    0  0.5616733E-005  0.2360941E+03  0.7546771E-02  0.1122422E+00
         21   -1    0    0  502  501  0.00000000000E+00  0.00000000000E+00  0.25015588345E+03  0.25015588345E+03  0.00000000000E+00 0. -1.
         21   -1    0    0  501  502 -0.00000000000E+00 -0.00000000000E+00 -0.22282278775E+03  0.22282278775E+03  0.00000000000E+00 0. -1.
         25    1    1    2    0    0 -0.23137483129E+02 -0.79798810230E+02 -0.36560993517E+02  0.15448268345E+03  0.12500000000E+03 0.  0.
         25    1    1    2    0    0 -0.63624778580E+02  0.11310492846E+02  0.26274207443E+01  0.14074069432E+03  0.12500000000E+03 0.  0.
         25    1    1    2    0    0  0.86762261709E+02  0.68488317383E+02  0.61266668477E+02  0.17775529343E+03  0.12500000000E+03 0.  0.
</event>
<event>
 5    0  0.5616733E-005  0.2934773E+03  0.7546771E-02  0.1088547E+00
         21   -1    0    0  502  501  0.00000000000E+00  0.00000000000E+00  0.18824601043E+03  0.18824601043E+03  0.00000000000E+00 0.  1.
         21   -1    0    0  501  502 -0.00000000000E+00 -0.00000000000E+00 -0.45753378165E+03  0.45753378165E+03  0.00000000000E+00 0.  1.
         25    1    1    2    0    0 -0.10814569243E+03 -0.83132886090E+02 -0.11714153340E+02  0.18538821141E+03  0.12500000000E+03 0.  0.
         25    1    1    2    0    0  0.72529953060E+02  0.11068362846E+03 -0.13544064399E+02  0.18253739721E+03  0.12500000000E+03 0.  0.
         25    1    1    2    0    0  0.35615739366E+02 -0.27550742375E+02 -0.24402955348E+03  0.27785418346E+03  0.12500000000E+03 0.  0.
</event>
<event>
 5    0  0.5616733E-005  0.2249509E+03  0.7546771E-02  0.1130245E+00
         21   -1    0    0  502  501  0.00000000000E+00  0.00000000000E+00  0.12047410427E+03  0.12047410427E+03  0.00000000000E+00 0.  1.
         21   -1    0    0  501  502 -0.00000000000E+00 -0.00000000000E+00 -0.42003126628E+03  0.42003126628E+03  0.00000000000E+00 0.  1.
         25    1    1    2    0    0  0.10183644827E+03 -0.26587970249E+02 -0.95075961391E+02  0.18905560238E+03  0.12500000000E+03 0.  0.
         25    1    1    2    0    0 -0.82559675756E+02  0.45628747257E+02 -0.95556951556E+02  0.18345084799E+03  0.12500000000E+03 0.  0.
         25    1    1    2    0    0 -0.19276772511E+02 -0.19040777008E+02 -0.10892424907E+03  0.16799892018E+03  0.12500000000E+03 0.  0.
</event>
<event>
 5    0  0.5616733E-005  0.2285826E+03  0.7546771E-02  0.1127641E+00
         21   -1    0    0  502  501  0.00000000000E+00  0.00000000000E+00  0.58663742008E+03  0.58663742008E+03  0.00000000000E+00 0. -1.
         21   -1    0    0  501  502 -0.00000000000E+00 -0.00000000000E+00 -0.89066981532E+02  0.89066981532E+02  0.00000000000E+00 0. -1.
         25    1    1    2    0    0 -0.68622990916E+02 -0.13643792252E+02  0.88749561033E+02  0.16851336010E+03  0.12500000000E+03 0.  0.
         25    1    1    2    0    0 -0.21161016774E+02  0.37142823107E+02  0.26088884878E+03  0.29243011021E+03  0.12500000000E+03 0.  0.
         25    1    1    2    0    0  0.89784007690E+02 -0.23499030855E+02  0.14793202874E+03  0.21476093130E+03  0.12500000000E+03 0.  0.
</event>
<event>
 5    0  0.6324621E-005  0.3170093E+03  0.7546771E-02  0.1077034E+00
         21   -1    0    0  502  501  0.00000000000E+00  0.00000000000E+00  0.42680523323E+03  0.42680523323E+03  0.00000000000E+00 0. -1.
         21   -1    0    0  501  502 -0.00000000000E+00 -0.00000000000E+00 -0.23545845358E+03  0.23545845358E+03  0.00000000000E+00 0. -1.
         25    1    1    2    0    0  0.60757609422E+01  0.30190285684E+00  0.33175092252E+03  0.35457112207E+03  0.12500000000E+03 0.  0.
         25    1    1    2    0    0 -0.43060199021E+02 -0.38799113888E+02 -0.66868949586E+02  0.15315354517E+03  0.12500000000E+03 0.  0.
         25    1    1    2    0    0  0.36984438079E+02  0.38497211031E+02 -0.73535193279E+02  0.15453901956E+03  0.12500000000E+03 0.  0.
</event>
<event>
 5    0  0.5616733E-005  0.5769315E+03  0.7546771E-02  0.9954456E-01
         21   -1    0    0  502  501  0.00000000000E+00  0.00000000000E+00  0.30231327154E+03  0.30231327154E+03  0.00000000000E+00 0.  1.
         21   -1    0    0  501  502 -0.00000000000E+00 -0.00000000000E+00 -0.11010101825E+04  0.11010101825E+04  0.00000000000E+00 0.  1.
         25    1    1    2    0    0  0.15060843908E+03 -0.22153208579E+03 -0.83079816116E+03  0.88182195002E+03  0.12500000000E+03 0.  0.
         25    1    1    2    0    0 -0.12837308107E+03  0.37250650945E+02 -0.14710844289E+03  0.23480449934E+03  0.12500000000E+03 0.  0.
         25    1    1    2    0    0 -0.22235358011E+02  0.18428143484E+03  0.17920969311E+03  0.28669700466E+03  0.12500000000E+03 0.  0.
</event>
<event>
 5    0  0.5616733E-005  0.2834675E+03  0.7546771E-02  0.1093810E+00
         21   -1    0    0  502  501  0.00000000000E+00  0.00000000000E+00  0.75802218408E+02  0.75802218408E+02  0.00000000000E+00 0. -1.
         21   -1    0    0  501  502 -0.00000000000E+00 -0.00000000000E+00 -0.10600458634E+04  0.10600458634E+04  0.00000000000E+00 0. -1.
         25    1    1    2    0    0 -0.10363513946E+03  0.78625279852E+01 -0.35254011133E+03  0.38821590845E+03  0.12500000000E+03 0.  0.
         25    1    1    2    0    0  0.19923366130E+02 -0.11096016433E+03 -0.12663159329E+03  0.21064106676E+03  0.12500000000E+03 0.  0.
         25    1    1    2    0    0  0.83711773328E+02  0.10309763635E+03 -0.50507194038E+03  0.53699110661E+03  0.12500000000E+03 0.  0.
</event>
<event>
 5    0  0.5616733E-005  0.3430508E+03  0.7546771E-02  0.1065504E+00
         21   -1    0    0  502  501  0.00000000000E+00  0.00000000000E+00  0.97527988252E+03  0.97527988252E+03  0.00000000000E+00 0.  1.
         21   -1    0    0  501  502 -0.00000000000E+00 -0.00000000000E+00 -0.12066671382E+03  0.12066671382E+03  0.00000000000E+00 0.  1.
         25    1    1    2    0    0  0.11075855005E+03  0.51965988879E+02  0.41226417874E+03  0.44783330993E+03  0.12500000000E+03 0.  0.
         25    1    1    2    0    0  0.90940285586E+02 -0.11972609246E+03  0.31414241966E+03  0.37002017862E+03  0.12500000000E+03 0.  0.
         25    1    1    2    0    0 -0.20169883564E+03  0.67760103579E+02  0.12820657030E+03  0.27809310779E+03  0.12500000000E+03 0.  0.
</event>
<event>
 5    0  0.5616733E-005  0.3924054E+03  0.7546771E-02  0.1046442E+00
         21   -1    0    0  502  501  0.00000000000E+00  0.00000000000E+00  0.14387692629E+03  0.14387692629E+03  0.00000000000E+00 0.  1.
         21   -1    0    0  501  502 -0.00000000000E+00 -0.00000000000E+00 -0.10702340293E+04  0.10702340293E+04  0.00000000000E+00 0.  1.
         25    1    1    2    0    0  0.65439633963E+02 -0.26303316938E+03 -0.24379655992E+03  0.38539662234E+03  0.12500000000E+03 0.  0.
         25    1    1    2    0    0  0.12904567002E+02  0.29346619762E+03 -0.47201797992E+03  0.56983761754E+03  0.12500000000E+03 0.  0.
         25    1    1    2    0    0 -0.78344200965E+02 -0.30433028243E+02 -0.21054256319E+03  0.25887671573E+03  0.12500000000E+03 0.  0.
</event>
<event>
 5    0  0.5616733E-005  0.2432993E+03  0.7546771E-02  0.1117614E+00
         21   -1    0    0  502  501  0.00000000000E+00  0.00000000000E+00  0.25600974334E+03  0.25600974334E+03  0.00000000000E+00 0. -1.
         21   -1    0    0  501  502 -0.00000000000E+00 -0.00000000000E+00 -0.23121990709E+03  0.23121990709E+03  0.00000000000E+00 0. -1.
         25    1    1    2    0    0  0.10695013870E+03 -0.27226114457E+02  0.35740480938E+02  0.17053438203E+03  0.12500000000E+03 0.  0.
         25    1    1    2    0    0 -0.11995535330E+02 -0.14000779924E+02  0.59626185453E+02  0.13971469750E+03  0.12500000000E+03 0.  0.
         25    1    1    2    0    0 -0.94954603369E+02  0.41226894380E+02 -0.70576830139E+02  0.17698057089E+03  0.12500000000E+03 0.  0.
</event>
<event>
 5    0  0.7030156E-005  0.3442161E+03  0.7546771E-02  0.1065014E+00
         21   -1    0    0  502  501  0.00000000000E+00  0.00000000000E+00  0.33073639407E+03  0.33073639407E+03  0.00000000000E+00 0.  1.
         21   -1    0    0  501  502 -0.00000000000E+00 -0.00000000000E+00 -0.35824513464E+03  0.35824513464E+03  0.00000000000E+00 0.  1.
         25    1    1    2    0    0 -0.16213867263E+03  0.44629510784E+02  0.89586695960E+02  0.22788487990E+03  0.12500000000E+03 0.  0.
         25    1    1    2    0    0 -0.43344025272E+02  0.54320943232E+02 -0.13984525670E+03  0.20002791111E+03  0.12500000000E+03 0.  0.
         25    1    1    2    0    0  0.20548269790E+03 -0.98950454015E+02  0.22749820163E+02  0.26106873770E+03  0.12500000000E+03 0.  0.
</event>
<event>
 5    0  0.5616733E-005  0.4567006E+03  0.7546771E-02  0.1025742E+00
         21   -1    0    0  502  501  0.00000000000E+00  0.00000000000E+00  0.69011850934E+03  0.69011850934E+03  0.00000000000E+00 0.  1.
         21   -1    0    0  501  502 -0.00000000000E+00 -0.00000000000E+00 -0.30223134809E+03  0.30223134809E+03  0.00000000000E+00 0.  1.
         25    1    1    2    0    0 -0.20803248983E+03  0.45559106908E+02  0.35446983533E+03  0.43200348749E+03  0.12500000000E+03 0.  0.
         25    1    1    2    0    0  0.29162040163E+03 -0.13114843449E+03 -0.81215479454E+02  0.35279360059E+03  0.12500000000E+03 0.  0.
         25    1    1    2    0    0 -0.83587911804E+02  0.85589327586E+02  0.11463280538E+03  0.20755276935E+03  0.12500000000E+03 0.  0.
</event>
<event>
 5    0  0.5616733E-005  0.3260622E+03  0.7546771E-02  0.1072893E+00
         21   -1    0    0  502  501  0.00000000000E+00  0.00000000000E+00  0.16111418960E+04  0.16111418960E+04  0.00000000000E+00 0.  1.
         21   -1    0    0  501  502 -0.00000000000E+00 -0.00000000000E+00 -0.65988336124E+02  0.65988336124E+02  0.00000000000E+00 0.  1.
         25    1    1    2    0    0 -0.11860621071E+01 -0.18622539363E+02  0.76672105471E+03  0.77706781008E+03  0.12500000000E+03 0.  0.
         25    1    1    2    0    0 -0.14021521100E+03  0.42754055189E+02  0.62984956556E+03  0.65865293582E+03  0.12500000000E+03 0.  0.
         25    1    1    2    0    0  0.14140127310E+03 -0.24131515825E+02  0.14858293956E+03  0.24140948618E+03  0.12500000000E+03 0.  0.
</event>
<event>
 5    0  0.5616733E-005  0.4062573E+03  0.7546771E-02  0.1041634E+00
         21   -1    0    0  502  501  0.00000000000E+00  0.00000000000E+00  0.69235467638E+02  0.69235467638E+02  0.00000000000E+00 0.  1.
         21   -1    0    0  501  502 -0.00000000000E+00 -0.00000000000E+00 -0.23838218907E+04  0.23838218907E+04  0.00000000000E+00 0.  1.
         25    1    1    2    0    0  0.15508723318E+03 -0.68486053815E+02 -0.27867994934E+03  0.34932778823E+03  0.12500000000E+03 0.  0.
         25    1    1    2    0    0 -0.13262834097E+03 -0.12965723812E+03 -0.47316621336E+03  0.52336654621E+03  0.12500000000E+03 0.  0.
         25    1    1    2    0    0 -0.22458892209E+02  0.19814329193E+03 -0.15627402603E+04  0.15803630239E+04  0.12500000000E+03 0.  0.
</event>
<event>
 5    0  0.5616733E-005  0.4053081E+03  0.7546771E-02  0.1041957E+00
         21   -1    0    0  502  501  0.00000000000E+00  0.00000000000E+00  0.13317256953E+04  0.13317256953E+04  0.00000000000E+00 0. -1.
         21   -1    0    0  501  502 -0.00000000000E+00 -0.00000000000E+00 -0.12335473249E+03  0.12335473249E+03  0.00000000000E+00 0. -1.
         25    1    1    2    0    0  0.15177053677E+02 -0.57517809252E+01  0.16423256085E+03  0.20702840381E+03  0.12500000000E+03 0.  0.
         25    1    1    2    0    0  0.27020507208E+02  0.29505396767E+03  0.30408485450E+03  0.44258281754E+03  0.12500000000E+03 0.  0.
         25    1    1    2    0    0 -0.42197560885E+02 -0.28930218674E+03  0.74005354745E+03  0.80546920642E+03  0.12500000000E+03 0.  0.
</event>
<event>
 5    0  0.5616733E-005  0.3460881E+03  0.7546771E-02  0.1064232E+00
         21   -1    0    0  502  501  0.00000000000E+00  0.00000000000E+00  0.52723786364E+03  0.52723786364E+03  0.00000000000E+00 0.  1.
         21   -1    0    0  501  502 -0.00000000000E+00 -0.00000000000E+00 -0.22717829984E+03  0.22717829984E+03  0.00000000000E+00 0.  1.
         25    1    1    2    0    0  0.41370312848E+02 -0.12355784026E+03 -0.29371531056E+02  0.18293640838E+03  0.12500000000E+03 0.  0.
         25    1    1    2    0    0 -0.60012437482E+01  0.22301673320E+03  0.31715235322E+03  0.40741022737E+03  0.12500000000E+03 0.  0.
         25    1    1    2    0    0 -0.35369069100E+02 -0.99458892938E+02  0.12278741631E+02  0.16406952773E+03  0.12500000000E+03 0.  0.
</event>
<event>
 5    0  0.5616733E-005  0.2745625E+03  0.7546771E-02  0.1098696E+00
         21   -1    0    0  502  501  0.00000000000E+00  0.00000000000E+00  0.19144662367E+04  0.19144662367E+04  0.00000000000E+00 0. -1.
         21   -1    0    0  501  502 -0.00000000000E+00 -0.00000000000E+00 -0.39376275908E+02  0.39376275908E+02  0.00000000000E+00 0. -1.
         25    1    1    2    0    0  0.56987400386E+02 -0.79294663211E+02  0.71237854865E+03  0.72982422815E+03  0.12500000000E+03 0.  0.
         25    1    1    2    0    0 -0.11819869064E+03  0.60547383396E+02  0.30880211452E+03  0.35863722902E+03  0.12500000000E+03 0.  0.
         25    1    1    2    0    0  0.61211290254E+02  0.18747279815E+02  0.85390929766E+03  0.86538105548E+03  0.12500000000E+03 0.  0.
</event>
<event>
 5    0  0.5616733E-005  0.4123542E+03  0.7546771E-02  0.1039584E+00
         21   -1    0    0  502  501  0.00000000000E+00  0.00000000000E+00  0.66803080175E+03  0.66803080175E+03  0.00000000000E+00 0.  1.
         21   -1    0    0  501  502 -0.00000000000E+00 -0.00000000000E+00 -0.25453316955E+03  0.25453316955E+03  0.00000000000E+00 0.  1.
         25    1    1    2    0    0 -0.19057575237E+01  0.12215583208E+03  0.17893940030E+03  0.25013993724E+03  0.12500000000E+03 0.  0.
         25    1    1    2    0    0  0.17903576614E+03  0.15285529520E+03  0.33538306424E+02  0.26864170344E+03  0.12500000000E+03 0.  0.
         25    1    1    2    0    0 -0.17713000862E+03 -0.27501112729E+03  0.20101992548E+03  0.40378233062E+03  0.12500000000E+03 0.  0.
</event>
<event>
 5    0  0.5616733E-005  0.2337230E+03  0.7546771E-02  0.1124046E+00
         21   -1    0    0  502  501  0.00000000000E+00  0.00000000000E+00  0.23149819034E+03  0.23149819034E+03  0.00000000000E+00 0.  1.
         21   -1    0    0  501  502 -0.00000000000E+00 -0.00000000000E+00 -0.23596916387E+03  0.23596916387E+03  0.00000000000E+00 0.  1.
         25    1    1    2    0    0  0.92371069964E+02  0.16170776574E+02  0.60320418167E+02  0.16750361617E+03  0.12500000000E+03 0.  0.
         25    1    1    2    0    0 -0.58874697228E+02 -0.13144154667E+02  0.26842957133E+02  0.14136669736E+03  0.12500000000E+03 0.  0.
         25    1    1    2    0    0 -0.33496372736E+02 -0.30266219066E+01 -0.91634348833E+02  0.15859704068E+03  0.12500000000E+03 0.  0.
</event>
<event>
 5    0  0.5616733E-005  0.4440161E+03  0.7546771E-02  0.1029522E+00
         21   -1    0    0  502  501  0.00000000000E+00  0.00000000000E+00  0.25709656928E+04  0.25709656928E+04  0.00000000000E+00 0. -1.
         21   -1    0    0  501  502 -0.00000000000E+00 -0.00000000000E+00 -0.76683351536E+02  0.76683351536E+02  0.00000000000E+00 0. -1.
         25    1    1    2    0    0  0.13474506553E+02  0.12806619424E+03  0.13384888686E+04  0.13504665727E+04  0.12500000000E+03 0.  0.
         25    1    1    2    0    0  0.13525033476E+03  0.14786255862E+03  0.62566474331E+03  0.66875807309E+03  0.12500000000E+03 0.  0.
         25    1    1    2    0    0 -0.14872484131E+03 -0.27592875286E+03  0.53012872929E+03  0.62842439855E+03  0.12500000000E+03 0.  0.
</event>
<event>
 5    0  0.5616733E-005  0.2310504E+03  0.7546771E-02  0.1125903E+00
         21   -1    0    0  502  501  0.00000000000E+00  0.00000000000E+00  0.19952392451E+03  0.19952392451E+03  0.00000000000E+00 0. -1.
         21   -1    0    0  501  502 -0.00000000000E+00 -0.00000000000E+00 -0.26755821094E+03  0.26755821094E+03  0.00000000000E+00 0. -1.
         25    1    1    2    0    0 -0.80508565049E+01 -0.60027466436E+02  0.13945601947E+02  0.13959796858E+03  0.12500000000E+03 0.  0.
         25    1    1    2    0    0 -0.59250000774E+02  0.77517400456E+02 -0.93326188194E+02  0.18399534605E+03  0.12500000000E+03 0.  0.
         25    1    1    2    0    0  0.67300857279E+02 -0.17489934020E+02  0.11346299817E+02  0.14348882083E+03  0.12500000000E+03 0.  0.
</event>
<event>
 5    0  0.5616733E-005  0.2866827E+03  0.7546771E-02  0.1092094E+00
         21   -1    0    0  502  501  0.00000000000E+00  0.00000000000E+00  0.45501979499E+02  0.45501979499E+02  0.00000000000E+00 0. -1.
         21   -1    0    0  501  502 -0.00000000000E+00 -0.00000000000E+00 -0.18062283770E+04  0.18062283770E+04  0.00000000000E+00 0. -1.
         25    1    1    2    0    0  0.21547587941E+02  0.11007346298E+03 -0.29709709423E+03  0.34128016233E+03  0.12500000000E+03 0.  0.
         25    1    1    2    0    0  0.33428971704E+02 -0.74518161247E+02 -0.27024219376E+03  0.30874956808E+03  0.12500000000E+03 0.  0.
         25    1    1    2    0    0 -0.54976559645E+02 -0.35555301728E+02 -0.11933871095E+04  0.12017006261E+04  0.12500000000E+03 0.  0.
</event>
<event>
 5    0  0.6908205E-005  0.3474938E+03  0.7546771E-02  0.1063648E+00
         21   -1    0    0  502  501  0.00000000000E+00  0.00000000000E+00  0.30536305979E+03  0.30536305979E+03  0.00000000000E+00 0. -1.
         21   -1    0    0  501  502 -0.00000000000E+00 -0.00000000000E+00 -0.39543723033E+03  0.39543723033E+03  0.00000000000E+00 0. -1.
         25    1    1    2    0    0  0.17480101273E+03  0.13311430740E+03 -0.28711782242E+02  0.25440947176E+03  0.12500000000E+03 0.  0.
         25    1    1    2    0    0 -0.18361149775E+03 -0.62180830960E+02  0.80451047265E+02  0.24428878167E+03  0.12500000000E+03 0.  0.
         25    1    1    2    0    0  0.88104850277E+01 -0.70933476439E+02 -0.14181343556E+03  0.20210203668E+03  0.12500000000E+03 0.  0.
</event>
<event>
 5    0  0.5616733E-005  0.2619673E+03  0.7546771E-02  0.1105967E+00
         21   -1    0    0  502  501  0.00000000000E+00  0.00000000000E+00  0.48624866565E+03  0.48624866565E+03  0.00000000000E+00 0.  1.
         21   -1    0    0  501  502 -0.00000000000E+00 -0.00000000000E+00 -0.14113536148E+03  0.14113536148E+03  0.00000000000E+00 0.  1.
         25    1    1    2    0    0 -0.10657415401E+02 -0.67061764722E+02  0.28126258829E+02  0.14500671442E+03  0.12500000000E+03 0.  0.
         25    1    1    2    0    0 -0.42109679110E+02  0.12863756863E+03  0.76546759562E+02  0.19951254481E+03  0.12500000000E+03 0.  0.
         25    1    1    2    0    0  0.52767094510E+02 -0.61575803906E+02  0.24044028579E+03  0.28286476790E+03  0.12500000000E+03 0.  0.
</event>
<event>
 5    0  0.5616733E-005  0.4478534E+03  0.7546771E-02  0.1028364E+00
         21   -1    0    0  502  501  0.00000000000E+00  0.00000000000E+00  0.85508397528E+03  0.85508397528E+03  0.00000000000E+00 0.  1.
         21   -1    0    0  501  502 -0.00000000000E+00 -0.00000000000E+00 -0.23456483541E+03  0.23456483541E+03  0.00000000000E+00 0.  1.
         25    1    1    2    0    0  0.92529696860E+02  0.13465655813E+03  0.44603689014E+03  0.49119043233E+03  0.12500000000E+03 0.  0.
         25    1    1    2    0    0 -0.29267988133E+03 -0.63069516790E+02  0.78228858219E+02  0.33374246230E+03  0.12500000000E+03 0.  0.
         25    1    1    2    0    0  0.20015018447E+03 -0.71587041341E+02  0.96253391516E+02  0.26471591605E+03  0.12500000000E+03 0.  0.
</event>
<event>
 5    0  0.5616733E-005  0.2470809E+03  0.7546771E-02  0.1115164E+00
         21   -1    0    0  502  501  0.00000000000E+00  0.00000000000E+00  0.75889024916E+02  0.75889024916E+02  0.00000000000E+00 0. -1.
         21   -1    0    0  501  502 -0.00000000000E+00 -0.00000000000E+00 -0.80445090082E+03  0.80445090082E+03  0.00000000000E+00 0. -1.
         25    1    1    2    0    0  0.22257781472E+02  0.10654831722E+03 -0.39614537301E+03  0.42942299577E+03  0.12500000000E+03 0.  0.
         25    1    1    2    0    0 -0.38748770029E+02 -0.11892200365E+02 -0.81654953112E+02  0.15471077201E+03  0.12500000000E+03 0.  0.
         25    1    1    2    0    0  0.16490988557E+02 -0.94656116856E+02 -0.25076154978E+03  0.29620615795E+03  0.12500000000E+03 0.  0.
</event>
<event>
 5    0  0.5616733E-005  0.4215167E+03  0.7546771E-02  0.1036574E+00
         21   -1    0    0  502  501  0.00000000000E+00  0.00000000000E+00  0.48128399760E+03  0.48128399760E+03  0.00000000000E+00 0. -1.
         21   -1    0    0  501  502 -0.00000000000E+00 -0.00000000000E+00 -0.36917146214E+03  0.36917146214E+03  0.00000000000E+00 0. -1.
         25    1    1    2    0    0 -0.16085320730E+03 -0.15054239871E+03 -0.30255460530E+02  0.25510225597E+03  0.12500000000E+03 0.  0.
         25    1    1    2    0    0  0.49658782853E+02 -0.16711420258E+03  0.89591855807E+02  0.23247548698E+03  0.12500000000E+03 0.  0.
         25    1    1    2    0    0  0.11119442444E+03  0.31765660130E+03  0.52776140186E+02  0.36287771680E+03  0.12500000000E+03 0.  0.
</event>
<event>
 5    0  0.5616733E-005  0.3274252E+03  0.7546771E-02  0.1072282E+00
         21   -1    0    0  502  501  0.00000000000E+00  0.00000000000E+00  0.20125881312E+03  0.20125881312E+03  0.00000000000E+00 0.  1.
         21   -1    0    0  501  502 -0.00000000000E+00 -0.00000000000E+00 -0.53268353117E+03  0.53268353117E+03  0.00000000000E+00 0.  1.
         25    1    1    2    0    0 -0.15189146506E+03 -0.15312071484E+03 -0.27803352243E+03  0.37342283014E+03  0.12500000000E+03 0.  0.
         25    1    1    2    0    0  0.13493511267E+03  0.57969633135E+02  0.26371372915E+01  0.19287280132E+03  0.12500000000E+03 0.  0.
         25    1    1    2    0    0  0.16956352391E+02  0.95151081709E+02 -0.56028332912E+02  0.16764671284E+03  0.12500000000E+03 0.  0.
</event>
<event>
 5    0  0.5616733E-005  0.3205381E+03  0.7546771E-02  0.1075402E+00
         21   -1    0    0  502  501  0.00000000000E+00  0.00000000000E+00  0.10224744917E+03  0.10224744917E+03  0.00000000000E+00 0.  1.
         21   -1    0    0  501  502 -0.00000000000E+00 -0.00000000000E+00 -0.10048628192E+04  0.10048628192E+04  0.00000000000E+00 0. -1.
         25    1    1    2    0    0 -0.11259273989E+03  0.20976898585E+03 -0.50677678324E+03  0.57369666247E+03  0.12500000000E+03 0.  0.
         25    1    1    2    0    0  0.64513780822E+02 -0.14725060546E+03 -0.17981819934E+03  0.27166956683E+03  0.12500000000E+03 0.  0.
         25    1    1    2    0    0  0.48078959072E+02 -0.62518380391E+02 -0.21602038744E+03  0.26174403906E+03  0.12500000000E+03 0.  0.
</event>
<event>
 5    0  0.5616733E-005  0.4452199E+03  0.7546771E-02  0.1029157E+00
         21   -1    0    0  502  501  0.00000000000E+00  0.00000000000E+00  0.23637311233E+03  0.23637311233E+03  0.00000000000E+00 0.  1.
         21   -1    0    0  501  502 -0.00000000000E+00 -0.00000000000E+00 -0.83859259298E+03  0.83859259298E+03  0.00000000000E+00 0.  1.
         25    1    1    2    0    0  0.37634057973E+03 -0.89319143538E+02 -0.24525401307E+03  0.47474695605E+03  0.12500000000E+03 0.  0.
         25    1    1    2    0    0 -0.17751175268E+03  0.80844255536E+02 -0.25357913825E+03  0.34347284514E+03  0.12500000000E+03 0.  0.
         25    1    1    2    0    0 -0.19882882704E+03  0.84748880026E+01 -0.10338632933E+03  0.25674590412E+03  0.12500000000E+03 0.  0.
</event>
<event>
 5    0  0.5851855E-005  0.3446732E+03  0.7546771E-02  0.1064823E+00
         21   -1    0    0  502  501  0.00000000000E+00  0.00000000000E+00  0.40759860085E+03  0.40759860085E+03  0.00000000000E+00 0.  1.
         21   -1    0    0  501  502 -0.00000000000E+00 -0.00000000000E+00 -0.29146234373E+03  0.29146234373E+03  0.00000000000E+00 0.  1.
         25    1    1    2    0    0  0.68447683199E+02 -0.10602961276E+02  0.15490673192E+03  0.21075721510E+03  0.12500000000E+03 0.  0.
         25    1    1    2    0    0 -0.18667681354E+02  0.20942452749E+03 -0.42149977010E+02  0.24821107067E+03  0.12500000000E+03 0.  0.
         25    1    1    2    0    0 -0.49780001845E+02 -0.19882156622E+03  0.33795022099E+01  0.24009265880E+03  0.12500000000E+03 0.  0.
</event>
<event>
 5    0  0.5616733E-005  0.3770352E+03  0.7546771E-02  0.1052035E+00
         21   -1    0    0  502  501  0.00000000000E+00  0.00000000000E+00  0.12344013802E+03  0.12344013802E+03  0.00000000000E+00 0.  1.
         21   -1    0    0  501  502 -0.00000000000E+00 -0.00000000000E+00 -0.11516153247E+04  0.11516153247E+04  0.00000000000E+00 0.  1.
         25    1    1    2    0    0  0.12520997500E+03 -0.96917077890E+02 -0.23774215301E+03  0.31179606980E+03  0.12500000000E+03 0.  0.
         25    1    1    2    0    0 -0.55063916763E+02  0.78551991163E+02  0.21783214735E+01  0.15758234460E+03  0.12500000000E+03 0.  0.
         25    1    1    2    0    0 -0.70146058234E+02  0.18365086727E+02 -0.79261135515E+03  0.80567704833E+03  0.12500000000E+03 0.  0.
</event>
<event>
 5    0  0.6855323E-005  0.2748846E+03  0.7546771E-02  0.1098516E+00
         21   -1    0    0  502  501  0.00000000000E+00  0.00000000000E+00  0.19097644633E+03  0.19097644633E+03  0.00000000000E+00 0.  1.
         21   -1    0    0  501  502 -0.00000000000E+00 -0.00000000000E+00 -0.39565883548E+03  0.39565883548E+03  0.00000000000E+00 0.  1.
         25    1    1    2    0    0 -0.51290415357E+02  0.68076858722E+02  0.69456008264E+02  0.16647613188E+03  0.12500000000E+03 0.  0.
         25    1    1    2    0    0  0.70148605163E+02  0.40871351439E+02 -0.15552537751E+03  0.21541689169E+03  0.12500000000E+03 0.  0.
         25    1    1    2    0    0 -0.18858189806E+02 -0.10894821016E+03 -0.11861301990E+03  0.20474225824E+03  0.12500000000E+03 0.  0.
</event>
<event>
 5    0  0.1028018E-004  0.4454192E+03  0.7546771E-02  0.1029097E+00
         21   -1    0    0  502  501  0.00000000000E+00  0.00000000000E+00  0.22701976998E+03  0.22701976998E+03  0.00000000000E+00 0.  1.
         21   -1    0    0  501  502 -0.00000000000E+00 -0.00000000000E+00 -0.87392514904E+03  0.87392514904E+03  0.00000000000E+00 0.  1.
         25    1    1    2    0    0 -0.23590215375E+03  0.59800037133E+02 -0.80219473377E+02  0.28510705795E+03  0.12500000000E+03 0.  0.
         25    1    1    2    0    0  0.29221541449E+03  0.72109350476E+01 -0.11335937159E+03  0.33751621173E+03  0.12500000000E+03 0.  0.
         25    1    1    2    0    0 -0.56313260745E+02 -0.67010972180E+02 -0.45332653409E+03  0.47832164935E+03  0.12500000000E+03 0.  0.
</event>
<event>
 5    0  0.5616733E-005  0.2253343E+03  0.7546771E-02  0.1129967E+00
         21   -1    0    0  502  501  0.00000000000E+00  0.00000000000E+00  0.17573516337E+03  0.17573516337E+03  0.00000000000E+00 0. -1.
         21   -1    0    0  501  502 -0.00000000000E+00 -0.00000000000E+00 -0.28893222029E+03  0.28893222029E+03  0.00000000000E+00 0. -1.
         25    1    1    2    0    0 -0.20359059584E+02 -0.37400812215E+01  0.44884619045E+02  0.13441766454E+03  0.12500000000E+03 0.  0.
         25    1    1    2    0    0  0.61602433834E+02 -0.48630459103E+02 -0.92088499949E+02  0.17396859840E+03  0.12500000000E+03 0.  0.
         25    1    1    2    0    0 -0.41243374250E+02  0.52370540324E+02 -0.65993176013E+02  0.15628112072E+03  0.12500000000E+03 0.  0.
</event>
<event>
 5    0  0.5930472E-005  0.3831924E+03  0.7546771E-02  0.1049760E+00
         21   -1    0    0  502  501  0.00000000000E+00  0.00000000000E+00  0.27549286947E+03  0.27549286947E+03  0.00000000000E+00 0.  1.
         21   -1    0    0  501  502 -0.00000000000E+00 -0.00000000000E+00 -0.53299524215E+03  0.53299524215E+03  0.00000000000E+00 0.  1.
         25    1    1    2    0    0  0.27592106727E+03  0.10900078990E+02 -0.17629229848E+03  0.35064971351E+03  0.12500000000E+03 0.  0.
         25    1    1    2    0    0 -0.26341708883E+03 -0.16738076175E+02 -0.13415350463E+03  0.32138899901E+03  0.12500000000E+03 0.  0.
         25    1    1    2    0    0 -0.12503978444E+02  0.58379971849E+01  0.52943430430E+02  0.13644939910E+03  0.12500000000E+03 0.  0.
</event>
<event>
 5    0  0.5616733E-005  0.2726613E+03  0.7546771E-02  0.1099766E+00
         21   -1    0    0  502  501  0.00000000000E+00  0.00000000000E+00  0.40009708517E+03  0.40009708517E+03  0.00000000000E+00 0.  1.
         21   -1    0    0  501  502 -0.00000000000E+00 -0.00000000000E+00 -0.18581542263E+03  0.18581542263E+03  0.00000000000E+00 0.  1.
         25    1    1    2    0    0  0.58966202001E+02 -0.89921559301E+02 -0.43938941780E+02  0.17064152604E+03  0.12500000000E+03 0.  0.
         25    1    1    2    0    0 -0.48776588817E+02  0.11728066144E+03  0.21625016652E+03  0.28021963472E+03  0.12500000000E+03 0.  0.
         25    1    1    2    0    0 -0.10189613184E+02 -0.27359102135E+02  0.41970437794E+02  0.13505134703E+03  0.12500000000E+03 0.  0.
</event>
<event>
 5    0  0.5914723E-005  0.2421296E+03  0.7546771E-02  0.1118382E+00
         21   -1    0    0  502  501  0.00000000000E+00  0.00000000000E+00  0.17585065645E+03  0.17585065645E+03  0.00000000000E+00 0.  1.
         21   -1    0    0  501  502 -0.00000000000E+00 -0.00000000000E+00 -0.33338930165E+03  0.33338930165E+03  0.00000000000E+00 0.  1.
         25    1    1    2    0    0 -0.10015637880E+03 -0.42022876726E+02 -0.13613547107E+03  0.21437138071E+03  0.12500000000E+03 0.  0.
         25    1    1    2    0    0  0.95176421738E+02 -0.31471646048E+01 -0.35554645961E+02  0.16111358959E+03  0.12500000000E+03 0.  0.
         25    1    1    2    0    0  0.49799570647E+01  0.45170041331E+02  0.14151471829E+02  0.13375498780E+03  0.12500000000E+03 0.  0.
</event>
<event>
 5    0  0.5616733E-005  0.5214290E+03  0.7546771E-02  0.1008332E+00
         21   -1    0    0  502  501  0.00000000000E+00  0.00000000000E+00  0.46805524839E+03  0.46805524839E+03  0.00000000000E+00 0. -1.
         21   -1    0    0  501  502 -0.00000000000E+00 -0.00000000000E+00 -0.58088904309E+03  0.58088904309E+03  0.00000000000E+00 0. -1.
         25    1    1    2    0    0  0.61372388028E+02  0.42345579984E+03 -0.34561928640E+02  0.44710279728E+03  0.12500000000E+03 0.  0.
         25    1    1    2    0    0  0.28832791217E+02 -0.31769013824E+03 -0.18209922595E+03  0.38799933231E+03  0.12500000000E+03 0.  0.
         25    1    1    2    0    0 -0.90205179246E+02 -0.10576566160E+03  0.10382735989E+03  0.21384216188E+03  0.12500000000E+03 0.  0.
</event>
<event>
 5    0  0.5803562E-005  0.3962873E+03  0.7546771E-02  0.1045073E+00
         21   -1    0    0  502  501  0.00000000000E+00  0.00000000000E+00  0.45647070785E+03  0.45647070785E+03  0.00000000000E+00 0. -1.
         21   -1    0    0  501  502 -0.00000000000E+00 -0.00000000000E+00 -0.34403871297E+03  0.34403871297E+03  0.00000000000E+00 0. -1.
         25    1    1    2    0    0  0.16176714260E+03 -0.21466329281E+03 -0.66332101000E+02  0.30376616884E+03  0.12500000000E+03 0.  0.
         25    1    1    2    0    0 -0.67835300033E+02  0.22975169887E+01  0.18449826983E+03  0.23296248214E+03  0.12500000000E+03 0.  0.
         25    1    1    2    0    0 -0.93931842565E+02  0.21236577583E+03 -0.57341739498E+01  0.26378076985E+03  0.12500000000E+03 0.  0.
</event>
<event>
 5    0  0.5616733E-005  0.3056461E+03  0.7546771E-02  0.1082452E+00
         21   -1    0    0  502  501  0.00000000000E+00  0.00000000000E+00  0.25813762103E+04  0.25813762103E+04  0.00000000000E+00 0. -1.
         21   -1    0    0  501  502 -0.00000000000E+00 -0.00000000000E+00 -0.36189822634E+02  0.36189822634E+02  0.00000000000E+00 0. -1.
         25    1    1    2    0    0 -0.71139409400E+01  0.71141531261E+02  0.16916711121E+03  0.22215813544E+03  0.12500000000E+03 0.  0.
         25    1    1    2    0    0  0.52575152114E+02 -0.81512673522E+02  0.16199156537E+04  0.16276240929E+04  0.12500000000E+03 0.  0.
         25    1    1    2    0    0 -0.45461211174E+02  0.10371142262E+02  0.75610362269E+03  0.76778380457E+03  0.12500000000E+03 0.  0.
</event>
<event>
 5    0  0.5616733E-005  0.3948249E+03  0.7546771E-02  0.1045587E+00
         21   -1    0    0  502  501  0.00000000000E+00  0.00000000000E+00  0.26569112936E+03  0.26569112936E+03  0.00000000000E+00 0.  1.
         21   -1    0    0  501  502 -0.00000000000E+00 -0.00000000000E+00 -0.58672143720E+03  0.58672143720E+03  0.00000000000E+00 0.  1.
         25    1    1    2    0    0 -0.26177025444E+02 -0.25731700776E+03 -0.30970101811E+03  0.42241803911E+03  0.12500000000E+03 0.  0.
         25    1    1    2    0    0 -0.22428140770E+02  0.89150603621E+02 -0.11312567510E+03  0.19202413908E+03  0.12500000000E+03 0.  0.
         25    1    1    2    0    0  0.48605166214E+02  0.16816640414E+03  0.10179638537E+03  0.23797038837E+03  0.12500000000E+03 0.  0.
</event>
<event>
 5    0  0.5616733E-005  0.3455773E+03  0.7546771E-02  0.1064445E+00
         21   -1    0    0  502  501  0.00000000000E+00  0.00000000000E+00  0.19435424100E+03  0.19435424100E+03  0.00000000000E+00 0.  1.
         21   -1    0    0  501  502 -0.00000000000E+00 -0.00000000000E+00 -0.61446382389E+03  0.61446382389E+03  0.00000000000E+00 0.  1.
         25    1    1    2    0    0 -0.10702112369E+03 -0.22420777561E+02 -0.32137514950E+03  0.36175018853E+03  0.12500000000E+03 0.  0.
         25    1    1    2    0    0  0.58631964027E+02  0.26344612366E+02 -0.22342220588E+03  0.26395876172E+03  0.12500000000E+03 0.  0.
         25    1    1    2    0    0  0.48389159662E+02 -0.39238348054E+01  0.12468777250E+03  0.18310911463E+03  0.12500000000E+03 0.  0.
</event>
<event>
 5    0  0.5616733E-005  0.2957298E+03  0.7546771E-02  0.1087395E+00
         21   -1    0    0  502  501  0.00000000000E+00  0.00000000000E+00  0.75820345493E+02  0.75820345493E+02  0.00000000000E+00 0.  1.
         21   -1    0    0  501  502 -0.00000000000E+00 -0.00000000000E+00 -0.11534648353E+04  0.11534648353E+04  0.00000000000E+00 0.  1.
         25    1    1    2    0    0  0.11664588185E+02 -0.22924523182E+02 -0.17472081057E+03  0.21636533463E+03  0.12500000000E+03 0.  0.
         25    1    1    2    0    0 -0.13327274228E+03 -0.27666143157E+02 -0.14885814048E+03  0.23729893657E+03  0.12500000000E+03 0.  0.
         25    1    1    2    0    0  0.12160815409E+03  0.50590666338E+02 -0.75406553877E+03  0.77562090961E+03  0.12500000000E+03 0.  0.
</event>
<event>
 5    0  0.5616733E-005  0.3484561E+03  0.7546771E-02  0.1063251E+00
         21   -1    0    0  502  501  0.00000000000E+00  0.00000000000E+00  0.80597973565E+02  0.80597973565E+02  0.00000000000E+00 0. -1.
         21   -1    0    0  501  502 -0.00000000000E+00 -0.00000000000E+00 -0.15065098975E+04  0.15065098975E+04  0.00000000000E+00 0. -1.
         25    1    1    2    0    0 -0.40765366940E+02 -0.16943127845E+03 -0.81359201974E+03  0.84138323482E+03  0.12500000000E+03 0.  0.
         25    1    1    2    0    0  0.12727560801E+03  0.19421465707E+02 -0.42619641766E+03  0.46243341158E+03  0.12500000000E+03 0.  0.
         25    1    1    2    0    0 -0.86510241070E+02  0.15000981274E+03 -0.18612348655E+03  0.28329122467E+03  0.12500000000E+03 0.  0.
</event>
<event>
 5    0  0.5738981E-005  0.3107530E+03  0.7546771E-02  0.1079986E+00
         21   -1    0    0  502  501  0.00000000000E+00  0.00000000000E+00  0.32417611813E+03  0.32417611813E+03  0.00000000000E+00 0.  1.
         21   -1    0    0  501  502 -0.00000000000E+00 -0.00000000000E+00 -0.29788568339E+03  0.29788568339E+03  0.00000000000E+00 0.  1.
         25    1    1    2    0    0  0.94707482731E+02  0.73607962195E+02 -0.20535626312E+02  0.17445443913E+03  0.12500000000E+03 0.  0.
         25    1    1    2    0    0 -0.19588399739E+03 -0.63508649769E+02  0.12174585677E+03  0.26990913781E+03  0.12500000000E+03 0.  0.
         25    1    1    2    0    0  0.10117651466E+03 -0.10099312427E+02 -0.74919795718E+02  0.17769822458E+03  0.12500000000E+03 0.  0.
</event>
<event>
 5    0  0.5616733E-005  0.3517462E+03  0.7546771E-02  0.1061901E+00
         21   -1    0    0  502  501  0.00000000000E+00  0.00000000000E+00  0.12444295273E+04  0.12444295273E+04  0.00000000000E+00 0.  1.
         21   -1    0    0  501  502 -0.00000000000E+00 -0.00000000000E+00 -0.99423380424E+02  0.99423380424E+02  0.00000000000E+00 0.  1.
         25    1    1    2    0    0  0.11860929162E+03  0.52546463849E+01  0.22599786559E+03  0.28424603888E+03  0.12500000000E+03 0.  0.
         25    1    1    2    0    0 -0.12020562043E+03 -0.21282115176E+03  0.59251258018E+03  0.65302250458E+03  0.12500000000E+03 0.  0.
         25    1    1    2    0    0  0.15963288134E+01  0.20756650537E+03  0.32649570108E+03  0.40658436424E+03  0.12500000000E+03 0.  0.
</event>
<event>
 5    0  0.5616733E-005  0.3908641E+03  0.7546771E-02  0.1046990E+00
         21   -1    0    0  502  501  0.00000000000E+00  0.00000000000E+00  0.61605989722E+03  0.61605989722E+03  0.00000000000E+00 0. -1.
         21   -1    0    0  501  502 -0.00000000000E+00 -0.00000000000E+00 -0.24798689035E+03  0.24798689035E+03  0.00000000000E+00 0. -1.
         25    1    1    2    0    0 -0.92933793839E+01  0.25209131755E+03  0.18337890843E+03  0.33598991553E+03  0.12500000000E+03 0.  0.
         25    1    1    2    0    0  0.73459667400E+02 -0.25271784755E+03 -0.57226927204E+01  0.29141101972E+03  0.12500000000E+03 0.  0.
         25    1    1    2    0    0 -0.64166288016E+02  0.62652999905E+00  0.19041679116E+03  0.23664585231E+03  0.12500000000E+03 0.  0.
</event>
<event>
 5    0  0.5616733E-005  0.3345206E+03  0.7546771E-02  0.1069154E+00
         21   -1    0    0  502  501  0.00000000000E+00  0.00000000000E+00  0.97409134599E+02  0.97409134599E+02  0.00000000000E+00 0. -1.
         21   -1    0    0  501  502 -0.00000000000E+00 -0.00000000000E+00 -0.11488043172E+04  0.11488043172E+04  0.00000000000E+00 0. -1.
         25    1    1    2    0    0  0.89001384087E+02  0.72535321434E+02 -0.19734778422E+03  0.26029553811E+03  0.12500000000E+03 0.  0.
         25    1    1    2    0    0 -0.13082426837E+03  0.94943530368E+02 -0.68218080457E+03  0.71212703451E+03  0.12500000000E+03 0.  0.
         25    1    1    2    0    0  0.41822884283E+02 -0.16747885180E+03 -0.17186659380E+03  0.27379087917E+03  0.12500000000E+03 0.  0.
</event>
<event>
 5    0  0.5616733E-005  0.2485991E+03  0.7546771E-02  0.1114193E+00
         21   -1    0    0  502  501  0.00000000000E+00  0.00000000000E+00  0.38254966716E+03  0.38254966716E+03  0.00000000000E+00 0. -1.
         21   -1    0    0  501  502 -0.00000000000E+00 -0.00000000000E+00 -0.16155160451E+03  0.16155160451E+03  0.00000000000E+00 0. -1.
         25    1    1    2    0    0 -0.48274792669E+02 -0.44407879605E+02  0.15457472109E+02  0.14200862235E+03  0.12500000000E+03 0.  0.
         25    1    1    2    0    0 -0.88871101471E+02  0.27401807680E+02  0.12198925441E+03  0.19787700709E+03  0.12500000000E+03 0.  0.
         25    1    1    2    0    0  0.13714589414E+03  0.17006071925E+02  0.83551336128E+02  0.20421564223E+03  0.12500000000E+03 0.  0.
</event>
<event>
 5    0  0.5616733E-005  0.3563867E+03  0.7546771E-02  0.1060024E+00
         21   -1    0    0  502  501  0.00000000000E+00  0.00000000000E+00  0.70185957585E+03  0.70185957585E+03  0.00000000000E+00 0.  1.
         21   -1    0    0  501  502 -0.00000000000E+00 -0.00000000000E+00 -0.18096426131E+03  0.18096426131E+03  0.00000000000E+00 0.  1.
         25    1    1    2    0    0 -0.34209484868E+02 -0.14257072394E+03  0.16392416946E+03  0.25296804840E+03  0.12500000000E+03 0.  0.
         25    1    1    2    0    0 -0.19545474514E+03  0.10149433665E+03  0.15491590354E+03  0.29686292281E+03  0.12500000000E+03 0.  0.
         25    1    1    2    0    0  0.22966423001E+03  0.41076387283E+02  0.20205524154E+03  0.33299286595E+03  0.12500000000E+03 0.  0.
</event>
<event>
 5    0  0.5616733E-005  0.2583126E+03  0.7546771E-02  0.1108161E+00
         21   -1    0    0  502  501  0.00000000000E+00  0.00000000000E+00  0.53920693814E+03  0.53920693814E+03  0.00000000000E+00 0. -1.
         21   -1    0    0  501  502 -0.00000000000E+00 -0.00000000000E+00 -0.12374727166E+03  0.12374727166E+03  0.00000000000E+00 0. -1.
         25    1    1    2    0    0 -0.26923937377E+02  0.15532833405E+03  0.13164815217E+03  0.24043299635E+03  0.12500000000E+03 0.  0.
         25    1    1    2    0    0  0.16474312564E+02 -0.29641424675E+02  0.80121986277E+02  0.15229756963E+03  0.12500000000E+03 0.  0.
         25    1    1    2    0    0  0.10449624813E+02 -0.12568690937E+03  0.20368952804E+03  0.27022364382E+03  0.12500000000E+03 0.  0.
</event>
<event>
 5    0  0.5616733E-005  0.2856219E+03  0.7546771E-02  0.1092657E+00
         21   -1    0    0  502  501  0.00000000000E+00  0.00000000000E+00  0.63102775461E+03  0.63102775461E+03  0.00000000000E+00 0.  1.
         21   -1    0    0  501  502 -0.00000000000E+00 -0.00000000000E+00 -0.12928098949E+03  0.12928098949E+03  0.00000000000E+00 0.  1.
         25    1    1    2    0    0  0.67873343956E+02  0.19099483046E+02  0.42574492506E+03  0.44928312041E+03  0.12500000000E+03 0.  0.
         25    1    1    2    0    0 -0.32204238452E+02  0.66260749227E+02  0.49280255151E+02  0.15323558141E+03  0.12500000000E+03 0.  0.
         25    1    1    2    0    0 -0.35669105504E+02 -0.85360232273E+02  0.26721584905E+02  0.15779004227E+03  0.12500000000E+03 0.  0.
</event>
<event>
 5    0  0.5616733E-005  0.2151386E+03  0.7546771E-02  0.1137560E+00
         21   -1    0    0  502  501  0.00000000000E+00  0.00000000000E+00  0.20164903193E+02  0.20164903193E+02  0.00000000000E+00 0.  1.
         21   -1    0    0  501  502 -0.00000000000E+00 -0.00000000000E+00 -0.22953052275E+04  0.22953052275E+04  0.00000000000E+00 0.  1.
         25    1    1    2    0    0 -0.56813599234E+02  0.15100384864E+02 -0.88537732416E+03  0.89608806086E+03  0.12500000000E+03 0.  0.
         25    1    1    2    0    0  0.24131556115E+02  0.42549752387E+02 -0.46966228073E+03  0.48846747217E+03  0.12500000000E+03 0.  0.
         25    1    1    2    0    0  0.32682043118E+02 -0.57650137251E+02 -0.92010071946E+03  0.93091459771E+03  0.12500000000E+03 0.  0.
</event>
<event>
 5    0  0.5616733E-005  0.3636456E+03  0.7546771E-02  0.1057150E+00
         21   -1    0    0  502  501  0.00000000000E+00  0.00000000000E+00  0.70314947468E+02  0.70314947468E+02  0.00000000000E+00 0. -1.
         21   -1    0    0  501  502 -0.00000000000E+00 -0.00000000000E+00 -0.18806542353E+04  0.18806542353E+04  0.00000000000E+00 0. -1.
         25    1    1    2    0    0 -0.16835899300E+03 -0.18431090242E+03 -0.36110032795E+03  0.45643587296E+03  0.12500000000E+03 0.  0.
         25    1    1    2    0    0  0.56208204728E+02  0.12677300537E+03 -0.68935188979E+03  0.71418609978E+03  0.12500000000E+03 0.  0.
         25    1    1    2    0    0  0.11215078827E+03  0.57537897049E+02 -0.75988707011E+03  0.78034721005E+03  0.12500000000E+03 0.  0.
</event>
<event>
 5    0  0.5648237E-005  0.2565530E+03  0.7546771E-02  0.1109232E+00
         21   -1    0    0  502  501  0.00000000000E+00  0.00000000000E+00  0.20120395948E+03  0.20120395948E+03  0.00000000000E+00 0. -1.
         21   -1    0    0  501  502 -0.00000000000E+00 -0.00000000000E+00 -0.32712789369E+03  0.32712789369E+03  0.00000000000E+00 0. -1.
         25    1    1    2    0    0 -0.68822021508E+02 -0.49986962678E+02  0.87012902013E+02  0.17444601514E+03  0.12500000000E+03 0.  0.
         25    1    1    2    0    0  0.75900794408E+02  0.54853589125E+02 -0.13404590889E+03  0.20582310979E+03  0.12500000000E+03 0.  0.
         25    1    1    2    0    0 -0.70787729000E+01 -0.48666264465E+01 -0.78890927328E+02  0.14806272824E+03  0.12500000000E+03 0.  0.
</event>
<event>
 5    0  0.5616733E-005  0.2598661E+03  0.7546771E-02  0.1107224E+00
         21   -1    0    0  502  501  0.00000000000E+00  0.00000000000E+00  0.29696487947E+04  0.29696487947E+04  0.00000000000E+00 0.  1.
         21   -1    0    0  501  502 -0.00000000000E+00 -0.00000000000E+00 -0.22740192680E+02  0.22740192680E+02  0.00000000000E+00 0.  1.
         25    1    1    2    0    0 -0.61713072734E+02  0.11864077693E+03  0.73457410663E+03  0.75703913731E+03  0.12500000000E+03 0.  0.
         25    1    1    2    0    0  0.12941372020E+02 -0.12352653584E+03  0.15144190959E+04  0.15246365082E+04  0.12500000000E+03 0.  0.
         25    1    1    2    0    0  0.48771700714E+02  0.48857589065E+01  0.69791539942E+03  0.71071334177E+03  0.12500000000E+03 0.  0.
</event>
<event>
 5    0  0.5616733E-005  0.2070240E+03  0.7546771E-02  0.1143945E+00
         21   -1    0    0  502  501  0.00000000000E+00  0.00000000000E+00  0.45747751069E+03  0.45747751069E+03  0.00000000000E+00 0. -1.
         21   -1    0    0  501  502 -0.00000000000E+00 -0.00000000000E+00 -0.93685357274E+02  0.93685357274E+02  0.00000000000E+00 0. -1.
         25    1    1    2    0    0 -0.20840368476E+02 -0.32148323554E+02  0.39565769247E+02  0.13659533580E+03  0.12500000000E+03 0.  0.
         25    1    1    2    0    0  0.16816325097E+02  0.37851352132E+01  0.19683131063E+03  0.23380479225E+03  0.12500000000E+03 0.  0.
         25    1    1    2    0    0  0.40240433787E+01  0.28363188340E+02  0.12739507355E+03  0.18076273992E+03  0.12500000000E+03 0.  0.
</event>
<event>
 5    0  0.5616733E-005  0.3259049E+03  0.7546771E-02  0.1072963E+00
         21   -1    0    0  502  501  0.00000000000E+00  0.00000000000E+00  0.52228919403E+03  0.52228919403E+03  0.00000000000E+00 0. -1.
         21   -1    0    0  501  502 -0.00000000000E+00 -0.00000000000E+00 -0.20336247640E+03  0.20336247640E+03  0.00000000000E+00 0. -1.
         25    1    1    2    0    0 -0.54775915019E+00 -0.11437296661E+02  0.73468103403E+02  0.14544302669E+03  0.12500000000E+03 0.  0.
         25    1    1    2    0    0 -0.14448476121E+03  0.11760389545E+03  0.27976250346E+03  0.35860644276E+03  0.12500000000E+03 0.  0.
         25    1    1    2    0    0  0.14503252036E+03 -0.10616659879E+03 -0.34303889241E+02  0.22160220098E+03  0.12500000000E+03 0.  0.
</event>
<event>
 5    0  0.5616733E-005  0.3198885E+03  0.7546771E-02  0.1075701E+00
         21   -1    0    0  502  501  0.00000000000E+00  0.00000000000E+00  0.11971684899E+04  0.11971684899E+04  0.00000000000E+00 0.  1.
         21   -1    0    0  501  502 -0.00000000000E+00 -0.00000000000E+00 -0.85475574999E+02  0.85475574999E+02  0.00000000000E+00 0.  1.
         25    1    1    2    0    0 -0.90211280328E+02 -0.18449913507E+03  0.25768636858E+03  0.35242768122E+03  0.12500000000E+03 0.  0.
         25    1    1    2    0    0  0.12700387077E+03  0.15201968313E+03  0.55834871707E+03  0.60549009662E+03  0.12500000000E+03 0.  0.
         25    1    1    2    0    0 -0.36792590442E+02  0.32479451940E+02  0.29565782930E+03  0.32472628710E+03  0.12500000000E+03 0.  0.
</event>
<event>
 5    0  0.5616733E-005  0.2976425E+03  0.7546771E-02  0.1086425E+00
         21   -1    0    0  502  501  0.00000000000E+00  0.00000000000E+00  0.96549412053E+02  0.96549412053E+02  0.00000000000E+00 0. -1.
         21   -1    0    0  501  502 -0.00000000000E+00 -0.00000000000E+00 -0.91757227856E+03  0.91757227856E+03  0.00000000000E+00 0. -1.
         25    1    1    2    0    0  0.73764491112E+01 -0.21150960202E+02 -0.15875468417E+03  0.20329738037E+03  0.12500000000E+03 0.  0.
         25    1    1    2    0    0 -0.24620498896E+02  0.75364119467E+02 -0.14584601456E+02  0.14874014276E+03  0.12500000000E+03 0.  0.
         25    1    1    2    0    0  0.17244049785E+02 -0.54213159265E+02 -0.64768358087E+03  0.66208416748E+03  0.12500000000E+03 0.  0.
</event>
<event>
 5    0  0.5616733E-005  0.2735156E+03  0.7546771E-02  0.1099284E+00
         21   -1    0    0  502  501  0.00000000000E+00  0.00000000000E+00  0.66214367998E+02  0.66214367998E+02  0.00000000000E+00 0.  1.
         21   -1    0    0  501  502 -0.00000000000E+00 -0.00000000000E+00 -0.11298272034E+04  0.11298272034E+04  0.00000000000E+00 0.  1.
         25    1    1    2    0    0 -0.11751097034E+02  0.25936873078E+02 -0.96334414640E+02  0.16036249284E+03  0.12500000000E+03 0.  0.
         25    1    1    2    0    0 -0.36632727622E+02  0.82162396377E+02 -0.21827070879E+03  0.26713239868E+03  0.12500000000E+03 0.  0.
         25    1    1    2    0    0  0.48383824655E+02 -0.10809926946E+03 -0.74900771194E+03  0.76854667984E+03  0.12500000000E+03 0.  0.
</event>
<event>
 5    0  0.5616733E-005  0.3329171E+03  0.7546771E-02  0.1069853E+00
         21   -1    0    0  502  501  0.00000000000E+00  0.00000000000E+00  0.32272151858E+03  0.32272151858E+03  0.00000000000E+00 0. -1.
         21   -1    0    0  501  502 -0.00000000000E+00 -0.00000000000E+00 -0.34343470766E+03  0.34343470766E+03  0.00000000000E+00 0. -1.
         25    1    1    2    0    0 -0.10410501545E+02  0.10910645951E+03 -0.21963999631E+03  0.27546202284E+03  0.12500000000E+03 0.  0.
         25    1    1    2    0    0  0.25319231996E+02  0.57072094594E+01 -0.14478669976E+01  0.12767432031E+03  0.12500000000E+03 0.  0.
         25    1    1    2    0    0 -0.14908730451E+02 -0.11481366897E+03  0.20037467423E+03  0.26301988309E+03  0.12500000000E+03 0.  0.
</event>
<event>
 5    0  0.5616733E-005  0.2683988E+03  0.7546771E-02  0.1102200E+00
         21   -1    0    0  502  501  0.00000000000E+00  0.00000000000E+00  0.26327451830E+03  0.26327451830E+03  0.00000000000E+00 0.  1.
         21   -1    0    0  501  502 -0.00000000000E+00 -0.00000000000E+00 -0.27362283087E+03  0.27362283087E+03  0.00000000000E+00 0.  1.
         25    1    1    2    0    0  0.15363072702E+03 -0.11572137942E+02 -0.18492351032E+02  0.19925682349E+03  0.12500000000E+03 0.  0.
         25    1    1    2    0    0 -0.14588202386E+03  0.50902564004E+02  0.39616048613E+02  0.20265011033E+03  0.12500000000E+03 0.  0.
         25    1    1    2    0    0 -0.77487031552E+01 -0.39330426062E+02 -0.31472010142E+02  0.13499041535E+03  0.12500000000E+03 0.  0.
</event>
<event>
 5    0  0.5616733E-005  0.2697925E+03  0.7546771E-02  0.1101398E+00
         21   -1    0    0  502  501  0.00000000000E+00  0.00000000000E+00  0.13378330951E+03  0.13378330951E+03  0.00000000000E+00 0.  1.
         21   -1    0    0  501  502 -0.00000000000E+00 -0.00000000000E+00 -0.54407369765E+03  0.54407369765E+03  0.00000000000E+00 0.  1.
         25    1    1    2    0    0 -0.11273803940E+02  0.91874986130E+02 -0.27115914455E+03  0.31260261260E+03  0.12500000000E+03 0.  0.
         25    1    1    2    0    0 -0.85057487974E+01 -0.25653292468E+02  0.41975250422E+02  0.13460074600E+03  0.12500000000E+03 0.  0.
         25    1    1    2    0    0  0.19779552737E+02 -0.66221693661E+02 -0.18110649401E+03  0.23065364855E+03  0.12500000000E+03 0.  0.
</event>
<event>
 5    0  0.5616733E-005  0.2121847E+03  0.7546771E-02  0.1139848E+00
         21   -1    0    0  502  501  0.00000000000E+00  0.00000000000E+00  0.36095523140E+02  0.36095523140E+02  0.00000000000E+00 0. -1.
         21   -1    0    0  501  502 -0.00000000000E+00 -0.00000000000E+00 -0.12473111568E+04  0.12473111568E+04  0.00000000000E+00 0. -1.
         25    1    1    2    0    0  0.40755154952E+02 -0.22231999998E+02 -0.37974833510E+03  0.40247862364E+03  0.12500000000E+03 0.  0.
         25    1    1    2    0    0  0.43760200593E+02 -0.19537906135E+02 -0.41132018797E+03  0.43255748978E+03  0.12500000000E+03 0.  0.
         25    1    1    2    0    0 -0.84515355545E+02  0.41769906133E+02 -0.42014711059E+03  0.44837056651E+03  0.12500000000E+03 0.  0.
</event>
<event>
 5    0  0.5616733E-005  0.2314130E+03  0.7546771E-02  0.1125649E+00
         21   -1    0    0  502  501  0.00000000000E+00  0.00000000000E+00  0.86903200087E+03  0.86903200087E+03  0.00000000000E+00 0.  1.
         21   -1    0    0  501  502 -0.00000000000E+00 -0.00000000000E+00 -0.61622583779E+02  0.61622583779E+02  0.00000000000E+00 0.  1.
         25    1    1    2    0    0  0.60686011012E+02 -0.83863179022E+02  0.17588135667E+03  0.23932211840E+03  0.12500000000E+03 0.  0.
         25    1    1    2    0    0 -0.66023577308E+02  0.30306275246E+02  0.30274933468E+03  0.33549924400E+03  0.12500000000E+03 0.  0.
         25    1    1    2    0    0  0.53375662959E+01  0.53556903776E+02  0.32877872574E+03  0.35583322225E+03  0.12500000000E+03 0.  0.
</event>
<event>
 5    0  0.5616733E-005  0.3916358E+03  0.7546771E-02  0.1046715E+00
         21   -1    0    0  502  501  0.00000000000E+00  0.00000000000E+00  0.13812607074E+04  0.13812607074E+04  0.00000000000E+00 0.  1.
         21   -1    0    0  501  502 -0.00000000000E+00 -0.00000000000E+00 -0.11104245146E+03  0.11104245146E+03  0.00000000000E+00 0.  1.
         25    1    1    2    0    0 -0.73239551619E+02  0.39651418475E+02  0.58000883390E+03  0.59914231557E+03  0.12500000000E+03 0.  0.
         25    1    1    2    0    0 -0.81209605842E+01 -0.91714109924E+02 -0.28025277978E+02  0.15775881644E+03  0.12500000000E+03 0.  0.
         25    1    1    2    0    0  0.81360512203E+02  0.52062691449E+02  0.71823470004E+03  0.73540202687E+03  0.12500000000E+03 0.  0.
</event>
<event>
 5    0  0.5616733E-005  0.2216589E+03  0.7546771E-02  0.1132652E+00
         21   -1    0    0  502  501  0.00000000000E+00  0.00000000000E+00  0.45553814767E+03  0.45553814767E+03  0.00000000000E+00 0.  1.
         21   -1    0    0  501  502 -0.00000000000E+00 -0.00000000000E+00 -0.10785635518E+03  0.10785635518E+03  0.00000000000E+00 0.  1.
         25    1    1    2    0    0 -0.29232970778E+02 -0.92630989630E+02  0.71121701198E+02  0.17354642953E+03  0.12500000000E+03 0.  0.
         25    1    1    2    0    0 -0.61262606594E+01  0.50854314712E+02  0.16735526297E+03  0.21507318856E+03  0.12500000000E+03 0.  0.
         25    1    1    2    0    0  0.35359231437E+02  0.41776674918E+02  0.10920482832E+03  0.17477488476E+03  0.12500000000E+03 0.  0.
</event>
<event>
 5    0  0.5616733E-005  0.3434636E+03  0.7546771E-02  0.1065330E+00
         21   -1    0    0  502  501  0.00000000000E+00  0.00000000000E+00  0.57459397170E+03  0.57459397170E+03  0.00000000000E+00 0. -1.
         21   -1    0    0  501  502 -0.00000000000E+00 -0.00000000000E+00 -0.20530534610E+03  0.20530534610E+03  0.00000000000E+00 0. -1.
         25    1    1    2    0    0  0.11906881828E+03 -0.12327076598E+03 -0.59786791497E+02  0.22039175500E+03  0.12500000000E+03 0.  0.
         25    1    1    2    0    0 -0.56299612604E+02  0.51525295938E+02  0.35836105099E+03  0.38713323982E+03  0.12500000000E+03 0.  0.
         25    1    1    2    0    0 -0.62769205677E+02  0.71745470047E+02  0.70714366100E+02  0.17237432299E+03  0.12500000000E+03 0.  0.
</event>
<event>
 5    0  0.5616733E-005  0.2706186E+03  0.7546771E-02  0.1100926E+00
         21   -1    0    0  502  501  0.00000000000E+00  0.00000000000E+00  0.22258209336E+03  0.22258209336E+03  0.00000000000E+00 0. -1.
         21   -1    0    0  501  502 -0.00000000000E+00 -0.00000000000E+00 -0.32902217759E+03  0.32902217759E+03  0.00000000000E+00 0. -1.
         25    1    1    2    0    0 -0.39508014524E+02 -0.10881777672E+03 -0.77079751866E+02  0.18699860933E+03  0.12500000000E+03 0.  0.
         25    1    1    2    0    0  0.71638664658E+02  0.60825075969E+02 -0.12225578056E+03  0.19850255419E+03  0.12500000000E+03 0.  0.
         25    1    1    2    0    0 -0.32130650135E+02  0.47992700755E+02  0.92895448197E+02  0.16610310743E+03  0.12500000000E+03 0.  0.
</event>
<event>
 5    0  0.5616733E-005  0.2136683E+03  0.7546771E-02  0.1138694E+00
         21   -1    0    0  502  501  0.00000000000E+00  0.00000000000E+00  0.40534944769E+03  0.40534944769E+03  0.00000000000E+00 0.  1.
         21   -1    0    0  501  502 -0.00000000000E+00 -0.00000000000E+00 -0.11262910972E+03  0.11262910972E+03  0.00000000000E+00 0.  1.
         25    1    1    2    0    0 -0.66243002974E+02  0.36979017069E+02  0.10264438734E+03  0.17865176573E+03  0.12500000000E+03 0.  0.
         25    1    1    2    0    0  0.13763442294E+02 -0.48430328529E+02  0.49147081226E+02  0.14344115399E+03  0.12500000000E+03 0.  0.
         25    1    1    2    0    0  0.52479560681E+02  0.11451311459E+02  0.14092886941E+03  0.19588563770E+03  0.12500000000E+03 0.  0.
</event>
<event>
 5    0  0.5616733E-005  0.5578729E+03  0.7546771E-02  0.9996879E-01
         21   -1    0    0  502  501  0.00000000000E+00  0.00000000000E+00  0.61302403144E+03  0.61302403144E+03  0.00000000000E+00 0.  1.
         21   -1    0    0  501  502 -0.00000000000E+00 -0.00000000000E+00 -0.50768341086E+03  0.50768341086E+03  0.00000000000E+00 0.  1.
         25    1    1    2    0    0 -0.14601926542E+03 -0.20793433083E+03 -0.92490731807E+02  0.29788898483E+03  0.12500000000E+03 0.  0.
         25    1    1    2    0    0 -0.24731033681E+03  0.21065633046E+02 -0.82698700496E+02  0.28994868279E+03  0.12500000000E+03 0.  0.
         25    1    1    2    0    0  0.39332960223E+03  0.18686869779E+03  0.28053005288E+03  0.53286977468E+03  0.12500000000E+03 0.  0.
</event>
<event>
 5    0  0.5616733E-005  0.2356450E+03  0.7546771E-02  0.1122728E+00
         21   -1    0    0  502  501  0.00000000000E+00  0.00000000000E+00  0.32795849745E+03  0.32795849745E+03  0.00000000000E+00 0.  1.
         21   -1    0    0  501  502 -0.00000000000E+00 -0.00000000000E+00 -0.16931586013E+03  0.16931586013E+03  0.00000000000E+00 0.  1.
         25    1    1    2    0    0  0.12690488518E+03  0.38032195087E+02  0.34505493489E+02  0.18538318917E+03  0.12500000000E+03 0.  0.
         25    1    1    2    0    0 -0.62484228944E+02 -0.42335449291E+01  0.77915678100E+02  0.16005641088E+03  0.12500000000E+03 0.  0.
         25    1    1    2    0    0 -0.64420656234E+02 -0.33798650158E+02  0.46221465726E+02  0.15183475754E+03  0.12500000000E+03 0.  0.
</event>
<event>
 5    0  0.5616733E-005  0.3940463E+03  0.7546771E-02  0.1045861E+00
         21   -1    0    0  502  501  0.00000000000E+00  0.00000000000E+00  0.17818404984E+03  0.17818404984E+03  0.00000000000E+00 0. -1.
         21   -1    0    0  501  502 -0.00000000000E+00 -0.00000000000E+00 -0.87141634456E+03  0.87141634456E+03  0.00000000000E+00 0. -1.
         25    1    1    2    0    0 -0.96568709700E+02 -0.42570406409E+02 -0.22143820686E+03  0.27531370226E+03  0.12500000000E+03 0.  0.
         25    1    1    2    0    0 -0.22004168068E+03  0.61877983261E+02 -0.12862223169E+03  0.29054415247E+03  0.12500000000E+03 0.  0.
         25    1    1    2    0    0  0.31661039038E+03 -0.19307576851E+02 -0.34317185617E+03  0.48374253968E+03  0.12500000000E+03 0.  0.
</event>
<event>
 5    0  0.5616733E-005  0.2490032E+03  0.7546771E-02  0.1113936E+00
         21   -1    0    0  502  501  0.00000000000E+00  0.00000000000E+00  0.11063555472E+04  0.11063555472E+04  0.00000000000E+00 0.  1.
         21   -1    0    0  501  502 -0.00000000000E+00 -0.00000000000E+00 -0.56042180208E+02  0.56042180208E+02  0.00000000000E+00 0.  1.
         25    1    1    2    0    0 -0.77632437612E+02 -0.10031347025E+03  0.25754476803E+03  0.31311961808E+03  0.12500000000E+03 0.  0.
         25    1    1    2    0    0  0.35667868580E+02  0.10220646658E+03  0.53129993749E+03  0.55643776133E+03  0.12500000000E+03 0.  0.
         25    1    1    2    0    0  0.41964569032E+02 -0.18929963259E+01  0.26146866151E+03  0.29284034805E+03  0.12500000000E+03 0.  0.
</event>
<event>
 5    0  0.6499099E-005  0.3231652E+03  0.7546771E-02  0.1074202E+00
         21   -1    0    0  502  501  0.00000000000E+00  0.00000000000E+00  0.24564908878E+03  0.24564908878E+03  0.00000000000E+00 0. -1.
         21   -1    0    0  501  502 -0.00000000000E+00 -0.00000000000E+00 -0.42514189262E+03  0.42514189262E+03  0.00000000000E+00 0. -1.
         25    1    1    2    0    0 -0.56018157492E+01  0.88759116725E+02 -0.20354927599E+03  0.25488599196E+03  0.12500000000E+03 0.  0.
         25    1    1    2    0    0  0.25595876115E+01  0.92444458715E+02  0.97841172515E+02  0.18371288598E+03  0.12500000000E+03 0.  0.
         25    1    1    2    0    0  0.30422281377E+01 -0.18120357544E+03 -0.73784700366E+02  0.23219210347E+03  0.12500000000E+03 0.  0.
</event>
<event>
 5    0  0.5616733E-005  0.4751291E+03  0.7546771E-02  0.1020482E+00
         21   -1    0    0  502  501  0.00000000000E+00  0.00000000000E+00  0.55416863784E+03  0.55416863784E+03  0.00000000000E+00 0.  1.
         21   -1    0    0  501  502 -0.00000000000E+00 -0.00000000000E+00 -0.40736272575E+03  0.40736272575E+03  0.00000000000E+00 0.  1.
         25    1    1    2    0    0 -0.22028295518E+03  0.16346705239E+03  0.31081548019E+03  0.43298651283E+03  0.12500000000E+03 0.  0.
         25    1    1    2    0    0  0.21208485556E+02 -0.21680293197E+03 -0.13674484910E+03  0.28596759418E+03  0.12500000000E+03 0.  0.
         25    1    1    2    0    0  0.19907446963E+03  0.53335879572E+02 -0.27264719015E+02  0.24257725658E+03  0.12500000000E+03 0.  0.
</event>
<event>
 5    0  0.5616733E-005  0.3528511E+03  0.7546771E-02  0.1061451E+00
         21   -1    0    0  502  501  0.00000000000E+00  0.00000000000E+00  0.12612458396E+03  0.12612458396E+03  0.00000000000E+00 0.  1.
         21   -1    0    0  501  502 -0.00000000000E+00 -0.00000000000E+00 -0.98715015692E+03  0.98715015692E+03  0.00000000000E+00 0.  1.
         25    1    1    2    0    0 -0.10574134546E+03  0.38257907343E+02 -0.28708192598E+03  0.33269495314E+03  0.12500000000E+03 0.  0.
         25    1    1    2    0    0 -0.14668530241E+03  0.18377506309E+02 -0.40084538946E+03  0.44514754513E+03  0.12500000000E+03 0.  0.
         25    1    1    2    0    0  0.25242664787E+03 -0.56635413652E+02 -0.17309825751E+03  0.33543224262E+03  0.12500000000E+03 0.  0.
</event>
<event>
 5    0  0.5616733E-005  0.2706561E+03  0.7546771E-02  0.1100905E+00
         21   -1    0    0  502  501  0.00000000000E+00  0.00000000000E+00  0.20792288534E+03  0.20792288534E+03  0.00000000000E+00 0.  1.
         21   -1    0    0  501  502 -0.00000000000E+00 -0.00000000000E+00 -0.35231674976E+03  0.35231674976E+03  0.00000000000E+00 0.  1.
         25    1    1    2    0    0 -0.47956620486E+02 -0.10903377477E+03  0.55556772448E+02  0.18138290011E+03  0.12500000000E+03 0.  0.
         25    1    1    2    0    0 -0.26175121613E+02  0.11822908635E+03 -0.13047156908E+03  0.21751111279E+03  0.12500000000E+03 0.  0.
         25    1    1    2    0    0  0.74131742100E+02 -0.91953115834E+01 -0.69479067783E+02  0.16134562220E+03  0.12500000000E+03 0.  0.
</event>
<event>
 5    0  0.5616733E-005  0.3018074E+03  0.7546771E-02  0.1084341E+00
         21   -1    0    0  502  501  0.00000000000E+00  0.00000000000E+00  0.15659836450E+03  0.15659836450E+03  0.00000000000E+00 0.  1.
         21   -1    0    0  501  502 -0.00000000000E+00 -0.00000000000E+00 -0.58166443823E+03  0.58166443823E+03  0.00000000000E+00 0.  1.
         25    1    1    2    0    0 -0.88574761422E+02 -0.14023702294E+03 -0.11800061148E+03  0.23887455970E+03  0.12500000000E+03 0.  0.
         25    1    1    2    0    0  0.11022106266E+03  0.19242243578E+03 -0.22359387894E+03  0.33881307405E+03  0.12500000000E+03 0.  0.
         25    1    1    2    0    0 -0.21646301238E+02 -0.52185412842E+02 -0.83471583311E+02  0.16057516897E+03  0.12500000000E+03 0.  0.
</event>
<event>
 5    0  0.5616733E-005  0.3764179E+03  0.7546771E-02  0.1052266E+00
         21   -1    0    0  502  501  0.00000000000E+00  0.00000000000E+00  0.15772713076E+03  0.15772713076E+03  0.00000000000E+00 0.  1.
         21   -1    0    0  501  502 -0.00000000000E+00 -0.00000000000E+00 -0.89832635517E+03  0.89832635517E+03  0.00000000000E+00 0.  1.
         25    1    1    2    0    0 -0.24566748293E+03 -0.15752360273E+01 -0.56028221104E+03  0.62441664739E+03  0.12500000000E+03 0.  0.
         25    1    1    2    0    0  0.18681848701E+03  0.24125190286E+02 -0.33089175384E+02  0.22847990158E+03  0.12500000000E+03 0.  0.
         25    1    1    2    0    0  0.58848995914E+02 -0.22549954258E+02 -0.14722783798E+03  0.20315693696E+03  0.12500000000E+03 0.  0.
</event>
<event>
 5    0  0.5616733E-005  0.5582377E+03  0.7546771E-02  0.9996050E-01
         21   -1    0    0  502  501  0.00000000000E+00  0.00000000000E+00  0.41054756206E+03  0.41054756206E+03  0.00000000000E+00 0. -1.
         21   -1    0    0  501  502 -0.00000000000E+00 -0.00000000000E+00 -0.75905772895E+03  0.75905772895E+03  0.00000000000E+00 0. -1.
         25    1    1    2    0    0 -0.10249039944E+03 -0.44438599043E+03 -0.27875688042E+02  0.47369319655E+03  0.12500000000E+03 0.  0.
         25    1    1    2    0    0  0.20700017463E+03  0.35109786142E+03 -0.25639870956E+03  0.49747771695E+03  0.12500000000E+03 0.  0.
         25    1    1    2    0    0 -0.10450977519E+03  0.93288129012E+02 -0.64235769289E+02  0.19843437752E+03  0.12500000000E+03 0.  0.
</event>
<event>
 5    0  0.5616733E-005  0.2771107E+03  0.7546771E-02  0.1097278E+00
         21   -1    0    0  502  501  0.00000000000E+00  0.00000000000E+00  0.14813682393E+03  0.14813682393E+03  0.00000000000E+00 0.  1.
         21   -1    0    0  501  502 -0.00000000000E+00 -0.00000000000E+00 -0.51837425623E+03  0.51837425623E+03  0.00000000000E+00 0.  1.
         25    1    1    2    0    0  0.11173330429E+03 -0.14318424846E+03 -0.21792425662E+03  0.31000329339E+03  0.12500000000E+03 0.  0.
         25    1    1    2    0    0 -0.22249114663E+02  0.10031899745E+03 -0.63180871496E+02  0.17371167743E+03  0.12500000000E+03 0.  0.
         25    1    1    2    0    0 -0.89484189624E+02  0.42865251004E+02 -0.89132304191E+02  0.18279610933E+03  0.12500000000E+03 0.  0.
</event>
<event>
 5    0  0.5616733E-005  0.5725007E+03  0.7546771E-02  0.9964160E-01
         21   -1    0    0  502  501  0.00000000000E+00  0.00000000000E+00  0.10323990949E+04  0.10323990949E+04  0.00000000000E+00 0. -1.
         21   -1    0    0  501  502 -0.00000000000E+00 -0.00000000000E+00 -0.31747125214E+03  0.31747125214E+03  0.00000000000E+00 0. -1.
         25    1    1    2    0    0 -0.15286101158E+03 -0.23961344538E+02  0.78124191514E+02  0.21370312163E+03  0.12500000000E+03 0.  0.
         25    1    1    2    0    0  0.22979237879E+03 -0.28271168616E+03 -0.31394718540E+02  0.38644671456E+03  0.12500000000E+03 0.  0.
         25    1    1    2    0    0 -0.76931367209E+02  0.30667303069E+03  0.66819836981E+03  0.74972051088E+03  0.12500000000E+03 0.  0.
</event>
<event>
 5    0  0.5616733E-005  0.6435869E+03  0.7546771E-02  0.9818888E-01
         21   -1    0    0  502  501  0.00000000000E+00  0.00000000000E+00  0.78173969627E+03  0.78173969627E+03  0.00000000000E+00 0.  1.
         21   -1    0    0  501  502 -0.00000000000E+00 -0.00000000000E+00 -0.52984921167E+03  0.52984921167E+03  0.00000000000E+00 0.  1.
         25    1    1    2    0    0  0.11686444277E+03  0.52428437237E+02 -0.19762417368E+03  0.26662024124E+03  0.12500000000E+03 0.  0.
         25    1    1    2    0    0 -0.39988815138E+03  0.71055654010E+02  0.55181939850E+03  0.69648337248E+03  0.12500000000E+03 0.  0.
         25    1    1    2    0    0  0.28302370861E+03 -0.12348409125E+03 -0.10230474022E+03  0.34848529423E+03  0.12500000000E+03 0.  0.
</event>
<event>
 5    0  0.5616733E-005  0.3781518E+03  0.7546771E-02  0.1051619E+00
         21   -1    0    0  502  501  0.00000000000E+00  0.00000000000E+00  0.94476617953E+02  0.94476617953E+02  0.00000000000E+00 0. -1.
         21   -1    0    0  501  502 -0.00000000000E+00 -0.00000000000E+00 -0.15135891275E+04  0.15135891275E+04  0.00000000000E+00 0. -1.
         25    1    1    2    0    0  0.70039458497E+02 -0.59211686435E+02 -0.63321027000E+02  0.16746970477E+03  0.12500000000E+03 0.  0.
         25    1    1    2    0    0  0.29118880724E+01  0.43310735864E+02 -0.76093926920E+02  0.15264201469E+03  0.12500000000E+03 0.  0.
         25    1    1    2    0    0 -0.72951346570E+02  0.15900950571E+02 -0.12796975556E+04  0.12879540259E+04  0.12500000000E+03 0.  0.
</event>
<event>
 5    0  0.5616733E-005  0.4648198E+03  0.7546771E-02  0.1023393E+00
         21   -1    0    0  502  501  0.00000000000E+00  0.00000000000E+00  0.57690484579E+03  0.57690484579E+03  0.00000000000E+00 0.  1.
         21   -1    0    0  501  502 -0.00000000000E+00 -0.00000000000E+00 -0.37451141122E+03  0.37451141122E+03  0.00000000000E+00 0.  1.
         25    1    1    2    0    0  0.11042596687E+03  0.36749042034E+03 -0.56400288870E+02  0.40749122173E+03  0.12500000000E+03 0.  0.
         25    1    1    2    0    0 -0.77036216233E+02 -0.28309863224E+03  0.21034266089E+03  0.38203200020E+03  0.12500000000E+03 0.  0.
         25    1    1    2    0    0 -0.33389750636E+02 -0.84391788097E+02  0.48451062547E+02  0.16189303508E+03  0.12500000000E+03 0.  0.
</event>
<event>
 5    0  0.5616733E-005  0.2611525E+03  0.7546771E-02  0.1106453E+00
         21   -1    0    0  502  501  0.00000000000E+00  0.00000000000E+00  0.56082380717E+02  0.56082380717E+02  0.00000000000E+00 0. -1.
         21   -1    0    0  501  502 -0.00000000000E+00 -0.00000000000E+00 -0.12160791772E+04  0.12160791772E+04  0.00000000000E+00 0. -1.
         25    1    1    2    0    0 -0.30551796160E+02  0.25158478164E+02 -0.84193723375E+02  0.15582023080E+03  0.12500000000E+03 0.  0.
         25    1    1    2    0    0 -0.29568453511E+02  0.10059474268E+01 -0.27923530796E+03  0.30736405545E+03  0.12500000000E+03 0.  0.
         25    1    1    2    0    0  0.60120249670E+02 -0.26164425591E+02 -0.79656776514E+03  0.80897727165E+03  0.12500000000E+03 0.  0.
</event>
<event>
 5    0  0.5616733E-005  0.2860781E+03  0.7546771E-02  0.1092415E+00
         21   -1    0    0  502  501  0.00000000000E+00  0.00000000000E+00  0.18264309912E+03  0.18264309912E+03  0.00000000000E+00 0.  1.
         21   -1    0    0  501  502 -0.00000000000E+00 -0.00000000000E+00 -0.44809071132E+03  0.44809071132E+03  0.00000000000E+00 0.  1.
         25    1    1    2    0    0  0.45356982940E+02 -0.39311803928E+02 -0.10744840532E+03  0.17542187331E+03  0.12500000000E+03 0.  0.
         25    1    1    2    0    0 -0.14415695696E+03  0.55830668302E+02 -0.20778094096E+03  0.28756948932E+03  0.12500000000E+03 0.  0.
         25    1    1    2    0    0  0.98799974020E+02 -0.16518864374E+02  0.49781734090E+02  0.16774244780E+03  0.12500000000E+03 0.  0.
</event>
<event>
 5    0  0.5616733E-005  0.5061733E+03  0.7546771E-02  0.1012180E+00
         21   -1    0    0  502  501  0.00000000000E+00  0.00000000000E+00  0.33508497068E+04  0.33508497068E+04  0.00000000000E+00 0. -1.
         21   -1    0    0  501  502 -0.00000000000E+00 -0.00000000000E+00 -0.76461633852E+02  0.76461633852E+02  0.00000000000E+00 0. -1.
         25    1    1    2    0    0  0.15570085524E+03 -0.12481534782E+03  0.14862729668E+04  0.15048102735E+04  0.12500000000E+03 0.  0.
         25    1    1    2    0    0 -0.46919635567E+02  0.16427579466E+03  0.17294273770E+04  0.17423352264E+04  0.12500000000E+03 0.  0.
         25    1    1    2    0    0 -0.10878121967E+03 -0.39460446841E+02  0.58687729161E+02  0.18016584075E+03  0.12500000000E+03 0.  0.
</event>
<event>
 5    0  0.5616733E-005  0.3038029E+03  0.7546771E-02  0.1083355E+00
         21   -1    0    0  502  501  0.00000000000E+00  0.00000000000E+00  0.11242757345E+03  0.11242757345E+03  0.00000000000E+00 0. -1.
         21   -1    0    0  501  502 -0.00000000000E+00 -0.00000000000E+00 -0.82093943346E+03  0.82093943346E+03  0.00000000000E+00 0. -1.
         25    1    1    2    0    0 -0.93950925068E+02  0.17943302022E+02 -0.57788309336E+03  0.59893456070E+03  0.12500000000E+03 0.  0.
         25    1    1    2    0    0  0.81182128571E+02 -0.63956719759E+02 -0.11688010875E+03  0.19991738249E+03  0.12500000000E+03 0.  0.
         25    1    1    2    0    0  0.12768796497E+02  0.46013417737E+02 -0.13748657904E+02  0.13451506373E+03  0.12500000000E+03 0.  0.
</event>
<event>
 5    0  0.5616733E-005  0.2437096E+03  0.7546771E-02  0.1117346E+00
         21   -1    0    0  502  501  0.00000000000E+00  0.00000000000E+00  0.10789378721E+04  0.10789378721E+04  0.00000000000E+00 0. -1.
         21   -1    0    0  501  502 -0.00000000000E+00 -0.00000000000E+00 -0.55048926924E+02  0.55048926924E+02  0.00000000000E+00 0. -1.
         25    1    1    2    0    0  0.13175450368E+03  0.32682575295E+02  0.26258536064E+03  0.32094153921E+03  0.12500000000E+03 0.  0.
         25    1    1    2    0    0 -0.62632373509E+02 -0.22094103740E+02  0.35137462949E+03  0.37881406241E+03  0.12500000000E+03 0.  0.
         25    1    1    2    0    0 -0.69122130174E+02 -0.10588471556E+02  0.40992895501E+03  0.43423119737E+03  0.12500000000E+03 0.  0.
</event>
<event>
 5    0  0.5616733E-005  0.3810218E+03  0.7546771E-02  0.1050557E+00
         21   -1    0    0  502  501  0.00000000000E+00  0.00000000000E+00  0.14255018129E+04  0.14255018129E+04  0.00000000000E+00 0. -1.
         21   -1    0    0  501  502 -0.00000000000E+00 -0.00000000000E+00 -0.10184317454E+03  0.10184317454E+03  0.00000000000E+00 0. -1.
         25    1    1    2    0    0 -0.19275361031E+03 -0.20614649559E+03  0.80154821960E+03  0.85892658608E+03  0.12500000000E+03 0.  0.
         25    1    1    2    0    0  0.18755419567E+03  0.11032946652E+03  0.38484021226E+03  0.45943025201E+03  0.12500000000E+03 0.  0.
         25    1    1    2    0    0  0.51994146464E+01  0.95817029077E+02  0.13727020652E+03  0.20898814936E+03  0.12500000000E+03 0.  0.
</event>
<event>
 5    0  0.5616733E-005  0.3064406E+03  0.7546771E-02  0.1082065E+00
         21   -1    0    0  502  501  0.00000000000E+00  0.00000000000E+00  0.15872437273E+03  0.15872437273E+03  0.00000000000E+00 0.  1.
         21   -1    0    0  501  502 -0.00000000000E+00 -0.00000000000E+00 -0.59162839253E+03  0.59162839253E+03  0.00000000000E+00 0.  1.
         25    1    1    2    0    0  0.41735975268E+02 -0.11495075286E+03 -0.81383375146E+02  0.19288292035E+03  0.12500000000E+03 0.  0.
         25    1    1    2    0    0 -0.61915771331E+02 -0.10282599539E+03 -0.19507465410E+03  0.26093269006E+03  0.12500000000E+03 0.  0.
         25    1    1    2    0    0  0.20179796063E+02  0.21777674825E+03 -0.15644599055E+03  0.29653715485E+03  0.12500000000E+03 0.  0.
</event>
<event>
 5    0  0.5991582E-005  0.2799832E+03  0.7546771E-02  0.1095698E+00
         21   -1    0    0  502  501  0.00000000000E+00  0.00000000000E+00  0.18534853246E+03  0.18534853246E+03  0.00000000000E+00 0. -1.
         21   -1    0    0  501  502 -0.00000000000E+00 -0.00000000000E+00 -0.42293613552E+03  0.42293613552E+03  0.00000000000E+00 0. -1.
         25    1    1    2    0    0 -0.74545758955E+02  0.31362336248E+02 -0.27272604385E+02  0.15135871717E+03  0.12500000000E+03 0.  0.
         25    1    1    2    0    0  0.55094764761E+02  0.92242960288E+02  0.20541506415E+02  0.16610584069E+03  0.12500000000E+03 0.  0.
         25    1    1    2    0    0  0.19450994193E+02 -0.12360529654E+03 -0.23085650509E+03  0.29082011012E+03  0.12500000000E+03 0.  0.
</event>
<event>
 5    0  0.5616733E-005  0.2193148E+03  0.7546771E-02  0.1134395E+00
         21   -1    0    0  502  501  0.00000000000E+00  0.00000000000E+00  0.12172606330E+04  0.12172606330E+04  0.00000000000E+00 0. -1.
         21   -1    0    0  501  502 -0.00000000000E+00 -0.00000000000E+00 -0.39514115420E+02  0.39514115420E+02  0.00000000000E+00 0. -1.
         25    1    1    2    0    0 -0.64531963263E+02  0.30178805788E+02  0.57476334194E+03  0.59249728594E+03  0.12500000000E+03 0.  0.
         25    1    1    2    0    0 -0.69909526947E+01  0.95204602644E+01  0.33023308750E+03  0.35329648267E+03  0.12500000000E+03 0.  0.
         25    1    1    2    0    0  0.71522915958E+02 -0.39699266052E+02  0.27275008817E+03  0.31098097985E+03  0.12500000000E+03 0.  0.
</event>
<event>
 5    0  0.5616733E-005  0.3568738E+03  0.7546771E-02  0.1059829E+00
         21   -1    0    0  502  501  0.00000000000E+00  0.00000000000E+00  0.14529820943E+04  0.14529820943E+04  0.00000000000E+00 0. -1.
         21   -1    0    0  501  502 -0.00000000000E+00 -0.00000000000E+00 -0.87653463452E+02  0.87653463452E+02  0.00000000000E+00 0. -1.
         25    1    1    2    0    0 -0.45743659692E+02 -0.14892209390E+03  0.48767616273E+03  0.52699460353E+03  0.12500000000E+03 0.  0.
         25    1    1    2    0    0  0.84704124911E+02  0.27198033070E+03  0.42546449283E+03  0.52706083493E+03  0.12500000000E+03 0.  0.
         25    1    1    2    0    0 -0.38960465219E+02 -0.12305823680E+03  0.45218797534E+03  0.48658011934E+03  0.12500000000E+03 0.  0.
</event>
<event>
 5    0  0.5616733E-005  0.3262042E+03  0.7546771E-02  0.1072829E+00
         21   -1    0    0  502  501  0.00000000000E+00  0.00000000000E+00  0.21599027190E+03  0.21599027190E+03  0.00000000000E+00 0. -1.
         21   -1    0    0  501  502 -0.00000000000E+00 -0.00000000000E+00 -0.49265725501E+03  0.49265725501E+03  0.00000000000E+00 0. -1.
         25    1    1    2    0    0  0.60898060695E+02 -0.50330817318E+02  0.46827559446E+02  0.15511152534E+03  0.12500000000E+03 0.  0.
         25    1    1    2    0    0 -0.22981085648E+02  0.18272534236E+03 -0.59124577198E+02  0.23029849471E+03  0.12500000000E+03 0.  0.
         25    1    1    2    0    0 -0.37916975047E+02 -0.13239452504E+03 -0.26436996536E+03  0.32323750686E+03  0.12500000000E+03 0.  0.
</event>
<event>
 5    0  0.5616733E-005  0.2565342E+03  0.7546771E-02  0.1109244E+00
         21   -1    0    0  502  501  0.00000000000E+00  0.00000000000E+00  0.10254513254E+04  0.10254513254E+04  0.00000000000E+00 0.  1.
         21   -1    0    0  501  502 -0.00000000000E+00 -0.00000000000E+00 -0.64176398496E+02  0.64176398496E+02  0.00000000000E+00 0.  1.
         25    1    1    2    0    0 -0.35385094377E+02 -0.15926218891E+02  0.57223584246E+03  0.58701329521E+03  0.12500000000E+03 0.  0.
         25    1    1    2    0    0 -0.50860260041E+02 -0.26987107695E+02  0.89852474462E+02  0.16435795448E+03  0.12500000000E+03 0.  0.
         25    1    1    2    0    0  0.86245354418E+02  0.42913326587E+02  0.29918661002E+03  0.33825647425E+03  0.12500000000E+03 0.  0.
</event>
<event>
 5    0  0.5616733E-005  0.4188427E+03  0.7546771E-02  0.1037444E+00
         21   -1    0    0  502  501  0.00000000000E+00  0.00000000000E+00  0.75237825629E+03  0.75237825629E+03  0.00000000000E+00 0. -1.
         21   -1    0    0  501  502 -0.00000000000E+00 -0.00000000000E+00 -0.23316628338E+03  0.23316628338E+03  0.00000000000E+00 0. -1.
         25    1    1    2    0    0  0.19035710275E+03  0.27456435562E+03  0.92195260243E+02  0.36843775317E+03  0.12500000000E+03 0.  0.
         25    1    1    2    0    0 -0.18552807747E+03 -0.19366289109E+03  0.29946770388E+03  0.42098917870E+03  0.12500000000E+03 0.  0.
         25    1    1    2    0    0 -0.48290252743E+01 -0.80901464540E+02  0.12754900878E+03  0.19611760780E+03  0.12500000000E+03 0.  0.
</event>
<event>
 5    0  0.5616733E-005  0.4423480E+03  0.7546771E-02  0.1030029E+00
         21   -1    0    0  502  501  0.00000000000E+00  0.00000000000E+00  0.18302453844E+03  0.18302453844E+03  0.00000000000E+00 0. -1.
         21   -1    0    0  501  502 -0.00000000000E+00 -0.00000000000E+00 -0.10691011967E+04  0.10691011967E+04  0.00000000000E+00 0. -1.
         25    1    1    2    0    0  0.11590633190E+03  0.23440055132E+03 -0.71739791504E+03  0.77373294148E+03  0.12500000000E+03 0.  0.
         25    1    1    2    0    0 -0.20072044372E+02  0.35572159488E+01  0.30647388532E+02  0.13030657380E+03  0.12500000000E+03 0.  0.
         25    1    1    2    0    0 -0.95834287529E+02 -0.23795776727E+03 -0.19932613177E+03  0.34808621989E+03  0.12500000000E+03 0.  0.
</event>
<event>
 5    0  0.5616733E-005  0.5374172E+03  0.7546771E-02  0.1004449E+00
         21   -1    0    0  502  501  0.00000000000E+00  0.00000000000E+00  0.51096230321E+03  0.51096230321E+03  0.00000000000E+00 0. -1.
         21   -1    0    0  501  502 -0.00000000000E+00 -0.00000000000E+00 -0.56524179077E+03  0.56524179077E+03  0.00000000000E+00 0. -1.
         25    1    1    2    0    0 -0.22599001895E+03 -0.33214971928E+03  0.14114545874E+03  0.44378143856E+03  0.12500000000E+03 0.  0.
         25    1    1    2    0    0  0.10792634597E+03  0.18859973429E+03 -0.29514610526E+03  0.38723917593E+03  0.12500000000E+03 0.  0.
         25    1    1    2    0    0  0.11806367298E+03  0.14354998499E+03  0.99721158958E+02  0.24518347948E+03  0.12500000000E+03 0.  0.
</event>
<event>
 5    0  0.5616733E-005  0.2173750E+03  0.7546771E-02  0.1135855E+00
         21   -1    0    0  502  501  0.00000000000E+00  0.00000000000E+00  0.25030598306E+03  0.25030598306E+03  0.00000000000E+00 0.  1.
         21   -1    0    0  501  502 -0.00000000000E+00 -0.00000000000E+00 -0.18877644633E+03  0.18877644633E+03  0.00000000000E+00 0.  1.
         25    1    1    2    0    0  0.59121570480E+02  0.11754239870E+02  0.56035718013E+02  0.14966136423E+03  0.12500000000E+03 0.  0.
         25    1    1    2    0    0 -0.49517141201E+01 -0.66892669638E+02 -0.61466296117E+01  0.14199271030E+03  0.12500000000E+03 0.  0.
         25    1    1    2    0    0 -0.54169856360E+02  0.55138429768E+02  0.11640448330E+02  0.14742835485E+03  0.12500000000E+03 0.  0.
</event>
<event>
 5    0  0.5899518E-005  0.3062376E+03  0.7546771E-02  0.1082163E+00
         21   -1    0    0  502  501  0.00000000000E+00  0.00000000000E+00  0.38504827889E+03  0.38504827889E+03  0.00000000000E+00 0. -1.
         21   -1    0    0  501  502 -0.00000000000E+00 -0.00000000000E+00 -0.24355765672E+03  0.24355765672E+03  0.00000000000E+00 0. -1.
         25    1    1    2    0    0  0.29548718224E+02 -0.76063948854E+02  0.57374777030E+02  0.15992409482E+03  0.12500000000E+03 0.  0.
         25    1    1    2    0    0  0.63309988589E+02  0.20863331522E+03  0.81353725726E+02  0.26415798978E+03  0.12500000000E+03 0.  0.
         25    1    1    2    0    0 -0.92858706813E+02 -0.13256936636E+03  0.27621194096E+01  0.20452385101E+03  0.12500000000E+03 0.  0.
</event>
<event>
 5    0  0.5616733E-005  0.2194184E+03  0.7546771E-02  0.1134317E+00
         21   -1    0    0  502  501  0.00000000000E+00  0.00000000000E+00  0.40035029371E+02  0.40035029371E+02  0.00000000000E+00 0. -1.
         21   -1    0    0  501  502 -0.00000000000E+00 -0.00000000000E+00 -0.12025577150E+04  0.12025577150E+04  0.00000000000E+00 0. -1.
         25    1    1    2    0    0  0.48177053624E+02  0.25837713954E+02 -0.47623522198E+03  0.49539237238E+03  0.12500000000E+03 0.  0.
         25    1    1    2    0    0 -0.57360382826E+02 -0.49561427470E+02 -0.50356418446E+03  0.52435525790E+03  0.12500000000E+03 0.  0.
         25    1    1    2    0    0  0.91833292014E+01  0.23723713516E+02 -0.18272327918E+03  0.22284511409E+03  0.12500000000E+03 0.  0.
</event>
<event>
 5    0  0.5850748E-005  0.3168725E+03  0.7546771E-02  0.1077098E+00
         21   -1    0    0  502  501  0.00000000000E+00  0.00000000000E+00  0.59247841657E+03  0.59247841657E+03  0.00000000000E+00 0.  1.
         21   -1    0    0  501  502 -0.00000000000E+00 -0.00000000000E+00 -0.16947142833E+03  0.16947142833E+03  0.00000000000E+00 0.  1.
         25    1    1    2    0    0 -0.92015502293E+02 -0.37677211617E+01  0.59038468746E+02  0.16610716173E+03  0.12500000000E+03 0.  0.
         25    1    1    2    0    0 -0.32791934849E+02  0.53821353962E+01 -0.55461887793E+02  0.14073130203E+03  0.12500000000E+03 0.  0.
         25    1    1    2    0    0  0.12480743714E+03 -0.16144142345E+01  0.41943040728E+03  0.45511138115E+03  0.12500000000E+03 0.  0.
</event>
<event>
 5    0  0.5616733E-005  0.3517131E+03  0.7546771E-02  0.1061914E+00
         21   -1    0    0  502  501  0.00000000000E+00  0.00000000000E+00  0.37308195502E+03  0.37308195502E+03  0.00000000000E+00 0. -1.
         21   -1    0    0  501  502 -0.00000000000E+00 -0.00000000000E+00 -0.33156809823E+03  0.33156809823E+03  0.00000000000E+00 0. -1.
         25    1    1    2    0    0  0.11735123938E+03 -0.97037939036E+02  0.10099881066E+03  0.22138978014E+03  0.12500000000E+03 0.  0.
         25    1    1    2    0    0  0.10039361631E+02  0.20563840889E+03 -0.11527034726E+03  0.26702096725E+03  0.12500000000E+03 0.  0.
         25    1    1    2    0    0 -0.12739060101E+03 -0.10860046986E+03  0.55785393399E+02  0.21623930585E+03  0.12500000000E+03 0.  0.
</event>
<event>
 5    0  0.5616733E-005  0.2553409E+03  0.7546771E-02  0.1109975E+00
         21   -1    0    0  502  501  0.00000000000E+00  0.00000000000E+00  0.77854407787E+02  0.77854407787E+02  0.00000000000E+00 0.  1.
         21   -1    0    0  501  502 -0.00000000000E+00 -0.00000000000E+00 -0.83744719290E+03  0.83744719290E+03  0.00000000000E+00 0.  1.
         25    1    1    2    0    0 -0.69164923902E+02 -0.74374419867E+02 -0.35891833646E+03  0.39339892384E+03  0.12500000000E+03 0.  0.
         25    1    1    2    0    0 -0.52582031345E+02  0.83206068777E+02 -0.20677003611E+03  0.26089646938E+03  0.12500000000E+03 0.  0.
         25    1    1    2    0    0  0.12174695525E+03 -0.88316489105E+01 -0.19390441254E+03  0.26100620747E+03  0.12500000000E+03 0.  0.
</event>
<event>
 5    0  0.5616733E-005  0.2995139E+03  0.7546771E-02  0.1085484E+00
         21   -1    0    0  502  501  0.00000000000E+00  0.00000000000E+00  0.60878925931E+03  0.60878925931E+03  0.00000000000E+00 0. -1.
         21   -1    0    0  501  502 -0.00000000000E+00 -0.00000000000E+00 -0.14735575705E+03  0.14735575705E+03  0.00000000000E+00 0. -1.
         25    1    1    2    0    0 -0.72259600826E+02  0.31536553840E+02  0.10880751775E+03  0.18352133407E+03  0.12500000000E+03 0.  0.
         25    1    1    2    0    0  0.11237322867E+03  0.12441103677E+03  0.29349175587E+03  0.36037238983E+03  0.12500000000E+03 0.  0.
         25    1    1    2    0    0 -0.40113627841E+02 -0.15594759061E+03  0.59134228636E+02  0.21225129246E+03  0.12500000000E+03 0.  0.
</event>
<event>
 5    0  0.5616733E-005  0.2547505E+03  0.7546771E-02  0.1110339E+00
         21   -1    0    0  502  501  0.00000000000E+00  0.00000000000E+00  0.74890092972E+03  0.74890092972E+03  0.00000000000E+00 0. -1.
         21   -1    0    0  501  502 -0.00000000000E+00 -0.00000000000E+00 -0.86657439456E+02  0.86657439456E+02  0.00000000000E+00 0. -1.
         25    1    1    2    0    0  0.38083207693E+02  0.91239761380E+02  0.35741681286E+03  0.39133975377E+03  0.12500000000E+03 0.  0.
         25    1    1    2    0    0 -0.20391246984E+02 -0.24833363690E+02  0.26713169947E+03  0.29667632829E+03  0.12500000000E+03 0.  0.
         25    1    1    2    0    0 -0.17691960708E+02 -0.66406397691E+02  0.37694977941E+02  0.14754228712E+03  0.12500000000E+03 0.  0.
</event>
<event>
 5    0  0.5616733E-005  0.2424866E+03  0.7546771E-02  0.1118147E+00
         21   -1    0    0  502  501  0.00000000000E+00  0.00000000000E+00  0.96135780226E+03  0.96135780226E+03  0.00000000000E+00 0.  1.
         21   -1    0    0  501  502 -0.00000000000E+00 -0.00000000000E+00 -0.61163218994E+02  0.61163218994E+02  0.00000000000E+00 0.  1.
         25    1    1    2    0    0  0.36998986050E+02 -0.53756650867E+02  0.12386055962E+03  0.18768361865E+03  0.12500000000E+03 0.  0.
         25    1    1    2    0    0  0.33893280315E+02  0.25375580146E+02  0.54715196361E+03  0.56284362464E+03  0.12500000000E+03 0.  0.
         25    1    1    2    0    0 -0.70892266366E+02  0.28381070721E+02  0.22918206004E+03  0.27199377796E+03  0.12500000000E+03 0.  0.
</event>
<event>
 5    0  0.6828751E-005  0.2734585E+03  0.7546771E-02  0.1099316E+00
         21   -1    0    0  502  501  0.00000000000E+00  0.00000000000E+00  0.17173936620E+03  0.17173936620E+03  0.00000000000E+00 0.  1.
         21   -1    0    0  501  502 -0.00000000000E+00 -0.00000000000E+00 -0.43542449444E+03  0.43542449444E+03  0.00000000000E+00 0.  1.
         25    1    1    2    0    0 -0.59084829185E+02 -0.10649014362E+03  0.79429896514E+01  0.17469762108E+03  0.12500000000E+03 0.  0.
         25    1    1    2    0    0 -0.53751129447E+02  0.47789699521E+02 -0.18395657735E+03  0.23374785913E+03  0.12500000000E+03 0.  0.
         25    1    1    2    0    0  0.11283595863E+03  0.58700444099E+02 -0.87671540545E+02  0.19871838043E+03  0.12500000000E+03 0.  0.
</event>
<event>
 5    0  0.5616733E-005  0.5765785E+03  0.7546771E-02  0.9955226E-01
         21   -1    0    0  502  501  0.00000000000E+00  0.00000000000E+00  0.18602477532E+04  0.18602477532E+04  0.00000000000E+00 0. -1.
         21   -1    0    0  501  502 -0.00000000000E+00 -0.00000000000E+00 -0.17870883906E+03  0.17870883906E+03  0.00000000000E+00 0. -1.
         25    1    1    2    0    0 -0.26467734192E+03 -0.33911643760E+03  0.42653015160E+03  0.61855236141E+03  0.12500000000E+03 0.  0.
         25    1    1    2    0    0 -0.48948020778E+02  0.88242249716E+01  0.86216240302E+02  0.15978740807E+03  0.12500000000E+03 0.  0.
         25    1    1    2    0    0  0.31362536270E+03  0.33029221263E+03  0.11687925222E+04  0.12606168227E+04  0.12500000000E+03 0.  0.
</event>
<event>
 5    0  0.5616733E-005  0.2257161E+03  0.7546771E-02  0.1129692E+00
         21   -1    0    0  502  501  0.00000000000E+00  0.00000000000E+00  0.81861811115E+02  0.81861811115E+02  0.00000000000E+00 0. -1.
         21   -1    0    0  501  502 -0.00000000000E+00 -0.00000000000E+00 -0.62236300411E+03  0.62236300411E+03  0.00000000000E+00 0. -1.
         25    1    1    2    0    0 -0.94220874452E+02 -0.25654723005E+02 -0.16370898021E+03  0.22795036345E+03  0.12500000000E+03 0.  0.
         25    1    1    2    0    0  0.10425414729E+03  0.66462372406E+01 -0.23614595127E+03  0.28688501181E+03  0.12500000000E+03 0.  0.
         25    1    1    2    0    0 -0.10033272837E+02  0.19008485764E+02 -0.14064626151E+03  0.18938943997E+03  0.12500000000E+03 0.  0.
</event>
<event>
 5    0  0.5616733E-005  0.3604174E+03  0.7546771E-02  0.1058419E+00
         21   -1    0    0  502  501  0.00000000000E+00  0.00000000000E+00  0.50361068857E+03  0.50361068857E+03  0.00000000000E+00 0. -1.
         21   -1    0    0  501  502 -0.00000000000E+00 -0.00000000000E+00 -0.25793869248E+03  0.25793869248E+03  0.00000000000E+00 0. -1.
         25    1    1    2    0    0 -0.17044194629E+02  0.25141573163E+02  0.18677601950E+03  0.22678819355E+03  0.12500000000E+03 0.  0.
         25    1    1    2    0    0  0.17856448945E+03 -0.12044595196E+03 -0.89820922175E+02  0.26473628821E+03  0.12500000000E+03 0.  0.
         25    1    1    2    0    0 -0.16152029482E+03  0.95304378794E+02  0.14871689876E+03  0.27002489929E+03  0.12500000000E+03 0.  0.
</event>
<event>
 5    0  0.5616733E-005  0.4166045E+03  0.7546771E-02  0.1038177E+00
         21   -1    0    0  502  501  0.00000000000E+00  0.00000000000E+00  0.65202714712E+03  0.65202714712E+03  0.00000000000E+00 0. -1.
         21   -1    0    0  501  502 -0.00000000000E+00 -0.00000000000E+00 -0.26618418369E+03  0.26618418369E+03  0.00000000000E+00 0. -1.
         25    1    1    2    0    0 -0.83994971052E+02 -0.19324166494E+03  0.50595284766E+03  0.56214836146E+03  0.12500000000E+03 0.  0.
         25    1    1    2    0    0  0.35199136864E+02  0.11647842212E+03 -0.29643166913E+02  0.17694609179E+03  0.12500000000E+03 0.  0.
         25    1    1    2    0    0  0.48795834188E+02  0.76763242829E+02 -0.90466717324E+02  0.17911687756E+03  0.12500000000E+03 0.  0.
</event>
<event>
 5    0  0.5616733E-005  0.4952120E+03  0.7546771E-02  0.1015036E+00
         21   -1    0    0  502  501  0.00000000000E+00  0.00000000000E+00  0.20456456669E+03  0.20456456669E+03  0.00000000000E+00 0.  1.
         21   -1    0    0  501  502 -0.00000000000E+00 -0.00000000000E+00 -0.11988143440E+04  0.11988143440E+04  0.00000000000E+00 0.  1.
         25    1    1    2    0    0 -0.32912197077E+02 -0.27715899345E+03  0.29825280336E+02  0.30727002410E+03  0.12500000000E+03 0.  0.
         25    1    1    2    0    0  0.40452840686E+02  0.10786914145E+03 -0.33632098628E+03  0.37684080168E+03  0.12500000000E+03 0.  0.
         25    1    1    2    0    0 -0.75406436088E+01  0.16928985200E+03 -0.68775407139E+03  0.71926808494E+03  0.12500000000E+03 0.  0.
</event>
<event>
 5    0  0.5616733E-005  0.2792723E+03  0.7546771E-02  0.1096087E+00
         21   -1    0    0  502  501  0.00000000000E+00  0.00000000000E+00  0.25984092935E+03  0.25984092935E+03  0.00000000000E+00 0.  1.
         21   -1    0    0  501  502 -0.00000000000E+00 -0.00000000000E+00 -0.30015668084E+03  0.30015668084E+03  0.00000000000E+00 0.  1.
         25    1    1    2    0    0 -0.45466046197E+02 -0.11499383936E+03  0.52233556187E+02  0.18342325054E+03  0.12500000000E+03 0.  0.
         25    1    1    2    0    0  0.78359722822E+02 -0.19690806342E+02 -0.11563454426E+03  0.18847896923E+03  0.12500000000E+03 0.  0.
         25    1    1    2    0    0 -0.32893676625E+02  0.13468464570E+03  0.23085236580E+02  0.18809539042E+03  0.12500000000E+03 0.  0.
</event>
<event>
 5    0  0.5846957E-005  0.3292920E+03  0.7546771E-02  0.1071451E+00
         21   -1    0    0  502  501  0.00000000000E+00  0.00000000000E+00  0.13199235427E+03  0.13199235427E+03  0.00000000000E+00 0.  1.
         21   -1    0    0  501  502 -0.00000000000E+00 -0.00000000000E+00 -0.82151148451E+03  0.82151148451E+03  0.00000000000E+00 0.  1.
         25    1    1    2    0    0  0.23217639120E+02  0.12251723391E+03 -0.23029540035E+02  0.17805867316E+03  0.12500000000E+03 0.  0.
         25    1    1    2    0    0 -0.91431732751E+02 -0.12646988969E+03 -0.18175634445E+03  0.27021244143E+03  0.12500000000E+03 0.  0.
         25    1    1    2    0    0  0.68214093631E+02  0.39526557780E+01 -0.48473324576E+03  0.50523272420E+03  0.12500000000E+03 0.  0.
</event>
<event>
 5    0  0.5616733E-005  0.3068831E+03  0.7546771E-02  0.1081850E+00
         21   -1    0    0  502  501  0.00000000000E+00  0.00000000000E+00  0.30644300715E+03  0.30644300715E+03  0.00000000000E+00 0.  1.
         21   -1    0    0  501  502 -0.00000000000E+00 -0.00000000000E+00 -0.30732390156E+03  0.30732390156E+03  0.00000000000E+00 0.  1.
         25    1    1    2    0    0  0.41722947114E+02  0.18847484415E+02  0.15390861921E+03  0.20349175672E+03  0.12500000000E+03 0.  0.
         25    1    1    2    0    0  0.77380220047E+02 -0.93108801069E+02 -0.13701978412E+03  0.22148672315E+03  0.12500000000E+03 0.  0.
         25    1    1    2    0    0 -0.11910316716E+03  0.74261316653E+02 -0.17769729500E+02  0.18878842884E+03  0.12500000000E+03 0.  0.
</event>
<event>
 5    0  0.5616733E-005  0.4260978E+03  0.7546771E-02  0.1035100E+00
         21   -1    0    0  502  501  0.00000000000E+00  0.00000000000E+00  0.76211165538E+02  0.76211165538E+02  0.00000000000E+00 0.  1.
         21   -1    0    0  501  502 -0.00000000000E+00 -0.00000000000E+00 -0.23823196735E+04  0.23823196735E+04  0.00000000000E+00 0.  1.
         25    1    1    2    0    0 -0.46440427881E+02  0.64140083419E+02 -0.57478401440E+03  0.59352533800E+03  0.12500000000E+03 0.  0.
         25    1    1    2    0    0  0.14941219811E+03  0.15464381584E+03 -0.22857535329E+03  0.33780231919E+03  0.12500000000E+03 0.  0.
         25    1    1    2    0    0 -0.10297177023E+03 -0.21878389926E+03 -0.15027491403E+04  0.15272031818E+04  0.12500000000E+03 0.  0.
</event>
<event>
 5    0  0.5616733E-005  0.3514185E+03  0.7546771E-02  0.1062034E+00
         21   -1    0    0  502  501  0.00000000000E+00  0.00000000000E+00  0.19156684106E+03  0.19156684106E+03  0.00000000000E+00 0. -1.
         21   -1    0    0  501  502 -0.00000000000E+00 -0.00000000000E+00 -0.64465743342E+03  0.64465743342E+03  0.00000000000E+00 0. -1.
         25    1    1    2    0    0  0.14924243752E+03 -0.21749454040E+03 -0.19832970125E+03  0.35289779067E+03  0.12500000000E+03 0.  0.
         25    1    1    2    0    0 -0.20431253996E+02  0.10288661714E+02 -0.13112577418E+03  0.18259863459E+03  0.12500000000E+03 0.  0.
         25    1    1    2    0    0 -0.12881118352E+03  0.20720587868E+03 -0.12363511692E+03  0.30072784922E+03  0.12500000000E+03 0.  0.
</event>
<event>
 5    0  0.5616733E-005  0.2522006E+03  0.7546771E-02  0.1111922E+00
         21   -1    0    0  502  501  0.00000000000E+00  0.00000000000E+00  0.50447334638E+03  0.50447334638E+03  0.00000000000E+00 0. -1.
         21   -1    0    0  501  502 -0.00000000000E+00 -0.00000000000E+00 -0.12608229479E+03  0.12608229479E+03  0.00000000000E+00 0. -1.
         25    1    1    2    0    0  0.55627736443E+02 -0.60853104704E+02  0.12227863799E+03  0.19332514250E+03  0.12500000000E+03 0.  0.
         25    1    1    2    0    0  0.70119066476E+02  0.96700842084E+02  0.11267021725E+03  0.20636694066E+03  0.12500000000E+03 0.  0.
         25    1    1    2    0    0 -0.12574680292E+03 -0.35847737380E+02  0.14344219634E+03  0.23086355800E+03  0.12500000000E+03 0.  0.
</event>
<event>
 5    0  0.5616733E-005  0.2179142E+03  0.7546771E-02  0.1135448E+00
         21   -1    0    0  502  501  0.00000000000E+00  0.00000000000E+00  0.11453199642E+03  0.11453199642E+03  0.00000000000E+00 0. -1.
         21   -1    0    0  501  502 -0.00000000000E+00 -0.00000000000E+00 -0.41461408674E+03  0.41461408674E+03  0.00000000000E+00 0. -1.
         25    1    1    2    0    0 -0.29447555589E+02 -0.35265877875E+02 -0.11157267104E+03  0.17373629902E+03  0.12500000000E+03 0.  0.
         25    1    1    2    0    0  0.81491210798E+02 -0.27352818633E+02 -0.10435728072E+03  0.18413157297E+03  0.12500000000E+03 0.  0.
         25    1    1    2    0    0 -0.52043655209E+02  0.62618696508E+02 -0.84152138555E+02  0.17127821117E+03  0.12500000000E+03 0.  0.
</event>
<event>
 5    0  0.5616733E-005  0.2467887E+03  0.7546771E-02  0.1115351E+00
         21   -1    0    0  502  501  0.00000000000E+00  0.00000000000E+00  0.41709139579E+03  0.41709139579E+03  0.00000000000E+00 0. -1.
         21   -1    0    0  501  502 -0.00000000000E+00 -0.00000000000E+00 -0.14602229704E+03  0.14602229704E+03  0.00000000000E+00 0. -1.
         25    1    1    2    0    0  0.41392547750E+02  0.24728357369E+02  0.16997883057E+03  0.21643160007E+03  0.12500000000E+03 0.  0.
         25    1    1    2    0    0  0.46265838203E+02  0.55841521694E+02 -0.40261412660E+01  0.14456836840E+03  0.12500000000E+03 0.  0.
         25    1    1    2    0    0 -0.87658385953E+02 -0.80569879062E+02  0.10511640944E+03  0.20211372436E+03  0.12500000000E+03 0.  0.
</event>
<event>
 5    0  0.5616733E-005  0.2748575E+03  0.7546771E-02  0.1098531E+00
         21   -1    0    0  502  501  0.00000000000E+00  0.00000000000E+00  0.64296638164E+02  0.64296638164E+02  0.00000000000E+00 0.  1.
         21   -1    0    0  501  502 -0.00000000000E+00 -0.00000000000E+00 -0.11749705547E+04  0.11749705547E+04  0.00000000000E+00 0.  1.
         25    1    1    2    0    0  0.10227357077E+03  0.53397795021E+02 -0.17801029216E+03  0.24621915422E+03  0.12500000000E+03 0.  0.
         25    1    1    2    0    0 -0.59505026398E+02  0.41792525311E+02 -0.65834169058E+03  0.67403727263E+03  0.12500000000E+03 0.  0.
         25    1    1    2    0    0 -0.42768544370E+02 -0.95190320332E+02 -0.27432193381E+03  0.31901076603E+03  0.12500000000E+03 0.  0.
</event>
<event>
 5    0  0.5616733E-005  0.3950585E+03  0.7546771E-02  0.1045504E+00
         21   -1    0    0  502  501  0.00000000000E+00  0.00000000000E+00  0.27149822172E+03  0.27149822172E+03  0.00000000000E+00 0.  1.
         21   -1    0    0  501  502 -0.00000000000E+00 -0.00000000000E+00 -0.57485184052E+03  0.57485184052E+03  0.00000000000E+00 0.  1.
         25    1    1    2    0    0  0.11496115092E+03  0.14274833883E+03 -0.46747142020E+02  0.22672328894E+03  0.12500000000E+03 0.  0.
         25    1    1    2    0    0 -0.48811402637E+02 -0.19996586963E+03  0.76968684417E+02  0.25282025320E+03  0.12500000000E+03 0.  0.
         25    1    1    2    0    0 -0.66149748282E+02  0.57217530801E+02 -0.33357516119E+03  0.36680652011E+03  0.12500000000E+03 0.  0.
</event>
<event>
 5    0  0.5616733E-005  0.2140936E+03  0.7546771E-02  0.1138365E+00
         21   -1    0    0  502  501  0.00000000000E+00  0.00000000000E+00  0.21091886997E+03  0.21091886997E+03  0.00000000000E+00 0.  1.
         21   -1    0    0  501  502 -0.00000000000E+00 -0.00000000000E+00 -0.21731613752E+03  0.21731613752E+03  0.00000000000E+00 0.  1.
         25    1    1    2    0    0 -0.61470175930E+01  0.32756074611E+01  0.60302676997E+02  0.13896016797E+03  0.12500000000E+03 0.  0.
         25    1    1    2    0    0 -0.54618812341E+02 -0.11881118075E+02 -0.61009560947E+02  0.14990511050E+03  0.12500000000E+03 0.  0.
         25    1    1    2    0    0  0.60765829934E+02  0.86055106136E+01 -0.56903835965E+01  0.13936972902E+03  0.12500000000E+03 0.  0.
</event>
<event>
 5    0  0.5616733E-005  0.3558204E+03  0.7546771E-02  0.1060251E+00
         21   -1    0    0  502  501  0.00000000000E+00  0.00000000000E+00  0.17215124838E+04  0.17215124838E+04  0.00000000000E+00 0. -1.
         21   -1    0    0  501  502 -0.00000000000E+00 -0.00000000000E+00 -0.73544741956E+02  0.73544741956E+02  0.00000000000E+00 0. -1.
         25    1    1    2    0    0 -0.69691816597E+02  0.73919872053E+02  0.16415227572E+03  0.22998275241E+03  0.12500000000E+03 0.  0.
         25    1    1    2    0    0  0.65209286024E+01 -0.14369347108E+03  0.13369854549E+04  0.13504982202E+04  0.12500000000E+03 0.  0.
         25    1    1    2    0    0  0.63170887994E+02  0.69773599023E+02  0.14683001118E+03  0.21457625310E+03  0.12500000000E+03 0.  0.
</event>
<event>
 5    0  0.5616733E-005  0.2585359E+03  0.7546771E-02  0.1108026E+00
         21   -1    0    0  502  501  0.00000000000E+00  0.00000000000E+00  0.10527056332E+03  0.10527056332E+03  0.00000000000E+00 0.  1.
         21   -1    0    0  501  502 -0.00000000000E+00 -0.00000000000E+00 -0.63494283102E+03  0.63494283102E+03  0.00000000000E+00 0.  1.
         25    1    1    2    0    0  0.68174268824E+01  0.14798285910E+03 -0.16794497561E+03  0.25646816319E+03  0.12500000000E+03 0.  0.
         25    1    1    2    0    0 -0.42806800575E+02 -0.19161803804E+02 -0.11301343563E+03  0.17491893418E+03  0.12500000000E+03 0.  0.
         25    1    1    2    0    0  0.35989373693E+02 -0.12882105530E+03 -0.24871385646E+03  0.30882629697E+03  0.12500000000E+03 0.  0.
</event>
<event>
 5    0  0.5616733E-005  0.2439761E+03  0.7546771E-02  0.1117172E+00
         21   -1    0    0  502  501  0.00000000000E+00  0.00000000000E+00  0.10309502280E+03  0.10309502280E+03  0.00000000000E+00 0. -1.
         21   -1    0    0  501  502 -0.00000000000E+00 -0.00000000000E+00 -0.57737361309E+03  0.57737361309E+03  0.00000000000E+00 0. -1.
         25    1    1    2    0    0 -0.88589768071E+02  0.43805660890E+02 -0.73607160036E+02  0.17552805172E+03  0.12500000000E+03 0.  0.
         25    1    1    2    0    0 -0.21912630306E+02 -0.54029473574E+02 -0.21149472120E+03  0.25249626626E+03  0.12500000000E+03 0.  0.
         25    1    1    2    0    0  0.11050239838E+03  0.10223812684E+02 -0.18917670906E+03  0.25244431790E+03  0.12500000000E+03 0.  0.
</event>
<event>
 5    0  0.5616733E-005  0.2625604E+03  0.7546771E-02  0.1105615E+00
         21   -1    0    0  502  501  0.00000000000E+00  0.00000000000E+00  0.54926797448E+03  0.54926797448E+03  0.00000000000E+00 0. -1.
         21   -1    0    0  501  502 -0.00000000000E+00 -0.00000000000E+00 -0.12550877044E+03  0.12550877044E+03  0.00000000000E+00 0. -1.
         25    1    1    2    0    0 -0.15509632234E+02  0.18216313679E+02  0.36083549864E+03  0.38262205877E+03  0.12500000000E+03 0.  0.
         25    1    1    2    0    0  0.40128507341E+02 -0.61586405343E+02  0.61638798292E+02  0.15756752165E+03  0.12500000000E+03 0.  0.
         25    1    1    2    0    0 -0.24618875107E+02  0.43370091664E+02  0.12849071035E+01  0.13458716450E+03  0.12500000000E+03 0.  0.
</event>
<event>
 5    0  0.5616733E-005  0.3232765E+03  0.7546771E-02  0.1074151E+00
         21   -1    0    0  502  501  0.00000000000E+00  0.00000000000E+00  0.10664231158E+03  0.10664231158E+03  0.00000000000E+00 0.  1.
         21   -1    0    0  501  502 -0.00000000000E+00 -0.00000000000E+00 -0.97998369986E+03  0.97998369986E+03  0.00000000000E+00 0.  1.
         25    1    1    2    0    0  0.89883798550E+02 -0.54484058245E+02 -0.99622848853E+02  0.19130426513E+03  0.12500000000E+03 0.  0.
         25    1    1    2    0    0  0.10164954745E+03 -0.84730369784E+02 -0.28844886263E+03  0.34108593113E+03  0.12500000000E+03 0.  0.
         25    1    1    2    0    0 -0.19153334600E+03  0.13921442803E+03 -0.48526967680E+03  0.55423581517E+03  0.12500000000E+03 0.  0.
</event>
<event>
 5    0  0.6591719E-005  0.2942706E+03  0.7546771E-02  0.1088140E+00
         21   -1    0    0  502  501  0.00000000000E+00  0.00000000000E+00  0.29842085355E+03  0.29842085355E+03  0.00000000000E+00 0. -1.
         21   -1    0    0  501  502 -0.00000000000E+00 -0.00000000000E+00 -0.29017799479E+03  0.29017799479E+03  0.00000000000E+00 0. -1.
         25    1    1    2    0    0  0.32074882098E+02 -0.48412583522E+02  0.43198983309E+02  0.14444282074E+03  0.12500000000E+03 0.  0.
         25    1    1    2    0    0 -0.95698476797E+01  0.20039781680E+03 -0.61674032520E+02  0.24429398939E+03  0.12500000000E+03 0.  0.
         25    1    1    2    0    0 -0.22505034418E+02 -0.15198523328E+03  0.26717907967E+02  0.19986203821E+03  0.12500000000E+03 0.  0.
</event>
<event>
 5    0  0.5616733E-005  0.2519990E+03  0.7546771E-02  0.1112048E+00
         21   -1    0    0  502  501  0.00000000000E+00  0.00000000000E+00  0.21968226576E+02  0.21968226576E+02  0.00000000000E+00 0.  1.
         21   -1    0    0  501  502 -0.00000000000E+00 -0.00000000000E+00 -0.28906975492E+04  0.28906975492E+04  0.00000000000E+00 0.  1.
         25    1    1    2    0    0 -0.41922381864E+02  0.12485973099E+02 -0.46085426269E+03  0.47950499170E+03  0.12500000000E+03 0.  0.
         25    1    1    2    0    0 -0.14477859512E+02  0.99890842646E+02 -0.14629966718E+04  0.14717921221E+04  0.12500000000E+03 0.  0.
         25    1    1    2    0    0  0.56400241376E+02 -0.11237681574E+03 -0.94487838814E+03  0.96136866202E+03  0.12500000000E+03 0.  0.
</event>
<event>
 5    0  0.5616733E-005  0.2982353E+03  0.7546771E-02  0.1086126E+00
         21   -1    0    0  502  501  0.00000000000E+00  0.00000000000E+00  0.16948085725E+03  0.16948085725E+03  0.00000000000E+00 0.  1.
         21   -1    0    0  501  502 -0.00000000000E+00 -0.00000000000E+00 -0.52480442343E+03  0.52480442343E+03  0.00000000000E+00 0.  1.
         25    1    1    2    0    0 -0.86698109730E+01  0.10366519856E+02  0.17729449866E+02  0.12697229520E+03  0.12500000000E+03 0.  0.
         25    1    1    2    0    0 -0.28003160334E+02 -0.12302506449E+03 -0.25501016048E+02  0.17942866354E+03  0.12500000000E+03 0.  0.
         25    1    1    2    0    0  0.36672971307E+02  0.11265854463E+03 -0.34755199999E+03  0.38788432193E+03  0.12500000000E+03 0.  0.
</event>
<event>
 5    0  0.5616733E-005  0.3317849E+03  0.7546771E-02  0.1070350E+00
         21   -1    0    0  502  501  0.00000000000E+00  0.00000000000E+00  0.10711101318E+04  0.10711101318E+04  0.00000000000E+00 0.  1.
         21   -1    0    0  501  502 -0.00000000000E+00 -0.00000000000E+00 -0.10277299144E+03  0.10277299144E+03  0.00000000000E+00 0.  1.
         25    1    1    2    0    0  0.16649802851E+03  0.30169586388E+02  0.43140419658E+03  0.47996497608E+03  0.12500000000E+03 0.  0.
         25    1    1    2    0    0 -0.12048018099E+03  0.84942409871E+02  0.46531497255E+03  0.50385882019E+03  0.12500000000E+03 0.  0.
         25    1    1    2    0    0 -0.46017847523E+02 -0.11511199626E+03  0.71617971287E+02  0.19005932701E+03  0.12500000000E+03 0.  0.
</event>
<event>
 5    0  0.5616733E-005  0.3241067E+03  0.7546771E-02  0.1073775E+00
         21   -1    0    0  502  501  0.00000000000E+00  0.00000000000E+00  0.16227233998E+03  0.16227233998E+03  0.00000000000E+00 0. -1.
         21   -1    0    0  501  502 -0.00000000000E+00 -0.00000000000E+00 -0.64733879268E+03  0.64733879268E+03  0.00000000000E+00 0. -1.
         25    1    1    2    0    0  0.85614358893E+01 -0.30698375118E+02  0.74149967050E+02  0.14879148508E+03  0.12500000000E+03 0.  0.
         25    1    1    2    0    0  0.19031661427E+02 -0.56244238020E+02 -0.85967691778E+02  0.16291427954E+03  0.12500000000E+03 0.  0.
         25    1    1    2    0    0 -0.27593097316E+02  0.86942613138E+02 -0.47324872797E+03  0.49790536804E+03  0.12500000000E+03 0.  0.
</event>
<event>
 5    0  0.5616733E-005  0.1999270E+03  0.7546771E-02  0.1149801E+00
         21   -1    0    0  502  501  0.00000000000E+00  0.00000000000E+00  0.28260611681E+03  0.28260611681E+03  0.00000000000E+00 0.  1.
         21   -1    0    0  501  502 -0.00000000000E+00 -0.00000000000E+00 -0.14143644192E+03  0.14143644192E+03  0.00000000000E+00 0.  1.
         25    1    1    2    0    0 -0.33787489131E+02  0.38153525408E+02  0.62257178956E+02  0.14865477542E+03  0.12500000000E+03 0.  0.
         25    1    1    2    0    0  0.41084205445E+01  0.10939751554E+02  0.27242533875E+02  0.12846677756E+03  0.12500000000E+03 0.  0.
         25    1    1    2    0    0  0.29679068587E+02 -0.49093276962E+02  0.51669962053E+02  0.14692100576E+03  0.12500000000E+03 0.  0.
</event>
<event>
 5    0  0.5616733E-005  0.3326347E+03  0.7546771E-02  0.1069977E+00
         21   -1    0    0  502  501  0.00000000000E+00  0.00000000000E+00  0.11933286516E+03  0.11933286516E+03  0.00000000000E+00 0. -1.
         21   -1    0    0  501  502 -0.00000000000E+00 -0.00000000000E+00 -0.92720323118E+03  0.92720323118E+03  0.00000000000E+00 0. -1.
         25    1    1    2    0    0 -0.70455038305E+01 -0.12161521682E+03 -0.35770141627E+03  0.39801407423E+03  0.12500000000E+03 0.  0.
         25    1    1    2    0    0  0.45456488229E+02  0.12157766587E+03 -0.47624219985E+00  0.18020168692E+03  0.12500000000E+03 0.  0.
         25    1    1    2    0    0 -0.38410984398E+02  0.37550944769E-01 -0.44969270755E+03  0.46832033519E+03  0.12500000000E+03 0.  0.
</event>
<event>
 5    0  0.5616733E-005  0.3091267E+03  0.7546771E-02  0.1080765E+00
         21   -1    0    0  502  501  0.00000000000E+00  0.00000000000E+00  0.17606461939E+04  0.17606461939E+04  0.00000000000E+00 0.  1.
         21   -1    0    0  501  502 -0.00000000000E+00 -0.00000000000E+00 -0.54275152851E+02  0.54275152851E+02  0.00000000000E+00 0.  1.
         25    1    1    2    0    0  0.67669746513E+02  0.27175754430E+02  0.47510371726E+03  0.49665506982E+03  0.12500000000E+03 0.  0.
         25    1    1    2    0    0 -0.16184782856E+03 -0.44212634879E+02  0.25716555829E+03  0.33152466132E+03  0.12500000000E+03 0.  0.
         25    1    1    2    0    0  0.94178082046E+02  0.17036880449E+02  0.97410176548E+03  0.98674161560E+03  0.12500000000E+03 0.  0.
</event>
<event>
 5    0  0.5616733E-005  0.2575572E+03  0.7546771E-02  0.1108620E+00
         21   -1    0    0  502  501  0.00000000000E+00  0.00000000000E+00  0.34963159584E+03  0.34963159584E+03  0.00000000000E+00 0.  1.
         21   -1    0    0  501  502 -0.00000000000E+00 -0.00000000000E+00 -0.18973025430E+03  0.18973025430E+03  0.00000000000E+00 0.  1.
         25    1    1    2    0    0  0.10206046503E+03  0.26865419174E+01  0.30255426404E+02  0.16420702438E+03  0.12500000000E+03 0.  0.
         25    1    1    2    0    0 -0.68000261656E+01  0.71934779682E+02 -0.19890569038E+02  0.14574459723E+03  0.12500000000E+03 0.  0.
         25    1    1    2    0    0 -0.95260438868E+02 -0.74621321599E+02  0.14953648418E+03  0.22941022852E+03  0.12500000000E+03 0.  0.
</event>
<event>
 5    0  0.5616733E-005  0.2178636E+03  0.7546771E-02  0.1135486E+00
         21   -1    0    0  502  501  0.00000000000E+00  0.00000000000E+00  0.22095545902E+03  0.22095545902E+03  0.00000000000E+00 0. -1.
         21   -1    0    0  501  502 -0.00000000000E+00 -0.00000000000E+00 -0.21481501997E+03  0.21481501997E+03  0.00000000000E+00 0. -1.
         25    1    1    2    0    0  0.25193463677E+02 -0.42068664857E+02 -0.55842784354E+01  0.13438998229E+03  0.12500000000E+03 0.  0.
         25    1    1    2    0    0 -0.25033534203E+02 -0.51292807683E+02 -0.28329034630E+02  0.14030382802E+03  0.12500000000E+03 0.  0.
         25    1    1    2    0    0 -0.15992947489E+00  0.93361472540E+02  0.40053752120E+02  0.16107666867E+03  0.12500000000E+03 0.  0.
</event>
<event>
 5    0  0.5616733E-005  0.2196310E+03  0.7546771E-02  0.1134158E+00
         21   -1    0    0  502  501  0.00000000000E+00  0.00000000000E+00  0.90337174649E+03  0.90337174649E+03  0.00000000000E+00 0. -1.
         21   -1    0    0  501  502 -0.00000000000E+00 -0.00000000000E+00 -0.53397494858E+02  0.53397494858E+02  0.00000000000E+00 0. -1.
         25    1    1    2    0    0 -0.63551688049E+02  0.66377240284E+01  0.26861944652E+03  0.30309121314E+03  0.12500000000E+03 0.  0.
         25    1    1    2    0    0 -0.21016550570E+02 -0.10123821399E+02  0.38841124178E+03  0.40869607277E+03  0.12500000000E+03 0.  0.
         25    1    1    2    0    0  0.84568238619E+02  0.34860973703E+01  0.19294356333E+03  0.24498195543E+03  0.12500000000E+03 0.  0.
</event>
<event>
 5    0  0.5616733E-005  0.3232580E+03  0.7546771E-02  0.1074160E+00
         21   -1    0    0  502  501  0.00000000000E+00  0.00000000000E+00  0.16658176833E+03  0.16658176833E+03  0.00000000000E+00 0. -1.
         21   -1    0    0  501  502 -0.00000000000E+00 -0.00000000000E+00 -0.62729393206E+03  0.62729393206E+03  0.00000000000E+00 0. -1.
         25    1    1    2    0    0 -0.81823928458E+02 -0.73107281782E+02 -0.36650995954E+02  0.17031771905E+03  0.12500000000E+03 0.  0.
         25    1    1    2    0    0  0.31906432944E+02  0.15393944032E+03 -0.42107571591E+03  0.46652452270E+03  0.12500000000E+03 0.  0.
         25    1    1    2    0    0  0.49917495515E+02 -0.80832158535E+02 -0.29854518695E+01  0.15703345865E+03  0.12500000000E+03 0.  0.
</event>
<event>
 5    0  0.5616733E-005  0.3552488E+03  0.7546771E-02  0.1060481E+00
         21   -1    0    0  502  501  0.00000000000E+00  0.00000000000E+00  0.47031864523E+03  0.47031864523E+03  0.00000000000E+00 0. -1.
         21   -1    0    0  501  502 -0.00000000000E+00 -0.00000000000E+00 -0.26833241837E+03  0.26833241837E+03  0.00000000000E+00 0. -1.
         25    1    1    2    0    0  0.90672089607E+01 -0.12147688173E+03 -0.33169146210E+02  0.17766271227E+03  0.12500000000E+03 0.  0.
         25    1    1    2    0    0  0.44349386751E+02 -0.15133915487E+03  0.62695454040E+02  0.21077506461E+03  0.12500000000E+03 0.  0.
         25    1    1    2    0    0 -0.53416595711E+02  0.27281603660E+03  0.17245991904E+03  0.35021328672E+03  0.12500000000E+03 0.  0.
</event>
<event>
 5    0  0.5616733E-005  0.2889369E+03  0.7546771E-02  0.1090906E+00
         21   -1    0    0  502  501  0.00000000000E+00  0.00000000000E+00  0.15423263426E+04  0.15423263426E+04  0.00000000000E+00 0.  1.
         21   -1    0    0  501  502 -0.00000000000E+00 -0.00000000000E+00 -0.54128958527E+02  0.54128958527E+02  0.00000000000E+00 0.  1.
         25    1    1    2    0    0  0.14675669353E+03 -0.63756145878E+01  0.51528071780E+03  0.55019759513E+03  0.12500000000E+03 0.  0.
         25    1    1    2    0    0 -0.17594874213E+03 -0.56337848429E+02  0.42450346360E+03  0.47954155569E+03  0.12500000000E+03 0.  0.
         25    1    1    2    0    0  0.29192048606E+02  0.62713463017E+02  0.54841320264E+03  0.56671615027E+03  0.12500000000E+03 0.  0.
</event>
<event>
 5    0  0.6246548E-005  0.3258188E+03  0.7546771E-02  0.1073002E+00
         21   -1    0    0  502  501  0.00000000000E+00  0.00000000000E+00  0.17137298417E+03  0.17137298417E+03  0.00000000000E+00 0.  1.
         21   -1    0    0  501  502 -0.00000000000E+00 -0.00000000000E+00 -0.61945526782E+03  0.61945526782E+03  0.00000000000E+00 0.  1.
         25    1    1    2    0    0 -0.54296472252E+01  0.19336799771E+03 -0.30083108937E+03  0.37887334023E+03  0.12500000000E+03 0.  0.
         25    1    1    2    0    0 -0.48877916823E+02 -0.81051463715E+02  0.32324597168E+02  0.16008831970E+03  0.12500000000E+03 0.  0.
         25    1    1    2    0    0  0.54307564048E+02 -0.11231653400E+03 -0.17957579145E+03  0.25186659206E+03  0.12500000000E+03 0.  0.
</event>
<event>
 5    0  0.5616733E-005  0.2948052E+03  0.7546771E-02  0.1087867E+00
         21   -1    0    0  502  501  0.00000000000E+00  0.00000000000E+00  0.57544938952E+02  0.57544938952E+02  0.00000000000E+00 0. -1.
         21   -1    0    0  501  502 -0.00000000000E+00 -0.00000000000E+00 -0.15102997519E+04  0.15102997519E+04  0.00000000000E+00 0. -1.
         25    1    1    2    0    0  0.62172917342E+02  0.33945526577E+01 -0.14234050794E+03  0.19940615547E+03  0.12500000000E+03 0.  0.
         25    1    1    2    0    0  0.54110828093E+02 -0.12428557729E+03 -0.65395808704E+03  0.67945644897E+03  0.12500000000E+03 0.  0.
         25    1    1    2    0    0 -0.11628374544E+03  0.12089102463E+03 -0.65645621793E+03  0.68898208638E+03  0.12500000000E+03 0.  0.
</event>
<event>
 5    0  0.5616733E-005  0.2417428E+03  0.7546771E-02  0.1118637E+00
         21   -1    0    0  502  501  0.00000000000E+00  0.00000000000E+00  0.30941032278E+03  0.30941032278E+03  0.00000000000E+00 0.  1.
         21   -1    0    0  501  502 -0.00000000000E+00 -0.00000000000E+00 -0.18887408932E+03  0.18887408932E+03  0.00000000000E+00 0.  1.
         25    1    1    2    0    0  0.60035066713E+01  0.80339752474E+02 -0.23420849098E+02  0.15054585379E+03  0.12500000000E+03 0.  0.
         25    1    1    2    0    0 -0.26548767799E+02 -0.11327259430E+03  0.28342455733E+02  0.17310058489E+03  0.12500000000E+03 0.  0.
         25    1    1    2    0    0  0.20545261128E+02  0.32932841830E+02  0.11561462682E+03  0.17463797342E+03  0.12500000000E+03 0.  0.
</event>
<event>
 5    0  0.5616733E-005  0.3297273E+03  0.7546771E-02  0.1071258E+00
         21   -1    0    0  502  501  0.00000000000E+00  0.00000000000E+00  0.18266015348E+04  0.18266015348E+04  0.00000000000E+00 0.  1.
         21   -1    0    0  501  502 -0.00000000000E+00 -0.00000000000E+00 -0.59520404093E+02  0.59520404093E+02  0.00000000000E+00 0.  1.
         25    1    1    2    0    0  0.17189575012E+03 -0.51048782167E+02  0.35717881017E+03  0.41875509490E+03  0.12500000000E+03 0.  0.
         25    1    1    2    0    0 -0.69558679112E+02  0.12769688929E+03  0.42350904106E+03  0.46489763737E+03  0.12500000000E+03 0.  0.
         25    1    1    2    0    0 -0.10233707101E+03 -0.76648107123E+02  0.98639327945E+03  0.10024692066E+04  0.12500000000E+03 0.  0.
</event>
<event>
 5    0  0.5616733E-005  0.4392709E+03  0.7546771E-02  0.1030971E+00
         21   -1    0    0  502  501  0.00000000000E+00  0.00000000000E+00  0.67704118721E+03  0.67704118721E+03  0.00000000000E+00 0. -1.
         21   -1    0    0  501  502 -0.00000000000E+00 -0.00000000000E+00 -0.28500323225E+03  0.28500323225E+03  0.00000000000E+00 0. -1.
         25    1    1    2    0    0 -0.67831936821E+02  0.26909414448E+02  0.55854503993E+03  0.57699467057E+03  0.12500000000E+03 0.  0.
         25    1    1    2    0    0  0.16734424433E+02  0.85139132454E+02 -0.14429036438E+02  0.15284603341E+03  0.12500000000E+03 0.  0.
         25    1    1    2    0    0  0.51097512389E+02 -0.11204854690E+03 -0.15207804853E+03  0.23220371548E+03  0.12500000000E+03 0.  0.
</event>
<event>
 5    0  0.5704270E-005  0.4616058E+03  0.7546771E-02  0.1024317E+00
         21   -1    0    0  502  501  0.00000000000E+00  0.00000000000E+00  0.26496152214E+03  0.26496152214E+03  0.00000000000E+00 0. -1.
         21   -1    0    0  501  502 -0.00000000000E+00 -0.00000000000E+00 -0.80419183741E+03  0.80419183741E+03  0.00000000000E+00 0. -1.
         25    1    1    2    0    0  0.34250694155E+02 -0.29085528252E+03 -0.90570351767E+01  0.31855444637E+03  0.12500000000E+03 0.  0.
         25    1    1    2    0    0 -0.11278364906E+03  0.30606561520E+02 -0.37798663148E+03  0.41491662618E+03  0.12500000000E+03 0.  0.
         25    1    1    2    0    0  0.78532954905E+02  0.26024872100E+03 -0.15218664862E+03  0.33568228700E+03  0.12500000000E+03 0.  0.
</event>
<event>
 5    0  0.5852838E-005  0.3359617E+03  0.7546771E-02  0.1068529E+00
         21   -1    0    0  502  501  0.00000000000E+00  0.00000000000E+00  0.47522242699E+03  0.47522242699E+03  0.00000000000E+00 0.  1.
         21   -1    0    0  501  502 -0.00000000000E+00 -0.00000000000E+00 -0.23751041559E+03  0.23751041559E+03  0.00000000000E+00 0.  1.
         25    1    1    2    0    0  0.16368788504E+03 -0.26381970791E+02 -0.24155375162E+02  0.20904117834E+03  0.12500000000E+03 0.  0.
         25    1    1    2    0    0 -0.16901427354E+03  0.61440471610E+02  0.87648269391E+01  0.21918617293E+03  0.12500000000E+03 0.  0.
         25    1    1    2    0    0  0.53263884981E+01 -0.35058500819E+02  0.25310255963E+03  0.28450549131E+03  0.12500000000E+03 0.  0.
</event>
<event>
 5    0  0.5616733E-005  0.1996455E+03  0.7546771E-02  0.1150038E+00
         21   -1    0    0  502  501  0.00000000000E+00  0.00000000000E+00  0.96981720778E+03  0.96981720778E+03  0.00000000000E+00 0. -1.
         21   -1    0    0  501  502 -0.00000000000E+00 -0.00000000000E+00 -0.41098789195E+02  0.41098789195E+02  0.00000000000E+00 0. -1.
         25    1    1    2    0    0  0.22535647858E+02 -0.17500043569E+02  0.27883614170E+03  0.30690177723E+03  0.12500000000E+03 0.  0.
         25    1    1    2    0    0 -0.35985532131E+00  0.89549823438E+01  0.19604541009E+03  0.23267815545E+03  0.12500000000E+03 0.  0.
         25    1    1    2    0    0 -0.22175792537E+02  0.85450612257E+01  0.45383686680E+03  0.47133606430E+03  0.12500000000E+03 0.  0.
</event>
<event>
 5    0  0.5616733E-005  0.3651140E+03  0.7546771E-02  0.1056577E+00
         21   -1    0    0  502  501  0.00000000000E+00  0.00000000000E+00  0.30786448539E+03  0.30786448539E+03  0.00000000000E+00 0. -1.
         21   -1    0    0  501  502 -0.00000000000E+00 -0.00000000000E+00 -0.43300937874E+03  0.43300937874E+03  0.00000000000E+00 0. -1.
         25    1    1    2    0    0 -0.79941882094E+02 -0.21241895455E+03 -0.79077547174E+01  0.25922972312E+03  0.12500000000E+03 0.  0.
         25    1    1    2    0    0  0.53360422808E+02 -0.27376590722E+02 -0.15426300396E+03  0.20740994873E+03  0.12500000000E+03 0.  0.
         25    1    1    2    0    0  0.26581459286E+02  0.23979554528E+03  0.37025865319E+02  0.27423419228E+03  0.12500000000E+03 0.  0.
</event>
<event>
 5    0  0.5616733E-005  0.2908138E+03  0.7546771E-02  0.1089925E+00
         21   -1    0    0  502  501  0.00000000000E+00  0.00000000000E+00  0.22452378007E+03  0.22452378007E+03  0.00000000000E+00 0. -1.
         21   -1    0    0  501  502 -0.00000000000E+00 -0.00000000000E+00 -0.37667564617E+03  0.37667564617E+03  0.00000000000E+00 0. -1.
         25    1    1    2    0    0 -0.19044395238E+02  0.79456512118E+02 -0.23449668212E+03  0.27801028800E+03  0.12500000000E+03 0.  0.
         25    1    1    2    0    0  0.80063743067E+02 -0.58079059784E+01  0.72989529622E+02  0.16551859763E+03  0.12500000000E+03 0.  0.
         25    1    1    2    0    0 -0.61019347829E+02 -0.73648606140E+02  0.93552863957E+01  0.15767054062E+03  0.12500000000E+03 0.  0.
</event>
<event>
 5    0  0.5616733E-005  0.2650103E+03  0.7546771E-02  0.1104170E+00
         21   -1    0    0  502  501  0.00000000000E+00  0.00000000000E+00  0.10439396595E+04  0.10439396595E+04  0.00000000000E+00 0. -1.
         21   -1    0    0  501  502 -0.00000000000E+00 -0.00000000000E+00 -0.67274440526E+02  0.67274440526E+02  0.00000000000E+00 0. -1.
         25    1    1    2    0    0  0.93762950015E+01 -0.54366528983E+02  0.50559096430E+03  0.52372784685E+03  0.12500000000E+03 0.  0.
         25    1    1    2    0    0  0.14562479596E+02 -0.48825509358E+02  0.65443432660E+02  0.15001279630E+03  0.12500000000E+03 0.  0.
         25    1    1    2    0    0 -0.23938774597E+02  0.10319203834E+03  0.40563082205E+03  0.43747345691E+03  0.12500000000E+03 0.  0.
</event>
<event>
 5    0  0.5949406E-005  0.2785585E+03  0.7546771E-02  0.1096479E+00
         21   -1    0    0  502  501  0.00000000000E+00  0.00000000000E+00  0.25610352616E+03  0.25610352616E+03  0.00000000000E+00 0. -1.
         21   -1    0    0  501  502 -0.00000000000E+00 -0.00000000000E+00 -0.30298241377E+03  0.30298241377E+03  0.00000000000E+00 0. -1.
         25    1    1    2    0    0  0.86019340345E+01  0.64517334987E+02 -0.51453199150E+02  0.15002970201E+03  0.12500000000E+03 0.  0.
         25    1    1    2    0    0 -0.12526268624E+03  0.41207899401E+02 -0.69895706320E+02  0.19467727474E+03  0.12500000000E+03 0.  0.
         25    1    1    2    0    0  0.11666075221E+03 -0.10572523439E+03  0.74470017861E+02  0.21437896318E+03  0.12500000000E+03 0.  0.
</event>
<event>
 5    0  0.5616733E-005  0.2920319E+03  0.7546771E-02  0.1089293E+00
         21   -1    0    0  502  501  0.00000000000E+00  0.00000000000E+00  0.54106692183E+03  0.54106692183E+03  0.00000000000E+00 0.  1.
         21   -1    0    0  501  502 -0.00000000000E+00 -0.00000000000E+00 -0.15761935254E+03  0.15761935254E+03  0.00000000000E+00 0.  1.
         25    1    1    2    0    0 -0.31880004324E+02  0.73789259249E+02  0.19278660514E+03  0.24341911301E+03  0.12500000000E+03 0.  0.
         25    1    1    2    0    0  0.13617382511E+02  0.94397706280E+02 -0.18882467852E+02  0.15836005699E+03  0.12500000000E+03 0.  0.
         25    1    1    2    0    0  0.18262621812E+02 -0.16818696553E+03  0.20954343200E+03  0.29690710437E+03  0.12500000000E+03 0.  0.
</event>
<event>
 5    0  0.5616733E-005  0.3410505E+03  0.7546771E-02  0.1066349E+00
         21   -1    0    0  502  501  0.00000000000E+00  0.00000000000E+00  0.56130640824E+02  0.56130640824E+02  0.00000000000E+00 0.  1.
         21   -1    0    0  501  502 -0.00000000000E+00 -0.00000000000E+00 -0.20722271258E+04  0.20722271258E+04  0.00000000000E+00 0.  1.
         25    1    1    2    0    0 -0.25659724785E+02 -0.11888394590E+03 -0.13506043599E+04  0.13618182518E+04  0.12500000000E+03 0.  0.
         25    1    1    2    0    0  0.12731228352E+03  0.11539643044E+03 -0.44812792020E+03  0.49595200025E+03  0.12500000000E+03 0.  0.
         25    1    1    2    0    0 -0.10165255874E+03  0.34875154634E+01 -0.21736420494E+03  0.27058751459E+03  0.12500000000E+03 0.  0.
</event>
<event>
 5    0  0.5616733E-005  0.2885119E+03  0.7546771E-02  0.1091129E+00
         21   -1    0    0  502  501  0.00000000000E+00  0.00000000000E+00  0.27606348804E+02  0.27606348804E+02  0.00000000000E+00 0. -1.
         21   -1    0    0  501  502 -0.00000000000E+00 -0.00000000000E+00 -0.30152174213E+04  0.30152174213E+04  0.00000000000E+00 0. -1.
         25    1    1    2    0    0  0.14349180818E+03  0.44387238685E+02 -0.77125835104E+03  0.79562841202E+03  0.12500000000E+03 0.  0.
         25    1    1    2    0    0 -0.24701501273E+02  0.52403940639E+02 -0.47279998110E+03  0.49246437362E+03  0.12500000000E+03 0.  0.
         25    1    1    2    0    0 -0.11879030690E+03 -0.96791179325E+02 -0.17435527403E+04  0.17547309844E+04  0.12500000000E+03 0.  0.
</event>
<event>
 5    0  0.5616733E-005  0.2842644E+03  0.7546771E-02  0.1093382E+00
         21   -1    0    0  502  501  0.00000000000E+00  0.00000000000E+00  0.66068345064E+03  0.66068345064E+03  0.00000000000E+00 0.  1.
         21   -1    0    0  501  502 -0.00000000000E+00 -0.00000000000E+00 -0.12230703398E+03  0.12230703398E+03  0.00000000000E+00 0.  1.
         25    1    1    2    0    0  0.42312066664E+02 -0.86755267857E+02  0.80458825022E+02  0.17724392799E+03  0.12500000000E+03 0.  0.
         25    1    1    2    0    0 -0.12197956924E+03  0.49072772843E+02  0.40522282219E+03  0.44397937787E+03  0.12500000000E+03 0.  0.
         25    1    1    2    0    0  0.79667502572E+02  0.37682495014E+02  0.52694769445E+02  0.16176717876E+03  0.12500000000E+03 0.  0.
</event>
<event>
 5    0  0.5616733E-005  0.3197514E+03  0.7546771E-02  0.1075764E+00
         21   -1    0    0  502  501  0.00000000000E+00  0.00000000000E+00  0.10342316323E+03  0.10342316323E+03  0.00000000000E+00 0.  1.
         21   -1    0    0  501  502 -0.00000000000E+00 -0.00000000000E+00 -0.98856940283E+03  0.98856940283E+03  0.00000000000E+00 0. -1.
         25    1    1    2    0    0  0.71924996561E+02  0.23464715001E+03 -0.42359128480E+03  0.50525940536E+03  0.12500000000E+03 0.  0.
         25    1    1    2    0    0 -0.22591031494E+01 -0.13859295977E+03 -0.27896346017E+03  0.33564672523E+03  0.12500000000E+03 0.  0.
         25    1    1    2    0    0 -0.69665893412E+02 -0.96054190240E+02 -0.18259149463E+03  0.25108643547E+03  0.12500000000E+03 0.  0.
</event>
<event>
 5    0  0.5616733E-005  0.2253741E+03  0.7546771E-02  0.1129939E+00
         21   -1    0    0  502  501  0.00000000000E+00  0.00000000000E+00  0.51547542857E+02  0.51547542857E+02  0.00000000000E+00 0.  1.
         21   -1    0    0  501  502 -0.00000000000E+00 -0.00000000000E+00 -0.98537170785E+03  0.98537170785E+03  0.00000000000E+00 0.  1.
         25    1    1    2    0    0  0.66394647691E+02 -0.29270108926E+02 -0.21112432585E+03  0.25585829962E+03  0.12500000000E+03 0.  0.
         25    1    1    2    0    0 -0.64331877084E+02 -0.48765451315E+02 -0.35452097892E+03  0.38448248874E+03  0.12500000000E+03 0.  0.
         25    1    1    2    0    0 -0.20627706072E+01  0.78035560241E+02 -0.36817886022E+03  0.39657846235E+03  0.12500000000E+03 0.  0.
</event>
<event>
 5    0  0.5616733E-005  0.2485983E+03  0.7546771E-02  0.1114194E+00
         21   -1    0    0  502  501  0.00000000000E+00  0.00000000000E+00  0.32135258858E+02  0.32135258858E+02  0.00000000000E+00 0. -1.
         21   -1    0    0  501  502 -0.00000000000E+00 -0.00000000000E+00 -0.19231554003E+04  0.19231554003E+04  0.00000000000E+00 0. -1.
         25    1    1    2    0    0  0.22847058842E+02  0.84850825470E+02 -0.63077006492E+03  0.64901273137E+03  0.12500000000E+03 0.  0.
         25    1    1    2    0    0 -0.45533681196E+00 -0.25513126237E+02 -0.20288915256E+03  0.23966671686E+03  0.12500000000E+03 0.  0.
         25    1    1    2    0    0 -0.22391722030E+02 -0.59337699233E+02 -0.10573609239E+04  0.10666112109E+04  0.12500000000E+03 0.  0.
</event>
<event>
 5    0  0.5616733E-005  0.2485179E+03  0.7546771E-02  0.1114245E+00
         21   -1    0    0  502  501  0.00000000000E+00  0.00000000000E+00  0.17970085441E+03  0.17970085441E+03  0.00000000000E+00 0.  1.
         21   -1    0    0  501  502 -0.00000000000E+00 -0.00000000000E+00 -0.34368866804E+03  0.34368866804E+03  0.00000000000E+00 0.  1.
         25    1    1    2    0    0 -0.82712300370E+02 -0.71641317122E+02 -0.14069098443E+02  0.16672355107E+03  0.12500000000E+03 0.  0.
         25    1    1    2    0    0  0.26309415058E+02 -0.32614627523E+02 -0.12668772067E+03  0.18284058033E+03  0.12500000000E+03 0.  0.
         25    1    1    2    0    0  0.56402885312E+02  0.10425594464E+03 -0.23230994516E+02  0.17382539104E+03  0.12500000000E+03 0.  0.
</event>
<event>
 5    0  0.5616733E-005  0.3524798E+03  0.7546771E-02  0.1061602E+00
         21   -1    0    0  502  501  0.00000000000E+00  0.00000000000E+00  0.48518181186E+03  0.48518181186E+03  0.00000000000E+00 0. -1.
         21   -1    0    0  501  502 -0.00000000000E+00 -0.00000000000E+00 -0.25607307608E+03  0.25607307608E+03  0.00000000000E+00 0. -1.
         25    1    1    2    0    0  0.19633156689E+03 -0.10062232699E+03 -0.42810142314E+01  0.25360257083E+03  0.12500000000E+03 0.  0.
         25    1    1    2    0    0 -0.75644500896E+02 -0.24854806943E+02 -0.26744646942E+02  0.15059923002E+03  0.12500000000E+03 0.  0.
         25    1    1    2    0    0 -0.12068706600E+03  0.12547713393E+03  0.26013439696E+03  0.33705308709E+03  0.12500000000E+03 0.  0.
</event>
<event>
 5    0  0.5616733E-005  0.2406480E+03  0.7546771E-02  0.1119362E+00
         21   -1    0    0  502  501  0.00000000000E+00  0.00000000000E+00  0.11958627336E+04  0.11958627336E+04  0.00000000000E+00 0.  1.
         21   -1    0    0  501  502 -0.00000000000E+00 -0.00000000000E+00 -0.48426529638E+02  0.48426529638E+02  0.00000000000E+00 0.  1.
         25    1    1    2    0    0  0.71323461380E+02  0.38484696273E+02  0.18780576824E+03  0.23971673820E+03  0.12500000000E+03 0.  0.
         25    1    1    2    0    0 -0.92469809717E+02  0.19916809217E+02  0.47128649357E+03  0.49667222997E+03  0.12500000000E+03 0.  0.
         25    1    1    2    0    0  0.21146348337E+02 -0.58401505490E+02  0.48834394212E+03  0.50790029504E+03  0.12500000000E+03 0.  0.
</event>
<event>
 5    0  0.5616733E-005  0.4017155E+03  0.7546771E-02  0.1043187E+00
         21   -1    0    0  502  501  0.00000000000E+00  0.00000000000E+00  0.41045398244E+03  0.41045398244E+03  0.00000000000E+00 0.  1.
         21   -1    0    0  501  502 -0.00000000000E+00 -0.00000000000E+00 -0.39316309905E+03  0.39316309905E+03  0.00000000000E+00 0.  1.
         25    1    1    2    0    0 -0.16432592495E+03 -0.66659988443E+02 -0.11903832601E+03  0.24747057750E+03  0.12500000000E+03 0.  0.
         25    1    1    2    0    0  0.17234751985E+03  0.22975759318E+03  0.15531103384E+03  0.34962656714E+03  0.12500000000E+03 0.  0.
         25    1    1    2    0    0 -0.80215948950E+01 -0.16309760473E+03 -0.18981824431E+02  0.20651993684E+03  0.12500000000E+03 0.  0.
</event>
<event>
 5    0  0.5616733E-005  0.2398692E+03  0.7546771E-02  0.1119880E+00
         21   -1    0    0  502  501  0.00000000000E+00  0.00000000000E+00  0.45270663390E+03  0.45270663390E+03  0.00000000000E+00 0.  1.
         21   -1    0    0  501  502 -0.00000000000E+00 -0.00000000000E+00 -0.12709605242E+03  0.12709605242E+03  0.00000000000E+00 0.  1.
         25    1    1    2    0    0 -0.11181664400E+02 -0.53425000032E+02  0.15849369497E+03  0.20910406881E+03  0.12500000000E+03 0.  0.
         25    1    1    2    0    0  0.15835248544E+02  0.88140172991E+02  0.18399817540E+03  0.23979110438E+03  0.12500000000E+03 0.  0.
         25    1    1    2    0    0 -0.46535841438E+01 -0.34715172959E+02 -0.16881288884E+02  0.13090751313E+03  0.12500000000E+03 0.  0.
</event>
<event>
 5    0  0.5616733E-005  0.3203591E+03  0.7546771E-02  0.1075484E+00
         21   -1    0    0  502  501  0.00000000000E+00  0.00000000000E+00  0.50487777721E+03  0.50487777721E+03  0.00000000000E+00 0. -1.
         21   -1    0    0  501  502 -0.00000000000E+00 -0.00000000000E+00 -0.20327687238E+03  0.20327687238E+03  0.00000000000E+00 0. -1.
         25    1    1    2    0    0  0.19226017329E+03  0.31021516870E+02  0.61736508252E+02  0.23950512561E+03  0.12500000000E+03 0.  0.
         25    1    1    2    0    0 -0.37583353508E+02  0.92689493720E+02  0.14487082602E+03  0.21590832994E+03  0.12500000000E+03 0.  0.
         25    1    1    2    0    0 -0.15467681978E+03 -0.12371101059E+03  0.94993570556E+02  0.25274119404E+03  0.12500000000E+03 0.  0.
</event>
<event>
 5    0  0.5616733E-005  0.2863496E+03  0.7546771E-02  0.1092271E+00
         21   -1    0    0  502  501  0.00000000000E+00  0.00000000000E+00  0.55402710846E+03  0.55402710846E+03  0.00000000000E+00 0. -1.
         21   -1    0    0  501  502 -0.00000000000E+00 -0.00000000000E+00 -0.14800011255E+03  0.14800011255E+03  0.00000000000E+00 0. -1.
         25    1    1    2    0    0  0.87601983224E+01  0.14804266532E+03  0.10066730004E+02  0.19421562986E+03  0.12500000000E+03 0.  0.
         25    1    1    2    0    0 -0.44267071200E+02 -0.12010678242E+03  0.27511111942E+03  0.32817120654E+03  0.12500000000E+03 0.  0.
         25    1    1    2    0    0  0.35506872878E+02 -0.27935882900E+02  0.12084914648E+03  0.17964038460E+03  0.12500000000E+03 0.  0.
</event>
<event>
 5    0  0.5616733E-005  0.5202718E+03  0.7546771E-02  0.1008619E+00
         21   -1    0    0  502  501  0.00000000000E+00  0.00000000000E+00  0.17570659150E+03  0.17570659150E+03  0.00000000000E+00 0.  1.
         21   -1    0    0  501  502 -0.00000000000E+00 -0.00000000000E+00 -0.15405381374E+04  0.15405381374E+04  0.00000000000E+00 0.  1.
         25    1    1    2    0    0 -0.21274217290E+03  0.82534452797E+02 -0.85915902266E+02  0.27400312095E+03  0.12500000000E+03 0.  0.
         25    1    1    2    0    0  0.15953727527E+03  0.17467642458E+03 -0.22710608557E+03  0.35095038055E+03  0.12500000000E+03 0.  0.
         25    1    1    2    0    0  0.53204897622E+02 -0.25721087737E+03 -0.10518095581E+04  0.10912912274E+04  0.12500000000E+03 0.  0.
</event>
<event>
 5    0  0.5616733E-005  0.4149226E+03  0.7546771E-02  0.1038732E+00
         21   -1    0    0  502  501  0.00000000000E+00  0.00000000000E+00  0.26485741942E+03  0.26485741942E+03  0.00000000000E+00 0. -1.
         21   -1    0    0  501  502 -0.00000000000E+00 -0.00000000000E+00 -0.65001299663E+03  0.65001299663E+03  0.00000000000E+00 0. -1.
         25    1    1    2    0    0  0.10910677267E+03  0.64537908680E+02 -0.50118892165E+02  0.18494954136E+03  0.12500000000E+03 0.  0.
         25    1    1    2    0    0 -0.18691456170E+03  0.18946811493E+03 -0.32197281732E+03  0.43603522225E+03  0.12500000000E+03 0.  0.
         25    1    1    2    0    0  0.77807789032E+02 -0.25400602361E+03 -0.13063867727E+02  0.29388565243E+03  0.12500000000E+03 0.  0.
</event>
<event>
 5    0  0.5616733E-005  0.2736397E+03  0.7546771E-02  0.1099214E+00
         21   -1    0    0  502  501  0.00000000000E+00  0.00000000000E+00  0.14683756594E+03  0.14683756594E+03  0.00000000000E+00 0. -1.
         21   -1    0    0  501  502 -0.00000000000E+00 -0.00000000000E+00 -0.50994246647E+03  0.50994246647E+03  0.00000000000E+00 0. -1.
         25    1    1    2    0    0  0.10665888394E+03  0.78372514207E+02 -0.13385552000E+03  0.22596607874E+03  0.12500000000E+03 0.  0.
         25    1    1    2    0    0 -0.17353014754E+03 -0.54109708276E+02 -0.12981949736E+03  0.25596615895E+03  0.12500000000E+03 0.  0.
         25    1    1    2    0    0  0.66871263597E+02 -0.24262805931E+02 -0.99429883176E+02  0.17484779471E+03  0.12500000000E+03 0.  0.
</event>
<event>
 5    0  0.5616733E-005  0.3099605E+03  0.7546771E-02  0.1080365E+00
         21   -1    0    0  502  501  0.00000000000E+00  0.00000000000E+00  0.21686998814E+03  0.21686998814E+03  0.00000000000E+00 0.  1.
         21   -1    0    0  501  502 -0.00000000000E+00 -0.00000000000E+00 -0.44300973580E+03  0.44300973580E+03  0.00000000000E+00 0.  1.
         25    1    1    2    0    0 -0.83744620539E+02 -0.13559739167E+03 -0.18087262289E+03  0.27155058425E+03  0.12500000000E+03 0.  0.
         25    1    1    2    0    0  0.73508871046E+02 -0.56862249184E+02 -0.12140440088E+02  0.15623463057E+03  0.12500000000E+03 0.  0.
         25    1    1    2    0    0  0.10235749493E+02  0.19245964085E+03 -0.33126684684E+02  0.23209450912E+03  0.12500000000E+03 0.  0.
</event>
<event>
 5    0  0.5616733E-005  0.2765464E+03  0.7546771E-02  0.1097590E+00
         21   -1    0    0  502  501  0.00000000000E+00  0.00000000000E+00  0.28519421096E+03  0.28519421096E+03  0.00000000000E+00 0.  1.
         21   -1    0    0  501  502 -0.00000000000E+00 -0.00000000000E+00 -0.26816086399E+03  0.26816086399E+03  0.00000000000E+00 0.  1.
         25    1    1    2    0    0 -0.97248822947E+01  0.24441618090E+02 -0.52948197407E+02  0.13827681526E+03  0.12500000000E+03 0.  0.
         25    1    1    2    0    0 -0.93721269489E+02 -0.13461926274E+03 -0.17748076633E+01  0.20623814438E+03  0.12500000000E+03 0.  0.
         25    1    1    2    0    0  0.10344615178E+03  0.11017764465E+03  0.71756352041E+02  0.20884011530E+03  0.12500000000E+03 0.  0.
</event>
<event>
 5    0  0.5616733E-005  0.2345987E+03  0.7546771E-02  0.1123444E+00
         21   -1    0    0  502  501  0.00000000000E+00  0.00000000000E+00  0.18767327995E+03  0.18767327995E+03  0.00000000000E+00 0. -1.
         21   -1    0    0  501  502 -0.00000000000E+00 -0.00000000000E+00 -0.29325733436E+03  0.29325733436E+03  0.00000000000E+00 0. -1.
         25    1    1    2    0    0  0.69302250565E+02 -0.34247011752E+02 -0.11095719048E+02  0.14738987322E+03  0.12500000000E+03 0.  0.
         25    1    1    2    0    0 -0.36503542974E+02  0.10696444018E+03 -0.27193123323E+02  0.17069963699E+03  0.12500000000E+03 0.  0.
         25    1    1    2    0    0 -0.32798707591E+02 -0.72717428430E+02 -0.67295212039E+02  0.16284110409E+03  0.12500000000E+03 0.  0.
</event>
<event>
 5    0  0.5616733E-005  0.3006320E+03  0.7546771E-02  0.1084925E+00
         21   -1    0    0  502  501  0.00000000000E+00  0.00000000000E+00  0.15970964254E+03  0.15970964254E+03  0.00000000000E+00 0. -1.
         21   -1    0    0  501  502 -0.00000000000E+00 -0.00000000000E+00 -0.56589935534E+03  0.56589935534E+03  0.00000000000E+00 0. -1.
         25    1    1    2    0    0 -0.26592083122E+02 -0.63061945677E+02  0.18501894121E+02  0.14370549037E+03  0.12500000000E+03 0.  0.
         25    1    1    2    0    0 -0.69177324069E+02  0.15855666543E+03 -0.23751233154E+03  0.31931618492E+03  0.12500000000E+03 0.  0.
         25    1    1    2    0    0  0.95769407191E+02 -0.95494719756E+02 -0.18717927539E+03  0.26258732260E+03  0.12500000000E+03 0.  0.
</event>
<event>
 5    0  0.5616733E-005  0.2437453E+03  0.7546771E-02  0.1117323E+00
         21   -1    0    0  502  501  0.00000000000E+00  0.00000000000E+00  0.92124170961E+03  0.92124170961E+03  0.00000000000E+00 0. -1.
         21   -1    0    0  501  502 -0.00000000000E+00 -0.00000000000E+00 -0.64490978606E+02  0.64490978606E+02  0.00000000000E+00 0. -1.
         25    1    1    2    0    0  0.45605605940E+02 -0.11413347538E+02  0.11760053584E+03  0.17794668253E+03  0.12500000000E+03 0.  0.
         25    1    1    2    0    0 -0.94564859432E+02  0.66208846834E+02  0.29483485006E+03  0.34040962508E+03  0.12500000000E+03 0.  0.
         25    1    1    2    0    0  0.48959253492E+02 -0.54795499297E+02  0.44431534511E+03  0.46737638060E+03  0.12500000000E+03 0.  0.
</event>
<event>
 5    0  0.5616733E-005  0.5136165E+03  0.7546771E-02  0.1010285E+00
         21   -1    0    0  502  501  0.00000000000E+00  0.00000000000E+00  0.36219012075E+03  0.36219012075E+03  0.00000000000E+00 0. -1.
         21   -1    0    0  501  502 -0.00000000000E+00 -0.00000000000E+00 -0.72835214651E+03  0.72835214651E+03  0.00000000000E+00 0. -1.
         25    1    1    2    0    0 -0.47886307034E+02 -0.11325733767E+03 -0.12717349013E+03  0.21660660085E+03  0.12500000000E+03 0.  0.
         25    1    1    2    0    0  0.72611497357E+02 -0.33881913151E+03 -0.71283605644E+02  0.37520285961E+03  0.12500000000E+03 0.  0.
         25    1    1    2    0    0 -0.24725190322E+02  0.45207646919E+03 -0.16770492999E+03  0.49873280679E+03  0.12500000000E+03 0.  0.
</event>
<event>
 5    0  0.5616733E-005  0.3644676E+03  0.7546771E-02  0.1056829E+00
         21   -1    0    0  502  501  0.00000000000E+00  0.00000000000E+00  0.54394157427E+02  0.54394157427E+02  0.00000000000E+00 0.  1.
         21   -1    0    0  501  502 -0.00000000000E+00 -0.00000000000E+00 -0.24421118043E+04  0.24421118043E+04  0.00000000000E+00 0.  1.
         25    1    1    2    0    0 -0.25609383581E+01 -0.75622691009E+02 -0.14711768779E+03  0.20734985860E+03  0.12500000000E+03 0.  0.
         25    1    1    2    0    0 -0.47534990217E+02 -0.13873718677E+03 -0.63090857588E+03  0.65968038732E+03  0.12500000000E+03 0.  0.
         25    1    1    2    0    0  0.50095928575E+02  0.21435987778E+03 -0.16096913832E+04  0.16294757159E+04  0.12500000000E+03 0.  0.
</event>
<event>
 5    0  0.6136404E-005  0.2378218E+03  0.7546771E-02  0.1121252E+00
         21   -1    0    0  502  501  0.00000000000E+00  0.00000000000E+00  0.11902856840E+03  0.11902856840E+03  0.00000000000E+00 0.  1.
         21   -1    0    0  501  502 -0.00000000000E+00 -0.00000000000E+00 -0.47517355646E+03  0.47517355646E+03  0.00000000000E+00 0.  1.
         25    1    1    2    0    0 -0.38015656678E+02  0.50678153763E+01 -0.13591481781E+03  0.18859668769E+03  0.12500000000E+03 0.  0.
         25    1    1    2    0    0 -0.44451335619E+02 -0.83047478576E+01 -0.21855933012E+03  0.25580866064E+03  0.12500000000E+03 0.  0.
         25    1    1    2    0    0  0.82466992297E+02  0.32369324813E+01 -0.16708401185E+01  0.14979677652E+03  0.12500000000E+03 0.  0.
</event>
<event>
 5    0  0.6009663E-005  0.2995255E+03  0.7546771E-02  0.1085478E+00
         21   -1    0    0  502  501  0.00000000000E+00  0.00000000000E+00  0.56326312445E+03  0.56326312445E+03  0.00000000000E+00 0.  1.
         21   -1    0    0  501  502 -0.00000000000E+00 -0.00000000000E+00 -0.15927822364E+03  0.15927822364E+03  0.00000000000E+00 0.  1.
         25    1    1    2    0    0 -0.13270953630E+03  0.12867016693E+03  0.17733091639E+02  0.22384658903E+03  0.12500000000E+03 0.  0.
         25    1    1    2    0    0  0.44633893026E+02 -0.60327874355E+02  0.15088163642E+03  0.20981397723E+03  0.12500000000E+03 0.  0.
         25    1    1    2    0    0  0.88075643277E+02 -0.68342292573E+02  0.23537017275E+03  0.28888078184E+03  0.12500000000E+03 0.  0.
</event>
<event>
 5    0  0.5616733E-005  0.2569357E+03  0.7546771E-02  0.1108998E+00
         21   -1    0    0  502  501  0.00000000000E+00  0.00000000000E+00  0.27438258180E+03  0.27438258180E+03  0.00000000000E+00 0. -1.
         21   -1    0    0  501  502 -0.00000000000E+00 -0.00000000000E+00 -0.24059817991E+03  0.24059817991E+03  0.00000000000E+00 0. -1.
         25    1    1    2    0    0 -0.91831568959E+02  0.88196977570E+02  0.42019019519E+02  0.18330941577E+03  0.12500000000E+03 0.  0.
         25    1    1    2    0    0 -0.44910966329E+01  0.25606537228E+02 -0.41575386370E+02  0.13427351731E+03  0.12500000000E+03 0.  0.
         25    1    1    2    0    0  0.96322665592E+02 -0.11380351480E+03  0.33340768735E+02  0.19739782863E+03  0.12500000000E+03 0.  0.
</event>
<event>
 5    0  0.5695378E-005  0.2627188E+03  0.7546771E-02  0.1105521E+00
         21   -1    0    0  502  501  0.00000000000E+00  0.00000000000E+00  0.15978127925E+03  0.15978127925E+03  0.00000000000E+00 0. -1.
         21   -1    0    0  501  502 -0.00000000000E+00 -0.00000000000E+00 -0.43197273733E+03  0.43197273733E+03  0.00000000000E+00 0. -1.
         25    1    1    2    0    0 -0.16487286805E+03 -0.40780303930E+02 -0.89555746266E+02  0.22910985901E+03  0.12500000000E+03 0.  0.
         25    1    1    2    0    0  0.12518074345E+03  0.34563569623E+02 -0.12440784179E+03  0.21901408625E+03  0.12500000000E+03 0.  0.
         25    1    1    2    0    0  0.39692124598E+02  0.62167343066E+01 -0.58227870015E+02  0.14363007132E+03  0.12500000000E+03 0.  0.
</event>
<event>
 5    0  0.5616733E-005  0.2479180E+03  0.7546771E-02  0.1114628E+00
         21   -1    0    0  502  501  0.00000000000E+00  0.00000000000E+00  0.52254822844E+03  0.52254822844E+03  0.00000000000E+00 0.  1.
         21   -1    0    0  501  502 -0.00000000000E+00 -0.00000000000E+00 -0.11762228422E+03  0.11762228422E+03  0.00000000000E+00 0.  1.
         25    1    1    2    0    0 -0.34482432108E+02 -0.77804047739E+02  0.18158144804E+03  0.23630347065E+03  0.12500000000E+03 0.  0.
         25    1    1    2    0    0 -0.25648072177E+02 -0.36067053271E+02  0.22456766331E+02  0.13449149524E+03  0.12500000000E+03 0.  0.
         25    1    1    2    0    0  0.60130504286E+02  0.11387110101E+03  0.20088772985E+03  0.26937554677E+03  0.12500000000E+03 0.  0.
</event>
<event>
 5    0  0.5616733E-005  0.3399914E+03  0.7546771E-02  0.1066800E+00
         21   -1    0    0  502  501  0.00000000000E+00  0.00000000000E+00  0.12943015221E+03  0.12943015221E+03  0.00000000000E+00 0.  1.
         21   -1    0    0  501  502 -0.00000000000E+00 -0.00000000000E+00 -0.89310078065E+03  0.89310078065E+03  0.00000000000E+00 0.  1.
         25    1    1    2    0    0 -0.56584429437E+02  0.76525865810E+02 -0.19325202705E+03  0.24905692472E+03  0.12500000000E+03 0.  0.
         25    1    1    2    0    0 -0.91360919627E+02 -0.21885306343E+02 -0.54930458618E+03  0.57112722984E+03  0.12500000000E+03 0.  0.
         25    1    1    2    0    0  0.14794534906E+03 -0.54640559468E+02 -0.21114015220E+02  0.20234677830E+03  0.12500000000E+03 0.  0.
</event>
<event>
 5    0  0.5616733E-005  0.2856278E+03  0.7546771E-02  0.1092654E+00
         21   -1    0    0  502  501  0.00000000000E+00  0.00000000000E+00  0.35902164300E+03  0.35902164300E+03  0.00000000000E+00 0.  1.
         21   -1    0    0  501  502 -0.00000000000E+00 -0.00000000000E+00 -0.22723764474E+03  0.22723764474E+03  0.00000000000E+00 0.  1.
         25    1    1    2    0    0 -0.72166500530E+02 -0.10814983112E+03 -0.65365116066E+01  0.18047746605E+03  0.12500000000E+03 0.  0.
         25    1    1    2    0    0  0.18329789289E+02  0.14213400682E+03  0.17750057265E+03  0.26013363942E+03  0.12500000000E+03 0.  0.
         25    1    1    2    0    0  0.53836711242E+02 -0.33984175698E+02 -0.39180062780E+02  0.14564818226E+03  0.12500000000E+03 0.  0.
</event>
<event>
 5    0  0.5616733E-005  0.4150459E+03  0.7546771E-02  0.1038691E+00
         21   -1    0    0  502  501  0.00000000000E+00  0.00000000000E+00  0.24666227790E+03  0.24666227790E+03  0.00000000000E+00 0.  1.
         21   -1    0    0  501  502 -0.00000000000E+00 -0.00000000000E+00 -0.69837629418E+03  0.69837629418E+03  0.00000000000E+00 0.  1.
         25    1    1    2    0    0  0.19453489862E+03  0.14169290782E+03  0.34291023975E+02  0.27335248533E+03  0.12500000000E+03 0.  0.
         25    1    1    2    0    0 -0.10590742966E+03 -0.23332501405E+03 -0.29872876840E+03  0.41294167010E+03  0.12500000000E+03 0.  0.
         25    1    1    2    0    0 -0.88627468963E+02  0.91632106229E+02 -0.18727627185E+03  0.25874441665E+03  0.12500000000E+03 0.  0.
</event>
<event>
 5    0  0.5616733E-005  0.2727786E+03  0.7546771E-02  0.1099700E+00
         21   -1    0    0  502  501  0.00000000000E+00  0.00000000000E+00  0.91169519100E+02  0.91169519100E+02  0.00000000000E+00 0. -1.
         21   -1    0    0  501  502 -0.00000000000E+00 -0.00000000000E+00 -0.81615175900E+03  0.81615175900E+03  0.00000000000E+00 0. -1.
         25    1    1    2    0    0 -0.14951767556E+03 -0.10398289570E+02 -0.31589220943E+03  0.37131731405E+03  0.12500000000E+03 0.  0.
         25    1    1    2    0    0  0.47881304288E+02  0.51157861482E+02 -0.31250381985E+03  0.34379264610E+03  0.12500000000E+03 0.  0.
         25    1    1    2    0    0  0.10163637128E+03 -0.40759571912E+02 -0.96586210627E+02  0.19221131796E+03  0.12500000000E+03 0.  0.
</event>
<event>
 5    0  0.5616733E-005  0.2940048E+03  0.7546771E-02  0.1088277E+00
         21   -1    0    0  502  501  0.00000000000E+00  0.00000000000E+00  0.10428872819E+04  0.10428872819E+04  0.00000000000E+00 0. -1.
         21   -1    0    0  501  502 -0.00000000000E+00 -0.00000000000E+00 -0.82884150426E+02  0.82884150426E+02  0.00000000000E+00 0. -1.
         25    1    1    2    0    0  0.53570161839E+02 -0.24392852170E+02  0.13285107996E+03  0.19167467992E+03  0.12500000000E+03 0.  0.
         25    1    1    2    0    0 -0.21504533660E+02  0.38197948123E+02  0.78725182161E+03  0.79831820650E+03  0.12500000000E+03 0.  0.
         25    1    1    2    0    0 -0.32065628179E+02 -0.13805095953E+02  0.39900229929E+02  0.13577854592E+03  0.12500000000E+03 0.  0.
</event>
<event>
 5    0  0.5616733E-005  0.2599814E+03  0.7546771E-02  0.1107154E+00
         21   -1    0    0  502  501  0.00000000000E+00  0.00000000000E+00  0.75074915884E+02  0.75074915884E+02  0.00000000000E+00 0. -1.
         21   -1    0    0  501  502 -0.00000000000E+00 -0.00000000000E+00 -0.90030477723E+03  0.90030477723E+03  0.00000000000E+00 0. -1.
         25    1    1    2    0    0 -0.32478647599E+02  0.39362190261E+02 -0.12568506503E+03  0.18446132425E+03  0.12500000000E+03 0.  0.
         25    1    1    2    0    0 -0.38300301816E+02  0.10090819106E+03 -0.36731538706E+03  0.40273436619E+03  0.12500000000E+03 0.  0.
         25    1    1    2    0    0  0.70778949415E+02 -0.14027038132E+03 -0.33222940925E+03  0.38818400267E+03  0.12500000000E+03 0.  0.
</event>
<event>
 5    0  0.5662144E-005  0.3324566E+03  0.7546771E-02  0.1070055E+00
         21   -1    0    0  502  501  0.00000000000E+00  0.00000000000E+00  0.20321972729E+03  0.20321972729E+03  0.00000000000E+00 0. -1.
         21   -1    0    0  501  502 -0.00000000000E+00 -0.00000000000E+00 -0.54388115442E+03  0.54388115442E+03  0.00000000000E+00 0. -1.
         25    1    1    2    0    0  0.90473404303E+02  0.11314338885E+03  0.32716023694E+02  0.19411903959E+03  0.12500000000E+03 0.  0.
         25    1    1    2    0    0  0.17646962849E+02  0.75046498987E+01 -0.31615187457E+03  0.34050659738E+03  0.12500000000E+03 0.  0.
         25    1    1    2    0    0 -0.10812036715E+03 -0.12064803875E+03 -0.57225576253E+02  0.21247524473E+03  0.12500000000E+03 0.  0.
</event>
<event>
 5    0  0.5616733E-005  0.2799915E+03  0.7546771E-02  0.1095694E+00
         21   -1    0    0  502  501  0.00000000000E+00  0.00000000000E+00  0.46682332100E+03  0.46682332100E+03  0.00000000000E+00 0.  1.
         21   -1    0    0  501  502 -0.00000000000E+00 -0.00000000000E+00 -0.16793347141E+03  0.16793347141E+03  0.00000000000E+00 0.  1.
         25    1    1    2    0    0 -0.10185074593E+03  0.10593880174E+03  0.64000133046E+02  0.20326736381E+03  0.12500000000E+03 0.  0.
         25    1    1    2    0    0  0.10595129495E+02 -0.15391282918E+03  0.11065734346E+03  0.22731357948E+03  0.12500000000E+03 0.  0.
         25    1    1    2    0    0  0.91255616431E+02  0.47974027447E+02  0.12423237309E+03  0.20417584912E+03  0.12500000000E+03 0.  0.
</event>
<event>
 5    0  0.5616733E-005  0.2205265E+03  0.7546771E-02  0.1133491E+00
         21   -1    0    0  502  501  0.00000000000E+00  0.00000000000E+00  0.57532284499E+03  0.57532284499E+03  0.00000000000E+00 0.  1.
         21   -1    0    0  501  502 -0.00000000000E+00 -0.00000000000E+00 -0.84529783501E+02  0.84529783501E+02  0.00000000000E+00 0.  1.
         25    1    1    2    0    0  0.79034845642E+02 -0.30808131400E+02  0.15103515000E+03  0.21361709745E+03  0.12500000000E+03 0.  0.
         25    1    1    2    0    0  0.18623180379E+02 -0.32120198225E+01  0.16361754235E+03  0.20676759921E+03  0.12500000000E+03 0.  0.
         25    1    1    2    0    0 -0.97658026021E+02  0.34020151223E+02  0.17614036914E+03  0.23946793183E+03  0.12500000000E+03 0.  0.
</event>
<event>
 5    0  0.5616733E-005  0.6258027E+03  0.7546771E-02  0.9853274E-01
         21   -1    0    0  502  501  0.00000000000E+00  0.00000000000E+00  0.50203026466E+03  0.50203026466E+03  0.00000000000E+00 0.  1.
         21   -1    0    0  501  502 -0.00000000000E+00 -0.00000000000E+00 -0.78009034909E+03  0.78009034909E+03  0.00000000000E+00 0.  1.
         25    1    1    2    0    0  0.30045963038E+03 -0.20399495524E+02  0.30312636155E+03  0.44519964058E+03  0.12500000000E+03 0.  0.
         25    1    1    2    0    0 -0.17407507641E+03 -0.15012198767E+03 -0.72154919464E+02  0.27142232003E+03  0.12500000000E+03 0.  0.
         25    1    1    2    0    0 -0.12638455397E+03  0.17052148320E+03 -0.50903152652E+03  0.56549865314E+03  0.12500000000E+03 0.  0.
</event>
<event>
 5    0  0.5616733E-005  0.2218954E+03  0.7546771E-02  0.1132478E+00
         21   -1    0    0  502  501  0.00000000000E+00  0.00000000000E+00  0.57277357374E+03  0.57277357374E+03  0.00000000000E+00 0.  1.
         21   -1    0    0  501  502 -0.00000000000E+00 -0.00000000000E+00 -0.85963382101E+02  0.85963382101E+02  0.00000000000E+00 0.  1.
         25    1    1    2    0    0  0.35343897053E+02 -0.15814100692E+01  0.11149662694E+03  0.17119634849E+03  0.12500000000E+03 0.  0.
         25    1    1    2    0    0 -0.60510891771E+02  0.48755640555E+02  0.29488529526E+03  0.32957702874E+03  0.12500000000E+03 0.  0.
         25    1    1    2    0    0  0.25166994718E+02 -0.47174230485E+02  0.80428269436E+02  0.15796357862E+03  0.12500000000E+03 0.  0.
</event>
<event>
 5    0  0.5616733E-005  0.3604805E+03  0.7546771E-02  0.1058394E+00
         21   -1    0    0  502  501  0.00000000000E+00  0.00000000000E+00  0.18042682894E+03  0.18042682894E+03  0.00000000000E+00 0.  1.
         21   -1    0    0  501  502 -0.00000000000E+00 -0.00000000000E+00 -0.72021549834E+03  0.72021549834E+03  0.00000000000E+00 0.  1.
         25    1    1    2    0    0 -0.23999195041E+03 -0.19850958225E+02 -0.22938235728E+03  0.35529067344E+03  0.12500000000E+03 0.  0.
         25    1    1    2    0    0  0.44479877638E+02  0.13504648870E+03 -0.13149873115E+03  0.23050581320E+03  0.12500000000E+03 0.  0.
         25    1    1    2    0    0  0.19551207277E+03 -0.11519553048E+03 -0.17890758098E+03  0.31484584064E+03  0.12500000000E+03 0.  0.
</event>
<event>
 5    0  0.5616733E-005  0.2650721E+03  0.7546771E-02  0.1104134E+00
         21   -1    0    0  502  501  0.00000000000E+00  0.00000000000E+00  0.53386275445E+03  0.53386275445E+03  0.00000000000E+00 0.  1.
         21   -1    0    0  501  502 -0.00000000000E+00 -0.00000000000E+00 -0.13161291882E+03  0.13161291882E+03  0.00000000000E+00 0.  1.
         25    1    1    2    0    0  0.11094460311E+03 -0.83814049350E+01  0.30727362174E+02  0.17014148141E+03  0.12500000000E+03 0.  0.
         25    1    1    2    0    0 -0.23283536119E+02  0.69058043958E+02  0.93111123367E+02  0.17206341210E+03  0.12500000000E+03 0.  0.
         25    1    1    2    0    0 -0.87661066995E+02 -0.60676639023E+02  0.27841135009E+03  0.32327077977E+03  0.12500000000E+03 0.  0.
</event>
<event>
 5    0  0.5616733E-005  0.3786350E+03  0.7546771E-02  0.1051439E+00
         21   -1    0    0  502  501  0.00000000000E+00  0.00000000000E+00  0.23399253200E+03  0.23399253200E+03  0.00000000000E+00 0.  1.
         21   -1    0    0  501  502 -0.00000000000E+00 -0.00000000000E+00 -0.61268819858E+03  0.61268819858E+03  0.00000000000E+00 0.  1.
         25    1    1    2    0    0 -0.10490266648E+03 -0.20856213451E+03 -0.24421896854E+03  0.36023691923E+03  0.12500000000E+03 0.  0.
         25    1    1    2    0    0  0.12168774207E+03  0.17843108257E+03  0.56259093782E+02  0.25580391598E+03  0.12500000000E+03 0.  0.
         25    1    1    2    0    0 -0.16785075591E+02  0.30131051938E+02 -0.19073579182E+03  0.23063989537E+03  0.12500000000E+03 0.  0.
</event>
<event>
 5    0  0.5616733E-005  0.2538327E+03  0.7546771E-02  0.1110906E+00
         21   -1    0    0  502  501  0.00000000000E+00  0.00000000000E+00  0.20992886972E+04  0.20992886972E+04  0.00000000000E+00 0. -1.
         21   -1    0    0  501  502 -0.00000000000E+00 -0.00000000000E+00 -0.30691839093E+02  0.30691839093E+02  0.00000000000E+00 0. -1.
         25    1    1    2    0    0  0.91031224055E+02  0.37892233558E+02  0.85209215053E+03  0.86683824218E+03  0.12500000000E+03 0.  0.
         25    1    1    2    0    0  0.16573354093E+02  0.15955259748E+01  0.23126054735E+03  0.26340778752E+03  0.12500000000E+03 0.  0.
         25    1    1    2    0    0 -0.10760457815E+03 -0.39487759533E+02  0.98524416023E+03  0.99973450659E+03  0.12500000000E+03 0.  0.
</event>
<event>
 5    0  0.5616733E-005  0.3462036E+03  0.7546771E-02  0.1064184E+00
         21   -1    0    0  502  501  0.00000000000E+00  0.00000000000E+00  0.10440168143E+04  0.10440168143E+04  0.00000000000E+00 0.  1.
         21   -1    0    0  501  502 -0.00000000000E+00 -0.00000000000E+00 -0.11480367049E+03  0.11480367049E+03  0.00000000000E+00 0.  1.
         25    1    1    2    0    0 -0.48658270912E+02  0.50164280488E+02  0.14391681060E+03  0.20302987647E+03  0.12500000000E+03 0.  0.
         25    1    1    2    0    0 -0.12020330160E+03  0.13667079671E+03  0.16788157811E+03  0.27737513345E+03  0.12500000000E+03 0.  0.
         25    1    1    2    0    0  0.16886157251E+03 -0.18683507720E+03  0.61741475510E+03  0.67841547488E+03  0.12500000000E+03 0.  0.
</event>
<event>
 5    0  0.6048643E-005  0.2998089E+03  0.7546771E-02  0.1085336E+00
         21   -1    0    0  502  501  0.00000000000E+00  0.00000000000E+00  0.30089968212E+03  0.30089968212E+03  0.00000000000E+00 0.  1.
         21   -1    0    0  501  502 -0.00000000000E+00 -0.00000000000E+00 -0.29872200398E+03  0.29872200398E+03  0.00000000000E+00 0.  1.
         25    1    1    2    0    0  0.13462065147E+03 -0.13657087449E+03 -0.30347177564E+02  0.23091183328E+03  0.12500000000E+03 0.  0.
         25    1    1    2    0    0 -0.18240253394E+02  0.55874214430E+02  0.97365315564E+02  0.16899597438E+03  0.12500000000E+03 0.  0.
         25    1    1    2    0    0 -0.11638039808E+03  0.80696660065E+02 -0.64840459864E+02  0.19971387843E+03  0.12500000000E+03 0.  0.
</event>
<event>
 5    0  0.5616733E-005  0.2503157E+03  0.7546771E-02  0.1113105E+00
         21   -1    0    0  502  501  0.00000000000E+00  0.00000000000E+00  0.29874897988E+03  0.29874897988E+03  0.00000000000E+00 0. -1.
         21   -1    0    0  501  502 -0.00000000000E+00 -0.00000000000E+00 -0.20973446059E+03  0.20973446059E+03  0.00000000000E+00 0. -1.
         25    1    1    2    0    0  0.12232103752E+02  0.47857432724E+02  0.46076213429E+02  0.14208439630E+03  0.12500000000E+03 0.  0.
         25    1    1    2    0    0  0.11469804637E+03 -0.35449518672E+02  0.67791778468E+02  0.18609953101E+03  0.12500000000E+03 0.  0.
         25    1    1    2    0    0 -0.12693015012E+03 -0.12407914052E+02 -0.24853472603E+02  0.18029951315E+03  0.12500000000E+03 0.  0.
</event>
<event>
 5    0  0.5616733E-005  0.3531377E+03  0.7546771E-02  0.1061335E+00
         21   -1    0    0  502  501  0.00000000000E+00  0.00000000000E+00  0.25225726745E+03  0.25225726745E+03  0.00000000000E+00 0.  1.
         21   -1    0    0  501  502 -0.00000000000E+00 -0.00000000000E+00 -0.49436139615E+03  0.49436139615E+03  0.00000000000E+00 0.  1.
         25    1    1    2    0    0  0.20383688754E+03 -0.93235792098E+01 -0.54176085062E+02  0.24534965670E+03  0.12500000000E+03 0.  0.
         25    1    1    2    0    0 -0.25190069570E+03  0.35515723934E+02 -0.22268064359E+03  0.36045387524E+03  0.12500000000E+03 0.  0.
         25    1    1    2    0    0  0.48063808160E+02 -0.26192144724E+02  0.34752599960E+02  0.14081513166E+03  0.12500000000E+03 0.  0.
</event>
<event>
 5    0  0.5616733E-005  0.4045057E+03  0.7546771E-02  0.1042231E+00
         21   -1    0    0  502  501  0.00000000000E+00  0.00000000000E+00  0.40784090589E+03  0.40784090589E+03  0.00000000000E+00 0. -1.
         21   -1    0    0  501  502 -0.00000000000E+00 -0.00000000000E+00 -0.40119782123E+03  0.40119782123E+03  0.00000000000E+00 0. -1.
         25    1    1    2    0    0  0.30339827642E+02  0.66262950800E+02 -0.23170437953E+03  0.27317247900E+03  0.12500000000E+03 0.  0.
         25    1    1    2    0    0  0.58169130467E+02  0.31942874688E+02  0.30964366242E+03  0.34045292282E+03  0.12500000000E+03 0.  0.
         25    1    1    2    0    0 -0.88508958109E+02 -0.98205825488E+02 -0.71296198230E+02  0.19541332531E+03  0.12500000000E+03 0.  0.
</event>
<event>
 5    0  0.5816514E-005  0.3998707E+03  0.7546771E-02  0.1043824E+00
         21   -1    0    0  502  501  0.00000000000E+00  0.00000000000E+00  0.11616601707E+04  0.11616601707E+04  0.00000000000E+00 0. -1.
         21   -1    0    0  501  502 -0.00000000000E+00 -0.00000000000E+00 -0.13764485212E+03  0.13764485212E+03  0.00000000000E+00 0. -1.
         25    1    1    2    0    0  0.58381259529E+02 -0.62293920746E+02 -0.35440378686E+02  0.15546679539E+03  0.12500000000E+03 0.  0.
         25    1    1    2    0    0 -0.61195720279E+02  0.19148087522E+03  0.45060687073E+03  0.50900038675E+03  0.12500000000E+03 0.  0.
         25    1    1    2    0    0  0.28144607505E+01 -0.12918695448E+03  0.60884882649E+03  0.63483784065E+03  0.12500000000E+03 0.  0.
</event>
<event>
 5    0  0.5616733E-005  0.1004781E+04  0.7546771E-02  0.9303316E-01
         21   -1    0    0  502  501  0.00000000000E+00  0.00000000000E+00  0.46365638652E+03  0.46365638652E+03  0.00000000000E+00 0.  1.
         21   -1    0    0  501  502 -0.00000000000E+00 -0.00000000000E+00 -0.21774438948E+04  0.21774438948E+04  0.00000000000E+00 0.  1.
         25    1    1    2    0    0 -0.57800614406E+03 -0.42624988616E+03 -0.81500681614E+03  0.10934537843E+04  0.12500000000E+03 0.  0.
         25    1    1    2    0    0  0.58067743870E+03  0.41766403883E+03 -0.92856039527E+02  0.73203605186E+03  0.12500000000E+03 0.  0.
         25    1    1    2    0    0 -0.26712946406E+01  0.85858473258E+01 -0.80592465257E+03  0.81561044513E+03  0.12500000000E+03 0.  0.
</event>
<event>
 5    0  0.7882337E-005  0.2796302E+03  0.7546771E-02  0.1095891E+00
         21   -1    0    0  502  501  0.00000000000E+00  0.00000000000E+00  0.13639586896E+03  0.13639586896E+03  0.00000000000E+00 0. -1.
         21   -1    0    0  501  502 -0.00000000000E+00 -0.00000000000E+00 -0.57328037682E+03  0.57328037682E+03  0.00000000000E+00 0. -1.
         25    1    1    2    0    0 -0.27640682782E+02 -0.68608455557E+02 -0.23662196505E+03  0.27764380394E+03  0.12500000000E+03 0.  0.
         25    1    1    2    0    0 -0.38416242906E+01  0.29405062873E+02  0.57832301637E+02  0.14088644687E+03  0.12500000000E+03 0.  0.
         25    1    1    2    0    0  0.31482307072E+02  0.39203392684E+02 -0.25809484445E+03  0.29114599497E+03  0.12500000000E+03 0.  0.
</event>
<event>
 5    0  0.5616733E-005  0.3975743E+03  0.7546771E-02  0.1044623E+00
         21   -1    0    0  502  501  0.00000000000E+00  0.00000000000E+00  0.47626534030E+03  0.47626534030E+03  0.00000000000E+00 0. -1.
         21   -1    0    0  501  502 -0.00000000000E+00 -0.00000000000E+00 -0.33188501322E+03  0.33188501322E+03  0.00000000000E+00 0. -1.
         25    1    1    2    0    0  0.21933985884E+03 -0.19373566323E+02  0.23784285023E+03  0.34738959419E+03  0.12500000000E+03 0.  0.
         25    1    1    2    0    0  0.29870994141E+01 -0.94804371750E+02  0.21906195826E+02  0.15843507529E+03  0.12500000000E+03 0.  0.
         25    1    1    2    0    0 -0.22232695826E+03  0.11417793807E+03 -0.11536871897E+03  0.30232568404E+03  0.12500000000E+03 0.  0.
</event>
<event>
 5    0  0.5616733E-005  0.2121884E+03  0.7546771E-02  0.1139845E+00
         21   -1    0    0  502  501  0.00000000000E+00  0.00000000000E+00  0.67961530361E+03  0.67961530361E+03  0.00000000000E+00 0. -1.
         21   -1    0    0  501  502 -0.00000000000E+00 -0.00000000000E+00 -0.66249143761E+02  0.66249143761E+02  0.00000000000E+00 0. -1.
         25    1    1    2    0    0 -0.12808329193E+02 -0.49384563493E+02  0.17268991362E+03  0.21920240572E+03  0.12500000000E+03 0.  0.
         25    1    1    2    0    0 -0.26874111846E+02  0.68044170611E+02  0.15713181967E+03  0.21369987317E+03  0.12500000000E+03 0.  0.
         25    1    1    2    0    0  0.39682441039E+02 -0.18659607118E+02  0.28354442656E+03  0.31296216847E+03  0.12500000000E+03 0.  0.
</event>
<event>
 5    0  0.5616733E-005  0.3134812E+03  0.7546771E-02  0.1078689E+00
         21   -1    0    0  502  501  0.00000000000E+00  0.00000000000E+00  0.11381093151E+04  0.11381093151E+04  0.00000000000E+00 0.  1.
         21   -1    0    0  501  502 -0.00000000000E+00 -0.00000000000E+00 -0.86345370750E+02  0.86345370750E+02  0.00000000000E+00 0.  1.
         25    1    1    2    0    0 -0.51096428839E+02  0.62021332813E+02  0.29271513868E+03  0.32827525520E+03  0.12500000000E+03 0.  0.
         25    1    1    2    0    0 -0.31918124202E+02 -0.18361998971E+03  0.61666904103E+03  0.65623225571E+03  0.12500000000E+03 0.  0.
         25    1    1    2    0    0  0.83014553041E+02  0.12159865689E+03  0.14237976460E+03  0.23994717490E+03  0.12500000000E+03 0.  0.
</event>
<event>
 5    0  0.5616733E-005  0.4159482E+03  0.7546771E-02  0.1038393E+00
         21   -1    0    0  502  501  0.00000000000E+00  0.00000000000E+00  0.16394410820E+03  0.16394410820E+03  0.00000000000E+00 0. -1.
         21   -1    0    0  501  502 -0.00000000000E+00 -0.00000000000E+00 -0.10553161679E+04  0.10553161679E+04  0.00000000000E+00 0. -1.
         25    1    1    2    0    0  0.15169520280E+03  0.33535986468E+02 -0.32816680683E+03  0.38399811203E+03  0.12500000000E+03 0.  0.
         25    1    1    2    0    0  0.18666657890E+02  0.18554066287E+03 -0.37223274853E+02  0.22756175840E+03  0.12500000000E+03 0.  0.
         25    1    1    2    0    0 -0.17036186069E+03 -0.21907664934E+03 -0.52598197806E+03  0.60770040572E+03  0.12500000000E+03 0.  0.
</event>
<event>
 5    0  0.5616733E-005  0.2696540E+03  0.7546771E-02  0.1101478E+00
         21   -1    0    0  502  501  0.00000000000E+00  0.00000000000E+00  0.70367128999E+03  0.70367128999E+03  0.00000000000E+00 0. -1.
         21   -1    0    0  501  502 -0.00000000000E+00 -0.00000000000E+00 -0.10333413358E+03  0.10333413358E+03  0.00000000000E+00 0. -1.
         25    1    1    2    0    0  0.26546370460E+02  0.39045106242E+02 -0.42085532596E+00  0.13362038477E+03  0.12500000000E+03 0.  0.
         25    1    1    2    0    0  0.47827659640E+02 -0.38449606943E+02  0.17608024964E+03  0.22448855564E+03  0.12500000000E+03 0.  0.
         25    1    1    2    0    0 -0.74374030100E+02 -0.59549929961E+00  0.42467776209E+03  0.44889648316E+03  0.12500000000E+03 0.  0.
</event>
<event>
 5    0  0.5616733E-005  0.3974675E+03  0.7546771E-02  0.1044660E+00
         21   -1    0    0  502  501  0.00000000000E+00  0.00000000000E+00  0.25137347996E+03  0.25137347996E+03  0.00000000000E+00 0. -1.
         21   -1    0    0  501  502 -0.00000000000E+00 -0.00000000000E+00 -0.62846887907E+03  0.62846887907E+03  0.00000000000E+00 0. -1.
         25    1    1    2    0    0 -0.24765975356E+03 -0.35028944228E+02 -0.33168877855E+02  0.28158045906E+03  0.12500000000E+03 0.  0.
         25    1    1    2    0    0  0.30124336359E+03 -0.47663910539E+02 -0.24718112454E+03  0.41199869030E+03  0.12500000000E+03 0.  0.
         25    1    1    2    0    0 -0.53583610031E+02  0.82692854767E+02 -0.96745396710E+02  0.18626320967E+03  0.12500000000E+03 0.  0.
</event>
<event>
 5    0  0.5616733E-005  0.2755151E+03  0.7546771E-02  0.1098164E+00
         21   -1    0    0  502  501  0.00000000000E+00  0.00000000000E+00  0.23066518056E+03  0.23066518056E+03  0.00000000000E+00 0.  1.
         21   -1    0    0  501  502 -0.00000000000E+00 -0.00000000000E+00 -0.32908561291E+03  0.32908561291E+03  0.00000000000E+00 0.  1.
         25    1    1    2    0    0 -0.78976076560E+02 -0.14791828436E+03 -0.45632929511E+02  0.21406635367E+03  0.12500000000E+03 0.  0.
         25    1    1    2    0    0  0.93654913119E+02  0.12382919505E+03 -0.79835393240E+02  0.21471749419E+03  0.12500000000E+03 0.  0.
         25    1    1    2    0    0 -0.14678836560E+02  0.24089089308E+02  0.27047890397E+02  0.13096694561E+03  0.12500000000E+03 0.  0.
</event>
<event>
 5    0  0.5616733E-005  0.5274915E+03  0.7546771E-02  0.1006842E+00
         21   -1    0    0  502  501  0.00000000000E+00  0.00000000000E+00  0.47051001036E+03  0.47051001036E+03  0.00000000000E+00 0. -1.
         21   -1    0    0  501  502 -0.00000000000E+00 -0.00000000000E+00 -0.59137371348E+03  0.59137371348E+03  0.00000000000E+00 0. -1.
         25    1    1    2    0    0  0.22576768494E+01 -0.77744847277E+02  0.15161130157E+03  0.21132994380E+03  0.12500000000E+03 0.  0.
         25    1    1    2    0    0  0.33533448676E+03  0.17501482798E+03 -0.26332660280E+03  0.47754089643E+03  0.12500000000E+03 0.  0.
         25    1    1    2    0    0 -0.33759216361E+03 -0.97269980706E+02 -0.91484018943E+01  0.37301288360E+03  0.12500000000E+03 0.  0.
</event>
<event>
 5    0  0.5616733E-005  0.2976066E+03  0.7546771E-02  0.1086443E+00
         21   -1    0    0  502  501  0.00000000000E+00  0.00000000000E+00  0.21894067711E+03  0.21894067711E+03  0.00000000000E+00 0.  1.
         21   -1    0    0  501  502 -0.00000000000E+00 -0.00000000000E+00 -0.40453736485E+03  0.40453736485E+03  0.00000000000E+00 0.  1.
         25    1    1    2    0    0  0.17031279164E+03 -0.12603995763E+02 -0.74476671292E+02  0.22435927053E+03  0.12500000000E+03 0.  0.
         25    1    1    2    0    0 -0.79579262467E+02 -0.11106092943E+03 -0.61493611437E+02  0.19512522469E+03  0.12500000000E+03 0.  0.
         25    1    1    2    0    0 -0.90733529174E+02  0.12366492520E+03 -0.49626405011E+02  0.20399354675E+03  0.12500000000E+03 0.  0.
</event>
<event>
 5    0  0.5616733E-005  0.2945705E+03  0.7546771E-02  0.1087987E+00
         21   -1    0    0  502  501  0.00000000000E+00  0.00000000000E+00  0.18101417770E+03  0.18101417770E+03  0.00000000000E+00 0.  1.
         21   -1    0    0  501  502 -0.00000000000E+00 -0.00000000000E+00 -0.47936459332E+03  0.47936459332E+03  0.00000000000E+00 0.  1.
         25    1    1    2    0    0  0.20227208386E+03 -0.33209688330E+02 -0.13361950484E+03  0.27476544794E+03  0.12500000000E+03 0.  0.
         25    1    1    2    0    0 -0.16063323600E+03  0.22561897590E+02 -0.50521956345E+02  0.21092544608E+03  0.12500000000E+03 0.  0.
         25    1    1    2    0    0 -0.41638847857E+02  0.10647790740E+02 -0.11420895444E+03  0.17468787700E+03  0.12500000000E+03 0.  0.
</event>
<event>
 5    0  0.5616733E-005  0.2739113E+03  0.7546771E-02  0.1099062E+00
         21   -1    0    0  502  501  0.00000000000E+00  0.00000000000E+00  0.75807520082E+03  0.75807520082E+03  0.00000000000E+00 0.  1.
         21   -1    0    0  501  502 -0.00000000000E+00 -0.00000000000E+00 -0.98970900575E+02  0.98970900575E+02  0.00000000000E+00 0.  1.
         25    1    1    2    0    0 -0.11214446407E+02 -0.90992864766E+02  0.28027895082E+03  0.32029167257E+03  0.12500000000E+03 0.  0.
         25    1    1    2    0    0 -0.96479285269E+02  0.90977088642E+02  0.30654478712E+03  0.35662275538E+03  0.12500000000E+03 0.  0.
         25    1    1    2    0    0  0.10769373168E+03  0.15776124365E-01  0.72280562308E+02  0.18013167345E+03  0.12500000000E+03 0.  0.
</event>
<event>
 5    0  0.6390292E-005  0.2650096E+03  0.7546771E-02  0.1104170E+00
         21   -1    0    0  502  501  0.00000000000E+00  0.00000000000E+00  0.42456375280E+03  0.42456375280E+03  0.00000000000E+00 0.  1.
         21   -1    0    0  501  502 -0.00000000000E+00 -0.00000000000E+00 -0.16541700957E+03  0.16541700957E+03  0.00000000000E+00 0.  1.
         25    1    1    2    0    0 -0.12487680849E+03  0.11667497199E+03  0.63579576198E+02  0.22107607038E+03  0.12500000000E+03 0.  0.
         25    1    1    2    0    0  0.73381092337E+02 -0.10108153641E+03  0.11059527993E+03  0.20846721003E+03  0.12500000000E+03 0.  0.
         25    1    1    2    0    0  0.51495716155E+02 -0.15593435574E+02  0.84971887107E+02  0.16043748195E+03  0.12500000000E+03 0.  0.
</event>
<event>
 5    0  0.5616733E-005  0.5987034E+03  0.7546771E-02  0.9908100E-01
         21   -1    0    0  502  501  0.00000000000E+00  0.00000000000E+00  0.77132318199E+03  0.77132318199E+03  0.00000000000E+00 0.  1.
         21   -1    0    0  501  502 -0.00000000000E+00 -0.00000000000E+00 -0.46471533822E+03  0.46471533822E+03  0.00000000000E+00 0.  1.
         25    1    1    2    0    0  0.25762268013E+03  0.77597636755E+02  0.14485678078E+03  0.33015045886E+03  0.12500000000E+03 0.  0.
         25    1    1    2    0    0 -0.73880071698E+02 -0.38604542927E+03 -0.12357011323E+03  0.43056231993E+03  0.12500000000E+03 0.  0.
         25    1    1    2    0    0 -0.18374260843E+03  0.30844779252E+03  0.28532117622E+03  0.47532574143E+03  0.12500000000E+03 0.  0.
</event>
<event>
 5    0  0.5616733E-005  0.3938718E+03  0.7546771E-02  0.1045923E+00
         21   -1    0    0  502  501  0.00000000000E+00  0.00000000000E+00  0.80976699837E+03  0.80976699837E+03  0.00000000000E+00 0.  1.
         21   -1    0    0  501  502 -0.00000000000E+00 -0.00000000000E+00 -0.19157975489E+03  0.19157975489E+03  0.00000000000E+00 0.  1.
         25    1    1    2    0    0  0.14022278340E+03  0.18220666144E+03  0.18721242947E+03  0.32176884592E+03  0.12500000000E+03 0.  0.
         25    1    1    2    0    0  0.12202944261E+03 -0.15027073780E+03  0.15583262279E+03  0.27817491948E+03  0.12500000000E+03 0.  0.
         25    1    1    2    0    0 -0.26225222601E+03 -0.31935923635E+02  0.27514219122E+03  0.40140298785E+03  0.12500000000E+03 0.  0.
</event>
<event>
 5    0  0.5616733E-005  0.3041202E+03  0.7546771E-02  0.1083199E+00
         21   -1    0    0  502  501  0.00000000000E+00  0.00000000000E+00  0.59134716653E+02  0.59134716653E+02  0.00000000000E+00 0. -1.
         21   -1    0    0  501  502 -0.00000000000E+00 -0.00000000000E+00 -0.15640406008E+04  0.15640406008E+04  0.00000000000E+00 0. -1.
         25    1    1    2    0    0  0.16607430888E+03  0.77498585592E+01 -0.91467349552E+03  0.93802630016E+03  0.12500000000E+03 0.  0.
         25    1    1    2    0    0 -0.15858267690E+03  0.45060167121E+02 -0.29703906305E+03  0.36198907311E+03  0.12500000000E+03 0.  0.
         25    1    1    2    0    0 -0.74916319812E+01 -0.52810025681E+02 -0.29319332557E+03  0.32315994418E+03  0.12500000000E+03 0.  0.
</event>
<event>
 5    0  0.5616733E-005  0.2796385E+03  0.7546771E-02  0.1095887E+00
         21   -1    0    0  502  501  0.00000000000E+00  0.00000000000E+00  0.54295620770E+02  0.54295620770E+02  0.00000000000E+00 0. -1.
         21   -1    0    0  501  502 -0.00000000000E+00 -0.00000000000E+00 -0.14402209298E+04  0.14402209298E+04  0.00000000000E+00 0. -1.
         25    1    1    2    0    0 -0.32501436472E+02  0.25741999855E+02 -0.66778219370E+03  0.68064458578E+03  0.12500000000E+03 0.  0.
         25    1    1    2    0    0  0.10780057380E+03  0.61304411847E+02 -0.18989270622E+03  0.25896608755E+03  0.12500000000E+03 0.  0.
         25    1    1    2    0    0 -0.75299137330E+02 -0.87046411702E+02 -0.52825040909E+03  0.55490587723E+03  0.12500000000E+03 0.  0.
</event>
<event>
 5    0  0.6831441E-005  0.3000519E+03  0.7546771E-02  0.1085215E+00
         21   -1    0    0  502  501  0.00000000000E+00  0.00000000000E+00  0.30411615214E+03  0.30411615214E+03  0.00000000000E+00 0. -1.
         21   -1    0    0  501  502 -0.00000000000E+00 -0.00000000000E+00 -0.29604188295E+03  0.29604188295E+03  0.00000000000E+00 0. -1.
         25    1    1    2    0    0 -0.14557528242E+03  0.89927121167E+02 -0.78114229361E+02  0.22584482018E+03  0.12500000000E+03 0.  0.
         25    1    1    2    0    0  0.43585513364E+02 -0.72196065365E+02  0.13752921520E+03  0.20408638824E+03  0.12500000000E+03 0.  0.
         25    1    1    2    0    0  0.10198976905E+03 -0.17731055802E+02 -0.51340716653E+02  0.17022682667E+03  0.12500000000E+03 0.  0.
</event>
<event>
 5    0  0.5616733E-005  0.3739245E+03  0.7546771E-02  0.1053202E+00
         21   -1    0    0  502  501  0.00000000000E+00  0.00000000000E+00  0.28296921407E+03  0.28296921407E+03  0.00000000000E+00 0. -1.
         21   -1    0    0  501  502 -0.00000000000E+00 -0.00000000000E+00 -0.49411567761E+03  0.49411567761E+03  0.00000000000E+00 0. -1.
         25    1    1    2    0    0  0.19290390596E+03 -0.22693702270E+03 -0.39531722085E+02  0.32542293444E+03  0.12500000000E+03 0.  0.
         25    1    1    2    0    0 -0.12759063739E+03  0.94210251515E+02 -0.14826909766E+02  0.20248402281E+03  0.12500000000E+03 0.  0.
         25    1    1    2    0    0 -0.65313268571E+02  0.13272677119E+03 -0.15678783169E+03  0.24917793443E+03  0.12500000000E+03 0.  0.
</event>
<event>
 5    0  0.5616733E-005  0.4091550E+03  0.7546771E-02  0.1040655E+00
         21   -1    0    0  502  501  0.00000000000E+00  0.00000000000E+00  0.39508361004E+03  0.39508361004E+03  0.00000000000E+00 0. -1.
         21   -1    0    0  501  502 -0.00000000000E+00 -0.00000000000E+00 -0.42372747007E+03  0.42372747007E+03  0.00000000000E+00 0.  1.
         25    1    1    2    0    0  0.16035238724E+03  0.16801473614E+03  0.24271415749E+03  0.35843688691E+03  0.12500000000E+03 0.  0.
         25    1    1    2    0    0 -0.92729570353E+02 -0.51241832874E+01 -0.11422965062E+03  0.19312804963E+03  0.12500000000E+03 0.  0.
         25    1    1    2    0    0 -0.67622816890E+02 -0.16289055285E+03 -0.15712836690E+03  0.26724614357E+03  0.12500000000E+03 0.  0.
</event>
<event>
 5    0  0.5616733E-005  0.5294522E+03  0.7546771E-02  0.1006365E+00
         21   -1    0    0  502  501  0.00000000000E+00  0.00000000000E+00  0.20327023697E+04  0.20327023697E+04  0.00000000000E+00 0.  1.
         21   -1    0    0  501  502 -0.00000000000E+00 -0.00000000000E+00 -0.13790489895E+03  0.13790489895E+03  0.00000000000E+00 0.  1.
         25    1    1    2    0    0  0.15273799316E+03 -0.24393767041E+03  0.17067465454E+03  0.35719647157E+03  0.12500000000E+03 0.  0.
         25    1    1    2    0    0 -0.27574044709E+03  0.15274236234E+03  0.80918153023E+03  0.87736125529E+03  0.12500000000E+03 0.  0.
         25    1    1    2    0    0  0.12300245393E+03  0.91195308064E+02  0.91494128594E+03  0.93604954175E+03  0.12500000000E+03 0.  0.
</event>
<event>
 5    0  0.5616733E-005  0.4814013E+03  0.7546771E-02  0.1018751E+00
         21   -1    0    0  502  501  0.00000000000E+00  0.00000000000E+00  0.17495901969E+04  0.17495901969E+04  0.00000000000E+00 0. -1.
         21   -1    0    0  501  502 -0.00000000000E+00 -0.00000000000E+00 -0.13245797895E+03  0.13245797895E+03  0.00000000000E+00 0. -1.
         25    1    1    2    0    0 -0.11137758307E+02  0.88330388608E+02  0.16087635615E+03  0.22233422854E+03  0.12500000000E+03 0.  0.
         25    1    1    2    0    0 -0.11301517268E+03 -0.39194371837E+03  0.97298569957E+03  0.10624116336E+04  0.12500000000E+03 0.  0.
         25    1    1    2    0    0  0.12415293099E+03  0.30361332976E+03  0.48327016226E+03  0.59730231375E+03  0.12500000000E+03 0.  0.
</event>
<event>
 5    0  0.5616733E-005  0.3200788E+03  0.7546771E-02  0.1075613E+00
         21   -1    0    0  502  501  0.00000000000E+00  0.00000000000E+00  0.56467146533E+03  0.56467146533E+03  0.00000000000E+00 0.  1.
         21   -1    0    0  501  502 -0.00000000000E+00 -0.00000000000E+00 -0.18143373907E+03  0.18143373907E+03  0.00000000000E+00 0.  1.
         25    1    1    2    0    0 -0.19588465238E+02 -0.81529841506E+02  0.26818820260E+03  0.30753981050E+03  0.12500000000E+03 0.  0.
         25    1    1    2    0    0 -0.12597619226E+03 -0.45784853493E+02  0.97578093666E+02  0.20763607150E+03  0.12500000000E+03 0.  0.
         25    1    1    2    0    0  0.14556465750E+03  0.12731469500E+03  0.17471429992E+02  0.23092932240E+03  0.12500000000E+03 0.  0.
</event>
<event>
 5    0  0.5616733E-005  0.2617868E+03  0.7546771E-02  0.1106074E+00
         21   -1    0    0  502  501  0.00000000000E+00  0.00000000000E+00  0.58924510987E+02  0.58924510987E+02  0.00000000000E+00 0.  1.
         21   -1    0    0  501  502 -0.00000000000E+00 -0.00000000000E+00 -0.11630525976E+04  0.11630525976E+04  0.00000000000E+00 0.  1.
         25    1    1    2    0    0 -0.85026156883E+02  0.75199619572E+02 -0.35778302127E+03  0.39562371068E+03  0.12500000000E+03 0.  0.
         25    1    1    2    0    0  0.12186487790E+03  0.54779090579E+01 -0.23672686254E+03  0.29418644327E+03  0.12500000000E+03 0.  0.
         25    1    1    2    0    0 -0.36838721017E+02 -0.80677528630E+02 -0.50961820278E+03  0.53216695462E+03  0.12500000000E+03 0.  0.
</event>
<event>
 5    0  0.5616733E-005  0.2597810E+03  0.7546771E-02  0.1107275E+00
         21   -1    0    0  502  501  0.00000000000E+00  0.00000000000E+00  0.10016295104E+04  0.10016295104E+04  0.00000000000E+00 0.  1.
         21   -1    0    0  501  502 -0.00000000000E+00 -0.00000000000E+00 -0.67376383519E+02  0.67376383519E+02  0.00000000000E+00 0.  1.
         25    1    1    2    0    0  0.66325977506E+02 -0.36462681629E+02  0.62570455846E+03  0.64254171610E+03  0.12500000000E+03 0.  0.
         25    1    1    2    0    0 -0.93999584621E+02  0.42563377502E+02  0.20718100287E+03  0.26305233503E+03  0.12500000000E+03 0.  0.
         25    1    1    2    0    0  0.27673607116E+02 -0.61006958735E+01  0.10136756555E+03  0.16341184280E+03  0.12500000000E+03 0.  0.
</event>
<event>
 5    0  0.5616733E-005  0.2345955E+03  0.7546771E-02  0.1123446E+00
         21   -1    0    0  502  501  0.00000000000E+00  0.00000000000E+00  0.31708663065E+03  0.31708663065E+03  0.00000000000E+00 0.  1.
         21   -1    0    0  501  502 -0.00000000000E+00 -0.00000000000E+00 -0.17356472909E+03  0.17356472909E+03  0.00000000000E+00 0.  1.
         25    1    1    2    0    0  0.92180024421E+02  0.59266476856E+02  0.67863956520E+02  0.17955553118E+03  0.12500000000E+03 0.  0.
         25    1    1    2    0    0 -0.86948162312E+02 -0.79297858677E+02  0.20462889857E+02  0.17289263484E+03  0.12500000000E+03 0.  0.
         25    1    1    2    0    0 -0.52318621094E+01  0.20031381820E+02  0.55195055187E+02  0.13820319373E+03  0.12500000000E+03 0.  0.
</event>
<event>
 5    0  0.5616733E-005  0.3369907E+03  0.7546771E-02  0.1068085E+00
         21   -1    0    0  502  501  0.00000000000E+00  0.00000000000E+00  0.51345611178E+03  0.51345611178E+03  0.00000000000E+00 0.  1.
         21   -1    0    0  501  502 -0.00000000000E+00 -0.00000000000E+00 -0.22117318833E+03  0.22117318833E+03  0.00000000000E+00 0.  1.
         25    1    1    2    0    0  0.49740289846E+02 -0.20126582479E+03 -0.10509465788E+02  0.24231689485E+03  0.12500000000E+03 0.  0.
         25    1    1    2    0    0 -0.12103140140E+03  0.13537261494E+03  0.12173281413E+03  0.25182975010E+03  0.12500000000E+03 0.  0.
         25    1    1    2    0    0  0.71291111552E+02  0.65893209848E+02  0.18105957511E+03  0.24048265515E+03  0.12500000000E+03 0.  0.
</event>
<event>
 5    0  0.5616733E-005  0.2773074E+03  0.7546771E-02  0.1097169E+00
         21   -1    0    0  502  501  0.00000000000E+00  0.00000000000E+00  0.10056707399E+03  0.10056707399E+03  0.00000000000E+00 0. -1.
         21   -1    0    0  501  502 -0.00000000000E+00 -0.00000000000E+00 -0.76465797341E+03  0.76465797341E+03  0.00000000000E+00 0. -1.
         25    1    1    2    0    0 -0.83177060420E+01  0.33312433804E+02 -0.20852016848E+02  0.13129626456E+03  0.12500000000E+03 0.  0.
         25    1    1    2    0    0  0.45324707207E+02 -0.12358011334E+03 -0.24215725038E+03  0.30264088853E+03  0.12500000000E+03 0.  0.
         25    1    1    2    0    0 -0.37007001165E+02  0.90267679536E+02 -0.40108163219E+03  0.43128789432E+03  0.12500000000E+03 0.  0.
</event>
<event>
 5    0  0.5616733E-005  0.3528992E+03  0.7546771E-02  0.1061431E+00
         21   -1    0    0  502  501  0.00000000000E+00  0.00000000000E+00  0.13626307651E+03  0.13626307651E+03  0.00000000000E+00 0. -1.
         21   -1    0    0  501  502 -0.00000000000E+00 -0.00000000000E+00 -0.91395128655E+03  0.91395128655E+03  0.00000000000E+00 0. -1.
         25    1    1    2    0    0  0.62407011881E+01 -0.13887459764E+01  0.42837142417E+02  0.13229095108E+03  0.12500000000E+03 0.  0.
         25    1    1    2    0    0  0.36533708731E+01 -0.15949904665E+03 -0.47908927423E+03  0.52019691049E+03  0.12500000000E+03 0.  0.
         25    1    1    2    0    0 -0.98940720612E+01  0.16088779263E+03 -0.34143607822E+03  0.39772650150E+03  0.12500000000E+03 0.  0.
</event>
<event>
 5    0  0.5616733E-005  0.2325701E+03  0.7546771E-02  0.1124844E+00
         21   -1    0    0  502  501  0.00000000000E+00  0.00000000000E+00  0.43434158152E+02  0.43434158152E+02  0.00000000000E+00 0.  1.
         21   -1    0    0  501  502 -0.00000000000E+00 -0.00000000000E+00 -0.12453064953E+04  0.12453064953E+04  0.00000000000E+00 0.  1.
         25    1    1    2    0    0  0.16751711599E+02 -0.30847187503E+02 -0.18194118336E+03  0.22351680702E+03  0.12500000000E+03 0.  0.
         25    1    1    2    0    0  0.46055515248E+02 -0.53094624168E+02 -0.51477378595E+03  0.53437552367E+03  0.12500000000E+03 0.  0.
         25    1    1    2    0    0 -0.62807226847E+02  0.83941811671E+02 -0.50515736781E+03  0.53084832273E+03  0.12500000000E+03 0.  0.
</event>
<event>
 5    0  0.5616733E-005  0.4756593E+03  0.7546771E-02  0.1020335E+00
         21   -1    0    0  502  501  0.00000000000E+00  0.00000000000E+00  0.24320841197E+04  0.24320841197E+04  0.00000000000E+00 0.  1.
         21   -1    0    0  501  502 -0.00000000000E+00 -0.00000000000E+00 -0.93027922525E+02  0.93027922525E+02  0.00000000000E+00 0.  1.
         25    1    1    2    0    0 -0.17914295706E+03  0.39438520183E+02  0.94764111664E+03  0.97329146810E+03  0.12500000000E+03 0.  0.
         25    1    1    2    0    0  0.61839518647E+02 -0.15151363983E+03  0.74366118683E+02  0.21894252380E+03  0.12500000000E+03 0.  0.
         25    1    1    2    0    0  0.11730343841E+03  0.11207511964E+03  0.13170489618E+04  0.13328780503E+04  0.12500000000E+03 0.  0.
</event>
<event>
 5    0  0.5760179E-005  0.3685632E+03  0.7546771E-02  0.1055244E+00
         21   -1    0    0  502  501  0.00000000000E+00  0.00000000000E+00  0.15003982349E+03  0.15003982349E+03  0.00000000000E+00 0. -1.
         21   -1    0    0  501  502 -0.00000000000E+00 -0.00000000000E+00 -0.90535168772E+03  0.90535168772E+03  0.00000000000E+00 0. -1.
         25    1    1    2    0    0  0.10361172412E+03 -0.21991285222E+03 -0.19269748628E+03  0.33444636814E+03  0.12500000000E+03 0.  0.
         25    1    1    2    0    0  0.40829485807E+02  0.18658862919E+03 -0.17533823488E+03  0.28783825330E+03  0.12500000000E+03 0.  0.
         25    1    1    2    0    0 -0.14444120993E+03  0.33324223033E+02 -0.38727614308E+03  0.43310688977E+03  0.12500000000E+03 0.  0.
</event>
<event>
 5    0  0.5616733E-005  0.2282238E+03  0.7546771E-02  0.1127896E+00
         21   -1    0    0  502  501  0.00000000000E+00  0.00000000000E+00  0.15917808008E+03  0.15917808008E+03  0.00000000000E+00 0. -1.
         21   -1    0    0  501  502 -0.00000000000E+00 -0.00000000000E+00 -0.32721900073E+03  0.32721900073E+03  0.00000000000E+00 0. -1.
         25    1    1    2    0    0  0.85951077580E+02  0.63593459439E+01 -0.26279774446E+02  0.15408976463E+03  0.12500000000E+03 0.  0.
         25    1    1    2    0    0 -0.17866281297E+02  0.50734087913E+02 -0.11163626391E+03  0.17601365601E+03  0.12500000000E+03 0.  0.
         25    1    1    2    0    0 -0.68084796284E+02 -0.57093433857E+02 -0.30124882290E+02  0.15629366016E+03  0.12500000000E+03 0.  0.
</event>
<event>
 5    0  0.5616733E-005  0.3305061E+03  0.7546771E-02  0.1070913E+00
         21   -1    0    0  502  501  0.00000000000E+00  0.00000000000E+00  0.75198675453E+03  0.75198675453E+03  0.00000000000E+00 0. -1.
         21   -1    0    0  501  502 -0.00000000000E+00 -0.00000000000E+00 -0.14526092567E+03  0.14526092567E+03  0.00000000000E+00 0. -1.
         25    1    1    2    0    0 -0.22206641425E+02 -0.20917116578E+03  0.16606885616E+03  0.29571874560E+03  0.12500000000E+03 0.  0.
         25    1    1    2    0    0 -0.71824396266E+02  0.20512407875E+03  0.30155033573E+03  0.39216353293E+03  0.12500000000E+03 0.  0.
         25    1    1    2    0    0  0.94031037691E+02  0.40470870286E+01  0.13910663697E+03  0.20936540166E+03  0.12500000000E+03 0.  0.
</event>
<event>
 5    0  0.5616733E-005  0.4051587E+03  0.7546771E-02  0.1042008E+00
         21   -1    0    0  502  501  0.00000000000E+00  0.00000000000E+00  0.80618508413E+03  0.80618508413E+03  0.00000000000E+00 0.  1.
         21   -1    0    0  501  502 -0.00000000000E+00 -0.00000000000E+00 -0.20361770565E+03  0.20361770565E+03  0.00000000000E+00 0.  1.
         25    1    1    2    0    0  0.67641889852E+02  0.88010341642E+02  0.14512127856E+03  0.22137396186E+03  0.12500000000E+03 0.  0.
         25    1    1    2    0    0  0.44245496569E+02 -0.15058853406E+03  0.55100883930E+03  0.58640456303E+03  0.12500000000E+03 0.  0.
         25    1    1    2    0    0 -0.11188738642E+03  0.62578192417E+02 -0.93562739376E+02  0.20202426489E+03  0.12500000000E+03 0.  0.
</event>
<event>
 5    0  0.5616733E-005  0.6113860E+03  0.7546771E-02  0.9882061E-01
         21   -1    0    0  502  501  0.00000000000E+00  0.00000000000E+00  0.26738948239E+03  0.26738948239E+03  0.00000000000E+00 0. -1.
         21   -1    0    0  501  502 -0.00000000000E+00 -0.00000000000E+00 -0.13979339540E+04  0.13979339540E+04  0.00000000000E+00 0. -1.
         25    1    1    2    0    0  0.17132446149E+03  0.34506986186E+03 -0.60451153424E+03  0.72765683924E+03  0.12500000000E+03 0.  0.
         25    1    1    2    0    0 -0.34006230300E+03 -0.91617900792E+02 -0.78064738256E+02  0.38177914168E+03  0.12500000000E+03 0.  0.
         25    1    1    2    0    0  0.16873784151E+03 -0.25345196107E+03 -0.44796819915E+03  0.55588745549E+03  0.12500000000E+03 0.  0.
</event>
<event>
 5    0  0.5616733E-005  0.7427886E+03  0.7546771E-02  0.9646732E-01
         21   -1    0    0  502  501  0.00000000000E+00  0.00000000000E+00  0.13559034479E+04  0.13559034479E+04  0.00000000000E+00 0. -1.
         21   -1    0    0  501  502 -0.00000000000E+00 -0.00000000000E+00 -0.40691311510E+03  0.40691311510E+03  0.00000000000E+00 0. -1.
         25    1    1    2    0    0 -0.31901862787E+03 -0.21659609788E+03  0.45143555242E+02  0.40785989644E+03  0.12500000000E+03 0.  0.
         25    1    1    2    0    0  0.39676893098E+03  0.47542438513E+03  0.83896121443E+03  0.10502070510E+04  0.12500000000E+03 0.  0.
         25    1    1    2    0    0 -0.77750303107E+02 -0.25882828725E+03  0.64885563163E+02  0.30474961562E+03  0.12500000000E+03 0.  0.
</event>
<event>
 5    0  0.5616733E-005  0.3080499E+03  0.7546771E-02  0.1081284E+00
         21   -1    0    0  502  501  0.00000000000E+00  0.00000000000E+00  0.16941069362E+04  0.16941069362E+04  0.00000000000E+00 0. -1.
         21   -1    0    0  501  502 -0.00000000000E+00 -0.00000000000E+00 -0.56014616294E+02  0.56014616294E+02  0.00000000000E+00 0. -1.
         25    1    1    2    0    0 -0.78397554492E+02 -0.20837220620E+03  0.51205102742E+03  0.57217690232E+03  0.12500000000E+03 0.  0.
         25    1    1    2    0    0  0.28560829593E+02  0.80012424100E+02  0.63836315658E+03  0.65601084494E+03  0.12500000000E+03 0.  0.
         25    1    1    2    0    0  0.49836724899E+02  0.12835978210E+03  0.48767813591E+03  0.52193380524E+03  0.12500000000E+03 0.  0.
</event>
<event>
 5    0  0.5616733E-005  0.2602683E+03  0.7546771E-02  0.1106982E+00
         21   -1    0    0  502  501  0.00000000000E+00  0.00000000000E+00  0.11518532336E+03  0.11518532336E+03  0.00000000000E+00 0. -1.
         21   -1    0    0  501  502 -0.00000000000E+00 -0.00000000000E+00 -0.58809202793E+03  0.58809202793E+03  0.00000000000E+00 0. -1.
         25    1    1    2    0    0 -0.73011114743E+01  0.38445870815E+01 -0.20765818294E+03  0.24251805710E+03  0.12500000000E+03 0.  0.
         25    1    1    2    0    0 -0.25123936828E+01 -0.95887461940E+02 -0.26134698786E+03  0.30516874929E+03  0.12500000000E+03 0.  0.
         25    1    1    2    0    0  0.98135051572E+01  0.92042874859E+02 -0.39015337778E+01  0.15559054490E+03  0.12500000000E+03 0.  0.
</event>
<event>
 5    0  0.5616733E-005  0.3512314E+03  0.7546771E-02  0.1062111E+00
         21   -1    0    0  502  501  0.00000000000E+00  0.00000000000E+00  0.23970346268E+03  0.23970346268E+03  0.00000000000E+00 0.  1.
         21   -1    0    0  501  502 -0.00000000000E+00 -0.00000000000E+00 -0.51465040765E+03  0.51465040765E+03  0.00000000000E+00 0.  1.
         25    1    1    2    0    0 -0.77513380487E+02  0.19113892401E+03 -0.30323280303E+03  0.38745005518E+03  0.12500000000E+03 0.  0.
         25    1    1    2    0    0 -0.26064070790E+02 -0.88833856493E+02  0.69940135974E+02  0.17055032238E+03  0.12500000000E+03 0.  0.
         25    1    1    2    0    0  0.10357745128E+03 -0.10230506752E+03 -0.41654277912E+02  0.19635349277E+03  0.12500000000E+03 0.  0.
</event>
<event>
 5    0  0.5866346E-005  0.2950625E+03  0.7546771E-02  0.1087735E+00
         21   -1    0    0  502  501  0.00000000000E+00  0.00000000000E+00  0.92882782926E+02  0.92882782926E+02  0.00000000000E+00 0. -1.
         21   -1    0    0  501  502 -0.00000000000E+00 -0.00000000000E+00 -0.93733076941E+03  0.93733076941E+03  0.00000000000E+00 0. -1.
         25    1    1    2    0    0 -0.37023618410E+02  0.82152727809E+02 -0.20495911773E+03  0.25642359281E+03  0.12500000000E+03 0.  0.
         25    1    1    2    0    0  0.78609972910E+02 -0.16650539789E+03 -0.17332992964E+03  0.28208480972E+03  0.12500000000E+03 0.  0.
         25    1    1    2    0    0 -0.41586354499E+02  0.84352670083E+02 -0.46615893911E+03  0.49170514981E+03  0.12500000000E+03 0.  0.
</event>
<event>
 5    0  0.5616733E-005  0.3416532E+03  0.7546771E-02  0.1066094E+00
         21   -1    0    0  502  501  0.00000000000E+00  0.00000000000E+00  0.41909269929E+03  0.41909269929E+03  0.00000000000E+00 0.  1.
         21   -1    0    0  501  502 -0.00000000000E+00 -0.00000000000E+00 -0.27852292246E+03  0.27852292246E+03  0.00000000000E+00 0.  1.
         25    1    1    2    0    0  0.15439764301E+02 -0.17043850195E+03  0.25516144448E+03  0.33169267706E+03  0.12500000000E+03 0.  0.
         25    1    1    2    0    0  0.68797614418E+02  0.12179448077E+03 -0.79194140806E+02  0.20362642077E+03  0.12500000000E+03 0.  0.
         25    1    1    2    0    0 -0.84237378719E+02  0.48644021174E+02 -0.35397526839E+02  0.16229652392E+03  0.12500000000E+03 0.  0.
</event>
<event>
 5    0  0.5616733E-005  0.2215553E+03  0.7546771E-02  0.1132729E+00
         21   -1    0    0  502  501  0.00000000000E+00  0.00000000000E+00  0.91371447725E+03  0.91371447725E+03  0.00000000000E+00 0. -1.
         21   -1    0    0  501  502 -0.00000000000E+00 -0.00000000000E+00 -0.53722181299E+02  0.53722181299E+02  0.00000000000E+00 0. -1.
         25    1    1    2    0    0 -0.39312037638E+02  0.10135079263E+02  0.16148996638E+03  0.20821182813E+03  0.12500000000E+03 0.  0.
         25    1    1    2    0    0 -0.11956981770E+02 -0.24290165768E+02  0.51659147880E+03  0.53218862966E+03  0.12500000000E+03 0.  0.
         25    1    1    2    0    0  0.51269019409E+02  0.14155086505E+02  0.18191085078E+03  0.22703620076E+03  0.12500000000E+03 0.  0.
</event>
<event>
 5    0  0.5616733E-005  0.4293961E+03  0.7546771E-02  0.1034051E+00
         21   -1    0    0  502  501  0.00000000000E+00  0.00000000000E+00  0.18381804719E+03  0.18381804719E+03  0.00000000000E+00 0.  1.
         21   -1    0    0  501  502 -0.00000000000E+00 -0.00000000000E+00 -0.10030624113E+04  0.10030624113E+04  0.00000000000E+00 0.  1.
         25    1    1    2    0    0  0.30124274757E+02  0.17671446123E+03  0.21322311170E+02  0.21957940179E+03  0.12500000000E+03 0.  0.
         25    1    1    2    0    0 -0.59192200892E+02 -0.46775712229E+02 -0.74881923315E+03  0.76292000095E+03  0.12500000000E+03 0.  0.
         25    1    1    2    0    0  0.29067926135E+02 -0.12993874900E+03 -0.91747442164E+02  0.20438105579E+03  0.12500000000E+03 0.  0.
</event>
<event>
 5    0  0.5616733E-005  0.4540135E+03  0.7546771E-02  0.1026532E+00
         21   -1    0    0  502  501  0.00000000000E+00  0.00000000000E+00  0.37739910013E+03  0.37739910013E+03  0.00000000000E+00 0.  1.
         21   -1    0    0  501  502 -0.00000000000E+00 -0.00000000000E+00 -0.54618117777E+03  0.54618117777E+03  0.00000000000E+00 0.  1.
         25    1    1    2    0    0  0.34835393874E+02 -0.54420219957E+02 -0.12155576894E+03  0.18594587914E+03  0.12500000000E+03 0.  0.
         25    1    1    2    0    0 -0.24657221532E+03 -0.22128842694E+03  0.44781598095E+02  0.35692690679E+03  0.12500000000E+03 0.  0.
         25    1    1    2    0    0  0.21173682144E+03  0.27570864689E+03 -0.92007906793E+02  0.38070749197E+03  0.12500000000E+03 0.  0.
</event>
<event>
 5    0  0.5616733E-005  0.2444588E+03  0.7546771E-02  0.1116858E+00
         21   -1    0    0  502  501  0.00000000000E+00  0.00000000000E+00  0.23470355502E+03  0.23470355502E+03  0.00000000000E+00 0. -1.
         21   -1    0    0  501  502 -0.00000000000E+00 -0.00000000000E+00 -0.25461945315E+03  0.25461945315E+03  0.00000000000E+00 0. -1.
         25    1    1    2    0    0  0.13951824125E+02 -0.11214423597E+02 -0.13184661938E+02  0.12696161626E+03  0.12500000000E+03 0.  0.
         25    1    1    2    0    0  0.10992340162E+03 -0.72457127647E+01 -0.60759469669E+02  0.17734815401E+03  0.12500000000E+03 0.  0.
         25    1    1    2    0    0 -0.12387522574E+03  0.18460136362E+02  0.54028233471E+02  0.18501323790E+03  0.12500000000E+03 0.  0.
</event>
<event>
 5    0  0.5616733E-005  0.3064643E+03  0.7546771E-02  0.1082053E+00
         21   -1    0    0  502  501  0.00000000000E+00  0.00000000000E+00  0.82635505358E+03  0.82635505358E+03  0.00000000000E+00 0.  1.
         21   -1    0    0  501  502 -0.00000000000E+00 -0.00000000000E+00 -0.11365617023E+03  0.11365617023E+03  0.00000000000E+00 0.  1.
         25    1    1    2    0    0  0.12829858693E+03  0.50429897827E+01  0.11105262972E+03  0.21081661633E+03  0.12500000000E+03 0.  0.
         25    1    1    2    0    0 -0.16371054544E+03 -0.10380284568E+03  0.45350027277E+03  0.50878646883E+03  0.12500000000E+03 0.  0.
         25    1    1    2    0    0  0.35411958515E+02  0.98759855896E+02  0.14814598085E+03  0.22040813865E+03  0.12500000000E+03 0.  0.
</event>
<event>
 5    0  0.5616733E-005  0.3594844E+03  0.7546771E-02  0.1058788E+00
         21   -1    0    0  502  501  0.00000000000E+00  0.00000000000E+00  0.62030104877E+02  0.62030104877E+02  0.00000000000E+00 0. -1.
         21   -1    0    0  501  502 -0.00000000000E+00 -0.00000000000E+00 -0.20833273792E+04  0.20833273792E+04  0.00000000000E+00 0. -1.
         25    1    1    2    0    0 -0.55046181801E+02  0.12953164638E+03 -0.26110238722E+03  0.32188194444E+03  0.12500000000E+03 0.  0.
         25    1    1    2    0    0 -0.13926983549E+03  0.34538972995E+02 -0.61688059603E+03  0.64556618367E+03  0.12500000000E+03 0.  0.
         25    1    1    2    0    0  0.19431601729E+03 -0.16407061937E+03 -0.11433142911E+04  0.11779093560E+04  0.12500000000E+03 0.  0.
</event>
<event>
 5    0  0.5616733E-005  0.3449230E+03  0.7546771E-02  0.1064718E+00
         21   -1    0    0  502  501  0.00000000000E+00  0.00000000000E+00  0.58994214436E+02  0.58994214436E+02  0.00000000000E+00 0.  1.
         21   -1    0    0  501  502 -0.00000000000E+00 -0.00000000000E+00 -0.20166698603E+04  0.20166698603E+04  0.00000000000E+00 0.  1.
         25    1    1    2    0    0  0.10812066509E+03  0.15894981453E+03 -0.64589894786E+03  0.68539446496E+03  0.12500000000E+03 0.  0.
         25    1    1    2    0    0 -0.22269601025E+03 -0.12931774555E+03 -0.75274839337E+03  0.80533951599E+03  0.12500000000E+03 0.  0.
         25    1    1    2    0    0  0.11457534515E+03 -0.29632068974E+02 -0.55902830461E+03  0.58493009376E+03  0.12500000000E+03 0.  0.
</event>
<event>
 5    0  0.5616733E-005  0.3350836E+03  0.7546771E-02  0.1068909E+00
         21   -1    0    0  502  501  0.00000000000E+00  0.00000000000E+00  0.46603256594E+03  0.46603256594E+03  0.00000000000E+00 0.  1.
         21   -1    0    0  501  502 -0.00000000000E+00 -0.00000000000E+00 -0.24092961381E+03  0.24092961381E+03  0.00000000000E+00 0.  1.
         25    1    1    2    0    0 -0.83489334133E+02  0.54832811840E+02  0.21970117685E+03  0.27179167257E+03  0.12500000000E+03 0.  0.
         25    1    1    2    0    0  0.13844931709E+03  0.79591998874E+02 -0.89112124654E+02  0.22151539551E+03  0.12500000000E+03 0.  0.
         25    1    1    2    0    0 -0.54959982958E+02 -0.13442481071E+03  0.94513899936E+02  0.21365511167E+03  0.12500000000E+03 0.  0.
</event>
<event>
 5    0  0.5616733E-005  0.3190905E+03  0.7546771E-02  0.1076069E+00
         21   -1    0    0  502  501  0.00000000000E+00  0.00000000000E+00  0.38827965575E+03  0.38827965575E+03  0.00000000000E+00 0. -1.
         21   -1    0    0  501  502 -0.00000000000E+00 -0.00000000000E+00 -0.26223042806E+03  0.26223042806E+03  0.00000000000E+00 0. -1.
         25    1    1    2    0    0 -0.71298991560E+02  0.38523578764E+01 -0.18793266610E+03  0.23673207186E+03  0.12500000000E+03 0.  0.
         25    1    1    2    0    0  0.61626320991E+02 -0.38511390978E+01  0.12660201208E+03  0.18832340315E+03  0.12500000000E+03 0.  0.
         25    1    1    2    0    0  0.96726705694E+01 -0.12187785984E-02  0.18737988172E+03  0.22545460880E+03  0.12500000000E+03 0.  0.
</event>
<event>
 5    0  0.5616733E-005  0.3594559E+03  0.7546771E-02  0.1058799E+00
         21   -1    0    0  502  501  0.00000000000E+00  0.00000000000E+00  0.62045308416E+02  0.62045308416E+02  0.00000000000E+00 0.  1.
         21   -1    0    0  501  502 -0.00000000000E+00 -0.00000000000E+00 -0.20824873429E+04  0.20824873429E+04  0.00000000000E+00 0.  1.
         25    1    1    2    0    0 -0.44833684599E+02  0.19564653392E+03 -0.75012295477E+03  0.78650942320E+03  0.12500000000E+03 0.  0.
         25    1    1    2    0    0  0.14881336811E+03 -0.55437311620E+02 -0.95761901814E+03  0.97871236733E+03  0.12500000000E+03 0.  0.
         25    1    1    2    0    0 -0.10397968351E+03 -0.14020922230E+03 -0.31270006153E+03  0.37931086075E+03  0.12500000000E+03 0.  0.
</event>
<event>
 5    0  0.5616733E-005  0.2483940E+03  0.7546771E-02  0.1114324E+00
         21   -1    0    0  502  501  0.00000000000E+00  0.00000000000E+00  0.26525103645E+03  0.26525103645E+03  0.00000000000E+00 0.  1.
         21   -1    0    0  501  502 -0.00000000000E+00 -0.00000000000E+00 -0.23260829079E+03  0.23260829079E+03  0.00000000000E+00 0.  1.
         25    1    1    2    0    0 -0.75615104186E+02 -0.11029231995E+03 -0.10863016725E+02  0.18337133079E+03  0.12500000000E+03 0.  0.
         25    1    1    2    0    0  0.95047667869E+02  0.30108266720E+02  0.39319548349E+02  0.16465598615E+03  0.12500000000E+03 0.  0.
         25    1    1    2    0    0 -0.19432563683E+02  0.80184053234E+02  0.41862140372E+01  0.14983201031E+03  0.12500000000E+03 0.  0.
</event>
<event>
 5    0  0.5616733E-005  0.2374708E+03  0.7546771E-02  0.1121489E+00
         21   -1    0    0  502  501  0.00000000000E+00  0.00000000000E+00  0.20391747985E+03  0.20391747985E+03  0.00000000000E+00 0.  1.
         21   -1    0    0  501  502 -0.00000000000E+00 -0.00000000000E+00 -0.27654508300E+03  0.27654508300E+03  0.00000000000E+00 0.  1.
         25    1    1    2    0    0 -0.27691301460E+02  0.10208720518E+03 -0.35494160545E+02  0.16755130877E+03  0.12500000000E+03 0.  0.
         25    1    1    2    0    0  0.85292906119E+02 -0.37587355588E+02 -0.39671132173E+02  0.16089278375E+03  0.12500000000E+03 0.  0.
         25    1    1    2    0    0 -0.57601604659E+02 -0.64499849587E+02  0.25376895675E+01  0.15201847034E+03  0.12500000000E+03 0.  0.
</event>
<event>
 5    0  0.5616733E-005  0.2764288E+03  0.7546771E-02  0.1097656E+00
         21   -1    0    0  502  501  0.00000000000E+00  0.00000000000E+00  0.93914235189E+02  0.93914235189E+02  0.00000000000E+00 0.  1.
         21   -1    0    0  501  502 -0.00000000000E+00 -0.00000000000E+00 -0.81364517944E+03  0.81364517944E+03  0.00000000000E+00 0.  1.
         25    1    1    2    0    0 -0.11025750676E+03 -0.87825871489E+02 -0.21478176106E+03  0.28570317881E+03  0.12500000000E+03 0.  0.
         25    1    1    2    0    0 -0.47654867431E+02  0.14110250684E+01 -0.26521160900E+03  0.29704406227E+03  0.12500000000E+03 0.  0.
         25    1    1    2    0    0  0.15791237419E+03  0.86414846421E+02 -0.23973757419E+03  0.32481217354E+03  0.12500000000E+03 0.  0.
</event>
<event>
 5    0  0.5616733E-005  0.4129397E+03  0.7546771E-02  0.1039389E+00
         21   -1    0    0  502  501  0.00000000000E+00  0.00000000000E+00  0.15372257723E+03  0.15372257723E+03  0.00000000000E+00 0.  1.
         21   -1    0    0  501  502 -0.00000000000E+00 -0.00000000000E+00 -0.11092660563E+04  0.11092660563E+04  0.00000000000E+00 0.  1.
         25    1    1    2    0    0  0.45342169651E+01 -0.23120731323E+02 -0.16873857798E+02  0.12831544886E+03  0.12500000000E+03 0.  0.
         25    1    1    2    0    0  0.16505317321E+03  0.74142122626E+02 -0.88423857916E+03  0.91117642047E+03  0.12500000000E+03 0.  0.
         25    1    1    2    0    0 -0.16958739017E+03 -0.51021391303E+02 -0.54431042139E+02  0.22349676423E+03  0.12500000000E+03 0.  0.
</event>
<event>
 5    0  0.5616733E-005  0.2568865E+03  0.7546771E-02  0.1109028E+00
         21   -1    0    0  502  501  0.00000000000E+00  0.00000000000E+00  0.72764399632E+02  0.72764399632E+02  0.00000000000E+00 0. -1.
         21   -1    0    0  501  502 -0.00000000000E+00 -0.00000000000E+00 -0.90690872899E+03  0.90690872899E+03  0.00000000000E+00 0. -1.
         25    1    1    2    0    0 -0.10575730572E+03 -0.55284421023E+02 -0.15478271786E+03  0.23199927730E+03  0.12500000000E+03 0.  0.
         25    1    1    2    0    0  0.10910929595E+03 -0.15722236201E+02 -0.32487706913E+03  0.36513304044E+03  0.12500000000E+03 0.  0.
         25    1    1    2    0    0 -0.33519902277E+01  0.71006657224E+02 -0.35448454236E+03  0.38254081087E+03  0.12500000000E+03 0.  0.
</event>
<event>
 5    0  0.5616733E-005  0.3408094E+03  0.7546771E-02  0.1066452E+00
         21   -1    0    0  502  501  0.00000000000E+00  0.00000000000E+00  0.61921304808E+03  0.61921304808E+03  0.00000000000E+00 0. -1.
         21   -1    0    0  501  502 -0.00000000000E+00 -0.00000000000E+00 -0.18757853096E+03  0.18757853096E+03  0.00000000000E+00 0. -1.
         25    1    1    2    0    0  0.37245225958E+02 -0.21986116601E+03  0.19985711344E+03  0.32449037731E+03  0.12500000000E+03 0.  0.
         25    1    1    2    0    0  0.23026421716E+02  0.12011712016E+03  0.25565043576E+03  0.30974260921E+03  0.12500000000E+03 0.  0.
         25    1    1    2    0    0 -0.60271647674E+02  0.99744045843E+02 -0.23873032075E+02  0.17255859253E+03  0.12500000000E+03 0.  0.
</event>
<event>
 5    0  0.5616733E-005  0.3512385E+03  0.7546771E-02  0.1062108E+00
         21   -1    0    0  502  501  0.00000000000E+00  0.00000000000E+00  0.10244235989E+03  0.10244235989E+03  0.00000000000E+00 0.  1.
         21   -1    0    0  501  502 -0.00000000000E+00 -0.00000000000E+00 -0.12042719434E+04  0.12042719434E+04  0.00000000000E+00 0.  1.
         25    1    1    2    0    0 -0.79496415946E+02 -0.97912121585E+02 -0.62411747052E+03  0.64888680115E+03  0.12500000000E+03 0.  0.
         25    1    1    2    0    0  0.17669130469E+02  0.10314125531E+03 -0.49127610529E+03  0.51761716388E+03  0.12500000000E+03 0.  0.
         25    1    1    2    0    0  0.61827285477E+02 -0.52291337240E+01  0.13563992297E+02  0.14021033826E+03  0.12500000000E+03 0.  0.
</event>
<event>
 5    0  0.5616733E-005  0.4064424E+03  0.7546771E-02  0.1041571E+00
         21   -1    0    0  502  501  0.00000000000E+00  0.00000000000E+00  0.37611370234E+03  0.37611370234E+03  0.00000000000E+00 0.  1.
         21   -1    0    0  501  502 -0.00000000000E+00 -0.00000000000E+00 -0.43921682031E+03  0.43921682031E+03  0.00000000000E+00 0.  1.
         25    1    1    2    0    0 -0.18552568481E+03 -0.77760919047E+02 -0.51048261655E+02  0.24227559777E+03  0.12500000000E+03 0.  0.
         25    1    1    2    0    0  0.31923673789E+03 -0.47640168765E+02  0.29257482309E+02  0.34736534192E+03  0.12500000000E+03 0.  0.
         25    1    1    2    0    0 -0.13371105308E+03  0.12540108781E+03 -0.41312338624E+02  0.22568958297E+03  0.12500000000E+03 0.  0.
</event>
<event>
 5    0  0.5616733E-005  0.2542627E+03  0.7546771E-02  0.1110640E+00
         21   -1    0    0  502  501  0.00000000000E+00  0.00000000000E+00  0.29591461473E+03  0.29591461473E+03  0.00000000000E+00 0.  1.
         21   -1    0    0  501  502 -0.00000000000E+00 -0.00000000000E+00 -0.21847350550E+03  0.21847350550E+03  0.00000000000E+00 0.  1.
         25    1    1    2    0    0 -0.46078372110E+02 -0.70613472289E+02 -0.79441360350E+02  0.17042713569E+03  0.12500000000E+03 0.  0.
         25    1    1    2    0    0 -0.44478716872E+02  0.47397103531E+01  0.37337804825E+02  0.13791277235E+03  0.12500000000E+03 0.  0.
         25    1    1    2    0    0  0.90557088982E+02  0.65873761936E+02  0.11954466476E+03  0.20604821219E+03  0.12500000000E+03 0.  0.
</event>
<event>
 5    0  0.5616733E-005  0.2851346E+03  0.7546771E-02  0.1092917E+00
         21   -1    0    0  502  501  0.00000000000E+00  0.00000000000E+00  0.52900263583E+02  0.52900263583E+02  0.00000000000E+00 0. -1.
         21   -1    0    0  501  502 -0.00000000000E+00 -0.00000000000E+00 -0.15368875719E+04  0.15368875719E+04  0.00000000000E+00 0. -1.
         25    1    1    2    0    0  0.10703911954E+03 -0.10736660559E+02 -0.94890212497E+03  0.96312662292E+03  0.12500000000E+03 0.  0.
         25    1    1    2    0    0 -0.10069797227E+03 -0.92904028140E+01 -0.43926362111E+03  0.46776481487E+03  0.12500000000E+03 0.  0.
         25    1    1    2    0    0 -0.63411472665E+01  0.20027063373E+02 -0.95821562279E+02  0.15889639774E+03  0.12500000000E+03 0.  0.
</event>
<event>
 5    0  0.5616733E-005  0.3297595E+03  0.7546771E-02  0.1071243E+00
         21   -1    0    0  502  501  0.00000000000E+00  0.00000000000E+00  0.27390163726E+03  0.27390163726E+03  0.00000000000E+00 0. -1.
         21   -1    0    0  501  502 -0.00000000000E+00 -0.00000000000E+00 -0.39700873385E+03  0.39700873385E+03  0.00000000000E+00 0. -1.
         25    1    1    2    0    0  0.84420017090E+02 -0.16226495407E+03 -0.10056456498E+02  0.22177192546E+03  0.12500000000E+03 0.  0.
         25    1    1    2    0    0 -0.19021900620E+03  0.11046233904E+03 -0.19999908622E+02  0.25379163700E+03  0.12500000000E+03 0.  0.
         25    1    1    2    0    0  0.10579898911E+03  0.51802615028E+02 -0.93050731470E+02  0.19534680865E+03  0.12500000000E+03 0.  0.
</event>
<event>
 5    0  0.5616733E-005  0.2756014E+03  0.7546771E-02  0.1098116E+00
         21   -1    0    0  502  501  0.00000000000E+00  0.00000000000E+00  0.15518439121E+03  0.15518439121E+03  0.00000000000E+00 0.  1.
         21   -1    0    0  501  502 -0.00000000000E+00 -0.00000000000E+00 -0.48945725076E+03  0.48945725076E+03  0.00000000000E+00 0.  1.
         25    1    1    2    0    0 -0.12512949573E+03  0.10498896313E+03 -0.36894613299E+02  0.20896479505E+03  0.12500000000E+03 0.  0.
         25    1    1    2    0    0  0.79384890752E+02 -0.11108954340E+03 -0.17632239126E+03  0.25565099881E+03  0.12500000000E+03 0.  0.
         25    1    1    2    0    0  0.45744604974E+02  0.61005802685E+01 -0.12105585499E+03  0.18002584812E+03  0.12500000000E+03 0.  0.
</event>
<event>
 5    0  0.5616733E-005  0.2334573E+03  0.7546771E-02  0.1124230E+00
         21   -1    0    0  502  501  0.00000000000E+00  0.00000000000E+00  0.17309337521E+04  0.17309337521E+04  0.00000000000E+00 0. -1.
         21   -1    0    0  501  502 -0.00000000000E+00 -0.00000000000E+00 -0.31487223932E+02  0.31487223932E+02  0.00000000000E+00 0. -1.
         25    1    1    2    0    0 -0.34269633496E+02 -0.38600371216E+02  0.26193528347E+03  0.29478719301E+03  0.12500000000E+03 0.  0.
         25    1    1    2    0    0 -0.32878248730E+02  0.69951981168E+02  0.83587780892E+03  0.84869957603E+03  0.12500000000E+03 0.  0.
         25    1    1    2    0    0  0.67147882225E+02 -0.31351609952E+02  0.60163343576E+03  0.61893420697E+03  0.12500000000E+03 0.  0.
</event>
<event>
 5    0  0.5616733E-005  0.3339373E+03  0.7546771E-02  0.1069408E+00
         21   -1    0    0  502  501  0.00000000000E+00  0.00000000000E+00  0.10469860766E+03  0.10469860766E+03  0.00000000000E+00 0. -1.
         21   -1    0    0  501  502 -0.00000000000E+00 -0.00000000000E+00 -0.10650966950E+04  0.10650966950E+04  0.00000000000E+00 0. -1.
         25    1    1    2    0    0 -0.98547270633E+02  0.19440582604E+03 -0.19785546719E+03  0.31980771667E+03  0.12500000000E+03 0.  0.
         25    1    1    2    0    0  0.17961277809E+02 -0.18160334223E+03 -0.38520588463E+03  0.44419697766E+03  0.12500000000E+03 0.  0.
         25    1    1    2    0    0  0.80585992824E+02 -0.12802483808E+02 -0.37733673548E+03  0.40579060828E+03  0.12500000000E+03 0.  0.
</event>
<event>
 5    0  0.5616733E-005  0.4463457E+03  0.7546771E-02  0.1028817E+00
         21   -1    0    0  502  501  0.00000000000E+00  0.00000000000E+00  0.11599681884E+04  0.11599681884E+04  0.00000000000E+00 0.  1.
         21   -1    0    0  501  502 -0.00000000000E+00 -0.00000000000E+00 -0.17174993004E+03  0.17174993004E+03  0.00000000000E+00 0.  1.
         25    1    1    2    0    0 -0.20527181911E+03 -0.47865872919E+02  0.27973385048E+03  0.37189203892E+03  0.12500000000E+03 0.  0.
         25    1    1    2    0    0 -0.27581747420E+02 -0.22803699241E+03  0.34089831427E+03  0.42964902347E+03  0.12500000000E+03 0.  0.
         25    1    1    2    0    0  0.23285356653E+03  0.27590286533E+03  0.36758609363E+03  0.53017705606E+03  0.12500000000E+03 0.  0.
</event>
<event>
 5    0  0.5616733E-005  0.2654136E+03  0.7546771E-02  0.1103934E+00
         21   -1    0    0  502  501  0.00000000000E+00  0.00000000000E+00  0.40305512411E+02  0.40305512411E+02  0.00000000000E+00 0.  1.
         21   -1    0    0  501  502 -0.00000000000E+00 -0.00000000000E+00 -0.17477607941E+04  0.17477607941E+04  0.00000000000E+00 0.  1.
         25    1    1    2    0    0  0.65842515989E+02 -0.53706257600E+02 -0.24126031420E+03  0.28469481595E+03  0.12500000000E+03 0.  0.
         25    1    1    2    0    0 -0.65098832686E+02  0.12436904610E+03 -0.87931477443E+03  0.89918017670E+03  0.12500000000E+03 0.  0.
         25    1    1    2    0    0 -0.74368330295E+00 -0.70662788502E+02 -0.58688019302E+03  0.60419131383E+03  0.12500000000E+03 0.  0.
</event>
<event>
 5    0  0.5616733E-005  0.2978595E+03  0.7546771E-02  0.1086316E+00
         21   -1    0    0  502  501  0.00000000000E+00  0.00000000000E+00  0.79710629821E+03  0.79710629821E+03  0.00000000000E+00 0. -1.
         21   -1    0    0  501  502 -0.00000000000E+00 -0.00000000000E+00 -0.11130296663E+03  0.11130296663E+03  0.00000000000E+00 0. -1.
         25    1    1    2    0    0  0.50122384738E+01  0.81199651242E+02  0.44702064890E+03  0.47124406250E+03  0.12500000000E+03 0.  0.
         25    1    1    2    0    0 -0.15891930996E+02 -0.33264222357E+02 -0.32620733571E+02  0.13434349340E+03  0.12500000000E+03 0.  0.
         25    1    1    2    0    0  0.10879692522E+02 -0.47935428885E+02  0.27140341625E+03  0.30282170894E+03  0.12500000000E+03 0.  0.
</event>
<event>
 5    0  0.5616733E-005  0.5023464E+03  0.7546771E-02  0.1013168E+00
         21   -1    0    0  502  501  0.00000000000E+00  0.00000000000E+00  0.39440821242E+03  0.39440821242E+03  0.00000000000E+00 0.  1.
         21   -1    0    0  501  502 -0.00000000000E+00 -0.00000000000E+00 -0.63982425089E+03  0.63982425089E+03  0.00000000000E+00 0.  1.
         25    1    1    2    0    0 -0.11060462670E+02  0.13183822940E+03  0.59083245579E+02  0.19136217618E+03  0.12500000000E+03 0.  0.
         25    1    1    2    0    0 -0.33509044867E+03 -0.20214308109E+03 -0.17336608774E+03  0.44590159722E+03  0.12500000000E+03 0.  0.
         25    1    1    2    0    0  0.34615091134E+03  0.70304851695E+02 -0.13113319631E+03  0.39696868991E+03  0.12500000000E+03 0.  0.
</event>
<event>
 5    0  0.5616733E-005  0.2727209E+03  0.7546771E-02  0.1099732E+00
         21   -1    0    0  502  501  0.00000000000E+00  0.00000000000E+00  0.21320507302E+04  0.21320507302E+04  0.00000000000E+00 0. -1.
         21   -1    0    0  501  502 -0.00000000000E+00 -0.00000000000E+00 -0.34885043073E+02  0.34885043073E+02  0.00000000000E+00 0. -1.
         25    1    1    2    0    0  0.72249841955E+01 -0.18184326284E+02  0.15203866075E+03  0.19779692738E+03  0.12500000000E+03 0.  0.
         25    1    1    2    0    0 -0.16783426467E+02  0.15159699599E+02  0.41810277789E+03  0.43697417862E+03  0.12500000000E+03 0.  0.
         25    1    1    2    0    0  0.95584422715E+01  0.30246266851E+01  0.15270242484E+04  0.15321646672E+04  0.12500000000E+03 0.  0.
</event>
<event>
 5    0  0.5616733E-005  0.2828223E+03  0.7546771E-02  0.1094157E+00
         21   -1    0    0  502  501  0.00000000000E+00  0.00000000000E+00  0.38694607052E+03  0.38694607052E+03  0.00000000000E+00 0.  1.
         21   -1    0    0  501  502 -0.00000000000E+00 -0.00000000000E+00 -0.20671729337E+03  0.20671729337E+03  0.00000000000E+00 0.  1.
         25    1    1    2    0    0  0.12541115874E+03 -0.56844285348E+02  0.13877666793E+03  0.23204136501E+03  0.12500000000E+03 0.  0.
         25    1    1    2    0    0 -0.33415712117E+02 -0.61070873923E+02  0.78528231377E+02  0.16321134943E+03  0.12500000000E+03 0.  0.
         25    1    1    2    0    0 -0.91995446623E+02  0.11791515927E+03 -0.37076122148E+02  0.19841064946E+03  0.12500000000E+03 0.  0.
</event>
<event>
 5    0  0.5616733E-005  0.2578528E+03  0.7546771E-02  0.1108440E+00
         21   -1    0    0  502  501  0.00000000000E+00  0.00000000000E+00  0.40985114401E+02  0.40985114401E+02  0.00000000000E+00 0. -1.
         21   -1    0    0  501  502 -0.00000000000E+00 -0.00000000000E+00 -0.16222487803E+04  0.16222487803E+04  0.00000000000E+00 0. -1.
         25    1    1    2    0    0  0.10872968663E+03 -0.30397497817E+02 -0.83676041238E+03  0.85354504295E+03  0.12500000000E+03 0.  0.
         25    1    1    2    0    0  0.28152642113E+02  0.10735656902E+02 -0.24810346779E+03  0.27944258143E+03  0.12500000000E+03 0.  0.
         25    1    1    2    0    0 -0.13688232874E+03  0.19661840916E+02 -0.49639978570E+03  0.53024627029E+03  0.12500000000E+03 0.  0.
</event>
<event>
 5    0  0.5616733E-005  0.3147666E+03  0.7546771E-02  0.1078083E+00
         21   -1    0    0  502  501  0.00000000000E+00  0.00000000000E+00  0.14895456194E+03  0.14895456194E+03  0.00000000000E+00 0. -1.
         21   -1    0    0  501  502 -0.00000000000E+00 -0.00000000000E+00 -0.66515612129E+03  0.66515612129E+03  0.00000000000E+00 0. -1.
         25    1    1    2    0    0  0.92017523770E+02 -0.21057715871E+03 -0.21766293312E+03  0.34031179366E+03  0.12500000000E+03 0.  0.
         25    1    1    2    0    0 -0.88667678653E+02  0.49471774873E+02 -0.10235705925E+03  0.19081766513E+03  0.12500000000E+03 0.  0.
         25    1    1    2    0    0 -0.33498451171E+01  0.16110538383E+03 -0.19618156698E+03  0.28298122444E+03  0.12500000000E+03 0.  0.
</event>
<event>
 5    0  0.5616733E-005  0.6178668E+03  0.7546771E-02  0.9869016E-01
         21   -1    0    0  502  501  0.00000000000E+00  0.00000000000E+00  0.35467588207E+03  0.35467588207E+03  0.00000000000E+00 0. -1.
         21   -1    0    0  501  502 -0.00000000000E+00 -0.00000000000E+00 -0.10763612635E+04  0.10763612635E+04  0.00000000000E+00 0. -1.
         25    1    1    2    0    0  0.36304338680E+02  0.10678329192E+03 -0.28533104886E+03  0.33129968893E+03  0.12500000000E+03 0.  0.
         25    1    1    2    0    0  0.27962580379E+03  0.19928028593E+03 -0.51930748023E+03  0.63498699320E+03  0.12500000000E+03 0.  0.
         25    1    1    2    0    0 -0.31593014247E+03 -0.30606357785E+03  0.82953147629E+02  0.46475046348E+03  0.12500000000E+03 0.  0.
</event>
<event>
 5    0  0.5616733E-005  0.1943633E+03  0.7546771E-02  0.1154584E+00
         21   -1    0    0  502  501  0.00000000000E+00  0.00000000000E+00  0.10865628957E+03  0.10865628957E+03  0.00000000000E+00 0.  1.
         21   -1    0    0  501  502 -0.00000000000E+00 -0.00000000000E+00 -0.34767508816E+03  0.34767508816E+03  0.00000000000E+00 0.  1.
         25    1    1    2    0    0  0.12987584167E+02  0.36762771702E+02 -0.69975275498E+02  0.14846453417E+03  0.12500000000E+03 0.  0.
         25    1    1    2    0    0 -0.10255565967E+02 -0.31195563298E+02 -0.62764131899E+02  0.14367559311E+03  0.12500000000E+03 0.  0.
         25    1    1    2    0    0 -0.27320182005E+01 -0.55672084034E+01 -0.10627939119E+03  0.16419125045E+03  0.12500000000E+03 0.  0.
</event>
<event>
 5    0  0.5616733E-005  0.2277594E+03  0.7546771E-02  0.1128227E+00
         21   -1    0    0  502  501  0.00000000000E+00  0.00000000000E+00  0.81085613890E+02  0.81085613890E+02  0.00000000000E+00 0.  1.
         21   -1    0    0  501  502 -0.00000000000E+00 -0.00000000000E+00 -0.63974793579E+03  0.63974793579E+03  0.00000000000E+00 0.  1.
         25    1    1    2    0    0  0.67357012093E+02  0.75112529085E+02 -0.27758170873E+03  0.32071087310E+03  0.12500000000E+03 0.  0.
         25    1    1    2    0    0 -0.28529423387E+02 -0.35445227380E+02 -0.20280005676E+03  0.24253485350E+03  0.12500000000E+03 0.  0.
         25    1    1    2    0    0 -0.38827588706E+02 -0.39667301705E+02 -0.78280556409E+02  0.15758782307E+03  0.12500000000E+03 0.  0.
</event>
<event>
 5    0  0.5616733E-005  0.3485831E+03  0.7546771E-02  0.1063198E+00
         21   -1    0    0  502  501  0.00000000000E+00  0.00000000000E+00  0.34187637707E+03  0.34187637707E+03  0.00000000000E+00 0.  1.
         21   -1    0    0  501  502 -0.00000000000E+00 -0.00000000000E+00 -0.35542136194E+03  0.35542136194E+03  0.00000000000E+00 0.  1.
         25    1    1    2    0    0  0.90170599822E+01 -0.11578408950E+03 -0.65866686712E+01  0.17075024731E+03  0.12500000000E+03 0.  0.
         25    1    1    2    0    0 -0.12681444253E+03  0.23392460904E+03  0.73596976653E+02  0.30305798211E+03  0.12500000000E+03 0.  0.
         25    1    1    2    0    0  0.11779738254E+03 -0.11814051954E+03 -0.80555292860E+02  0.22348950959E+03  0.12500000000E+03 0.  0.
</event>
<event>
 5    0  0.5616733E-005  0.3105209E+03  0.7546771E-02  0.1080096E+00
         21   -1    0    0  502  501  0.00000000000E+00  0.00000000000E+00  0.95866155138E+02  0.95866155138E+02  0.00000000000E+00 0.  1.
         21   -1    0    0  501  502 -0.00000000000E+00 -0.00000000000E+00 -0.10058108922E+04  0.10058108922E+04  0.00000000000E+00 0.  1.
         25    1    1    2    0    0  0.49194981482E+02 -0.60350683796E+02 -0.50449422341E+02  0.15566790116E+03  0.12500000000E+03 0.  0.
         25    1    1    2    0    0 -0.80151243544E+01  0.24555944961E+02 -0.71510444776E+02  0.14630782742E+03  0.12500000000E+03 0.  0.
         25    1    1    2    0    0 -0.41179857127E+02  0.35794738835E+02 -0.78798486990E+03  0.79970131871E+03  0.12500000000E+03 0.  0.
</event>
<event>
 5    0  0.5616733E-005  0.2867846E+03  0.7546771E-02  0.1092040E+00
         21   -1    0    0  502  501  0.00000000000E+00  0.00000000000E+00  0.17093705267E+03  0.17093705267E+03  0.00000000000E+00 0. -1.
         21   -1    0    0  501  502 -0.00000000000E+00 -0.00000000000E+00 -0.48114432518E+03  0.48114432518E+03  0.00000000000E+00 0. -1.
         25    1    1    2    0    0 -0.26808407361E+02 -0.81292481580E+02 -0.12761306157E+02  0.15203621017E+03  0.12500000000E+03 0.  0.
         25    1    1    2    0    0  0.15268772857E+03  0.79005173388E+02 -0.22171149136E+03  0.30714222321E+03  0.12500000000E+03 0.  0.
         25    1    1    2    0    0 -0.12587932120E+03  0.22873081923E+01 -0.75734474994E+02  0.19290294448E+03  0.12500000000E+03 0.  0.
</event>
<event>
 5    0  0.5616733E-005  0.3313110E+03  0.7546771E-02  0.1070558E+00
         21   -1    0    0  502  501  0.00000000000E+00  0.00000000000E+00  0.47441415554E+03  0.47441415554E+03  0.00000000000E+00 0. -1.
         21   -1    0    0  501  502 -0.00000000000E+00 -0.00000000000E+00 -0.23137374335E+03  0.23137374335E+03  0.00000000000E+00 0. -1.
         25    1    1    2    0    0  0.10842314275E+01 -0.76538623440E+02  0.10071205932E+03  0.17784053342E+03  0.12500000000E+03 0.  0.
         25    1    1    2    0    0 -0.17463876315E+02 -0.11183809381E+03 -0.10006087490E+03  0.19608652398E+03  0.12500000000E+03 0.  0.
         25    1    1    2    0    0  0.16379644887E+02  0.18837671725E+03  0.24238922778E+03  0.33186084149E+03  0.12500000000E+03 0.  0.
</event>
<event>
 5    0  0.5616733E-005  0.2366157E+03  0.7546771E-02  0.1122068E+00
         21   -1    0    0  502  501  0.00000000000E+00  0.00000000000E+00  0.50253284495E+03  0.50253284495E+03  0.00000000000E+00 0. -1.
         21   -1    0    0  501  502 -0.00000000000E+00 -0.00000000000E+00 -0.11140961136E+03  0.11140961136E+03  0.00000000000E+00 0. -1.
         25    1    1    2    0    0  0.11543955965E+02 -0.44106077769E+01  0.20224093009E+03  0.23807374946E+03  0.12500000000E+03 0.  0.
         25    1    1    2    0    0 -0.90550019417E+01 -0.53372294468E+02  0.19515530549E+03  0.23799409265E+03  0.12500000000E+03 0.  0.
         25    1    1    2    0    0 -0.24889540237E+01  0.57782902245E+02 -0.62730019901E+01  0.13787461419E+03  0.12500000000E+03 0.  0.
</event>
<event>
 5    0  0.5616733E-005  0.3978108E+03  0.7546771E-02  0.1044540E+00
         21   -1    0    0  502  501  0.00000000000E+00  0.00000000000E+00  0.91815787000E+02  0.91815787000E+02  0.00000000000E+00 0.  1.
         21   -1    0    0  501  502 -0.00000000000E+00 -0.00000000000E+00 -0.17235973936E+04  0.17235973936E+04  0.00000000000E+00 0.  1.
         25    1    1    2    0    0 -0.19887571526E+02 -0.94210892466E+02 -0.93143569047E+03  0.94470559077E+03  0.12500000000E+03 0.  0.
         25    1    1    2    0    0  0.23381375875E+02 -0.16376909414E+03 -0.42657177834E+03  0.47429472589E+03  0.12500000000E+03 0.  0.
         25    1    1    2    0    0 -0.34938043491E+01  0.25797998661E+03 -0.27377413776E+03  0.39641286390E+03  0.12500000000E+03 0.  0.
</event>
<event>
 5    0  0.5616733E-005  0.3254089E+03  0.7546771E-02  0.1073187E+00
         21   -1    0    0  502  501  0.00000000000E+00  0.00000000000E+00  0.97733184879E+02  0.97733184879E+02  0.00000000000E+00 0. -1.
         21   -1    0    0  501  502 -0.00000000000E+00 -0.00000000000E+00 -0.10834700330E+04  0.10834700330E+04  0.00000000000E+00 0. -1.
         25    1    1    2    0    0  0.68573898018E+02  0.12473530948E+03 -0.25746173613E+03  0.31964483805E+03  0.12500000000E+03 0.  0.
         25    1    1    2    0    0  0.75856941660E+02 -0.13261652462E+03 -0.59923148831E+03  0.63090791308E+03  0.12500000000E+03 0.  0.
         25    1    1    2    0    0 -0.14443083968E+03  0.78812151411E+01 -0.12904362368E+03  0.23065046676E+03  0.12500000000E+03 0.  0.
</event>
<event>
 5    0  0.5906674E-005  0.2934482E+03  0.7546771E-02  0.1088562E+00
         21   -1    0    0  502  501  0.00000000000E+00  0.00000000000E+00  0.41017502760E+03  0.41017502760E+03  0.00000000000E+00 0. -1.
         21   -1    0    0  501  502 -0.00000000000E+00 -0.00000000000E+00 -0.20993923052E+03  0.20993923052E+03  0.00000000000E+00 0. -1.
         25    1    1    2    0    0  0.27835799944E+02  0.93104786255E+02  0.12423991928E+03  0.20125578383E+03  0.12500000000E+03 0.  0.
         25    1    1    2    0    0 -0.11486573795E+01 -0.14679658794E+03 -0.81245581116E+02  0.20922811020E+03  0.12500000000E+03 0.  0.
         25    1    1    2    0    0 -0.26687142565E+02  0.53691801689E+02  0.15724145891E+03  0.20963036409E+03  0.12500000000E+03 0.  0.
</event>
<event>
 5    0  0.5616733E-005  0.2254828E+03  0.7546771E-02  0.1129860E+00
         21   -1    0    0  502  501  0.00000000000E+00  0.00000000000E+00  0.77436880761E+03  0.77436880761E+03  0.00000000000E+00 0.  1.
         21   -1    0    0  501  502 -0.00000000000E+00 -0.00000000000E+00 -0.65656697194E+02  0.65656697194E+02  0.00000000000E+00 0.  1.
         25    1    1    2    0    0 -0.14314733523E+02 -0.37349767609E+02  0.18170122316E+03  0.22414337205E+03  0.12500000000E+03 0.  0.
         25    1    1    2    0    0  0.31747496397E+02 -0.64683612501E+02  0.16517885949E+03  0.21931923964E+03  0.12500000000E+03 0.  0.
         25    1    1    2    0    0 -0.17432762873E+02  0.10203338011E+03  0.36183202776E+03  0.39656289311E+03  0.12500000000E+03 0.  0.
</event>
<event>
 5    0  0.5616733E-005  0.4180069E+03  0.7546771E-02  0.1037717E+00
         21   -1    0    0  502  501  0.00000000000E+00  0.00000000000E+00  0.21997008821E+03  0.21997008821E+03  0.00000000000E+00 0.  1.
         21   -1    0    0  501  502 -0.00000000000E+00 -0.00000000000E+00 -0.79433432233E+03  0.79433432233E+03  0.00000000000E+00 0.  1.
         25    1    1    2    0    0 -0.55020798555E+02 -0.29768340546E+03 -0.36771752022E+03  0.49242651517E+03  0.12500000000E+03 0.  0.
         25    1    1    2    0    0  0.85706216586E+02 -0.28693129723E+01 -0.52625753393E+02  0.16046263876E+03  0.12500000000E+03 0.  0.
         25    1    1    2    0    0 -0.30685418031E+02  0.30055271843E+03 -0.15402096051E+03  0.36141525661E+03  0.12500000000E+03 0.  0.
</event>
<event>
 5    0  0.5616733E-005  0.2111813E+03  0.7546771E-02  0.1140634E+00
         21   -1    0    0  502  501  0.00000000000E+00  0.00000000000E+00  0.26797437194E+04  0.26797437194E+04  0.00000000000E+00 0. -1.
         21   -1    0    0  501  502 -0.00000000000E+00 -0.00000000000E+00 -0.16642461380E+02  0.16642461380E+02  0.00000000000E+00 0. -1.
         25    1    1    2    0    0  0.31941129503E+02 -0.34338234532E+02  0.93052182226E+03  0.94005064321E+03  0.12500000000E+03 0.  0.
         25    1    1    2    0    0  0.27992243545E+02  0.41164218667E+02  0.57851612776E+03  0.59395620098E+03  0.12500000000E+03 0.  0.
         25    1    1    2    0    0 -0.59933373049E+02 -0.68259841346E+01  0.11540633080E+04  0.11623793366E+04  0.12500000000E+03 0.  0.
</event>
<event>
 5    0  0.5616733E-005  0.2292734E+03  0.7546771E-02  0.1127152E+00
         21   -1    0    0  502  501  0.00000000000E+00  0.00000000000E+00  0.58302490664E+02  0.58302490664E+02  0.00000000000E+00 0.  1.
         21   -1    0    0  501  502 -0.00000000000E+00 -0.00000000000E+00 -0.90161331686E+03  0.90161331686E+03  0.00000000000E+00 0.  1.
         25    1    1    2    0    0  0.82230607408E+02 -0.80580804553E+02 -0.29324641044E+03  0.33893007552E+03  0.12500000000E+03 0.  0.
         25    1    1    2    0    0 -0.92007719806E+01  0.38543209131E+02 -0.19226192294E+03  0.23272275391E+03  0.12500000000E+03 0.  0.
         25    1    1    2    0    0 -0.73029835428E+02  0.42037595422E+02 -0.35780249282E+03  0.38826297809E+03  0.12500000000E+03 0.  0.
</event>
<event>
 5    0  0.5616733E-005  0.4624643E+03  0.7546771E-02  0.1024069E+00
         21   -1    0    0  502  501  0.00000000000E+00  0.00000000000E+00  0.58757825552E+03  0.58757825552E+03  0.00000000000E+00 0. -1.
         21   -1    0    0  501  502 -0.00000000000E+00 -0.00000000000E+00 -0.36399099711E+03  0.36399099711E+03  0.00000000000E+00 0. -1.
         25    1    1    2    0    0 -0.10813782033E+02  0.89798998552E+02  0.22790950827E+02  0.15596546240E+03  0.12500000000E+03 0.  0.
         25    1    1    2    0    0  0.17134594978E+03 -0.25724845482E+03 -0.14271271643E+03  0.36266805959E+03  0.12500000000E+03 0.  0.
         25    1    1    2    0    0 -0.16053216775E+03  0.16744945627E+03  0.34350902401E+03  0.43293573064E+03  0.12500000000E+03 0.  0.
</event>
<event>
 5    0  0.6181737E-005  0.3531940E+03  0.7546771E-02  0.1061312E+00
         21   -1    0    0  502  501  0.00000000000E+00  0.00000000000E+00  0.23629975099E+03  0.23629975099E+03  0.00000000000E+00 0. -1.
         21   -1    0    0  501  502 -0.00000000000E+00 -0.00000000000E+00 -0.52791418464E+03  0.52791418464E+03  0.00000000000E+00 0. -1.
         25    1    1    2    0    0  0.14588728267E+03  0.58628303634E+02 -0.26526442874E+03  0.33273201587E+03  0.12500000000E+03 0.  0.
         25    1    1    2    0    0 -0.21077611774E+02  0.71641389583E+02  0.10148490952E+03  0.17748504523E+03  0.12500000000E+03 0.  0.
         25    1    1    2    0    0 -0.12480967090E+03 -0.13026969322E+03 -0.12783491443E+03  0.25399687452E+03  0.12500000000E+03 0.  0.
</event>
<event>
 5    0  0.5616733E-005  0.2334023E+03  0.7546771E-02  0.1124268E+00
         21   -1    0    0  502  501  0.00000000000E+00  0.00000000000E+00  0.15526759825E+03  0.15526759825E+03  0.00000000000E+00 0.  1.
         21   -1    0    0  501  502 -0.00000000000E+00 -0.00000000000E+00 -0.35085632759E+03  0.35085632759E+03  0.00000000000E+00 0.  1.
         25    1    1    2    0    0 -0.42060913947E+02  0.32587863310E+02 -0.27483728956E+02  0.13860535587E+03  0.12500000000E+03 0.  0.
         25    1    1    2    0    0  0.21878420833E+02  0.17448816331E+02  0.25724539492E+02  0.13065174481E+03  0.12500000000E+03 0.  0.
         25    1    1    2    0    0  0.20182493113E+02 -0.50036679641E+02 -0.19382953987E+03  0.23686682517E+03  0.12500000000E+03 0.  0.
</event>
<event>
 5    0  0.5616733E-005  0.2173882E+03  0.7546771E-02  0.1135845E+00
         21   -1    0    0  502  501  0.00000000000E+00  0.00000000000E+00  0.10401762840E+04  0.10401762840E+04  0.00000000000E+00 0. -1.
         21   -1    0    0  501  502 -0.00000000000E+00 -0.00000000000E+00 -0.45432346541E+02  0.45432346541E+02  0.00000000000E+00 0. -1.
         25    1    1    2    0    0 -0.33870818417E+02 -0.36756323531E+01  0.17998412948E+03  0.22176570853E+03  0.12500000000E+03 0.  0.
         25    1    1    2    0    0  0.59595876986E+02  0.33273011923E+02  0.55413224641E+03  0.57214186037E+03  0.12500000000E+03 0.  0.
         25    1    1    2    0    0 -0.25725058569E+02 -0.29597379569E+02  0.26062756157E+03  0.29170106165E+03  0.12500000000E+03 0.  0.
</event>
<event>
 5    0  0.5616733E-005  0.4489855E+03  0.7546771E-02  0.1028025E+00
         21   -1    0    0  502  501  0.00000000000E+00  0.00000000000E+00  0.17950584517E+03  0.17950584517E+03  0.00000000000E+00 0. -1.
         21   -1    0    0  501  502 -0.00000000000E+00 -0.00000000000E+00 -0.11230161086E+04  0.11230161086E+04  0.00000000000E+00 0. -1.
         25    1    1    2    0    0  0.16063027072E+03  0.59238853055E+02 -0.68089872292E+03  0.71313350536E+03  0.12500000000E+03 0.  0.
         25    1    1    2    0    0  0.13986954250E+03 -0.21944482498E+02 -0.15576910145E+03  0.24481434231E+03  0.12500000000E+03 0.  0.
         25    1    1    2    0    0 -0.30049981323E+03 -0.37294370557E+02 -0.10684243908E+03  0.34457410613E+03  0.12500000000E+03 0.  0.
</event>
<event>
 5    0  0.5616733E-005  0.2168681E+03  0.7546771E-02  0.1136240E+00
         21   -1    0    0  502  501  0.00000000000E+00  0.00000000000E+00  0.59297336878E+02  0.59297336878E+02  0.00000000000E+00 0.  1.
         21   -1    0    0  501  502 -0.00000000000E+00 -0.00000000000E+00 -0.79315169457E+03  0.79315169457E+03  0.00000000000E+00 0.  1.
         25    1    1    2    0    0 -0.45131293700E+02 -0.77530671687E+01 -0.19343424047E+03  0.23481641575E+03  0.12500000000E+03 0.  0.
         25    1    1    2    0    0  0.81682293172E+02 -0.48673332655E+02 -0.27894782129E+03  0.32012181640E+03  0.12500000000E+03 0.  0.
         25    1    1    2    0    0 -0.36550999472E+02  0.56426399824E+02 -0.26147229593E+03  0.29751079930E+03  0.12500000000E+03 0.  0.
</event>
<event>
 5    0  0.5616733E-005  0.3912383E+03  0.7546771E-02  0.1046856E+00
         21   -1    0    0  502  501  0.00000000000E+00  0.00000000000E+00  0.22822584778E+03  0.22822584778E+03  0.00000000000E+00 0.  1.
         21   -1    0    0  501  502 -0.00000000000E+00 -0.00000000000E+00 -0.67068391341E+03  0.67068391341E+03  0.00000000000E+00 0.  1.
         25    1    1    2    0    0 -0.80717694835E+02 -0.48865467549E+02  0.90423531610E+02  0.18084411864E+03  0.12500000000E+03 0.  0.
         25    1    1    2    0    0  0.72197829884E+02 -0.10278373600E+03 -0.48393168513E+03  0.51535608942E+03  0.12500000000E+03 0.  0.
         25    1    1    2    0    0  0.85198649516E+01  0.15164920355E+03 -0.48949912115E+02  0.20270955313E+03  0.12500000000E+03 0.  0.
</event>
<event>
 5    0  0.5616733E-005  0.5874972E+03  0.7546771E-02  0.9931690E-01
         21   -1    0    0  502  501  0.00000000000E+00  0.00000000000E+00  0.63487725971E+03  0.63487725971E+03  0.00000000000E+00 0.  1.
         21   -1    0    0  501  502 -0.00000000000E+00 -0.00000000000E+00 -0.54365300686E+03  0.54365300686E+03  0.00000000000E+00 0. -1.
         25    1    1    2    0    0  0.38073134049E+03  0.12482495905E+03  0.58652991680E+02  0.42379570251E+03  0.12500000000E+03 0.  0.
         25    1    1    2    0    0  0.57109023007E+02 -0.21666065199E+03  0.11806130359E+03  0.28243007991E+03  0.12500000000E+03 0.  0.
         25    1    1    2    0    0 -0.43784036349E+03  0.91835692937E+02 -0.85490042426E+02  0.47230448416E+03  0.12500000000E+03 0.  0.
</event>
<event>
 5    0  0.5616733E-005  0.3060777E+03  0.7546771E-02  0.1082241E+00
         21   -1    0    0  502  501  0.00000000000E+00  0.00000000000E+00  0.24223463952E+02  0.24223463952E+02  0.00000000000E+00 0.  1.
         21   -1    0    0  501  502 -0.00000000000E+00 -0.00000000000E+00 -0.38674724765E+04  0.38674724765E+04  0.00000000000E+00 0.  1.
         25    1    1    2    0    0  0.11581897771E+03  0.28118266780E+02 -0.16231724257E+04  0.16323352584E+04  0.12500000000E+03 0.  0.
         25    1    1    2    0    0 -0.69120432465E+00  0.13476853183E+03 -0.10143577617E+04  0.10308781226E+04  0.12500000000E+03 0.  0.
         25    1    1    2    0    0 -0.11512777338E+03 -0.16288679861E+03 -0.12057188252E+04  0.12284825594E+04  0.12500000000E+03 0.  0.
</event>
<event>
 5    0  0.8686367E-005  0.5948725E+03  0.7546771E-02  0.9916101E-01
         21   -1    0    0  502  501  0.00000000000E+00  0.00000000000E+00  0.95753060967E+03  0.95753060967E+03  0.00000000000E+00 0. -1.
         21   -1    0    0  501  502 -0.00000000000E+00 -0.00000000000E+00 -0.36956865753E+03  0.36956865753E+03  0.00000000000E+00 0. -1.
         25    1    1    2    0    0 -0.29671975981E+03  0.38453787145E+02 -0.42950961854E+02  0.32709493229E+03  0.12500000000E+03 0.  0.
         25    1    1    2    0    0  0.23528636423E+03 -0.18503223220E+03 -0.13454059161E+02  0.32465768412E+03  0.12500000000E+03 0.  0.
         25    1    1    2    0    0  0.61433395574E+02  0.14657844506E+03  0.64436697316E+03  0.67534665080E+03  0.12500000000E+03 0.  0.
</event>
<event>
 5    0  0.5616733E-005  0.4424651E+03  0.7546771E-02  0.1029993E+00
         21   -1    0    0  502  501  0.00000000000E+00  0.00000000000E+00  0.29217964884E+04  0.29217964884E+04  0.00000000000E+00 0. -1.
         21   -1    0    0  501  502 -0.00000000000E+00 -0.00000000000E+00 -0.67005142435E+02  0.67005142435E+02  0.00000000000E+00 0. -1.
         25    1    1    2    0    0  0.19414023259E+03  0.14040205817E+03  0.11507589963E+04  0.11820636342E+04  0.12500000000E+03 0.  0.
         25    1    1    2    0    0 -0.22825948175E+03 -0.29415976667E+03  0.99392269943E+03  0.10687093580E+04  0.12500000000E+03 0.  0.
         25    1    1    2    0    0  0.34119249158E+02  0.15375770850E+03  0.71010965022E+03  0.73802863862E+03  0.12500000000E+03 0.  0.
</event>
<event>
 5    0  0.5616733E-005  0.2595644E+03  0.7546771E-02  0.1107405E+00
         21   -1    0    0  502  501  0.00000000000E+00  0.00000000000E+00  0.28471535070E+03  0.28471535070E+03  0.00000000000E+00 0.  1.
         21   -1    0    0  501  502 -0.00000000000E+00 -0.00000000000E+00 -0.23663522718E+03  0.23663522718E+03  0.00000000000E+00 0.  1.
         25    1    1    2    0    0 -0.33596434916E+02  0.56755125784E+02  0.11928882242E+03  0.18494509427E+03  0.12500000000E+03 0.  0.
         25    1    1    2    0    0  0.36033863033E+01 -0.13034873394E+03 -0.37078050554E+02  0.18440053868E+03  0.12500000000E+03 0.  0.
         25    1    1    2    0    0  0.29993048613E+02  0.73593608160E+02 -0.34130648334E+02  0.15200494493E+03  0.12500000000E+03 0.  0.
</event>
<event>
 5    0  0.5616733E-005  0.4428377E+03  0.7546771E-02  0.1029880E+00
         21   -1    0    0  502  501  0.00000000000E+00  0.00000000000E+00  0.96144844786E+03  0.96144844786E+03  0.00000000000E+00 0.  1.
         21   -1    0    0  501  502 -0.00000000000E+00 -0.00000000000E+00 -0.20396856502E+03  0.20396856502E+03  0.00000000000E+00 0.  1.
         25    1    1    2    0    0  0.16225845824E+03  0.18517604192E+03  0.18832517186E+02  0.27676278196E+03  0.12500000000E+03 0.  0.
         25    1    1    2    0    0 -0.21678489828E+03 -0.22541742836E+03  0.41021167062E+03  0.53076107982E+03  0.12500000000E+03 0.  0.
         25    1    1    2    0    0  0.54526440038E+02  0.40241386432E+02  0.32843569502E+03  0.35789315111E+03  0.12500000000E+03 0.  0.
</event>
<event>
 5    0  0.5616733E-005  0.5659368E+03  0.7546771E-02  0.9978710E-01
         21   -1    0    0  502  501  0.00000000000E+00  0.00000000000E+00  0.12634938398E+04  0.12634938398E+04  0.00000000000E+00 0.  1.
         21   -1    0    0  501  502 -0.00000000000E+00 -0.00000000000E+00 -0.25349113257E+03  0.25349113257E+03  0.00000000000E+00 0.  1.
         25    1    1    2    0    0 -0.90918385681E+02 -0.11498361488E+03  0.49913809416E+03  0.53502450560E+03  0.12500000000E+03 0.  0.
         25    1    1    2    0    0 -0.38273975830E+02  0.31418198636E+03 -0.65188549031E+02  0.34648198323E+03  0.12500000000E+03 0.  0.
         25    1    1    2    0    0  0.12919236151E+03 -0.19919837148E+03  0.57605316208E+03  0.63547848352E+03  0.12500000000E+03 0.  0.
</event>
<event>
 5    0  0.5616733E-005  0.2515969E+03  0.7546771E-02  0.1112300E+00
         21   -1    0    0  502  501  0.00000000000E+00  0.00000000000E+00  0.47476095671E+02  0.47476095671E+02  0.00000000000E+00 0. -1.
         21   -1    0    0  501  502 -0.00000000000E+00 -0.00000000000E+00 -0.13333235581E+04  0.13333235581E+04  0.00000000000E+00 0. -1.
         25    1    1    2    0    0 -0.68734094987E+01 -0.13248973587E+03 -0.55405441042E+03  0.58326843183E+03  0.12500000000E+03 0.  0.
         25    1    1    2    0    0  0.70876708131E+02  0.43908841182E+02 -0.37567755718E+03  0.40461107382E+03  0.12500000000E+03 0.  0.
         25    1    1    2    0    0 -0.64003298632E+02  0.88580894689E+02 -0.35611549486E+03  0.39292014815E+03  0.12500000000E+03 0.  0.
</event>
<event>
 5    0  0.5616733E-005  0.3160668E+03  0.7546771E-02  0.1077474E+00
         21   -1    0    0  502  501  0.00000000000E+00  0.00000000000E+00  0.44934212113E+03  0.44934212113E+03  0.00000000000E+00 0. -1.
         21   -1    0    0  501  502 -0.00000000000E+00 -0.00000000000E+00 -0.22232109328E+03  0.22232109328E+03  0.00000000000E+00 0. -1.
         25    1    1    2    0    0  0.14101608160E+03 -0.36954260212E+02  0.17615144892E+03  0.26058681005E+03  0.12500000000E+03 0.  0.
         25    1    1    2    0    0  0.12877543155E+02  0.37390991455E+02 -0.97547751559E+02  0.16341505804E+03  0.12500000000E+03 0.  0.
         25    1    1    2    0    0 -0.15389362475E+03 -0.43673124234E+00  0.14841733049E+03  0.24766134632E+03  0.12500000000E+03 0.  0.
</event>
<event>
 5    0  0.5616733E-005  0.2709363E+03  0.7546771E-02  0.1100745E+00
         21   -1    0    0  502  501  0.00000000000E+00  0.00000000000E+00  0.41836794196E+03  0.41836794196E+03  0.00000000000E+00 0.  1.
         21   -1    0    0  501  502 -0.00000000000E+00 -0.00000000000E+00 -0.17545909546E+03  0.17545909546E+03  0.00000000000E+00 0.  1.
         25    1    1    2    0    0 -0.11050468917E+03 -0.45285771094E+02  0.19636451632E+03  0.26162207602E+03  0.12500000000E+03 0.  0.
         25    1    1    2    0    0  0.46299940629E+01  0.14848167204E+02 -0.54604052720E+02  0.13728986666E+03  0.12500000000E+03 0.  0.
         25    1    1    2    0    0  0.10587469511E+03  0.30437603890E+02  0.10114838291E+03  0.19491509474E+03  0.12500000000E+03 0.  0.
</event>
<event>
 5    0  0.5616733E-005  0.2197370E+03  0.7546771E-02  0.1134079E+00
         21   -1    0    0  502  501  0.00000000000E+00  0.00000000000E+00  0.68798953751E+03  0.68798953751E+03  0.00000000000E+00 0.  1.
         21   -1    0    0  501  502 -0.00000000000E+00 -0.00000000000E+00 -0.70181788346E+02  0.70181788346E+02  0.00000000000E+00 0.  1.
         25    1    1    2    0    0 -0.11141465244E+02  0.48710255359E+02  0.70186948974E+02  0.15181577333E+03  0.12500000000E+03 0.  0.
         25    1    1    2    0    0 -0.15884262756E+01 -0.35939977634E+02  0.33049923474E+03  0.35517453351E+03  0.12500000000E+03 0.  0.
         25    1    1    2    0    0  0.12729891519E+02 -0.12770277725E+02  0.21712156545E+03  0.25118101902E+03  0.12500000000E+03 0.  0.
</event>
<event>
 5    0  0.5616733E-005  0.2415671E+03  0.7546771E-02  0.1118753E+00
         21   -1    0    0  502  501  0.00000000000E+00  0.00000000000E+00  0.25123369787E+03  0.25123369787E+03  0.00000000000E+00 0. -1.
         21   -1    0    0  501  502 -0.00000000000E+00 -0.00000000000E+00 -0.23227236695E+03  0.23227236695E+03  0.00000000000E+00 0. -1.
         25    1    1    2    0    0 -0.47507781370E+02 -0.21271500105E+02  0.13347691350E+01  0.13541140135E+03  0.12500000000E+03 0.  0.
         25    1    1    2    0    0  0.62840731425E+02 -0.14929018427E+02 -0.99510441055E+02  0.17233444518E+03  0.12500000000E+03 0.  0.
         25    1    1    2    0    0 -0.15332950055E+02  0.36200518532E+02  0.11713700284E+03  0.17576021829E+03  0.12500000000E+03 0.  0.
</event>
<event>
 5    0  0.5616733E-005  0.3473750E+03  0.7546771E-02  0.1063698E+00
         21   -1    0    0  502  501  0.00000000000E+00  0.00000000000E+00  0.82450693808E+02  0.82450693808E+02  0.00000000000E+00 0.  1.
         21   -1    0    0  501  502 -0.00000000000E+00 -0.00000000000E+00 -0.14635339553E+04  0.14635339553E+04  0.00000000000E+00 0.  1.
         25    1    1    2    0    0 -0.12868312815E+03 -0.20587894761E+03 -0.39450266361E+03  0.47979458119E+03  0.12500000000E+03 0.  0.
         25    1    1    2    0    0  0.50637616321E+02  0.37020143714E+02 -0.62758479828E+03  0.64297926736E+03  0.12500000000E+03 0.  0.
         25    1    1    2    0    0  0.78045511832E+02  0.16885880390E+03 -0.35899579956E+03  0.42321080052E+03  0.12500000000E+03 0.  0.
</event>
<event>
 5    0  0.5616733E-005  0.2238184E+03  0.7546771E-02  0.1131068E+00
         21   -1    0    0  502  501  0.00000000000E+00  0.00000000000E+00  0.18214724339E+03  0.18214724339E+03  0.00000000000E+00 0.  1.
         21   -1    0    0  501  502 -0.00000000000E+00 -0.00000000000E+00 -0.27502288279E+03  0.27502288279E+03  0.00000000000E+00 0.  1.
         25    1    1    2    0    0  0.53884285855E+02  0.14162655240E+02 -0.10317681891E+03  0.17139006105E+03  0.12500000000E+03 0.  0.
         25    1    1    2    0    0  0.15744824693E+01 -0.43269357727E+02  0.48409511346E+02  0.14086588339E+03  0.12500000000E+03 0.  0.
         25    1    1    2    0    0 -0.55458768324E+02  0.29106702487E+02 -0.38108331836E+02  0.14491418174E+03  0.12500000000E+03 0.  0.
</event>
<event>
 5    0  0.5616733E-005  0.3467642E+03  0.7546771E-02  0.1063951E+00
         21   -1    0    0  502  501  0.00000000000E+00  0.00000000000E+00  0.97268671446E+03  0.97268671446E+03  0.00000000000E+00 0.  1.
         21   -1    0    0  501  502 -0.00000000000E+00 -0.00000000000E+00 -0.12362190690E+03  0.12362190690E+03  0.00000000000E+00 0.  1.
         25    1    1    2    0    0 -0.24763287711E+03 -0.67707831681E+02  0.35905234817E+03  0.45874827632E+03  0.12500000000E+03 0.  0.
         25    1    1    2    0    0  0.21811832089E+03  0.10404439470E+03  0.35978861548E+03  0.45108057573E+03  0.12500000000E+03 0.  0.
         25    1    1    2    0    0  0.29514556222E+02 -0.36336563023E+02  0.13022384391E+03  0.18647976932E+03  0.12500000000E+03 0.  0.
</event>
<event>
 5    0  0.5616733E-005  0.3465527E+03  0.7546771E-02  0.1064039E+00
         21   -1    0    0  502  501  0.00000000000E+00  0.00000000000E+00  0.55376396170E+03  0.55376396170E+03  0.00000000000E+00 0.  1.
         21   -1    0    0  501  502 -0.00000000000E+00 -0.00000000000E+00 -0.21687725243E+03  0.21687725243E+03  0.00000000000E+00 0.  1.
         25    1    1    2    0    0  0.24690601443E+03 -0.35083360833E+02  0.33828375719E+02  0.28100316933E+03  0.12500000000E+03 0.  0.
         25    1    1    2    0    0 -0.16233380401E+03  0.67498215732E+02  0.24052887516E+03  0.32309040970E+03  0.12500000000E+03 0.  0.
         25    1    1    2    0    0 -0.84572210418E+02 -0.32414854899E+02  0.62529458390E+02  0.16654763511E+03  0.12500000000E+03 0.  0.
</event>
<event>
 5    0  0.8373403E-005  0.4585620E+03  0.7546771E-02  0.1025199E+00
         21   -1    0    0  502  501  0.00000000000E+00  0.00000000000E+00  0.32868860990E+03  0.32868860990E+03  0.00000000000E+00 0. -1.
         21   -1    0    0  501  502 -0.00000000000E+00 -0.00000000000E+00 -0.63975180840E+03  0.63975180840E+03  0.00000000000E+00 0. -1.
         25    1    1    2    0    0 -0.37936758375E+02  0.90898902244E+02  0.20959164775E+03  0.26316433435E+03  0.12500000000E+03 0.  0.
         25    1    1    2    0    0 -0.87409736702E+02 -0.18191650011E+03 -0.13970282910E+03  0.27545590489E+03  0.12500000000E+03 0.  0.
         25    1    1    2    0    0  0.12534649508E+03  0.91017597867E+02 -0.38095201716E+03  0.42982017906E+03  0.12500000000E+03 0.  0.
</event>
<event>
 5    0  0.5616733E-005  0.3368969E+03  0.7546771E-02  0.1068125E+00
         21   -1    0    0  502  501  0.00000000000E+00  0.00000000000E+00  0.19737055201E+03  0.19737055201E+03  0.00000000000E+00 0. -1.
         21   -1    0    0  501  502 -0.00000000000E+00 -0.00000000000E+00 -0.57505796294E+03  0.57505796294E+03  0.00000000000E+00 0. -1.
         25    1    1    2    0    0  0.47614227508E+02 -0.21853892759E+03 -0.31785625102E+03  0.40826948679E+03  0.12500000000E+03 0.  0.
         25    1    1    2    0    0 -0.42543796697E+01  0.33294589433E+02 -0.40878450698E+02  0.13573016306E+03  0.12500000000E+03 0.  0.
         25    1    1    2    0    0 -0.43359847839E+02  0.18524433816E+03 -0.18952709212E+02  0.22842886510E+03  0.12500000000E+03 0.  0.
</event>
<event>
 5    0  0.5616733E-005  0.4704522E+03  0.7546771E-02  0.1021793E+00
         21   -1    0    0  502  501  0.00000000000E+00  0.00000000000E+00  0.10145219566E+03  0.10145219566E+03  0.00000000000E+00 0.  1.
         21   -1    0    0  501  502 -0.00000000000E+00 -0.00000000000E+00 -0.21815717312E+04  0.21815717312E+04  0.00000000000E+00 0.  1.
         25    1    1    2    0    0  0.16599191164E+03 -0.18919009647E+03 -0.68442283044E+03  0.73986878442E+03  0.12500000000E+03 0.  0.
         25    1    1    2    0    0 -0.25353512267E+03  0.15901160401E+03 -0.13387834077E+04  0.13775088970E+04  0.12500000000E+03 0.  0.
         25    1    1    2    0    0  0.87543211028E+02  0.30178492459E+02 -0.56913297430E+02  0.16564624544E+03  0.12500000000E+03 0.  0.
</event>
<event>
 5    0  0.6775150E-005  0.3043068E+03  0.7546771E-02  0.1083107E+00
         21   -1    0    0  502  501  0.00000000000E+00  0.00000000000E+00  0.94394139418E+03  0.94394139418E+03  0.00000000000E+00 0. -1.
         21   -1    0    0  501  502 -0.00000000000E+00 -0.00000000000E+00 -0.98102089320E+02  0.98102089320E+02  0.00000000000E+00 0. -1.
         25    1    1    2    0    0 -0.13140704042E+03 -0.55563554316E+02  0.53908433671E+03  0.57148231900E+03  0.12500000000E+03 0.  0.
         25    1    1    2    0    0  0.13879404420E+03  0.10098737600E+03  0.24357469103E+03  0.32313444095E+03  0.12500000000E+03 0.  0.
         25    1    1    2    0    0 -0.73870037716E+01 -0.45423821682E+02  0.63180277116E+02  0.14742672355E+03  0.12500000000E+03 0.  0.
</event>
<event>
 5    0  0.5767053E-005  0.3397378E+03  0.7546771E-02  0.1066908E+00
         21   -1    0    0  502  501  0.00000000000E+00  0.00000000000E+00  0.20998185675E+03  0.20998185675E+03  0.00000000000E+00 0. -1.
         21   -1    0    0  501  502 -0.00000000000E+00 -0.00000000000E+00 -0.54967508131E+03  0.54967508131E+03  0.00000000000E+00 0. -1.
         25    1    1    2    0    0 -0.96984743557E+02  0.21913662708E+02 -0.21338163086E+03  0.26653887050E+03  0.12500000000E+03 0.  0.
         25    1    1    2    0    0  0.14383687461E+03  0.74975650665E+01  0.10997048327E+03  0.22014487768E+03  0.12500000000E+03 0.  0.
         25    1    1    2    0    0 -0.46852131054E+02 -0.29411227775E+02 -0.23628207696E+03  0.27297318989E+03  0.12500000000E+03 0.  0.
</event>
<event>
 5    0  0.5616733E-005  0.4448242E+03  0.7546771E-02  0.1029277E+00
         21   -1    0    0  502  501  0.00000000000E+00  0.00000000000E+00  0.66338740749E+03  0.66338740749E+03  0.00000000000E+00 0. -1.
         21   -1    0    0  501  502 -0.00000000000E+00 -0.00000000000E+00 -0.29826994889E+03  0.29826994889E+03  0.00000000000E+00 0. -1.
         25    1    1    2    0    0 -0.25465242914E+03 -0.62219424180E+02 -0.85804075251E+02  0.30283073777E+03  0.12500000000E+03 0.  0.
         25    1    1    2    0    0 -0.38402901069E+02  0.87715651995E+02  0.18590346909E+03  0.24362659591E+03  0.12500000000E+03 0.  0.
         25    1    1    2    0    0  0.29305533021E+03 -0.25496227815E+02  0.26501806476E+03  0.41520002269E+03  0.12500000000E+03 0.  0.
</event>
<event>
 5    0  0.5616733E-005  0.2466577E+03  0.7546771E-02  0.1115435E+00
         21   -1    0    0  502  501  0.00000000000E+00  0.00000000000E+00  0.74308364513E+02  0.74308364513E+02  0.00000000000E+00 0. -1.
         21   -1    0    0  501  502 -0.00000000000E+00 -0.00000000000E+00 -0.81875074376E+03  0.81875074376E+03  0.00000000000E+00 0. -1.
         25    1    1    2    0    0  0.57660012605E+02  0.26427791122E+01 -0.12691831684E+03  0.18725629625E+03  0.12500000000E+03 0.  0.
         25    1    1    2    0    0 -0.44335269642E+02  0.46815412421E+02 -0.10431138013E+03  0.17510900320E+03  0.12500000000E+03 0.  0.
         25    1    1    2    0    0 -0.13324742963E+02 -0.49458191533E+02 -0.51321268227E+03  0.53069380883E+03  0.12500000000E+03 0.  0.
</event>
<event>
 5    0  0.5616733E-005  0.2290160E+03  0.7546771E-02  0.1127334E+00
         21   -1    0    0  502  501  0.00000000000E+00  0.00000000000E+00  0.42958053422E+02  0.42958053422E+02  0.00000000000E+00 0. -1.
         21   -1    0    0  501  502 -0.00000000000E+00 -0.00000000000E+00 -0.12209201001E+04  0.12209201001E+04  0.00000000000E+00 0. -1.
         25    1    1    2    0    0  0.81368907470E+02  0.65118040630E+02 -0.48217315145E+03  0.50889803134E+03  0.12500000000E+03 0.  0.
         25    1    1    2    0    0 -0.92424343609E+02 -0.12378251879E+02 -0.34073731280E+03  0.37472976496E+03  0.12500000000E+03 0.  0.
         25    1    1    2    0    0  0.11055436139E+02 -0.52739788751E+02 -0.35505158238E+03  0.38025035718E+03  0.12500000000E+03 0.  0.
</event>
