<event>
 5    0  0.5452999E-005  0.2766008E+03  0.7546771E-02  0.1097560E+00
         21   -1    0    0  502  501  0.00000000000E+00  0.00000000000E+00  0.16197132020E+03  0.16197132020E+03  0.00000000000E+00 0. -1.
         21   -1    0    0  501  502 -0.00000000000E+00 -0.00000000000E+00 -0.47235525234E+03  0.47235525234E+03  0.00000000000E+00 0. -1.
         25    1    1    2    0    0  0.11245656547E+03  0.12233748000E+03 -0.14205009805E+03  0.25182567083E+03  0.12500000000E+03 0.  0.
         25    1    1    2    0    0 -0.15760143265E+02  0.13891921874E+02 -0.10459116565E+03  0.16433404864E+03  0.12500000000E+03 0.  0.
         25    1    1    2    0    0 -0.96696422205E+02 -0.13622940187E+03 -0.63742668438E+02  0.21816685308E+03  0.12500000000E+03 0.  0.
</event>
<event>
 5    0  0.5452999E-005  0.6787615E+03  0.7546771E-02  0.9754258E-01
         21   -1    0    0  502  501  0.00000000000E+00  0.00000000000E+00  0.29025683735E+03  0.29025683735E+03  0.00000000000E+00 0. -1.
         21   -1    0    0  501  502 -0.00000000000E+00 -0.00000000000E+00 -0.15872739721E+04  0.15872739721E+04  0.00000000000E+00 0. -1.
         25    1    1    2    0    0  0.43263626774E+03  0.34067124889E+03 -0.29403352386E+03  0.63664099235E+03  0.12500000000E+03 0.  0.
         25    1    1    2    0    0 -0.10484252933E+03 -0.20168846971E+03 -0.73120753340E+03  0.77586058778E+03  0.12500000000E+03 0.  0.
         25    1    1    2    0    0 -0.32779373840E+03 -0.13898277918E+03 -0.27177607753E+03  0.46502922937E+03  0.12500000000E+03 0.  0.
</event>
<event>
 5    0  0.5452999E-005  0.3692194E+03  0.7546771E-02  0.1054992E+00
         21   -1    0    0  502  501  0.00000000000E+00  0.00000000000E+00  0.39002728930E+03  0.39002728930E+03  0.00000000000E+00 0.  1.
         21   -1    0    0  501  502 -0.00000000000E+00 -0.00000000000E+00 -0.34952168934E+03  0.34952168934E+03  0.00000000000E+00 0.  1.
         25    1    1    2    0    0  0.18604717762E+02  0.17927023644E+03  0.18160982552E+02  0.22008810618E+03  0.12500000000E+03 0.  0.
         25    1    1    2    0    0 -0.76784594032E+02 -0.11852340053E+03  0.20773036975E+03  0.28057187470E+03  0.12500000000E+03 0.  0.
         25    1    1    2    0    0  0.58179876270E+02 -0.60746835903E+02 -0.18538575235E+03  0.23888899776E+03  0.12500000000E+03 0.  0.
</event>
<event>
 5    0  0.5452999E-005  0.2703978E+03  0.7546771E-02  0.1101052E+00
         21   -1    0    0  502  501  0.00000000000E+00  0.00000000000E+00  0.92748627674E+02  0.92748627674E+02  0.00000000000E+00 0.  1.
         21   -1    0    0  501  502 -0.00000000000E+00 -0.00000000000E+00 -0.78831327219E+03  0.78831327219E+03  0.00000000000E+00 0.  1.
         25    1    1    2    0    0 -0.67591477882E+02  0.13109662236E+03 -0.28014911668E+03  0.34038722046E+03  0.12500000000E+03 0.  0.
         25    1    1    2    0    0  0.17543302024E+02 -0.78585934398E+02 -0.35340213484E+03  0.38340785783E+03  0.12500000000E+03 0.  0.
         25    1    1    2    0    0  0.50048175858E+02 -0.52510687965E+02 -0.62013392988E+02  0.15726682157E+03  0.12500000000E+03 0.  0.
</event>
<event>
 5    0  0.5452999E-005  0.3520529E+03  0.7546771E-02  0.1061776E+00
         21   -1    0    0  502  501  0.00000000000E+00  0.00000000000E+00  0.13732938266E+03  0.13732938266E+03  0.00000000000E+00 0.  1.
         21   -1    0    0  501  502 -0.00000000000E+00 -0.00000000000E+00 -0.90251051828E+03  0.90251051828E+03  0.00000000000E+00 0.  1.
         25    1    1    2    0    0 -0.10732136471E+02 -0.19807917492E+03 -0.98108130410E+02  0.25416676325E+03  0.12500000000E+03 0.  0.
         25    1    1    2    0    0  0.13381097259E+03  0.13816780178E+03 -0.35351325965E+03  0.42141706489E+03  0.12500000000E+03 0.  0.
         25    1    1    2    0    0 -0.12307883612E+03  0.59911373140E+02 -0.31355974557E+03  0.36425607280E+03  0.12500000000E+03 0.  0.
</event>
<event>
 5    0  0.5452999E-005  0.2592943E+03  0.7546771E-02  0.1107568E+00
         21   -1    0    0  502  501  0.00000000000E+00  0.00000000000E+00  0.25200764689E+03  0.25200764689E+03  0.00000000000E+00 0.  1.
         21   -1    0    0  501  502 -0.00000000000E+00 -0.00000000000E+00 -0.26679157498E+03  0.26679157498E+03  0.00000000000E+00 0.  1.
         25    1    1    2    0    0  0.58562877800E+02  0.21713158345E+02  0.12091648485E+03  0.18478871234E+03  0.12500000000E+03 0.  0.
         25    1    1    2    0    0 -0.11209898544E+03 -0.16969374622E+02 -0.66827478459E+02  0.18150772460E+03  0.12500000000E+03 0.  0.
         25    1    1    2    0    0  0.53536107642E+02 -0.47437837231E+01 -0.68872934485E+02  0.15250278493E+03  0.12500000000E+03 0.  0.
</event>
<event>
 5    0  0.5452999E-005  0.2469563E+03  0.7546771E-02  0.1115244E+00
         21   -1    0    0  502  501  0.00000000000E+00  0.00000000000E+00  0.94688850914E+02  0.94688850914E+02  0.00000000000E+00 0. -1.
         21   -1    0    0  501  502 -0.00000000000E+00 -0.00000000000E+00 -0.64408216001E+03  0.64408216001E+03  0.00000000000E+00 0. -1.
         25    1    1    2    0    0  0.23589517486E+02  0.86119535920E+02 -0.15959543262E+03  0.22151465395E+03  0.12500000000E+03 0.  0.
         25    1    1    2    0    0 -0.54377112346E+02 -0.19401338106E+02 -0.47731720518E+02  0.14572782648E+03  0.12500000000E+03 0.  0.
         25    1    1    2    0    0  0.30787594860E+02 -0.66718197814E+02 -0.34206615596E+03  0.37152853049E+03  0.12500000000E+03 0.  0.
</event>
<event>
 5    0  0.5452999E-005  0.2812143E+03  0.7546771E-02  0.1095028E+00
         21   -1    0    0  502  501  0.00000000000E+00  0.00000000000E+00  0.36977171579E+02  0.36977171579E+02  0.00000000000E+00 0.  1.
         21   -1    0    0  501  502 -0.00000000000E+00 -0.00000000000E+00 -0.21386569481E+04  0.21386569481E+04  0.00000000000E+00 0.  1.
         25    1    1    2    0    0 -0.11694689124E+02  0.13805876543E+03 -0.10423812535E+04  0.10589526269E+04  0.12500000000E+03 0.  0.
         25    1    1    2    0    0  0.30587199476E+02 -0.53483928330E+02 -0.82937078307E+03  0.84099762377E+03  0.12500000000E+03 0.  0.
         25    1    1    2    0    0 -0.18892510352E+02 -0.84574837096E+02 -0.22992773999E+03  0.27568386901E+03  0.12500000000E+03 0.  0.
</event>
<event>
 5    0  0.5452999E-005  0.4136666E+03  0.7546771E-02  0.1039148E+00
         21   -1    0    0  502  501  0.00000000000E+00  0.00000000000E+00  0.53775387153E+03  0.53775387153E+03  0.00000000000E+00 0. -1.
         21   -1    0    0  501  502 -0.00000000000E+00 -0.00000000000E+00 -0.31821258611E+03  0.31821258611E+03  0.00000000000E+00 0. -1.
         25    1    1    2    0    0  0.14261672918E+03 -0.12864716105E+03 -0.59092787369E+02  0.23665709583E+03  0.12500000000E+03 0.  0.
         25    1    1    2    0    0 -0.17744144163E+02  0.21072374644E+03 -0.36970398261E+02  0.24841731484E+03  0.12500000000E+03 0.  0.
         25    1    1    2    0    0 -0.12487258502E+03 -0.82076585389E+02  0.31560447105E+03  0.37089204697E+03  0.12500000000E+03 0.  0.
</event>
<event>
 5    0  0.5452999E-005  0.2595417E+03  0.7546771E-02  0.1107419E+00
         21   -1    0    0  502  501  0.00000000000E+00  0.00000000000E+00  0.22917152378E+03  0.22917152378E+03  0.00000000000E+00 0. -1.
         21   -1    0    0  501  502 -0.00000000000E+00 -0.00000000000E+00 -0.29393648560E+03  0.29393648560E+03  0.00000000000E+00 0. -1.
         25    1    1    2    0    0 -0.51126646005E+02 -0.38325045705E+01 -0.14351373969E+03  0.19710356542E+03  0.12500000000E+03 0.  0.
         25    1    1    2    0    0 -0.36231253388E+02  0.54991853727E+02  0.85262374048E+02  0.16501963558E+03  0.12500000000E+03 0.  0.
         25    1    1    2    0    0  0.87357899393E+02 -0.51159349156E+02 -0.65135961868E+01  0.16098480838E+03  0.12500000000E+03 0.  0.
</event>
<event>
 5    0  0.5452999E-005  0.2772929E+03  0.7546771E-02  0.1097177E+00
         21   -1    0    0  502  501  0.00000000000E+00  0.00000000000E+00  0.10748336146E+03  0.10748336146E+03  0.00000000000E+00 0.  1.
         21   -1    0    0  501  502 -0.00000000000E+00 -0.00000000000E+00 -0.71537921895E+03  0.71537921895E+03  0.00000000000E+00 0.  1.
         25    1    1    2    0    0 -0.11373466814E+03 -0.11583211528E+03 -0.24075653563E+03  0.31613503936E+03  0.12500000000E+03 0.  0.
         25    1    1    2    0    0  0.77507759987E+02 -0.17791030182E+02 -0.23624160402E+03  0.27885313174E+03  0.12500000000E+03 0.  0.
         25    1    1    2    0    0  0.36226908148E+02  0.13362314546E+03 -0.13089771784E+03  0.22787440930E+03  0.12500000000E+03 0.  0.
</event>
<event>
 5    0  0.5452999E-005  0.2578599E+03  0.7546771E-02  0.1108436E+00
         21   -1    0    0  502  501  0.00000000000E+00  0.00000000000E+00  0.21904675547E+03  0.21904675547E+03  0.00000000000E+00 0.  1.
         21   -1    0    0  501  502 -0.00000000000E+00 -0.00000000000E+00 -0.30355047820E+03  0.30355047820E+03  0.00000000000E+00 0.  1.
         25    1    1    2    0    0  0.72181929306E+01 -0.78762684179E+01 -0.59939445038E+02  0.13903911315E+03  0.12500000000E+03 0.  0.
         25    1    1    2    0    0 -0.32622196121E+02 -0.13572136969E+03  0.13092333756E+02  0.18783212471E+03  0.12500000000E+03 0.  0.
         25    1    1    2    0    0  0.25404003191E+02  0.14359763811E+03 -0.37656611447E+02  0.19572599581E+03  0.12500000000E+03 0.  0.
</event>
<event>
 5    0  0.5452999E-005  0.2662628E+03  0.7546771E-02  0.1103438E+00
         21   -1    0    0  502  501  0.00000000000E+00  0.00000000000E+00  0.37604439180E+03  0.37604439180E+03  0.00000000000E+00 0. -1.
         21   -1    0    0  501  502 -0.00000000000E+00 -0.00000000000E+00 -0.18853062898E+03  0.18853062898E+03  0.00000000000E+00 0. -1.
         25    1    1    2    0    0  0.13655870553E+02 -0.93396506546E+01 -0.71711474330E+01  0.12629385270E+03  0.12500000000E+03 0.  0.
         25    1    1    2    0    0 -0.42236036970E+02  0.15056114883E+03  0.79161975294E+02  0.21527693951E+03  0.12500000000E+03 0.  0.
         25    1    1    2    0    0  0.28580166417E+02 -0.14122149817E+03  0.11552293496E+03  0.22300422857E+03  0.12500000000E+03 0.  0.
</event>
<event>
 5    0  0.5452999E-005  0.3072906E+03  0.7546771E-02  0.1081652E+00
         21   -1    0    0  502  501  0.00000000000E+00  0.00000000000E+00  0.13203148945E+03  0.13203148945E+03  0.00000000000E+00 0.  1.
         21   -1    0    0  501  502 -0.00000000000E+00 -0.00000000000E+00 -0.71518918630E+03  0.71518918630E+03  0.00000000000E+00 0.  1.
         25    1    1    2    0    0  0.72146701682E+01  0.82732032060E+02 -0.38314804047E+02  0.15488597355E+03  0.12500000000E+03 0.  0.
         25    1    1    2    0    0  0.16112682546E+03 -0.43227073659E+02 -0.21474688641E+03  0.29928524689E+03  0.12500000000E+03 0.  0.
         25    1    1    2    0    0 -0.16834149563E+03 -0.39504958402E+02 -0.33009600639E+03  0.39304945532E+03  0.12500000000E+03 0.  0.
</event>
<event>
 5    0  0.5452999E-005  0.3450309E+03  0.7546771E-02  0.1064673E+00
         21   -1    0    0  502  501  0.00000000000E+00  0.00000000000E+00  0.44123920344E+02  0.44123920344E+02  0.00000000000E+00 0.  1.
         21   -1    0    0  501  502 -0.00000000000E+00 -0.00000000000E+00 -0.26980003043E+04  0.26980003043E+04  0.00000000000E+00 0.  1.
         25    1    1    2    0    0 -0.15466108807E+03 -0.10596018309E+03 -0.68843437608E+03  0.72437179869E+03  0.12500000000E+03 0.  0.
         25    1    1    2    0    0 -0.22064629585E+02  0.41615288589E+02 -0.14354840382E+04  0.14416858549E+04  0.12500000000E+03 0.  0.
         25    1    1    2    0    0  0.17672571766E+03  0.64344894497E+02 -0.52995796963E+03  0.57606657107E+03  0.12500000000E+03 0.  0.
</event>
<event>
 5    0  0.5452999E-005  0.2897098E+03  0.7546771E-02  0.1090501E+00
         21   -1    0    0  502  501  0.00000000000E+00  0.00000000000E+00  0.19036478030E+04  0.19036478030E+04  0.00000000000E+00 0.  1.
         21   -1    0    0  501  502 -0.00000000000E+00 -0.00000000000E+00 -0.44089963058E+02  0.44089963058E+02  0.00000000000E+00 0.  1.
         25    1    1    2    0    0  0.14507905543E+03 -0.63699829056E+02  0.54770321591E+03  0.58370318936E+03  0.12500000000E+03 0.  0.
         25    1    1    2    0    0 -0.77394140958E+02 -0.51740237865E+02  0.89873100837E+03  0.91214545478E+03  0.12500000000E+03 0.  0.
         25    1    1    2    0    0 -0.67684914469E+02  0.11544006692E+03  0.41312361570E+03  0.45188912196E+03  0.12500000000E+03 0.  0.
</event>
<event>
 5    0  0.5452999E-005  0.2473165E+03  0.7546771E-02  0.1115013E+00
         21   -1    0    0  502  501  0.00000000000E+00  0.00000000000E+00  0.71215427134E+02  0.71215427134E+02  0.00000000000E+00 0.  1.
         21   -1    0    0  501  502 -0.00000000000E+00 -0.00000000000E+00 -0.85887928168E+03  0.85887928168E+03  0.00000000000E+00 0.  1.
         25    1    1    2    0    0 -0.11744763525E+02 -0.66008871996E+02 -0.50316379373E+03  0.52277520405E+03  0.12500000000E+03 0.  0.
         25    1    1    2    0    0 -0.92756626352E+01 -0.33483898029E+02 -0.11379696484E+03  0.17257450145E+03  0.12500000000E+03 0.  0.
         25    1    1    2    0    0  0.21020426160E+02  0.99492770025E+02 -0.17070309598E+03  0.23474500331E+03  0.12500000000E+03 0.  0.
</event>
<event>
 5    0  0.5452999E-005  0.3030728E+03  0.7546771E-02  0.1083715E+00
         21   -1    0    0  502  501  0.00000000000E+00  0.00000000000E+00  0.44221075925E+03  0.44221075925E+03  0.00000000000E+00 0. -1.
         21   -1    0    0  501  502 -0.00000000000E+00 -0.00000000000E+00 -0.20771340467E+03  0.20771340467E+03  0.00000000000E+00 0. -1.
         25    1    1    2    0    0  0.37067955203E+02 -0.13564742694E+03  0.14171313525E+02  0.18867984489E+03  0.12500000000E+03 0.  0.
         25    1    1    2    0    0  0.10642323894E+03  0.22838445773E+02  0.27980380336E+02  0.16809343258E+03  0.12500000000E+03 0.  0.
         25    1    1    2    0    0 -0.14349119414E+03  0.11280898117E+03  0.19234566072E+03  0.29315088645E+03  0.12500000000E+03 0.  0.
</event>
<event>
 5    0  0.5452999E-005  0.2513829E+03  0.7546771E-02  0.1112434E+00
         21   -1    0    0  502  501  0.00000000000E+00  0.00000000000E+00  0.15172880768E+03  0.15172880768E+03  0.00000000000E+00 0. -1.
         21   -1    0    0  501  502 -0.00000000000E+00 -0.00000000000E+00 -0.41648893059E+03  0.41648893059E+03  0.00000000000E+00 0. -1.
         25    1    1    2    0    0  0.18081548280E+02  0.17433706599E+02 -0.10289304837E+03  0.16383789524E+03  0.12500000000E+03 0.  0.
         25    1    1    2    0    0 -0.17436515930E+02  0.73552595288E+02 -0.19756329028E+03  0.24570362233E+03  0.12500000000E+03 0.  0.
         25    1    1    2    0    0 -0.64503234972E+00 -0.90986301887E+02  0.35696215734E+02  0.15867622070E+03  0.12500000000E+03 0.  0.
</event>
<event>
 5    0  0.5452999E-005  0.2252398E+03  0.7546771E-02  0.1130036E+00
         21   -1    0    0  502  501  0.00000000000E+00  0.00000000000E+00  0.96974550618E+02  0.96974550618E+02  0.00000000000E+00 0.  1.
         21   -1    0    0  501  502 -0.00000000000E+00 -0.00000000000E+00 -0.52315773375E+03  0.52315773375E+03  0.00000000000E+00 0.  1.
         25    1    1    2    0    0  0.20134227800E+02 -0.15654905066E+02 -0.21818551894E+03  0.25274569008E+03  0.12500000000E+03 0.  0.
         25    1    1    2    0    0 -0.66906395278E+02  0.56837742187E+02 -0.60619033441E+02  0.16433703746E+03  0.12500000000E+03 0.  0.
         25    1    1    2    0    0  0.46772167477E+02 -0.41182837122E+02 -0.14737863076E+03  0.20304955683E+03  0.12500000000E+03 0.  0.
</event>
<event>
 5    0  0.5821889E-005  0.3190625E+03  0.7546771E-02  0.1076082E+00
         21   -1    0    0  502  501  0.00000000000E+00  0.00000000000E+00  0.15434392296E+03  0.15434392296E+03  0.00000000000E+00 0. -1.
         21   -1    0    0  501  502 -0.00000000000E+00 -0.00000000000E+00 -0.65957163540E+03  0.65957163540E+03  0.00000000000E+00 0. -1.
         25    1    1    2    0    0 -0.16197640327E+02 -0.89335808844E+02 -0.41868739513E+02  0.16006636637E+03  0.12500000000E+03 0.  0.
         25    1    1    2    0    0  0.15972239442E+02 -0.97263612828E+02 -0.38392399310E+03  0.41561755893E+03  0.12500000000E+03 0.  0.
         25    1    1    2    0    0  0.22540088439E+00  0.18659942167E+03 -0.79434979832E+02  0.23823163307E+03  0.12500000000E+03 0.  0.
</event>
<event>
 5    0  0.5452999E-005  0.2674682E+03  0.7546771E-02  0.1102737E+00
         21   -1    0    0  502  501  0.00000000000E+00  0.00000000000E+00  0.49758443736E+02  0.49758443736E+02  0.00000000000E+00 0.  1.
         21   -1    0    0  501  502 -0.00000000000E+00 -0.00000000000E+00 -0.14377305685E+04  0.14377305685E+04  0.00000000000E+00 0.  1.
         25    1    1    2    0    0 -0.14111274264E+02  0.87931510160E+02 -0.89411599785E+03  0.90719319671E+03  0.12500000000E+03 0.  0.
         25    1    1    2    0    0 -0.15818058825E+02 -0.10612262603E+03 -0.20045726198E+03  0.25946162842E+03  0.12500000000E+03 0.  0.
         25    1    1    2    0    0  0.29929333089E+02  0.18191115867E+02 -0.29339886493E+03  0.32083418711E+03  0.12500000000E+03 0.  0.
</event>
<event>
 5    0  0.6162134E-005  0.2839655E+03  0.7546771E-02  0.1093543E+00
         21   -1    0    0  502  501  0.00000000000E+00  0.00000000000E+00  0.14504542154E+03  0.14504542154E+03  0.00000000000E+00 0. -1.
         21   -1    0    0  501  502 -0.00000000000E+00 -0.00000000000E+00 -0.55593888012E+03  0.55593888012E+03  0.00000000000E+00 0. -1.
         25    1    1    2    0    0 -0.25483613184E+02 -0.87516306297E+02 -0.29153252980E+03  0.33003747415E+03  0.12500000000E+03 0.  0.
         25    1    1    2    0    0  0.12077760367E+03  0.83228835083E+02 -0.50049749168E+02  0.19910862846E+03  0.12500000000E+03 0.  0.
         25    1    1    2    0    0 -0.95293990482E+02  0.42874712136E+01 -0.69311179616E+02  0.17183819905E+03  0.12500000000E+03 0.  0.
</event>
<event>
 5    0  0.5452999E-005  0.2806813E+03  0.7546771E-02  0.1095317E+00
         21   -1    0    0  502  501  0.00000000000E+00  0.00000000000E+00  0.35076622117E+03  0.35076622117E+03  0.00000000000E+00 0. -1.
         21   -1    0    0  501  502 -0.00000000000E+00 -0.00000000000E+00 -0.22459963380E+03  0.22459963380E+03  0.00000000000E+00 0. -1.
         25    1    1    2    0    0 -0.70831851454E+02  0.68969371613E+02  0.26546586049E+02  0.16156622986E+03  0.12500000000E+03 0.  0.
         25    1    1    2    0    0  0.12499915803E+03 -0.15511979800E+03  0.91665304171E+02  0.25241725224E+03  0.12500000000E+03 0.  0.
         25    1    1    2    0    0 -0.54167306581E+02  0.86150426382E+02  0.79546971498E+01  0.16138237287E+03  0.12500000000E+03 0.  0.
</event>
<event>
 5    0  0.5452999E-005  0.2411771E+03  0.7546771E-02  0.1119011E+00
         21   -1    0    0  502  501  0.00000000000E+00  0.00000000000E+00  0.35293657935E+03  0.35293657935E+03  0.00000000000E+00 0.  1.
         21   -1    0    0  501  502 -0.00000000000E+00 -0.00000000000E+00 -0.16480690104E+03  0.16480690104E+03  0.00000000000E+00 0.  1.
         25    1    1    2    0    0 -0.65440510796E+02 -0.21302421056E+02 -0.51065870601E+02  0.15155519370E+03  0.12500000000E+03 0.  0.
         25    1    1    2    0    0  0.58196049513E+02  0.18674041426E+02  0.70205186722E+02  0.15585014676E+03  0.12500000000E+03 0.  0.
         25    1    1    2    0    0  0.72444612831E+01  0.26283796303E+01  0.16899036219E+03  0.21033813993E+03  0.12500000000E+03 0.  0.
</event>
<event>
 5    0  0.5452999E-005  0.3213874E+03  0.7546771E-02  0.1075013E+00
         21   -1    0    0  502  501  0.00000000000E+00  0.00000000000E+00  0.68274189663E+02  0.68274189663E+02  0.00000000000E+00 0.  1.
         21   -1    0    0  501  502 -0.00000000000E+00 -0.00000000000E+00 -0.15128679359E+04  0.15128679359E+04  0.00000000000E+00 0.  1.
         25    1    1    2    0    0  0.17175265075E+03  0.11048756629E+02 -0.55754197804E+03  0.59674040029E+03  0.12500000000E+03 0.  0.
         25    1    1    2    0    0 -0.12910555513E+03  0.61763069710E+02 -0.77109014239E+03  0.79415862952E+03  0.12500000000E+03 0.  0.
         25    1    1    2    0    0 -0.42647095618E+02 -0.72811826339E+02 -0.11596162578E+03  0.19024309573E+03  0.12500000000E+03 0.  0.
</event>
<event>
 5    0  0.5452999E-005  0.2675087E+03  0.7546771E-02  0.1102714E+00
         21   -1    0    0  502  501  0.00000000000E+00  0.00000000000E+00  0.69783303556E+03  0.69783303556E+03  0.00000000000E+00 0.  1.
         21   -1    0    0  501  502 -0.00000000000E+00 -0.00000000000E+00 -0.10254732247E+03  0.10254732247E+03  0.00000000000E+00 0.  1.
         25    1    1    2    0    0 -0.18659653164E+02  0.77528171449E+02  0.33116958323E+02  0.15192278615E+03  0.12500000000E+03 0.  0.
         25    1    1    2    0    0  0.45388956458E+02  0.12507739706E+02  0.40626297510E+03  0.42765781398E+03  0.12500000000E+03 0.  0.
         25    1    1    2    0    0 -0.26729303294E+02 -0.90035911155E+02  0.15590577966E+03  0.22079975789E+03  0.12500000000E+03 0.  0.
</event>
<event>
 5    0  0.5452999E-005  0.3483116E+03  0.7546771E-02  0.1063310E+00
         21   -1    0    0  502  501  0.00000000000E+00  0.00000000000E+00  0.59535732277E+03  0.59535732277E+03  0.00000000000E+00 0. -1.
         21   -1    0    0  501  502 -0.00000000000E+00 -0.00000000000E+00 -0.20377837581E+03  0.20377837581E+03  0.00000000000E+00 0. -1.
         25    1    1    2    0    0 -0.34227521936E+02 -0.16784279729E+03 -0.16789712902E+02  0.21271958612E+03  0.12500000000E+03 0.  0.
         25    1    1    2    0    0  0.15843673758E+03  0.77795978399E+02  0.16099366443E+03  0.26962636009E+03  0.12500000000E+03 0.  0.
         25    1    1    2    0    0 -0.12420921564E+03  0.90046818889E+02  0.24737499542E+03  0.31678975236E+03  0.12500000000E+03 0.  0.
</event>
<event>
 5    0  0.5855959E-005  0.2649014E+03  0.7546771E-02  0.1104234E+00
         21   -1    0    0  502  501  0.00000000000E+00  0.00000000000E+00  0.51429258264E+03  0.51429258264E+03  0.00000000000E+00 0. -1.
         21   -1    0    0  501  502 -0.00000000000E+00 -0.00000000000E+00 -0.13644516048E+03  0.13644516048E+03  0.00000000000E+00 0. -1.
         25    1    1    2    0    0 -0.73632508922E+02  0.13654017700E+01  0.66507819825E+02  0.15959918794E+03  0.12500000000E+03 0.  0.
         25    1    1    2    0    0  0.70466439369E+02 -0.12175135640E+03  0.23619595247E+03  0.30199741692E+03  0.12500000000E+03 0.  0.
         25    1    1    2    0    0  0.31660695532E+01  0.12038595463E+03  0.75143649863E+02  0.18914113826E+03  0.12500000000E+03 0.  0.
</event>
<event>
 5    0  0.5452999E-005  0.3063993E+03  0.7546771E-02  0.1082085E+00
         21   -1    0    0  502  501  0.00000000000E+00  0.00000000000E+00  0.24443630817E+03  0.24443630817E+03  0.00000000000E+00 0.  1.
         21   -1    0    0  501  502 -0.00000000000E+00 -0.00000000000E+00 -0.38406953195E+03  0.38406953195E+03  0.00000000000E+00 0.  1.
         25    1    1    2    0    0  0.42005205432E+02  0.13514383448E+03  0.82728675292E+02  0.20614879819E+03  0.12500000000E+03 0.  0.
         25    1    1    2    0    0 -0.75373167654E+02 -0.87700388409E+02 -0.22784269014E+03  0.28444641671E+03  0.12500000000E+03 0.  0.
         25    1    1    2    0    0  0.33367962223E+02 -0.47443446067E+02  0.54807910640E+01  0.13791062522E+03  0.12500000000E+03 0.  0.
</event>
<event>
 5    0  0.5452999E-005  0.2753995E+03  0.7546771E-02  0.1098229E+00
         21   -1    0    0  502  501  0.00000000000E+00  0.00000000000E+00  0.85965128681E+02  0.85965128681E+02  0.00000000000E+00 0. -1.
         21   -1    0    0  501  502 -0.00000000000E+00 -0.00000000000E+00 -0.88227486055E+03  0.88227486055E+03  0.00000000000E+00 0. -1.
         25    1    1    2    0    0 -0.24969065756E+02  0.89771367612E+02 -0.46527820121E+03  0.49070475565E+03  0.12500000000E+03 0.  0.
         25    1    1    2    0    0  0.71657169205E+02 -0.11722793268E+03 -0.27127861648E+03  0.32877686333E+03  0.12500000000E+03 0.  0.
         25    1    1    2    0    0 -0.46688103449E+02  0.27456565072E+02 -0.59752914170E+02  0.14875837026E+03  0.12500000000E+03 0.  0.
</event>
<event>
 5    0  0.5452999E-005  0.2729028E+03  0.7546771E-02  0.1099630E+00
         21   -1    0    0  502  501  0.00000000000E+00  0.00000000000E+00  0.11391645930E+03  0.11391645930E+03  0.00000000000E+00 0. -1.
         21   -1    0    0  501  502 -0.00000000000E+00 -0.00000000000E+00 -0.65377693131E+03  0.65377693131E+03  0.00000000000E+00 0. -1.
         25    1    1    2    0    0  0.69823147993E+02 -0.63379495123E+02 -0.19867126651E+01  0.15659239900E+03  0.12500000000E+03 0.  0.
         25    1    1    2    0    0 -0.35370603478E+02  0.82319225393E+02 -0.34724815032E+03  0.37978126910E+03  0.12500000000E+03 0.  0.
         25    1    1    2    0    0 -0.34452544514E+02 -0.18939730270E+02 -0.19062560903E+03  0.23131972252E+03  0.12500000000E+03 0.  0.
</event>
<event>
 5    0  0.5452999E-005  0.3909906E+03  0.7546771E-02  0.1046945E+00
         21   -1    0    0  502  501  0.00000000000E+00  0.00000000000E+00  0.14727573702E+04  0.14727573702E+04  0.00000000000E+00 0. -1.
         21   -1    0    0  501  502 -0.00000000000E+00 -0.00000000000E+00 -0.10380098536E+03  0.10380098536E+03  0.00000000000E+00 0. -1.
         25    1    1    2    0    0  0.88512124858E+02 -0.41920704294E+02  0.28184167012E+03  0.32349879244E+03  0.12500000000E+03 0.  0.
         25    1    1    2    0    0 -0.79191712100E+02 -0.81447821689E+02  0.18329019715E+02  0.16990005264E+03  0.12500000000E+03 0.  0.
         25    1    1    2    0    0 -0.93204127586E+01  0.12336852598E+03  0.10687856950E+04  0.10831595105E+04  0.12500000000E+03 0.  0.
</event>
<event>
 5    0  0.5452999E-005  0.3585397E+03  0.7546771E-02  0.1059164E+00
         21   -1    0    0  502  501  0.00000000000E+00  0.00000000000E+00  0.96964329286E+03  0.96964329286E+03  0.00000000000E+00 0. -1.
         21   -1    0    0  501  502 -0.00000000000E+00 -0.00000000000E+00 -0.13257523708E+03  0.13257523708E+03  0.00000000000E+00 0. -1.
         25    1    1    2    0    0 -0.89006305971E+02 -0.17240950955E+03  0.41232634005E+03  0.47253060449E+03  0.12500000000E+03 0.  0.
         25    1    1    2    0    0  0.17492075749E+03 -0.71624997660E+01  0.28201328879E+03  0.35469010116E+03  0.12500000000E+03 0.  0.
         25    1    1    2    0    0 -0.85914451521E+02  0.17957200931E+03  0.14272842694E+03  0.27499782429E+03  0.12500000000E+03 0.  0.
</event>
<event>
 5    0  0.5452999E-005  0.3573246E+03  0.7546771E-02  0.1059648E+00
         21   -1    0    0  502  501  0.00000000000E+00  0.00000000000E+00  0.69743341965E+03  0.69743341965E+03  0.00000000000E+00 0. -1.
         21   -1    0    0  501  502 -0.00000000000E+00 -0.00000000000E+00 -0.18307250417E+03  0.18307250417E+03  0.00000000000E+00 0. -1.
         25    1    1    2    0    0 -0.17010534899E+03  0.23847835872E+03  0.19100430368E+03  0.37136962902E+03  0.12500000000E+03 0.  0.
         25    1    1    2    0    0  0.10007995776E+03 -0.10230813859E+03  0.20132007401E+03  0.27683519532E+03  0.12500000000E+03 0.  0.
         25    1    1    2    0    0  0.70025391228E+02 -0.13617022013E+03  0.12203653779E+03  0.23230109949E+03  0.12500000000E+03 0.  0.
</event>
<event>
 5    0  0.5452999E-005  0.7267490E+03  0.7546771E-02  0.9672550E-01
         21   -1    0    0  502  501  0.00000000000E+00  0.00000000000E+00  0.46493723625E+03  0.46493723625E+03  0.00000000000E+00 0. -1.
         21   -1    0    0  501  502 -0.00000000000E+00 -0.00000000000E+00 -0.11359902375E+04  0.11359902375E+04  0.00000000000E+00 0. -1.
         25    1    1    2    0    0  0.64031835388E+02  0.16982239715E+03 -0.25564197121E+03  0.33751672545E+03  0.12500000000E+03 0.  0.
         25    1    1    2    0    0 -0.59806740630E+03  0.22575568417E+02 -0.19431649635E+03  0.64154359129E+03  0.12500000000E+03 0.  0.
         25    1    1    2    0    0  0.53403557092E+03 -0.19239796557E+03 -0.22109453371E+03  0.62186715703E+03  0.12500000000E+03 0.  0.
</event>
<event>
 5    0  0.5452999E-005  0.3057443E+03  0.7546771E-02  0.1082404E+00
         21   -1    0    0  502  501  0.00000000000E+00  0.00000000000E+00  0.68019217755E+03  0.68019217755E+03  0.00000000000E+00 0. -1.
         21   -1    0    0  501  502 -0.00000000000E+00 -0.00000000000E+00 -0.13743112261E+03  0.13743112261E+03  0.00000000000E+00 0. -1.
         25    1    1    2    0    0 -0.41368813867E+02  0.43482778559E+02  0.33071963986E+03  0.35861206196E+03  0.12500000000E+03 0.  0.
         25    1    1    2    0    0 -0.65781642768E+02 -0.14715794178E+03  0.15521637327E+03  0.25631973565E+03  0.12500000000E+03 0.  0.
         25    1    1    2    0    0  0.10715045664E+03  0.10367516322E+03  0.56825041815E+02  0.20269150254E+03  0.12500000000E+03 0.  0.
</event>
<event>
 5    0  0.5452999E-005  0.3346849E+03  0.7546771E-02  0.1069083E+00
         21   -1    0    0  502  501  0.00000000000E+00  0.00000000000E+00  0.12426971172E+04  0.12426971172E+04  0.00000000000E+00 0.  1.
         21   -1    0    0  501  502 -0.00000000000E+00 -0.00000000000E+00 -0.90137808213E+02  0.90137808213E+02  0.00000000000E+00 0.  1.
         25    1    1    2    0    0  0.18085056423E+03 -0.29056053399E+02  0.26609068002E+03  0.34638191468E+03  0.12500000000E+03 0.  0.
         25    1    1    2    0    0 -0.40550089982E+02  0.12827252126E+03  0.61427924818E+03  0.64114128260E+03  0.12500000000E+03 0.  0.
         25    1    1    2    0    0 -0.14030047425E+03 -0.99216467860E+02  0.27218938074E+03  0.34531172809E+03  0.12500000000E+03 0.  0.
</event>
<event>
 5    0  0.5452999E-005  0.2846899E+03  0.7546771E-02  0.1093155E+00
         21   -1    0    0  502  501  0.00000000000E+00  0.00000000000E+00  0.15463078482E+04  0.15463078482E+04  0.00000000000E+00 0.  1.
         21   -1    0    0  501  502 -0.00000000000E+00 -0.00000000000E+00 -0.52414109308E+02  0.52414109308E+02  0.00000000000E+00 0.  1.
         25    1    1    2    0    0 -0.19142452946E+02  0.35310548360E+01  0.49220247255E+03  0.50819993687E+03  0.12500000000E+03 0.  0.
         25    1    1    2    0    0 -0.40120301759E+02  0.26063771029E+02  0.91471743753E+03  0.92445765144E+03  0.12500000000E+03 0.  0.
         25    1    1    2    0    0  0.59262754704E+02 -0.29594825865E+02  0.86973828770E+02  0.16606436916E+03  0.12500000000E+03 0.  0.
</event>
<event>
 5    0  0.5452999E-005  0.2471999E+03  0.7546771E-02  0.1115087E+00
         21   -1    0    0  502  501  0.00000000000E+00  0.00000000000E+00  0.38747978576E+03  0.38747978576E+03  0.00000000000E+00 0. -1.
         21   -1    0    0  501  502 -0.00000000000E+00 -0.00000000000E+00 -0.15770579387E+03  0.15770579387E+03  0.00000000000E+00 0. -1.
         25    1    1    2    0    0  0.71080473571E+02  0.12326809646E+03  0.14028845864E+03  0.23569749459E+03  0.12500000000E+03 0.  0.
         25    1    1    2    0    0 -0.37889871878E+02 -0.23853676263E+02  0.47823808411E+02  0.14112674060E+03  0.12500000000E+03 0.  0.
         25    1    1    2    0    0 -0.33190601693E+02 -0.99414420200E+02  0.41661724835E+02  0.16836134444E+03  0.12500000000E+03 0.  0.
</event>
<event>
 5    0  0.5452999E-005  0.4226965E+03  0.7546771E-02  0.1036192E+00
         21   -1    0    0  502  501  0.00000000000E+00  0.00000000000E+00  0.11630820627E+04  0.11630820627E+04  0.00000000000E+00 0.  1.
         21   -1    0    0  501  502 -0.00000000000E+00 -0.00000000000E+00 -0.15361972340E+03  0.15361972340E+03  0.00000000000E+00 0.  1.
         25    1    1    2    0    0 -0.11001992189E+03  0.90335709273E+02 -0.17913683941E+02  0.19029141771E+03  0.12500000000E+03 0.  0.
         25    1    1    2    0    0  0.12654330943E+03  0.11405262824E+03  0.36372802951E+03  0.42064746596E+03  0.12500000000E+03 0.  0.
         25    1    1    2    0    0 -0.16523387547E+02 -0.20438833752E+03  0.66364799369E+03  0.70576290238E+03  0.12500000000E+03 0.  0.
</event>
<event>
 5    0  0.5452999E-005  0.2195078E+03  0.7546771E-02  0.1134251E+00
         21   -1    0    0  502  501  0.00000000000E+00  0.00000000000E+00  0.10391065908E+03  0.10391065908E+03  0.00000000000E+00 0. -1.
         21   -1    0    0  501  502 -0.00000000000E+00 -0.00000000000E+00 -0.46370309427E+03  0.46370309427E+03  0.00000000000E+00 0. -1.
         25    1    1    2    0    0 -0.26920447494E+02  0.66931921545E+02 -0.91333256143E+02  0.17079624203E+03  0.12500000000E+03 0.  0.
         25    1    1    2    0    0  0.35982518356E+01  0.34318171295E+02 -0.12002884140E+03  0.17669919939E+03  0.12500000000E+03 0.  0.
         25    1    1    2    0    0  0.23322195659E+02 -0.10125009284E+03 -0.14843033765E+03  0.22011831193E+03  0.12500000000E+03 0.  0.
</event>
<event>
 5    0  0.5452999E-005  0.4031717E+03  0.7546771E-02  0.1042687E+00
         21   -1    0    0  502  501  0.00000000000E+00  0.00000000000E+00  0.45305403079E+03  0.45305403079E+03  0.00000000000E+00 0.  1.
         21   -1    0    0  501  502 -0.00000000000E+00 -0.00000000000E+00 -0.35878153728E+03  0.35878153728E+03  0.00000000000E+00 0.  1.
         25    1    1    2    0    0  0.16569212491E+03 -0.19385505353E+03  0.76676249449E+02  0.29417326402E+03  0.12500000000E+03 0.  0.
         25    1    1    2    0    0 -0.24206064552E+03 -0.23012129520E+01  0.39899787781E+01  0.27246939575E+03  0.12500000000E+03 0.  0.
         25    1    1    2    0    0  0.76368520614E+02  0.19615626649E+03  0.13606265288E+02  0.24519290829E+03  0.12500000000E+03 0.  0.
</event>
<event>
 5    0  0.5499355E-005  0.2837546E+03  0.7546771E-02  0.1093656E+00
         21   -1    0    0  502  501  0.00000000000E+00  0.00000000000E+00  0.11129086105E+03  0.11129086105E+03  0.00000000000E+00 0.  1.
         21   -1    0    0  501  502 -0.00000000000E+00 -0.00000000000E+00 -0.72347973793E+03  0.72347973793E+03  0.00000000000E+00 0.  1.
         25    1    1    2    0    0  0.12013014710E+03  0.12585834036E+01 -0.26985759181E+03  0.32075061362E+03  0.12500000000E+03 0.  0.
         25    1    1    2    0    0 -0.14801487958E+01  0.11888994458E+03 -0.13759698503E+03  0.22066930021E+03  0.12500000000E+03 0.  0.
         25    1    1    2    0    0 -0.11864999831E+03 -0.12014852799E+03 -0.20473430003E+03  0.29335068516E+03  0.12500000000E+03 0.  0.
</event>
<event>
 5    0  0.5452999E-005  0.2857991E+03  0.7546771E-02  0.1092563E+00
         21   -1    0    0  502  501  0.00000000000E+00  0.00000000000E+00  0.22419575787E+02  0.22419575787E+02  0.00000000000E+00 0. -1.
         21   -1    0    0  501  502 -0.00000000000E+00 -0.00000000000E+00 -0.36432944066E+04  0.36432944066E+04  0.00000000000E+00 0. -1.
         25    1    1    2    0    0 -0.95145337829E+02  0.25162465141E+02 -0.20110287867E+04  0.20173119655E+04  0.12500000000E+03 0.  0.
         25    1    1    2    0    0  0.16391586730E+02 -0.69473100052E+02 -0.33990098595E+03  0.36912447222E+03  0.12500000000E+03 0.  0.
         25    1    1    2    0    0  0.78753751099E+02  0.44310634911E+02 -0.12699450581E+04  0.12792775447E+04  0.12500000000E+03 0.  0.
</event>
<event>
 5    0  0.5452999E-005  0.2462121E+03  0.7546771E-02  0.1115722E+00
         21   -1    0    0  502  501  0.00000000000E+00  0.00000000000E+00  0.18970015078E+03  0.18970015078E+03  0.00000000000E+00 0. -1.
         21   -1    0    0  501  502 -0.00000000000E+00 -0.00000000000E+00 -0.31955900189E+03  0.31955900189E+03  0.00000000000E+00 0. -1.
         25    1    1    2    0    0 -0.16228325535E+02  0.26061394128E+02 -0.43339998311E+02  0.13581572172E+03  0.12500000000E+03 0.  0.
         25    1    1    2    0    0 -0.90703629429E+02 -0.71487583763E+02  0.21407053339E+02  0.17152517295E+03  0.12500000000E+03 0.  0.
         25    1    1    2    0    0  0.10693195496E+03  0.45426189635E+02 -0.10792590613E+03  0.20191825800E+03  0.12500000000E+03 0.  0.
</event>
<event>
 5    0  0.5452999E-005  0.2912396E+03  0.7546771E-02  0.1089704E+00
         21   -1    0    0  502  501  0.00000000000E+00  0.00000000000E+00  0.69840403020E+03  0.69840403020E+03  0.00000000000E+00 0. -1.
         21   -1    0    0  501  502 -0.00000000000E+00 -0.00000000000E+00 -0.12144906354E+03  0.12144906354E+03  0.00000000000E+00 0. -1.
         25    1    1    2    0    0  0.80459020165E+02  0.10687175572E+03  0.20945502631E+03  0.27819351924E+03  0.12500000000E+03 0.  0.
         25    1    1    2    0    0 -0.10185540478E+03  0.20432551059E+02  0.38878770763E+02  0.16711843537E+03  0.12500000000E+03 0.  0.
         25    1    1    2    0    0  0.21396384612E+02 -0.12730430678E+03  0.32862116959E+03  0.37454113913E+03  0.12500000000E+03 0.  0.
</event>
<event>
 5    0  0.5452999E-005  0.2643966E+03  0.7546771E-02  0.1104530E+00
         21   -1    0    0  502  501  0.00000000000E+00  0.00000000000E+00  0.65860048557E+03  0.65860048557E+03  0.00000000000E+00 0. -1.
         21   -1    0    0  501  502 -0.00000000000E+00 -0.00000000000E+00 -0.10614257770E+03  0.10614257770E+03  0.00000000000E+00 0. -1.
         25    1    1    2    0    0  0.58108336751E+02 -0.60923179780E+02  0.35217710630E+03  0.38306908886E+03  0.12500000000E+03 0.  0.
         25    1    1    2    0    0 -0.11250473789E+03  0.71548992995E+02  0.14840946558E+03  0.23542927583E+03  0.12500000000E+03 0.  0.
         25    1    1    2    0    0  0.54396401137E+02 -0.10625813214E+02  0.51871335993E+02  0.14624469857E+03  0.12500000000E+03 0.  0.
</event>
<event>
 5    0  0.5452999E-005  0.5189679E+03  0.7546771E-02  0.1008943E+00
         21   -1    0    0  502  501  0.00000000000E+00  0.00000000000E+00  0.12272534615E+04  0.12272534615E+04  0.00000000000E+00 0. -1.
         21   -1    0    0  501  502 -0.00000000000E+00 -0.00000000000E+00 -0.21945560759E+03  0.21945560759E+03  0.00000000000E+00 0. -1.
         25    1    1    2    0    0 -0.14390209644E+03  0.26327007909E+03  0.24644195789E+03  0.40789408737E+03  0.12500000000E+03 0.  0.
         25    1    1    2    0    0  0.31485827083E+03 -0.33059542340E+03  0.42783850999E+03  0.63804377226E+03  0.12500000000E+03 0.  0.
         25    1    1    2    0    0 -0.17095617439E+03  0.67325344312E+02  0.33351738606E+03  0.40077120949E+03  0.12500000000E+03 0.  0.
</event>
<event>
 5    0  0.5452999E-005  0.2328842E+03  0.7546771E-02  0.1124626E+00
         21   -1    0    0  502  501  0.00000000000E+00  0.00000000000E+00  0.21424306896E+03  0.21424306896E+03  0.00000000000E+00 0. -1.
         21   -1    0    0  501  502 -0.00000000000E+00 -0.00000000000E+00 -0.25314724443E+03  0.25314724443E+03  0.00000000000E+00 0. -1.
         25    1    1    2    0    0 -0.66175540654E+02 -0.12921915376E+02 -0.43521899914E+01  0.14209194078E+03  0.12500000000E+03 0.  0.
         25    1    1    2    0    0  0.52423274360E+01 -0.85513480752E+02 -0.32109558292E+02  0.15490662065E+03  0.12500000000E+03 0.  0.
         25    1    1    2    0    0  0.60933213218E+02  0.98435396127E+02 -0.24424271814E+01  0.17039175196E+03  0.12500000000E+03 0.  0.
</event>
<event>
 5    0  0.5452999E-005  0.3120511E+03  0.7546771E-02  0.1079367E+00
         21   -1    0    0  502  501  0.00000000000E+00  0.00000000000E+00  0.71136143397E+03  0.71136143397E+03  0.00000000000E+00 0. -1.
         21   -1    0    0  501  502 -0.00000000000E+00 -0.00000000000E+00 -0.13688665284E+03  0.13688665284E+03  0.00000000000E+00 0. -1.
         25    1    1    2    0    0 -0.32500377793E+02 -0.10979585481E+03  0.21884688086E+02  0.17092496559E+03  0.12500000000E+03 0.  0.
         25    1    1    2    0    0  0.14111742483E+03 -0.14293677587E+01  0.31486769776E+03  0.36699160450E+03  0.12500000000E+03 0.  0.
         25    1    1    2    0    0 -0.10861704704E+03  0.11122522257E+03  0.23772239528E+03  0.31033151671E+03  0.12500000000E+03 0.  0.
</event>
<event>
 5    0  0.5452999E-005  0.3768316E+03  0.7546771E-02  0.1052111E+00
         21   -1    0    0  502  501  0.00000000000E+00  0.00000000000E+00  0.19644088724E+04  0.19644088724E+04  0.00000000000E+00 0. -1.
         21   -1    0    0  501  502 -0.00000000000E+00 -0.00000000000E+00 -0.72287438908E+02  0.72287438908E+02  0.00000000000E+00 0. -1.
         25    1    1    2    0    0 -0.30640651146E+02  0.20891042038E+03  0.43700910244E+03  0.50118296944E+03  0.12500000000E+03 0.  0.
         25    1    1    2    0    0  0.13076163299E+03  0.16848906827E+02  0.32846461579E+03  0.37536181765E+03  0.12500000000E+03 0.  0.
         25    1    1    2    0    0 -0.10012098185E+03 -0.22575932721E+03  0.11266477153E+04  0.11601515242E+04  0.12500000000E+03 0.  0.
</event>
<event>
 5    0  0.5452999E-005  0.2437057E+03  0.7546771E-02  0.1117349E+00
         21   -1    0    0  502  501  0.00000000000E+00  0.00000000000E+00  0.35448864710E+03  0.35448864710E+03  0.00000000000E+00 0.  1.
         21   -1    0    0  501  502 -0.00000000000E+00 -0.00000000000E+00 -0.16754412263E+03  0.16754412263E+03  0.00000000000E+00 0.  1.
         25    1    1    2    0    0 -0.12470516273E+02 -0.83220486463E+01 -0.69662660037E+02  0.14388417729E+03  0.12500000000E+03 0.  0.
         25    1    1    2    0    0  0.52410824981E+02  0.32293480927E+02  0.95210473342E+02  0.16875958556E+03  0.12500000000E+03 0.  0.
         25    1    1    2    0    0 -0.39940308708E+02 -0.23971432281E+02  0.16139671117E+03  0.20938900688E+03  0.12500000000E+03 0.  0.
</event>
<event>
 5    0  0.5452999E-005  0.4576202E+03  0.7546771E-02  0.1025474E+00
         21   -1    0    0  502  501  0.00000000000E+00  0.00000000000E+00  0.30946989132E+03  0.30946989132E+03  0.00000000000E+00 0. -1.
         21   -1    0    0  501  502 -0.00000000000E+00 -0.00000000000E+00 -0.67669342854E+03  0.67669342854E+03  0.00000000000E+00 0. -1.
         25    1    1    2    0    0 -0.23943838628E+03 -0.31237714102E+02 -0.14865344307E+03  0.30988607866E+03  0.12500000000E+03 0.  0.
         25    1    1    2    0    0  0.21601693016E+03  0.24953384902E+03 -0.17443170146E+02  0.35335494918E+03  0.12500000000E+03 0.  0.
         25    1    1    2    0    0  0.23421456125E+02 -0.21829613492E+03 -0.20112692400E+03  0.32292229203E+03  0.12500000000E+03 0.  0.
</event>
<event>
 5    0  0.5452999E-005  0.2747192E+03  0.7546771E-02  0.1098609E+00
         21   -1    0    0  502  501  0.00000000000E+00  0.00000000000E+00  0.54489120321E+03  0.54489120321E+03  0.00000000000E+00 0.  1.
         21   -1    0    0  501  502 -0.00000000000E+00 -0.00000000000E+00 -0.13850591381E+03  0.13850591381E+03  0.00000000000E+00 0.  1.
         25    1    1    2    0    0  0.11335588841E+03 -0.59443281668E+02  0.20304635127E+03  0.27062128877E+03  0.12500000000E+03 0.  0.
         25    1    1    2    0    0 -0.93683773260E+02 -0.40772438526E+02  0.19215412524E+03  0.25097260600E+03  0.12500000000E+03 0.  0.
         25    1    1    2    0    0 -0.19672115152E+02  0.10021572019E+03  0.11184812894E+02  0.16180322224E+03  0.12500000000E+03 0.  0.
</event>
<event>
 5    0  0.5452999E-005  0.3751080E+03  0.7546771E-02  0.1052757E+00
         21   -1    0    0  502  501  0.00000000000E+00  0.00000000000E+00  0.14376424804E+04  0.14376424804E+04  0.00000000000E+00 0.  1.
         21   -1    0    0  501  502 -0.00000000000E+00 -0.00000000000E+00 -0.97872722881E+02  0.97872722881E+02  0.00000000000E+00 0.  1.
         25    1    1    2    0    0 -0.26602231333E+03 -0.13349368182E+03  0.49373897211E+03  0.58990813425E+03  0.12500000000E+03 0.  0.
         25    1    1    2    0    0  0.13932323608E+03 -0.18778715171E+02  0.38237502740E+03  0.42614465365E+03  0.12500000000E+03 0.  0.
         25    1    1    2    0    0  0.12669907725E+03  0.15227239699E+03  0.46365575802E+03  0.51946241540E+03  0.12500000000E+03 0.  0.
</event>
<event>
 5    0  0.5452999E-005  0.2359377E+03  0.7546771E-02  0.1122529E+00
         21   -1    0    0  502  501  0.00000000000E+00  0.00000000000E+00  0.12871416711E+04  0.12871416711E+04  0.00000000000E+00 0.  1.
         21   -1    0    0  501  502 -0.00000000000E+00 -0.00000000000E+00 -0.43248233918E+02  0.43248233918E+02  0.00000000000E+00 0.  1.
         25    1    1    2    0    0 -0.23892343781E+02 -0.66784351082E+02  0.26415179583E+03  0.30071941222E+03  0.12500000000E+03 0.  0.
         25    1    1    2    0    0 -0.69756572022E+02  0.65698353412E+02  0.56313963295E+03  0.58475080092E+03  0.12500000000E+03 0.  0.
         25    1    1    2    0    0  0.93648915803E+02  0.10859976694E+01  0.41660200841E+03  0.44491969190E+03  0.12500000000E+03 0.  0.
</event>
<event>
 5    0  0.5452999E-005  0.2802408E+03  0.7546771E-02  0.1095557E+00
         21   -1    0    0  502  501  0.00000000000E+00  0.00000000000E+00  0.18756886897E+04  0.18756886897E+04  0.00000000000E+00 0.  1.
         21   -1    0    0  501  502 -0.00000000000E+00 -0.00000000000E+00 -0.41869913942E+02  0.41869913942E+02  0.00000000000E+00 0.  1.
         25    1    1    2    0    0  0.68035112897E+02  0.11904595445E+02  0.21004508860E+03  0.25399691971E+03  0.12500000000E+03 0.  0.
         25    1    1    2    0    0  0.67140804777E+02 -0.64614168599E+02  0.96509047548E+03  0.97760293796E+03  0.12500000000E+03 0.  0.
         25    1    1    2    0    0 -0.13517591767E+03  0.52709573153E+02  0.65868321170E+03  0.68595874599E+03  0.12500000000E+03 0.  0.
</event>
<event>
 5    0  0.5452999E-005  0.3897672E+03  0.7546771E-02  0.1047382E+00
         21   -1    0    0  502  501  0.00000000000E+00  0.00000000000E+00  0.13904918648E+03  0.13904918648E+03  0.00000000000E+00 0.  1.
         21   -1    0    0  501  502 -0.00000000000E+00 -0.00000000000E+00 -0.10925522113E+04  0.10925522113E+04  0.00000000000E+00 0.  1.
         25    1    1    2    0    0 -0.10495015370E+02  0.18471456757E+03 -0.31557882602E+03  0.38658066720E+03  0.12500000000E+03 0.  0.
         25    1    1    2    0    0 -0.61507742501E+02 -0.23385526718E+03 -0.10670412759E+03  0.29237349268E+03  0.12500000000E+03 0.  0.
         25    1    1    2    0    0  0.72002757871E+02  0.49140699611E+02 -0.53122007126E+03  0.55264723794E+03  0.12500000000E+03 0.  0.
</event>
<event>
 5    0  0.5452999E-005  0.2737772E+03  0.7546771E-02  0.1099137E+00
         21   -1    0    0  502  501  0.00000000000E+00  0.00000000000E+00  0.76822363451E+02  0.76822363451E+02  0.00000000000E+00 0. -1.
         21   -1    0    0  501  502 -0.00000000000E+00 -0.00000000000E+00 -0.97567871340E+03  0.97567871340E+03  0.00000000000E+00 0. -1.
         25    1    1    2    0    0  0.22480181260E+02 -0.13738152875E+03 -0.29887617632E+03  0.35260602911E+03  0.12500000000E+03 0.  0.
         25    1    1    2    0    0  0.23823716330E+02 -0.43981976729E+02 -0.24542807904E+03  0.27993200195E+03  0.12500000000E+03 0.  0.
         25    1    1    2    0    0 -0.46303897591E+02  0.18136350548E+03 -0.35455209459E+03  0.41996304579E+03  0.12500000000E+03 0.  0.
</event>
<event>
 5    0  0.5452999E-005  0.3834831E+03  0.7546771E-02  0.1049654E+00
         21   -1    0    0  502  501  0.00000000000E+00  0.00000000000E+00  0.39497221787E+03  0.39497221787E+03  0.00000000000E+00 0. -1.
         21   -1    0    0  501  502 -0.00000000000E+00 -0.00000000000E+00 -0.37232820154E+03  0.37232820154E+03  0.00000000000E+00 0. -1.
         25    1    1    2    0    0 -0.14383763417E+03 -0.26717176538E+03  0.31749816486E+02  0.32970148327E+03  0.12500000000E+03 0.  0.
         25    1    1    2    0    0  0.16500222994E+03  0.18902836684E+03  0.34446441940E+02  0.28243409270E+03  0.12500000000E+03 0.  0.
         25    1    1    2    0    0 -0.21164595771E+02  0.78143398542E+02 -0.43552242095E+02  0.15516484345E+03  0.12500000000E+03 0.  0.
</event>
<event>
 5    0  0.5452999E-005  0.2840825E+03  0.7546771E-02  0.1093480E+00
         21   -1    0    0  502  501  0.00000000000E+00  0.00000000000E+00  0.63539577194E+03  0.63539577194E+03  0.00000000000E+00 0. -1.
         21   -1    0    0  501  502 -0.00000000000E+00 -0.00000000000E+00 -0.12701199447E+03  0.12701199447E+03  0.00000000000E+00 0. -1.
         25    1    1    2    0    0  0.15843181071E+03 -0.42697980851E+02  0.27840472201E+03  0.34649378847E+03  0.12500000000E+03 0.  0.
         25    1    1    2    0    0  0.14461484491E+02  0.43479347445E+02  0.92247782013E+02  0.16196987829E+03  0.12500000000E+03 0.  0.
         25    1    1    2    0    0 -0.17289329520E+03 -0.78136659481E+00  0.13773127345E+03  0.25394409964E+03  0.12500000000E+03 0.  0.
</event>
<event>
 5    0  0.5452999E-005  0.3754626E+03  0.7546771E-02  0.1052624E+00
         21   -1    0    0  502  501  0.00000000000E+00  0.00000000000E+00  0.71537099479E+03  0.71537099479E+03  0.00000000000E+00 0.  1.
         21   -1    0    0  501  502 -0.00000000000E+00 -0.00000000000E+00 -0.19706156871E+03  0.19706156871E+03  0.00000000000E+00 0.  1.
         25    1    1    2    0    0 -0.19800921821E+03  0.32867878508E+02  0.39018488396E+03  0.45624247019E+03  0.12500000000E+03 0.  0.
         25    1    1    2    0    0  0.66019202938E+02  0.12837556256E+03  0.86598815907E+02  0.20967397344E+03  0.12500000000E+03 0.  0.
         25    1    1    2    0    0  0.13199001528E+03 -0.16124344107E+03  0.41525726211E+02  0.24651611988E+03  0.12500000000E+03 0.  0.
</event>
<event>
 5    0  0.5452999E-005  0.2590106E+03  0.7546771E-02  0.1107739E+00
         21   -1    0    0  502  501  0.00000000000E+00  0.00000000000E+00  0.13262540424E+03  0.13262540424E+03  0.00000000000E+00 0. -1.
         21   -1    0    0  501  502 -0.00000000000E+00 -0.00000000000E+00 -0.50583422156E+03  0.50583422156E+03  0.00000000000E+00 0. -1.
         25    1    1    2    0    0 -0.50186532871E+02  0.11120256754E+02 -0.18119472993E+03  0.22605061015E+03  0.12500000000E+03 0.  0.
         25    1    1    2    0    0 -0.22526820166E+01 -0.49474604408E+02  0.40610484051E+02  0.14045291906E+03  0.12500000000E+03 0.  0.
         25    1    1    2    0    0  0.52439214887E+02  0.38354347653E+02 -0.23262457143E+03  0.27195609660E+03  0.12500000000E+03 0.  0.
</event>
<event>
 5    0  0.5452999E-005  0.2781497E+03  0.7546771E-02  0.1096704E+00
         21   -1    0    0  502  501  0.00000000000E+00  0.00000000000E+00  0.11448739866E+03  0.11448739866E+03  0.00000000000E+00 0. -1.
         21   -1    0    0  501  502 -0.00000000000E+00 -0.00000000000E+00 -0.67577087117E+03  0.67577087117E+03  0.00000000000E+00 0. -1.
         25    1    1    2    0    0 -0.70121703830E+02  0.12996366856E+03 -0.28466094568E+03  0.34418666809E+03  0.12500000000E+03 0.  0.
         25    1    1    2    0    0  0.57940189017E+02  0.35018741663E+02 -0.12356227657E+03  0.18835077373E+03  0.12500000000E+03 0.  0.
         25    1    1    2    0    0  0.12181514813E+02 -0.16498241023E+03 -0.15306025025E+03  0.25772082802E+03  0.12500000000E+03 0.  0.
</event>
<event>
 5    0  0.5452999E-005  0.4697466E+03  0.7546771E-02  0.1021992E+00
         21   -1    0    0  502  501  0.00000000000E+00  0.00000000000E+00  0.23206093050E+03  0.23206093050E+03  0.00000000000E+00 0.  1.
         21   -1    0    0  501  502 -0.00000000000E+00 -0.00000000000E+00 -0.95087889539E+03  0.95087889539E+03  0.00000000000E+00 0.  1.
         25    1    1    2    0    0 -0.17239323767E+03  0.24067632074E+03 -0.32430431397E+02  0.32298800696E+03  0.12500000000E+03 0.  0.
         25    1    1    2    0    0 -0.12866450186E+02 -0.26456604427E+03 -0.40527615481E+03  0.50003449779E+03  0.12500000000E+03 0.  0.
         25    1    1    2    0    0  0.18525968785E+03  0.23889723530E+02 -0.28111137868E+03  0.35991732114E+03  0.12500000000E+03 0.  0.
</event>
<event>
 5    0  0.5452999E-005  0.4223748E+03  0.7546771E-02  0.1036296E+00
         21   -1    0    0  502  501  0.00000000000E+00  0.00000000000E+00  0.42273778784E+03  0.42273778784E+03  0.00000000000E+00 0. -1.
         21   -1    0    0  501  502 -0.00000000000E+00 -0.00000000000E+00 -0.42201203985E+03  0.42201203985E+03  0.00000000000E+00 0. -1.
         25    1    1    2    0    0  0.75568198760E+02  0.80619076708E+02 -0.62212757449E+02  0.17806014541E+03  0.12500000000E+03 0.  0.
         25    1    1    2    0    0  0.13108122822E+03 -0.25848587776E+03 -0.92443666295E+02  0.32888914368E+03  0.12500000000E+03 0.  0.
         25    1    1    2    0    0 -0.20664942698E+03  0.17786680105E+03  0.15538217174E+03  0.33780053861E+03  0.12500000000E+03 0.  0.
</event>
<event>
 5    0  0.5452999E-005  0.2461532E+03  0.7546771E-02  0.1115760E+00
         21   -1    0    0  502  501  0.00000000000E+00  0.00000000000E+00  0.47630616891E+03  0.47630616891E+03  0.00000000000E+00 0. -1.
         21   -1    0    0  501  502 -0.00000000000E+00 -0.00000000000E+00 -0.12721104856E+03  0.12721104856E+03  0.00000000000E+00 0. -1.
         25    1    1    2    0    0  0.36120587611E+02  0.65790044728E+02  0.87235384797E+02  0.16990597163E+03  0.12500000000E+03 0.  0.
         25    1    1    2    0    0  0.56923898207E+02  0.53586597067E+02  0.90162310250E+02  0.17281810022E+03  0.12500000000E+03 0.  0.
         25    1    1    2    0    0 -0.93044485818E+02 -0.11937664180E+03  0.17169742530E+03  0.26079314562E+03  0.12500000000E+03 0.  0.
</event>
<event>
 5    0  0.5687592E-005  0.2924791E+03  0.7546771E-02  0.1089062E+00
         21   -1    0    0  502  501  0.00000000000E+00  0.00000000000E+00  0.27879466908E+03  0.27879466908E+03  0.00000000000E+00 0. -1.
         21   -1    0    0  501  502 -0.00000000000E+00 -0.00000000000E+00 -0.30683520985E+03  0.30683520985E+03  0.00000000000E+00 0. -1.
         25    1    1    2    0    0  0.14614245453E+02  0.10822862097E+03  0.14141837216E+03  0.21806229970E+03  0.12500000000E+03 0.  0.
         25    1    1    2    0    0  0.43918385468E+02 -0.12076544306E+03 -0.54129783359E+02  0.18726492001E+03  0.12500000000E+03 0.  0.
         25    1    1    2    0    0 -0.58532630920E+02  0.12536822094E+02 -0.11532912957E+03  0.18030265921E+03  0.12500000000E+03 0.  0.
</event>
<event>
 5    0  0.5452999E-005  0.2465126E+03  0.7546771E-02  0.1115529E+00
         21   -1    0    0  502  501  0.00000000000E+00  0.00000000000E+00  0.35057726614E+03  0.35057726614E+03  0.00000000000E+00 0. -1.
         21   -1    0    0  501  502 -0.00000000000E+00 -0.00000000000E+00 -0.17333833949E+03  0.17333833949E+03  0.00000000000E+00 0. -1.
         25    1    1    2    0    0  0.97009845490E+02 -0.27687384884E+02 -0.26511356128E+02  0.16280464799E+03  0.12500000000E+03 0.  0.
         25    1    1    2    0    0 -0.69119782273E+02 -0.41597797712E+02  0.13150221962E+03  0.19855919732E+03  0.12500000000E+03 0.  0.
         25    1    1    2    0    0 -0.27890063217E+02  0.69285182597E+02  0.72248063152E+02  0.16255176032E+03  0.12500000000E+03 0.  0.
</event>
<event>
 5    0  0.5452999E-005  0.2964237E+03  0.7546771E-02  0.1087042E+00
         21   -1    0    0  502  501  0.00000000000E+00  0.00000000000E+00  0.36910023043E+03  0.36910023043E+03  0.00000000000E+00 0. -1.
         21   -1    0    0  501  502 -0.00000000000E+00 -0.00000000000E+00 -0.23805727369E+03  0.23805727369E+03  0.00000000000E+00 0. -1.
         25    1    1    2    0    0  0.32098412637E+02 -0.11289502828E+03 -0.11042515338E+03  0.20394683132E+03  0.12500000000E+03 0.  0.
         25    1    1    2    0    0  0.51310882230E+02  0.10715918541E+03  0.13327252188E+03  0.21795059702E+03  0.12500000000E+03 0.  0.
         25    1    1    2    0    0 -0.83409294867E+02  0.57358428669E+01  0.10819558823E+03  0.18526007578E+03  0.12500000000E+03 0.  0.
</event>
<event>
 5    0  0.5452999E-005  0.3630271E+03  0.7546771E-02  0.1057392E+00
         21   -1    0    0  502  501  0.00000000000E+00  0.00000000000E+00  0.34250999476E+03  0.34250999476E+03  0.00000000000E+00 0.  1.
         21   -1    0    0  501  502 -0.00000000000E+00 -0.00000000000E+00 -0.38477329028E+03  0.38477329028E+03  0.00000000000E+00 0.  1.
         25    1    1    2    0    0  0.14090710174E+02 -0.23972387194E+03  0.15368252995E+03  0.31130275119E+03  0.12500000000E+03 0.  0.
         25    1    1    2    0    0 -0.26799493983E+02  0.69011671723E+02 -0.33930279500E+02  0.14918809463E+03  0.12500000000E+03 0.  0.
         25    1    1    2    0    0  0.12708783809E+02  0.17071220021E+03 -0.16201554597E+03  0.26679243922E+03  0.12500000000E+03 0.  0.
</event>
<event>
 5    0  0.5452999E-005  0.3319251E+03  0.7546771E-02  0.1070288E+00
         21   -1    0    0  502  501  0.00000000000E+00  0.00000000000E+00  0.77468456468E+03  0.77468456468E+03  0.00000000000E+00 0.  1.
         21   -1    0    0  501  502 -0.00000000000E+00 -0.00000000000E+00 -0.14221825936E+03  0.14221825936E+03  0.00000000000E+00 0.  1.
         25    1    1    2    0    0 -0.11449921753E+03  0.18437758554E+03  0.19520458268E+03  0.31754526286E+03  0.12500000000E+03 0.  0.
         25    1    1    2    0    0 -0.60207202920E+02 -0.12524979063E+03  0.19033502059E+03  0.26676738443E+03  0.12500000000E+03 0.  0.
         25    1    1    2    0    0  0.17470642046E+03 -0.59127794911E+02  0.24692670205E+03  0.33259017674E+03  0.12500000000E+03 0.  0.
</event>
<event>
 5    0  0.5452999E-005  0.2636743E+03  0.7546771E-02  0.1104956E+00
         21   -1    0    0  502  501  0.00000000000E+00  0.00000000000E+00  0.80393337473E+03  0.80393337473E+03  0.00000000000E+00 0. -1.
         21   -1    0    0  501  502 -0.00000000000E+00 -0.00000000000E+00 -0.86479953268E+02  0.86479953268E+02  0.00000000000E+00 0. -1.
         25    1    1    2    0    0 -0.60815964916E+01  0.27183846007E+02  0.77610949100E+02  0.14974781040E+03  0.12500000000E+03 0.  0.
         25    1    1    2    0    0  0.88317732148E+02  0.40624441439E+02  0.50147789454E+03  0.52588539223E+03  0.12500000000E+03 0.  0.
         25    1    1    2    0    0 -0.82236135656E+02 -0.67808287447E+02  0.13836457782E+03  0.21478012536E+03  0.12500000000E+03 0.  0.
</event>
<event>
 5    0  0.5452999E-005  0.3103319E+03  0.7546771E-02  0.1080187E+00
         21   -1    0    0  502  501  0.00000000000E+00  0.00000000000E+00  0.53024372690E+02  0.53024372690E+02  0.00000000000E+00 0.  1.
         21   -1    0    0  501  502 -0.00000000000E+00 -0.00000000000E+00 -0.18162568824E+04  0.18162568824E+04  0.00000000000E+00 0. -1.
         25    1    1    2    0    0 -0.10171801581E+03 -0.50095108346E+02 -0.44344132473E+03  0.47446947541E+03  0.12500000000E+03 0.  0.
         25    1    1    2    0    0  0.21587508554E+03 -0.50005578130E+02 -0.72390628028E+03  0.76731213533E+03  0.12500000000E+03 0.  0.
         25    1    1    2    0    0 -0.11415706972E+03  0.10010068648E+03 -0.59588490467E+03  0.62749964431E+03  0.12500000000E+03 0.  0.
</event>
<event>
 5    0  0.5452999E-005  0.4376480E+03  0.7546771E-02  0.1031471E+00
         21   -1    0    0  502  501  0.00000000000E+00  0.00000000000E+00  0.67058094556E+02  0.67058094556E+02  0.00000000000E+00 0.  1.
         21   -1    0    0  501  502 -0.00000000000E+00 -0.00000000000E+00 -0.28562661326E+04  0.28562661326E+04  0.00000000000E+00 0.  1.
         25    1    1    2    0    0  0.10945708060E+03 -0.17490643616E+03 -0.22676890628E+04  0.22804849922E+04  0.12500000000E+03 0.  0.
         25    1    1    2    0    0 -0.70415155527E+02  0.43194632282E+02 -0.38262592575E+03  0.41091564760E+03  0.12500000000E+03 0.  0.
         25    1    1    2    0    0 -0.39041925078E+02  0.13171180388E+03 -0.13889304950E+03  0.23192358740E+03  0.12500000000E+03 0.  0.
</event>
<event>
 5    0  0.5452999E-005  0.3008363E+03  0.7546771E-02  0.1084823E+00
         21   -1    0    0  502  501  0.00000000000E+00  0.00000000000E+00  0.50687376028E+03  0.50687376028E+03  0.00000000000E+00 0.  1.
         21   -1    0    0  501  502 -0.00000000000E+00 -0.00000000000E+00 -0.17855036024E+03  0.17855036024E+03  0.00000000000E+00 0.  1.
         25    1    1    2    0    0 -0.52857311385E+00 -0.12087824674E+03 -0.16389035946E+02  0.17465803853E+03  0.12500000000E+03 0.  0.
         25    1    1    2    0    0  0.61307991618E+02  0.79087396932E+02  0.32757905968E+03  0.36461832995E+03  0.12500000000E+03 0.  0.
         25    1    1    2    0    0 -0.60779418504E+02  0.41790849810E+02  0.17133376299E+02  0.14614775204E+03  0.12500000000E+03 0.  0.
</event>
<event>
 5    0  0.5452999E-005  0.3743267E+03  0.7546771E-02  0.1053051E+00
         21   -1    0    0  502  501  0.00000000000E+00  0.00000000000E+00  0.79021462039E+02  0.79021462039E+02  0.00000000000E+00 0. -1.
         21   -1    0    0  501  502 -0.00000000000E+00 -0.00000000000E+00 -0.17731951989E+04  0.17731951989E+04  0.00000000000E+00 0. -1.
         25    1    1    2    0    0 -0.98846448146E+02  0.90041419395E+01 -0.26785478219E+03  0.31180583578E+03  0.12500000000E+03 0.  0.
         25    1    1    2    0    0 -0.17476362881E+03 -0.11215831431E+03 -0.41861853076E+03  0.48372335867E+03  0.12500000000E+03 0.  0.
         25    1    1    2    0    0  0.27361007696E+03  0.10315417237E+03 -0.10077004239E+04  0.10566874665E+04  0.12500000000E+03 0.  0.
</event>
<event>
 5    0  0.5452999E-005  0.3906380E+03  0.7546771E-02  0.1047070E+00
         21   -1    0    0  502  501  0.00000000000E+00  0.00000000000E+00  0.18509793989E+03  0.18509793989E+03  0.00000000000E+00 0.  1.
         21   -1    0    0  501  502 -0.00000000000E+00 -0.00000000000E+00 -0.82441773093E+03  0.82441773093E+03  0.00000000000E+00 0.  1.
         25    1    1    2    0    0 -0.58969899050E+02  0.17215944022E+03 -0.12365574557E+03  0.25304557941E+03  0.12500000000E+03 0.  0.
         25    1    1    2    0    0  0.36485375468E+02 -0.30677225060E+03 -0.19469769848E+03  0.38596967517E+03  0.12500000000E+03 0.  0.
         25    1    1    2    0    0  0.22484523581E+02  0.13461281038E+03 -0.32096634699E+03  0.37050041622E+03  0.12500000000E+03 0.  0.
</event>
<event>
 5    0  0.5452999E-005  0.3812149E+03  0.7546771E-02  0.1050486E+00
         21   -1    0    0  502  501  0.00000000000E+00  0.00000000000E+00  0.70687761210E+03  0.70687761210E+03  0.00000000000E+00 0.  1.
         21   -1    0    0  501  502 -0.00000000000E+00 -0.00000000000E+00 -0.20558693349E+03  0.20558693349E+03  0.00000000000E+00 0.  1.
         25    1    1    2    0    0 -0.92615913229E+02  0.16548851283E+03  0.17806703625E+02  0.22782939660E+03  0.12500000000E+03 0.  0.
         25    1    1    2    0    0 -0.47115254056E+02 -0.24184282428E+03  0.33125515582E+03  0.43134994735E+03  0.12500000000E+03 0.  0.
         25    1    1    2    0    0  0.13973116729E+03  0.76354311452E+02  0.15222881916E+03  0.25328520164E+03  0.12500000000E+03 0.  0.
</event>
<event>
 5    0  0.5452999E-005  0.2463326E+03  0.7546771E-02  0.1115645E+00
         21   -1    0    0  502  501  0.00000000000E+00  0.00000000000E+00  0.14530476566E+03  0.14530476566E+03  0.00000000000E+00 0. -1.
         21   -1    0    0  501  502 -0.00000000000E+00 -0.00000000000E+00 -0.41760340564E+03  0.41760340564E+03  0.00000000000E+00 0. -1.
         25    1    1    2    0    0  0.63423948641E+02  0.38208182871E+02 -0.36344904683E+02  0.14976119189E+03  0.12500000000E+03 0.  0.
         25    1    1    2    0    0  0.28877768708E+02  0.34255110728E+02 -0.15230154406E+02  0.13365738191E+03  0.12500000000E+03 0.  0.
         25    1    1    2    0    0 -0.92301717349E+02 -0.72463293599E+02 -0.22072358090E+03  0.27948959750E+03  0.12500000000E+03 0.  0.
</event>
<event>
 5    0  0.5452999E-005  0.3401212E+03  0.7546771E-02  0.1066744E+00
         21   -1    0    0  502  501  0.00000000000E+00  0.00000000000E+00  0.12029719762E+03  0.12029719762E+03  0.00000000000E+00 0.  1.
         21   -1    0    0  501  502 -0.00000000000E+00 -0.00000000000E+00 -0.96163889779E+03  0.96163889779E+03  0.00000000000E+00 0.  1.
         25    1    1    2    0    0  0.11034644413E+03  0.65431516782E+02 -0.27167136405E+03  0.32540428880E+03  0.12500000000E+03 0.  0.
         25    1    1    2    0    0  0.70061683905E+02  0.43152631421E+02 -0.46808163097E+03  0.49142263115E+03  0.12500000000E+03 0.  0.
         25    1    1    2    0    0 -0.18040812803E+03 -0.10858414820E+03 -0.10158870514E+03  0.26510917546E+03  0.12500000000E+03 0.  0.
</event>
<event>
 5    0  0.5452999E-005  0.5894914E+03  0.7546771E-02  0.9927451E-01
         21   -1    0    0  502  501  0.00000000000E+00  0.00000000000E+00  0.32031719378E+03  0.32031719378E+03  0.00000000000E+00 0.  1.
         21   -1    0    0  501  502 -0.00000000000E+00 -0.00000000000E+00 -0.10848626339E+04  0.10848626339E+04  0.00000000000E+00 0.  1.
         25    1    1    2    0    0 -0.26798342797E+03 -0.21240961950E+03 -0.18975038681E+03  0.41056445708E+03  0.12500000000E+03 0.  0.
         25    1    1    2    0    0 -0.29819383749E+02 -0.75325838181E+02  0.10963659032E+03  0.18495502016E+03  0.12500000000E+03 0.  0.
         25    1    1    2    0    0  0.29780281172E+03  0.28773545768E+03 -0.68443164362E+03  0.80966035043E+03  0.12500000000E+03 0.  0.
</event>
<event>
 5    0  0.5452999E-005  0.2567964E+03  0.7546771E-02  0.1109083E+00
         21   -1    0    0  502  501  0.00000000000E+00  0.00000000000E+00  0.10961768468E+03  0.10961768468E+03  0.00000000000E+00 0.  1.
         21   -1    0    0  501  502 -0.00000000000E+00 -0.00000000000E+00 -0.60158538462E+03  0.60158538462E+03  0.00000000000E+00 0.  1.
         25    1    1    2    0    0 -0.95746750183E+02 -0.25415424089E+02 -0.33368645521E+03  0.36984460837E+03  0.12500000000E+03 0.  0.
         25    1    1    2    0    0  0.98608257001E+02  0.50817223965E+02 -0.51205265488E+02  0.17479404399E+03  0.12500000000E+03 0.  0.
         25    1    1    2    0    0 -0.28615068171E+01 -0.25401799876E+02 -0.10707597925E+03  0.16656441694E+03  0.12500000000E+03 0.  0.
</event>
<event>
 5    0  0.5452999E-005  0.2952870E+03  0.7546771E-02  0.1087621E+00
         21   -1    0    0  502  501  0.00000000000E+00  0.00000000000E+00  0.17847677735E+03  0.17847677735E+03  0.00000000000E+00 0. -1.
         21   -1    0    0  501  502 -0.00000000000E+00 -0.00000000000E+00 -0.48854760404E+03  0.48854760404E+03  0.00000000000E+00 0. -1.
         25    1    1    2    0    0 -0.58233752583E+02 -0.10102253287E+03 -0.51967133486E+02  0.17866814223E+03  0.12500000000E+03 0.  0.
         25    1    1    2    0    0  0.40418262543E+02 -0.10699440187E+03 -0.83722418100E+02  0.18898645790E+03  0.12500000000E+03 0.  0.
         25    1    1    2    0    0  0.17815490040E+02  0.20801693474E+03 -0.17438127510E+03  0.29936978125E+03  0.12500000000E+03 0.  0.
</event>
<event>
 5    0  0.5452999E-005  0.2690827E+03  0.7546771E-02  0.1101806E+00
         21   -1    0    0  502  501  0.00000000000E+00  0.00000000000E+00  0.62234725570E+02  0.62234725570E+02  0.00000000000E+00 0. -1.
         21   -1    0    0  501  502 -0.00000000000E+00 -0.00000000000E+00 -0.11634260536E+04  0.11634260536E+04  0.00000000000E+00 0. -1.
         25    1    1    2    0    0 -0.12417677514E+03  0.99230430769E+02 -0.40785714027E+03  0.45523510052E+03  0.12500000000E+03 0.  0.
         25    1    1    2    0    0  0.11817580046E+03 -0.11676422333E+03 -0.39340011500E+03  0.44495848587E+03  0.12500000000E+03 0.  0.
         25    1    1    2    0    0  0.60009746870E+01  0.17533792557E+02 -0.29993407278E+03  0.32546719281E+03  0.12500000000E+03 0.  0.
</event>
<event>
 5    0  0.5452999E-005  0.3152311E+03  0.7546771E-02  0.1077865E+00
         21   -1    0    0  502  501  0.00000000000E+00  0.00000000000E+00  0.14689292161E+03  0.14689292161E+03  0.00000000000E+00 0.  1.
         21   -1    0    0  501  502 -0.00000000000E+00 -0.00000000000E+00 -0.67648355329E+03  0.67648355329E+03  0.00000000000E+00 0.  1.
         25    1    1    2    0    0 -0.30648426259E+02 -0.17100147083E+02  0.46360645226E+02  0.13786243320E+03  0.12500000000E+03 0.  0.
         25    1    1    2    0    0  0.41346393631E+02 -0.11525454517E+03 -0.18796095408E+03  0.25680236507E+03  0.12500000000E+03 0.  0.
         25    1    1    2    0    0 -0.10697967372E+02  0.13235469225E+03 -0.38799032283E+03  0.42871167662E+03  0.12500000000E+03 0.  0.
</event>
<event>
 5    0  0.5452999E-005  0.3082921E+03  0.7546771E-02  0.1081167E+00
         21   -1    0    0  502  501  0.00000000000E+00  0.00000000000E+00  0.41784548466E+03  0.41784548466E+03  0.00000000000E+00 0. -1.
         21   -1    0    0  501  502 -0.00000000000E+00 -0.00000000000E+00 -0.22746206179E+03  0.22746206179E+03  0.00000000000E+00 0. -1.
         25    1    1    2    0    0 -0.82392134606E+02  0.60326756704E+02  0.49674642923E+02  0.16887969555E+03  0.12500000000E+03 0.  0.
         25    1    1    2    0    0  0.15793389927E+02 -0.12601110308E+03 -0.88608244423E+02  0.19900917126E+03  0.12500000000E+03 0.  0.
         25    1    1    2    0    0  0.66598744679E+02  0.65684346380E+02  0.22931702436E+03  0.27741867964E+03  0.12500000000E+03 0.  0.
</event>
<event>
 5    0  0.5452999E-005  0.2871579E+03  0.7546771E-02  0.1091842E+00
         21   -1    0    0  502  501  0.00000000000E+00  0.00000000000E+00  0.31354881427E+03  0.31354881427E+03  0.00000000000E+00 0.  1.
         21   -1    0    0  501  502 -0.00000000000E+00 -0.00000000000E+00 -0.26298825551E+03  0.26298825551E+03  0.00000000000E+00 0.  1.
         25    1    1    2    0    0 -0.17287066970E+03  0.50141661111E+02  0.10053392278E+03  0.24110272552E+03  0.12500000000E+03 0.  0.
         25    1    1    2    0    0  0.22334550647E+02 -0.10762534059E+01  0.24487479383E+01  0.12700782197E+03  0.12500000000E+03 0.  0.
         25    1    1    2    0    0  0.15053611905E+03 -0.49065407705E+02 -0.52422111959E+02  0.20842652229E+03  0.12500000000E+03 0.  0.
</event>
<event>
 5    0  0.5452999E-005  0.2521715E+03  0.7546771E-02  0.1111940E+00
         21   -1    0    0  502  501  0.00000000000E+00  0.00000000000E+00  0.49892752299E+03  0.49892752299E+03  0.00000000000E+00 0.  1.
         21   -1    0    0  501  502 -0.00000000000E+00 -0.00000000000E+00 -0.12745433021E+03  0.12745433021E+03  0.00000000000E+00 0.  1.
         25    1    1    2    0    0  0.26995656037E+02 -0.15013857535E+03  0.14962067301E+03  0.24755141495E+03  0.12500000000E+03 0.  0.
         25    1    1    2    0    0 -0.19835385412E+02  0.84899550786E+02  0.17028768995E+03  0.22852630831E+03  0.12500000000E+03 0.  0.
         25    1    1    2    0    0 -0.71602706250E+01  0.65239024567E+02  0.51564829823E+02  0.15030412994E+03  0.12500000000E+03 0.  0.
</event>
<event>
 5    0  0.5452999E-005  0.2645663E+03  0.7546771E-02  0.1104430E+00
         21   -1    0    0  502  501  0.00000000000E+00  0.00000000000E+00  0.18440344824E+03  0.18440344824E+03  0.00000000000E+00 0.  1.
         21   -1    0    0  501  502 -0.00000000000E+00 -0.00000000000E+00 -0.37957701101E+03  0.37957701101E+03  0.00000000000E+00 0.  1.
         25    1    1    2    0    0  0.75688357508E+02 -0.47686033882E+02 -0.13198775036E+03  0.20260417452E+03  0.12500000000E+03 0.  0.
         25    1    1    2    0    0 -0.15438140207E+03 -0.39677794258E+01 -0.46162966453E+02  0.20397396905E+03  0.12500000000E+03 0.  0.
         25    1    1    2    0    0  0.78693044565E+02  0.51653813308E+02 -0.17022845959E+02  0.15740231567E+03  0.12500000000E+03 0.  0.
</event>
<event>
 5    0  0.5452999E-005  0.2208717E+03  0.7546771E-02  0.1133235E+00
         21   -1    0    0  502  501  0.00000000000E+00  0.00000000000E+00  0.26687358322E+03  0.26687358322E+03  0.00000000000E+00 0. -1.
         21   -1    0    0  501  502 -0.00000000000E+00 -0.00000000000E+00 -0.18279936278E+03  0.18279936278E+03  0.00000000000E+00 0. -1.
         25    1    1    2    0    0  0.12211165551E+02 -0.16356658197E+02  0.76028622689E+02  0.14772272777E+03  0.12500000000E+03 0.  0.
         25    1    1    2    0    0  0.69229430094E+02  0.13002833782E+02  0.40802636038E+02  0.14916984543E+03  0.12500000000E+03 0.  0.
         25    1    1    2    0    0 -0.81440595645E+02  0.33538244151E+01 -0.32757038284E+02  0.15278037280E+03  0.12500000000E+03 0.  0.
</event>
<event>
 5    0  0.5504650E-005  0.3270779E+03  0.7546771E-02  0.1072437E+00
         21   -1    0    0  502  501  0.00000000000E+00  0.00000000000E+00  0.64218411633E+03  0.64218411633E+03  0.00000000000E+00 0. -1.
         21   -1    0    0  501  502 -0.00000000000E+00 -0.00000000000E+00 -0.16658764383E+03  0.16658764383E+03  0.00000000000E+00 0. -1.
         25    1    1    2    0    0  0.19823360822E+02 -0.99686835699E+02  0.30486549482E+03  0.34481647405E+03  0.12500000000E+03 0.  0.
         25    1    1    2    0    0  0.82134863908E+02 -0.33363616145E+02 -0.48750687469E+02  0.16081323416E+03  0.12500000000E+03 0.  0.
         25    1    1    2    0    0 -0.10195822473E+03  0.13305045184E+03  0.21948166514E+03  0.30314205195E+03  0.12500000000E+03 0.  0.
</event>
<event>
 5    0  0.5452999E-005  0.4330139E+03  0.7546771E-02  0.1032912E+00
         21   -1    0    0  502  501  0.00000000000E+00  0.00000000000E+00  0.21154362079E+03  0.21154362079E+03  0.00000000000E+00 0. -1.
         21   -1    0    0  501  502 -0.00000000000E+00 -0.00000000000E+00 -0.88634678194E+03  0.88634678194E+03  0.00000000000E+00 0. -1.
         25    1    1    2    0    0 -0.15552927549E+03  0.71595393027E+02 -0.84337881347E+02  0.22815155942E+03  0.12500000000E+03 0.  0.
         25    1    1    2    0    0  0.27752946756E+03 -0.12324081972E+03 -0.60357559599E+03  0.68712400998E+03  0.12500000000E+03 0.  0.
         25    1    1    2    0    0 -0.12200019207E+03  0.51645426690E+02  0.13110316185E+02  0.18261483333E+03  0.12500000000E+03 0.  0.
</event>
<event>
 5    0  0.5952276E-005  0.7140344E+03  0.7546771E-02  0.9693528E-01
         21   -1    0    0  502  501  0.00000000000E+00  0.00000000000E+00  0.14807924657E+04  0.14807924657E+04  0.00000000000E+00 0.  1.
         21   -1    0    0  501  502 -0.00000000000E+00 -0.00000000000E+00 -0.34430557546E+03  0.34430557546E+03  0.00000000000E+00 0.  1.
         25    1    1    2    0    0  0.44956726421E+03  0.23073571712E+03  0.50961119108E+03  0.72847667243E+03  0.12500000000E+03 0.  0.
         25    1    1    2    0    0 -0.14927551169E+02  0.71860652430E+02 -0.10903201589E+03  0.18138292544E+03  0.12500000000E+03 0.  0.
         25    1    1    2    0    0 -0.43463971304E+03 -0.30259636955E+03  0.73590771503E+03  0.91523844328E+03  0.12500000000E+03 0.  0.
</event>
<event>
 5    0  0.5452999E-005  0.3188330E+03  0.7546771E-02  0.1076188E+00
         21   -1    0    0  502  501  0.00000000000E+00  0.00000000000E+00  0.82149965431E+03  0.82149965431E+03  0.00000000000E+00 0.  1.
         21   -1    0    0  501  502 -0.00000000000E+00 -0.00000000000E+00 -0.12374259749E+03  0.12374259749E+03  0.00000000000E+00 0.  1.
         25    1    1    2    0    0 -0.21258944159E+03  0.35437077384E+02  0.14925800423E+03  0.29043589475E+03  0.12500000000E+03 0.  0.
         25    1    1    2    0    0  0.51402598807E+02  0.37281708315E+02  0.19312132492E+03  0.23864827482E+03  0.12500000000E+03 0.  0.
         25    1    1    2    0    0  0.16118684279E+03 -0.72718785699E+02  0.35537772767E+03  0.41615808223E+03  0.12500000000E+03 0.  0.
</event>
<event>
 5    0  0.5452999E-005  0.1987928E+03  0.7546771E-02  0.1150762E+00
         21   -1    0    0  502  501  0.00000000000E+00  0.00000000000E+00  0.19171391442E+03  0.19171391442E+03  0.00000000000E+00 0.  1.
         21   -1    0    0  501  502 -0.00000000000E+00 -0.00000000000E+00 -0.20613305290E+03  0.20613305290E+03  0.00000000000E+00 0.  1.
         25    1    1    2    0    0 -0.21487643190E+02  0.26718390942E+02  0.16897529547E+02  0.13071387734E+03  0.12500000000E+03 0.  0.
         25    1    1    2    0    0  0.17924359333E+02 -0.43921769437E+02 -0.42801930673E+02  0.14038308216E+03  0.12500000000E+03 0.  0.
         25    1    1    2    0    0  0.35632838572E+01  0.17203378495E+02  0.11485262647E+02  0.12675000782E+03  0.12500000000E+03 0.  0.
</event>
<event>
 5    0  0.5452999E-005  0.2564141E+03  0.7546771E-02  0.1109317E+00
         21   -1    0    0  502  501  0.00000000000E+00  0.00000000000E+00  0.14463364136E+04  0.14463364136E+04  0.00000000000E+00 0.  1.
         21   -1    0    0  501  502 -0.00000000000E+00 -0.00000000000E+00 -0.45458427264E+02  0.45458427264E+02  0.00000000000E+00 0.  1.
         25    1    1    2    0    0  0.49298227880E+02  0.99159463584E+02  0.61368319625E+03  0.63599919800E+03  0.12500000000E+03 0.  0.
         25    1    1    2    0    0  0.73375826217E+02 -0.39766925421E+02  0.37595801978E+03  0.40488869195E+03  0.12500000000E+03 0.  0.
         25    1    1    2    0    0 -0.12267405410E+03 -0.59392538163E+02  0.41123677032E+03  0.45090695093E+03  0.12500000000E+03 0.  0.
</event>
<event>
 5    0  0.5452999E-005  0.2504266E+03  0.7546771E-02  0.1113036E+00
         21   -1    0    0  502  501  0.00000000000E+00  0.00000000000E+00  0.34529789151E+02  0.34529789151E+02  0.00000000000E+00 0.  1.
         21   -1    0    0  501  502 -0.00000000000E+00 -0.00000000000E+00 -0.18162133337E+04  0.18162133337E+04  0.00000000000E+00 0.  1.
         25    1    1    2    0    0  0.68615001110E+02 -0.29807552269E+02 -0.37127485549E+03  0.39883145170E+03  0.12500000000E+03 0.  0.
         25    1    1    2    0    0  0.71871784864E+02  0.36558168682E+02 -0.47432350618E+03  0.49710144002E+03  0.12500000000E+03 0.  0.
         25    1    1    2    0    0 -0.14048678597E+03 -0.67506164126E+01 -0.93608518293E+03  0.95481023117E+03  0.12500000000E+03 0.  0.
</event>
<event>
 5    0  0.5452999E-005  0.3488257E+03  0.7546771E-02  0.1063098E+00
         21   -1    0    0  502  501  0.00000000000E+00  0.00000000000E+00  0.40096561386E+03  0.40096561386E+03  0.00000000000E+00 0. -1.
         21   -1    0    0  501  502 -0.00000000000E+00 -0.00000000000E+00 -0.30346583823E+03  0.30346583823E+03  0.00000000000E+00 0. -1.
         25    1    1    2    0    0 -0.14918848842E+03  0.10870437464E+03  0.30006813625E+02  0.22494278162E+03  0.12500000000E+03 0.  0.
         25    1    1    2    0    0  0.18384550140E+03  0.10229577832E+02  0.16615332958E+03  0.27773322016E+03  0.12500000000E+03 0.  0.
         25    1    1    2    0    0 -0.34657012988E+02 -0.11893395247E+03 -0.98660367575E+02  0.20175545031E+03  0.12500000000E+03 0.  0.
</event>
<event>
 5    0  0.5452999E-005  0.3665838E+03  0.7546771E-02  0.1056007E+00
         21   -1    0    0  502  501  0.00000000000E+00  0.00000000000E+00  0.64815239835E+03  0.64815239835E+03  0.00000000000E+00 0. -1.
         21   -1    0    0  501  502 -0.00000000000E+00 -0.00000000000E+00 -0.20733350400E+03  0.20733350400E+03  0.00000000000E+00 0. -1.
         25    1    1    2    0    0 -0.85163420570E+02 -0.10035214412E+03 -0.80658204251E+02  0.19863057908E+03  0.12500000000E+03 0.  0.
         25    1    1    2    0    0  0.18303687881E+03  0.91071974516E+02  0.33286703834E+03  0.41014883733E+03  0.12500000000E+03 0.  0.
         25    1    1    2    0    0 -0.97873458243E+02  0.92801696011E+01  0.18861006026E+03  0.24670648595E+03  0.12500000000E+03 0.  0.
</event>
<event>
 5    0  0.5452999E-005  0.4008062E+03  0.7546771E-02  0.1043501E+00
         21   -1    0    0  502  501  0.00000000000E+00  0.00000000000E+00  0.12359873462E+04  0.12359873462E+04  0.00000000000E+00 0. -1.
         21   -1    0    0  501  502 -0.00000000000E+00 -0.00000000000E+00 -0.12997350626E+03  0.12997350626E+03  0.00000000000E+00 0. -1.
         25    1    1    2    0    0  0.92278250689E+02  0.31108740250E+03  0.33616101472E+03  0.48365263916E+03  0.12500000000E+03 0.  0.
         25    1    1    2    0    0 -0.11517053866E+03 -0.17509420442E+03  0.46458253156E+03  0.52477058038E+03  0.12500000000E+03 0.  0.
         25    1    1    2    0    0  0.22892287973E+02 -0.13599319808E+03  0.30527029363E+03  0.35753763291E+03  0.12500000000E+03 0.  0.
</event>
<event>
 5    0  0.5452999E-005  0.2462281E+03  0.7546771E-02  0.1115712E+00
         21   -1    0    0  502  501  0.00000000000E+00  0.00000000000E+00  0.30362064303E+03  0.30362064303E+03  0.00000000000E+00 0.  1.
         21   -1    0    0  501  502 -0.00000000000E+00 -0.00000000000E+00 -0.19968434273E+03  0.19968434273E+03  0.00000000000E+00 0.  1.
         25    1    1    2    0    0  0.29536452537E+02  0.32716903876E+02  0.11605112086E+03  0.17616940847E+03  0.12500000000E+03 0.  0.
         25    1    1    2    0    0 -0.40508231961E+02 -0.72485637287E+02 -0.89217465443E+02  0.17458476626E+03  0.12500000000E+03 0.  0.
         25    1    1    2    0    0  0.10971779424E+02  0.39768733411E+02  0.77102644878E+02  0.15255081104E+03  0.12500000000E+03 0.  0.
</event>
<event>
 5    0  0.5452999E-005  0.4082876E+03  0.7546771E-02  0.1040947E+00
         21   -1    0    0  502  501  0.00000000000E+00  0.00000000000E+00  0.23515793170E+03  0.23515793170E+03  0.00000000000E+00 0. -1.
         21   -1    0    0  501  502 -0.00000000000E+00 -0.00000000000E+00 -0.70887990864E+03  0.70887990864E+03  0.00000000000E+00 0. -1.
         25    1    1    2    0    0 -0.12733799866E+03  0.16544640164E+03 -0.19291557537E+03  0.31053002583E+03  0.12500000000E+03 0.  0.
         25    1    1    2    0    0 -0.53917237404E+02 -0.28112066501E+03 -0.20455095592E+03  0.37336575948E+03  0.12500000000E+03 0.  0.
         25    1    1    2    0    0  0.18125523606E+03  0.11567426336E+03 -0.76255445646E+02  0.26014205503E+03  0.12500000000E+03 0.  0.
</event>
<event>
 5    0  0.5452999E-005  0.2636261E+03  0.7546771E-02  0.1104984E+00
         21   -1    0    0  502  501  0.00000000000E+00  0.00000000000E+00  0.16152103969E+03  0.16152103969E+03  0.00000000000E+00 0.  1.
         21   -1    0    0  501  502 -0.00000000000E+00 -0.00000000000E+00 -0.43027660863E+03  0.43027660863E+03  0.00000000000E+00 0.  1.
         25    1    1    2    0    0 -0.87992993720E+02 -0.14834545967E+02 -0.10445702175E+03  0.18573933372E+03  0.12500000000E+03 0.  0.
         25    1    1    2    0    0  0.25310995213E+02 -0.11289838558E+01 -0.22032076283E+03  0.25457446772E+03  0.12500000000E+03 0.  0.
         25    1    1    2    0    0  0.62681998507E+02  0.15963529823E+02  0.56022215631E+02  0.15148384688E+03  0.12500000000E+03 0.  0.
</event>
<event>
 5    0  0.5452999E-005  0.4793523E+03  0.7546771E-02  0.1019313E+00
         21   -1    0    0  502  501  0.00000000000E+00  0.00000000000E+00  0.40811220598E+03  0.40811220598E+03  0.00000000000E+00 0. -1.
         21   -1    0    0  501  502 -0.00000000000E+00 -0.00000000000E+00 -0.56302816632E+03  0.56302816632E+03  0.00000000000E+00 0. -1.
         25    1    1    2    0    0  0.16163938677E+01 -0.12172461244E+03 -0.16989842180E+03  0.24353637866E+03  0.12500000000E+03 0.  0.
         25    1    1    2    0    0  0.16984310126E+03 -0.21657261492E+03 -0.88699926215E+02  0.31502865503E+03  0.12500000000E+03 0.  0.
         25    1    1    2    0    0 -0.17145949513E+03  0.33829722736E+03  0.10368238768E+03  0.41257533861E+03  0.12500000000E+03 0.  0.
</event>
<event>
 5    0  0.5452999E-005  0.2342925E+03  0.7546771E-02  0.1123654E+00
         21   -1    0    0  502  501  0.00000000000E+00  0.00000000000E+00  0.34412511906E+03  0.34412511906E+03  0.00000000000E+00 0.  1.
         21   -1    0    0  501  502 -0.00000000000E+00 -0.00000000000E+00 -0.15951458459E+03  0.15951458459E+03  0.00000000000E+00 0.  1.
         25    1    1    2    0    0 -0.49689334370E+02 -0.28224301303E+01  0.50884897204E+02  0.14384459957E+03  0.12500000000E+03 0.  0.
         25    1    1    2    0    0 -0.61156410069E+02 -0.59731654681E+02  0.33223464519E+02  0.15503798134E+03  0.12500000000E+03 0.  0.
         25    1    1    2    0    0  0.11084574444E+03  0.62554084811E+02  0.10050217275E+03  0.20475712274E+03  0.12500000000E+03 0.  0.
</event>
<event>
 5    0  0.5452999E-005  0.2557393E+03  0.7546771E-02  0.1109731E+00
         21   -1    0    0  502  501  0.00000000000E+00  0.00000000000E+00  0.40279592536E+03  0.40279592536E+03  0.00000000000E+00 0. -1.
         21   -1    0    0  501  502 -0.00000000000E+00 -0.00000000000E+00 -0.16237146465E+03  0.16237146465E+03  0.00000000000E+00 0. -1.
         25    1    1    2    0    0 -0.55867406991E+02  0.73470547222E+02  0.81362009949E+01  0.15559654957E+03  0.12500000000E+03 0.  0.
         25    1    1    2    0    0 -0.57885036137E+02 -0.16289560795E+02  0.17259737352E+03  0.22142917727E+03  0.12500000000E+03 0.  0.
         25    1    1    2    0    0  0.11375244313E+03 -0.57180986427E+02  0.59690886197E+02  0.18814166317E+03  0.12500000000E+03 0.  0.
</event>
<event>
 5    0  0.5452999E-005  0.3011411E+03  0.7546771E-02  0.1084672E+00
         21   -1    0    0  502  501  0.00000000000E+00  0.00000000000E+00  0.19283889044E+04  0.19283889044E+04  0.00000000000E+00 0.  1.
         21   -1    0    0  501  502 -0.00000000000E+00 -0.00000000000E+00 -0.47026797074E+02  0.47026797074E+02  0.00000000000E+00 0.  1.
         25    1    1    2    0    0  0.28417300586E+02  0.19510895166E+02  0.14914006204E+04  0.14970267294E+04  0.12500000000E+03 0.  0.
         25    1    1    2    0    0 -0.14633243898E+02 -0.13428364439E+02  0.29399015041E+03  0.32007758643E+03  0.12500000000E+03 0.  0.
         25    1    1    2    0    0 -0.13784056688E+02 -0.60825307275E+01  0.95971336577E+02  0.15831138570E+03  0.12500000000E+03 0.  0.
</event>
<event>
 5    0  0.5452999E-005  0.2899495E+03  0.7546771E-02  0.1090376E+00
         21   -1    0    0  502  501  0.00000000000E+00  0.00000000000E+00  0.22440463394E+03  0.22440463394E+03  0.00000000000E+00 0. -1.
         21   -1    0    0  501  502 -0.00000000000E+00 -0.00000000000E+00 -0.37463894812E+03  0.37463894812E+03  0.00000000000E+00 0. -1.
         25    1    1    2    0    0  0.46813781061E+01  0.13179431904E+02 -0.17845530528E+03  0.21832752623E+03  0.12500000000E+03 0.  0.
         25    1    1    2    0    0  0.22224683016E+02  0.90231481642E+02  0.11609394276E+03  0.19426389361E+03  0.12500000000E+03 0.  0.
         25    1    1    2    0    0 -0.26906061123E+02 -0.10341091355E+03 -0.87872951660E+02  0.18645216223E+03  0.12500000000E+03 0.  0.
</event>
<event>
 5    0  0.5452999E-005  0.2727155E+03  0.7546771E-02  0.1099735E+00
         21   -1    0    0  502  501  0.00000000000E+00  0.00000000000E+00  0.11350780367E+03  0.11350780367E+03  0.00000000000E+00 0.  1.
         21   -1    0    0  501  502 -0.00000000000E+00 -0.00000000000E+00 -0.65523044183E+03  0.65523044183E+03  0.00000000000E+00 0.  1.
         25    1    1    2    0    0 -0.81008191893E+02  0.24937743161E+02 -0.35667200381E+03  0.38732949344E+03  0.12500000000E+03 0.  0.
         25    1    1    2    0    0  0.46995943757E+02 -0.78652445115E+02 -0.18477737929E+03  0.24116903978E+03  0.12500000000E+03 0.  0.
         25    1    1    2    0    0  0.34012248136E+02  0.53714701955E+02 -0.27325506113E+00  0.14023971227E+03  0.12500000000E+03 0.  0.
</event>
<event>
 5    0  0.5452999E-005  0.3482148E+03  0.7546771E-02  0.1063350E+00
         21   -1    0    0  502  501  0.00000000000E+00  0.00000000000E+00  0.22466603429E+03  0.22466603429E+03  0.00000000000E+00 0.  1.
         21   -1    0    0  501  502 -0.00000000000E+00 -0.00000000000E+00 -0.53970560209E+03  0.53970560209E+03  0.00000000000E+00 0.  1.
         25    1    1    2    0    0 -0.19133719304E+02  0.63882666143E+02 -0.25266910894E+03  0.28967874078E+03  0.12500000000E+03 0.  0.
         25    1    1    2    0    0  0.98041264426E+02 -0.18331202025E+03 -0.12720274340E+03  0.27389947833E+03  0.12500000000E+03 0.  0.
         25    1    1    2    0    0 -0.78907545122E+02  0.11942935411E+03  0.64832284534E+02  0.20079341727E+03  0.12500000000E+03 0.  0.
</event>
<event>
 5    0  0.5452999E-005  0.4960179E+03  0.7546771E-02  0.1014824E+00
         21   -1    0    0  502  501  0.00000000000E+00  0.00000000000E+00  0.50640560099E+03  0.50640560099E+03  0.00000000000E+00 0.  1.
         21   -1    0    0  501  502 -0.00000000000E+00 -0.00000000000E+00 -0.48584328157E+03  0.48584328157E+03  0.00000000000E+00 0.  1.
         25    1    1    2    0    0  0.81203138731E+02 -0.18330925394E+03 -0.39010749562E+03  0.45607575079E+03  0.12500000000E+03 0.  0.
         25    1    1    2    0    0 -0.38445204177E+02  0.14587922819E+03  0.17143730581E+03  0.26033542357E+03  0.12500000000E+03 0.  0.
         25    1    1    2    0    0 -0.42757934554E+02  0.37430025747E+02  0.23923250923E+03  0.27583770820E+03  0.12500000000E+03 0.  0.
</event>
<event>
 5    0  0.5452999E-005  0.2206049E+03  0.7546771E-02  0.1133433E+00
         21   -1    0    0  502  501  0.00000000000E+00  0.00000000000E+00  0.87640271994E+02  0.87640271994E+02  0.00000000000E+00 0.  1.
         21   -1    0    0  501  502 -0.00000000000E+00 -0.00000000000E+00 -0.55529865094E+03  0.55529865094E+03  0.00000000000E+00 0.  1.
         25    1    1    2    0    0 -0.24191328664E+02 -0.23871953697E+02 -0.14352107773E+03  0.19333491746E+03  0.12500000000E+03 0.  0.
         25    1    1    2    0    0 -0.67103146365E+01  0.79151013910E+02 -0.80562034645E+02  0.16859760601E+03  0.12500000000E+03 0.  0.
         25    1    1    2    0    0  0.30901643301E+02 -0.55279060213E+02 -0.24357526657E+03  0.28100639947E+03  0.12500000000E+03 0.  0.
</event>
<event>
 5    0  0.5452999E-005  0.2310417E+03  0.7546771E-02  0.1125909E+00
         21   -1    0    0  502  501  0.00000000000E+00  0.00000000000E+00  0.77359951734E+02  0.77359951734E+02  0.00000000000E+00 0.  1.
         21   -1    0    0  501  502 -0.00000000000E+00 -0.00000000000E+00 -0.69002479121E+03  0.69002479121E+03  0.00000000000E+00 0.  1.
         25    1    1    2    0    0 -0.21920709217E+02  0.60739133381E+02 -0.10045088836E+03  0.17287319280E+03  0.12500000000E+03 0.  0.
         25    1    1    2    0    0  0.86563827502E+02 -0.24116082094E+02 -0.30096211748E+03  0.33805040720E+03  0.12500000000E+03 0.  0.
         25    1    1    2    0    0 -0.64643118285E+02 -0.36623051288E+02 -0.21125183363E+03  0.25646114294E+03  0.12500000000E+03 0.  0.
</event>
<event>
 5    0  0.5452999E-005  0.2981652E+03  0.7546771E-02  0.1086161E+00
         21   -1    0    0  502  501  0.00000000000E+00  0.00000000000E+00  0.47258512989E+03  0.47258512989E+03  0.00000000000E+00 0.  1.
         21   -1    0    0  501  502 -0.00000000000E+00 -0.00000000000E+00 -0.18811950222E+03  0.18811950222E+03  0.00000000000E+00 0.  1.
         25    1    1    2    0    0 -0.81369520735E+02  0.25199236385E+02  0.41778128956E+02  0.15692804873E+03  0.12500000000E+03 0.  0.
         25    1    1    2    0    0 -0.53891484119E+01  0.39022438050E+02 -0.71155441763E+02  0.14913044788E+03  0.12500000000E+03 0.  0.
         25    1    1    2    0    0  0.86758669147E+02 -0.64221674435E+02  0.31384294048E+03  0.35464613551E+03  0.12500000000E+03 0.  0.
</event>
<event>
 5    0  0.5452999E-005  0.2792974E+03  0.7546771E-02  0.1096073E+00
         21   -1    0    0  502  501  0.00000000000E+00  0.00000000000E+00  0.20026014590E+04  0.20026014590E+04  0.00000000000E+00 0.  1.
         21   -1    0    0  501  502 -0.00000000000E+00 -0.00000000000E+00 -0.38952852546E+02  0.38952852546E+02  0.00000000000E+00 0.  1.
         25    1    1    2    0    0 -0.24627836700E+02  0.13475102242E+02  0.57110391731E+03  0.58529718356E+03  0.12500000000E+03 0.  0.
         25    1    1    2    0    0  0.89631566364E+02  0.30130941868E+02  0.12166837842E+04  0.12267380006E+04  0.12500000000E+03 0.  0.
         25    1    1    2    0    0 -0.65003729664E+02 -0.43606044110E+02  0.17586090495E+03  0.22951912740E+03  0.12500000000E+03 0.  0.
</event>
<event>
 5    0  0.5452999E-005  0.4720976E+03  0.7546771E-02  0.1021330E+00
         21   -1    0    0  502  501  0.00000000000E+00  0.00000000000E+00  0.70140353385E+03  0.70140353385E+03  0.00000000000E+00 0.  1.
         21   -1    0    0  501  502 -0.00000000000E+00 -0.00000000000E+00 -0.31775740524E+03  0.31775740524E+03  0.00000000000E+00 0.  1.
         25    1    1    2    0    0 -0.15040580385E+01 -0.14204945609E+03 -0.29467093967E+02  0.19150357645E+03  0.12500000000E+03 0.  0.
         25    1    1    2    0    0 -0.11393083824E+03 -0.15177231396E+03 -0.69446264414E+02  0.23761913818E+03  0.12500000000E+03 0.  0.
         25    1    1    2    0    0  0.11543489628E+03  0.29382177006E+03  0.48255948699E+03  0.59003822446E+03  0.12500000000E+03 0.  0.
</event>
<event>
 5    0  0.5452999E-005  0.4934947E+03  0.7546771E-02  0.1015491E+00
         21   -1    0    0  502  501  0.00000000000E+00  0.00000000000E+00  0.14896368919E+04  0.14896368919E+04  0.00000000000E+00 0.  1.
         21   -1    0    0  501  502 -0.00000000000E+00 -0.00000000000E+00 -0.16348747978E+03  0.16348747978E+03  0.00000000000E+00 0.  1.
         25    1    1    2    0    0  0.21649618917E+03  0.11479507028E+03  0.10208536866E+04  0.10572680632E+04  0.12500000000E+03 0.  0.
         25    1    1    2    0    0 -0.60097167514E+02  0.12806793866E+03  0.64272076312E+02  0.19942157920E+03  0.12500000000E+03 0.  0.
         25    1    1    2    0    0 -0.15639902166E+03 -0.24286300894E+03  0.24102364923E+03  0.39643472928E+03  0.12500000000E+03 0.  0.
</event>
<event>
 5    0  0.5452999E-005  0.4074175E+03  0.7546771E-02  0.1041241E+00
         21   -1    0    0  502  501  0.00000000000E+00  0.00000000000E+00  0.12318875543E+03  0.12318875543E+03  0.00000000000E+00 0.  1.
         21   -1    0    0  501  502 -0.00000000000E+00 -0.00000000000E+00 -0.13474362661E+04  0.13474362661E+04  0.00000000000E+00 0.  1.
         25    1    1    2    0    0 -0.10446779658E+03  0.31452446536E+03 -0.42371207881E+03  0.55226450688E+03  0.12500000000E+03 0.  0.
         25    1    1    2    0    0  0.91757094341E+02 -0.20912827844E+03 -0.63044978565E+03  0.68208938816E+03  0.12500000000E+03 0.  0.
         25    1    1    2    0    0  0.12710702244E+02 -0.10539618692E+03 -0.17008564620E+03  0.23627112649E+03  0.12500000000E+03 0.  0.
</event>
<event>
 5    0  0.5452999E-005  0.2169476E+03  0.7546771E-02  0.1136179E+00
         21   -1    0    0  502  501  0.00000000000E+00  0.00000000000E+00  0.19644451970E+03  0.19644451970E+03  0.00000000000E+00 0.  1.
         21   -1    0    0  501  502 -0.00000000000E+00 -0.00000000000E+00 -0.23959070540E+03  0.23959070540E+03  0.00000000000E+00 0.  1.
         25    1    1    2    0    0 -0.75820763026E+02 -0.40395233007E+01 -0.12453434681E+02  0.14678281197E+03  0.12500000000E+03 0.  0.
         25    1    1    2    0    0 -0.54897739100E+00  0.30304010781E+02  0.23732787735E+02  0.13079327070E+03  0.12500000000E+03 0.  0.
         25    1    1    2    0    0  0.76369740417E+02 -0.26264487480E+02 -0.54425538754E+02  0.15845914244E+03  0.12500000000E+03 0.  0.
</event>
<event>
 5    0  0.5452999E-005  0.3980341E+03  0.7546771E-02  0.1044463E+00
         21   -1    0    0  502  501  0.00000000000E+00  0.00000000000E+00  0.18255339617E+03  0.18255339617E+03  0.00000000000E+00 0. -1.
         21   -1    0    0  501  502 -0.00000000000E+00 -0.00000000000E+00 -0.86786198758E+03  0.86786198758E+03  0.00000000000E+00 0. -1.
         25    1    1    2    0    0  0.23184122122E+02 -0.29858034796E+03 -0.11203249951E+03  0.34331328062E+03  0.12500000000E+03 0.  0.
         25    1    1    2    0    0 -0.11828801542E+02  0.24834546246E+03 -0.36986194063E+03  0.46285877371E+03  0.12500000000E+03 0.  0.
         25    1    1    2    0    0 -0.11355320580E+02  0.50234885495E+02 -0.20341415127E+03  0.24424332942E+03  0.12500000000E+03 0.  0.
</event>
<event>
 5    0  0.5452999E-005  0.3565753E+03  0.7546771E-02  0.1059948E+00
         21   -1    0    0  502  501  0.00000000000E+00  0.00000000000E+00  0.24931076017E+03  0.24931076017E+03  0.00000000000E+00 0.  1.
         21   -1    0    0  501  502 -0.00000000000E+00 -0.00000000000E+00 -0.50998976769E+03  0.50998976769E+03  0.00000000000E+00 0.  1.
         25    1    1    2    0    0 -0.21933948664E+02  0.41735493647E+02 -0.31957835720E+02  0.13736539884E+03  0.12500000000E+03 0.  0.
         25    1    1    2    0    0  0.20980390091E+03 -0.15539530802E+03 -0.13080416871E+02  0.28976106691E+03  0.12500000000E+03 0.  0.
         25    1    1    2    0    0 -0.18786995224E+03  0.11365981438E+03 -0.21564075493E+03  0.33217406212E+03  0.12500000000E+03 0.  0.
</event>
<event>
 5    0  0.6402911E-005  0.4812678E+03  0.7546771E-02  0.1018787E+00
         21   -1    0    0  502  501  0.00000000000E+00  0.00000000000E+00  0.28978327933E+03  0.28978327933E+03  0.00000000000E+00 0. -1.
         21   -1    0    0  501  502 -0.00000000000E+00 -0.00000000000E+00 -0.79928257596E+03  0.79928257596E+03  0.00000000000E+00 0. -1.
         25    1    1    2    0    0 -0.31040605080E+03  0.87384149323E+02 -0.33503134368E+03  0.48151729686E+03  0.12500000000E+03 0.  0.
         25    1    1    2    0    0  0.15178856367E+03 -0.17395127163E+03 -0.26212103638E+03  0.37098686052E+03  0.12500000000E+03 0.  0.
         25    1    1    2    0    0  0.15861748713E+03  0.86567122310E+02  0.87653083426E+02  0.23656169792E+03  0.12500000000E+03 0.  0.
</event>
<event>
 5    0  0.5452999E-005  0.3934363E+03  0.7546771E-02  0.1046076E+00
         21   -1    0    0  502  501  0.00000000000E+00  0.00000000000E+00  0.72111057886E+03  0.72111057886E+03  0.00000000000E+00 0.  1.
         21   -1    0    0  501  502 -0.00000000000E+00 -0.00000000000E+00 -0.21465790275E+03  0.21465790275E+03  0.00000000000E+00 0.  1.
         25    1    1    2    0    0 -0.40558063079E+02 -0.33122980187E+02  0.81141548394E+02  0.15795897940E+03  0.12500000000E+03 0.  0.
         25    1    1    2    0    0 -0.10837635147E+02  0.31462489091E+03  0.23189228909E+03  0.41049398297E+03  0.12500000000E+03 0.  0.
         25    1    1    2    0    0  0.51395698226E+02 -0.28150191072E+03  0.19341883863E+03  0.36731551924E+03  0.12500000000E+03 0.  0.
</event>
<event>
 5    0  0.5452999E-005  0.2402466E+03  0.7546771E-02  0.1119629E+00
         21   -1    0    0  502  501  0.00000000000E+00  0.00000000000E+00  0.12767386839E+04  0.12767386839E+04  0.00000000000E+00 0. -1.
         21   -1    0    0  501  502 -0.00000000000E+00 -0.00000000000E+00 -0.45207696307E+02  0.45207696307E+02  0.00000000000E+00 0. -1.
         25    1    1    2    0    0  0.10195150062E+02  0.29492201681E+02  0.69156179610E+03  0.70346033923E+03  0.12500000000E+03 0.  0.
         25    1    1    2    0    0  0.53884141402E+02 -0.53807786092E+02  0.18457749552E+03  0.23556873814E+03  0.12500000000E+03 0.  0.
         25    1    1    2    0    0 -0.64079291464E+02  0.24315584411E+02  0.35539169595E+03  0.38291730281E+03  0.12500000000E+03 0.  0.
</event>
<event>
 5    0  0.5452999E-005  0.2931430E+03  0.7546771E-02  0.1088719E+00
         21   -1    0    0  502  501  0.00000000000E+00  0.00000000000E+00  0.31266422897E+03  0.31266422897E+03  0.00000000000E+00 0. -1.
         21   -1    0    0  501  502 -0.00000000000E+00 -0.00000000000E+00 -0.27484054666E+03  0.27484054666E+03  0.00000000000E+00 0. -1.
         25    1    1    2    0    0  0.57291373638E+02  0.90226426160E+02  0.14597213524E+03  0.21989991755E+03  0.12500000000E+03 0.  0.
         25    1    1    2    0    0 -0.12329547484E+03 -0.98806697410E+02 -0.24047216293E+02  0.20289851202E+03  0.12500000000E+03 0.  0.
         25    1    1    2    0    0  0.66004101203E+02  0.85802712499E+01 -0.84101236640E+02  0.16470634607E+03  0.12500000000E+03 0.  0.
</event>
<event>
 5    0  0.5452999E-005  0.4227268E+03  0.7546771E-02  0.1036182E+00
         21   -1    0    0  502  501  0.00000000000E+00  0.00000000000E+00  0.95319940182E+03  0.95319940182E+03  0.00000000000E+00 0. -1.
         21   -1    0    0  501  502 -0.00000000000E+00 -0.00000000000E+00 -0.18747173956E+03  0.18747173956E+03  0.00000000000E+00 0. -1.
         25    1    1    2    0    0  0.70646980015E+01 -0.16900820269E+02 -0.10707550074E+03  0.16560709690E+03  0.12500000000E+03 0.  0.
         25    1    1    2    0    0 -0.21478785910E+01  0.15402464263E+03  0.21929848775E+03  0.29571105940E+03  0.12500000000E+03 0.  0.
         25    1    1    2    0    0 -0.49168194105E+01 -0.13712382236E+03  0.65350467526E+03  0.67935298509E+03  0.12500000000E+03 0.  0.
</event>
<event>
 5    0  0.5452999E-005  0.4480783E+03  0.7546771E-02  0.1028297E+00
         21   -1    0    0  502  501  0.00000000000E+00  0.00000000000E+00  0.62352920029E+03  0.62352920029E+03  0.00000000000E+00 0. -1.
         21   -1    0    0  501  502 -0.00000000000E+00 -0.00000000000E+00 -0.32199645062E+03  0.32199645062E+03  0.00000000000E+00 0. -1.
         25    1    1    2    0    0  0.12289686248E+03 -0.27324322963E+03 -0.64779139803E+02  0.33103902837E+03  0.12500000000E+03 0.  0.
         25    1    1    2    0    0  0.44734335187E+02  0.23336331834E+03  0.13636267237E+03  0.30113016705E+03  0.12500000000E+03 0.  0.
         25    1    1    2    0    0 -0.16763119767E+03  0.39879911297E+02  0.22994921710E+03  0.31335645550E+03  0.12500000000E+03 0.  0.
</event>
<event>
 5    0  0.5452999E-005  0.3230685E+03  0.7546771E-02  0.1074246E+00
         21   -1    0    0  502  501  0.00000000000E+00  0.00000000000E+00  0.19398571956E+04  0.19398571956E+04  0.00000000000E+00 0.  1.
         21   -1    0    0  501  502 -0.00000000000E+00 -0.00000000000E+00 -0.53804605312E+02  0.53804605312E+02  0.00000000000E+00 0. -1.
         25    1    1    2    0    0  0.12192574093E+03  0.95803405567E+02  0.38134609961E+03  0.43022555306E+03  0.12500000000E+03 0.  0.
         25    1    1    2    0    0 -0.16781588263E+03 -0.15806698573E+03  0.11491245172E+04  0.11786685278E+04  0.12500000000E+03 0.  0.
         25    1    1    2    0    0  0.45890141702E+02  0.62263580162E+02  0.35558197354E+03  0.38476772009E+03  0.12500000000E+03 0.  0.
</event>
<event>
 5    0  0.5452999E-005  0.4066505E+03  0.7546771E-02  0.1041501E+00
         21   -1    0    0  502  501  0.00000000000E+00  0.00000000000E+00  0.22716060225E+04  0.22716060225E+04  0.00000000000E+00 0. -1.
         21   -1    0    0  501  502 -0.00000000000E+00 -0.00000000000E+00 -0.72796344927E+02  0.72796344927E+02  0.00000000000E+00 0. -1.
         25    1    1    2    0    0 -0.20365072786E+03 -0.11330828691E+03  0.67274668312E+03  0.72285924390E+03  0.12500000000E+03 0.  0.
         25    1    1    2    0    0  0.26358953928E+03 -0.58720069593E+02  0.11245827658E+04  0.11632879647E+04  0.12500000000E+03 0.  0.
         25    1    1    2    0    0 -0.59938811420E+02  0.17202835651E+03  0.40148022872E+03  0.45825515885E+03  0.12500000000E+03 0.  0.
</event>
<event>
 5    0  0.5452999E-005  0.3314542E+03  0.7546771E-02  0.1070495E+00
         21   -1    0    0  502  501  0.00000000000E+00  0.00000000000E+00  0.19556031875E+03  0.19556031875E+03  0.00000000000E+00 0. -1.
         21   -1    0    0  501  502 -0.00000000000E+00 -0.00000000000E+00 -0.56177989374E+03  0.56177989374E+03  0.00000000000E+00 0. -1.
         25    1    1    2    0    0  0.34296362319E+02  0.21375550628E+03 -0.40943862242E+01  0.25001884115E+03  0.12500000000E+03 0.  0.
         25    1    1    2    0    0 -0.66839096685E+02 -0.10185669959E+03 -0.12353617705E+03  0.21384208926E+03  0.12500000000E+03 0.  0.
         25    1    1    2    0    0  0.32542734366E+02 -0.11189880669E+03 -0.23858901172E+03  0.29347928208E+03  0.12500000000E+03 0.  0.
</event>
<event>
 5    0  0.5452999E-005  0.2925024E+03  0.7546771E-02  0.1089050E+00
         21   -1    0    0  502  501  0.00000000000E+00  0.00000000000E+00  0.10736933115E+04  0.10736933115E+04  0.00000000000E+00 0.  1.
         21   -1    0    0  501  502 -0.00000000000E+00 -0.00000000000E+00 -0.79685374603E+02  0.79685374603E+02  0.00000000000E+00 0.  1.
         25    1    1    2    0    0  0.57561407044E+02  0.43299195475E+01  0.62280269967E+02  0.15111550487E+03  0.12500000000E+03 0.  0.
         25    1    1    2    0    0  0.70389275659E+02 -0.91086045941E+02  0.45820184366E+03  0.48869750094E+03  0.12500000000E+03 0.  0.
         25    1    1    2    0    0 -0.12795068270E+03  0.86756126393E+02  0.47352582326E+03  0.51356568029E+03  0.12500000000E+03 0.  0.
</event>
<event>
 5    0  0.5452999E-005  0.3217341E+03  0.7546771E-02  0.1074854E+00
         21   -1    0    0  502  501  0.00000000000E+00  0.00000000000E+00  0.71960181275E+03  0.71960181275E+03  0.00000000000E+00 0.  1.
         21   -1    0    0  501  502 -0.00000000000E+00 -0.00000000000E+00 -0.14384738716E+03  0.14384738716E+03  0.00000000000E+00 0.  1.
         25    1    1    2    0    0  0.19318164514E+03 -0.71094484132E+02  0.11935539001E+03  0.26878296601E+03  0.12500000000E+03 0.  0.
         25    1    1    2    0    0 -0.17293565435E+03  0.86581421611E+02  0.18720115789E+03  0.29676987150E+03  0.12500000000E+03 0.  0.
         25    1    1    2    0    0 -0.20245990789E+02 -0.15486937480E+02  0.26919787769E+03  0.29789636240E+03  0.12500000000E+03 0.  0.
</event>
<event>
 5    0  0.5452999E-005  0.2600261E+03  0.7546771E-02  0.1107128E+00
         21   -1    0    0  502  501  0.00000000000E+00  0.00000000000E+00  0.10996934477E+03  0.10996934477E+03  0.00000000000E+00 0.  1.
         21   -1    0    0  501  502 -0.00000000000E+00 -0.00000000000E+00 -0.61484002233E+03  0.61484002233E+03  0.00000000000E+00 0.  1.
         25    1    1    2    0    0  0.96552188753E+01 -0.69807369350E+02 -0.25753278835E+03  0.29481253220E+03  0.12500000000E+03 0.  0.
         25    1    1    2    0    0 -0.23313684390E+02 -0.53358713914E+02 -0.15286342701E+02  0.13874203582E+03  0.12500000000E+03 0.  0.
         25    1    1    2    0    0  0.13658465515E+02  0.12316608326E+03 -0.23205154650E+03  0.29125479907E+03  0.12500000000E+03 0.  0.
</event>
<event>
 5    0  0.5452999E-005  0.4281571E+03  0.7546771E-02  0.1034444E+00
         21   -1    0    0  502  501  0.00000000000E+00  0.00000000000E+00  0.59425243060E+03  0.59425243060E+03  0.00000000000E+00 0.  1.
         21   -1    0    0  501  502 -0.00000000000E+00 -0.00000000000E+00 -0.30848595530E+03  0.30848595530E+03  0.00000000000E+00 0.  1.
         25    1    1    2    0    0 -0.72980211429E+02  0.36060851287E+02 -0.13819813658E+03  0.20334753800E+03  0.12500000000E+03 0.  0.
         25    1    1    2    0    0 -0.38409347291E+02  0.10987841914E+03  0.44464738884E+03  0.47632430691E+03  0.12500000000E+03 0.  0.
         25    1    1    2    0    0  0.11138955872E+03 -0.14593927043E+03 -0.20682776953E+02  0.22306654098E+03  0.12500000000E+03 0.  0.
</event>
<event>
 5    0  0.5452999E-005  0.2548297E+03  0.7546771E-02  0.1110290E+00
         21   -1    0    0  502  501  0.00000000000E+00  0.00000000000E+00  0.37764293301E+03  0.37764293301E+03  0.00000000000E+00 0. -1.
         21   -1    0    0  501  502 -0.00000000000E+00 -0.00000000000E+00 -0.17195648841E+03  0.17195648841E+03  0.00000000000E+00 0. -1.
         25    1    1    2    0    0  0.73289583767E+02 -0.10047039929E+02 -0.69757084180E+02  0.16113148945E+03  0.12500000000E+03 0.  0.
         25    1    1    2    0    0 -0.58738620171E+02  0.33450748781E+02  0.17700804341E+03  0.22699344820E+03  0.12500000000E+03 0.  0.
         25    1    1    2    0    0 -0.14550963596E+02 -0.23403708852E+02  0.98435485367E+02  0.16147448377E+03  0.12500000000E+03 0.  0.
</event>
<event>
 5    0  0.5452999E-005  0.2942291E+03  0.7546771E-02  0.1088162E+00
         21   -1    0    0  502  501  0.00000000000E+00  0.00000000000E+00  0.48459826424E+03  0.48459826424E+03  0.00000000000E+00 0.  1.
         21   -1    0    0  501  502 -0.00000000000E+00 -0.00000000000E+00 -0.17864444145E+03  0.17864444145E+03  0.00000000000E+00 0.  1.
         25    1    1    2    0    0 -0.12834253889E+03  0.74113413164E+02  0.35385314990E+02  0.19708304295E+03  0.12500000000E+03 0.  0.
         25    1    1    2    0    0 -0.26496398262E+01  0.46601016108E+02  0.19402367325E+03  0.23547581845E+03  0.12500000000E+03 0.  0.
         25    1    1    2    0    0  0.13099217872E+03 -0.12071442927E+03  0.76544834561E+02  0.23068384429E+03  0.12500000000E+03 0.  0.
</event>
<event>
 5    0  0.5452999E-005  0.5996176E+03  0.7546771E-02  0.9906200E-01
         21   -1    0    0  502  501  0.00000000000E+00  0.00000000000E+00  0.51281941205E+03  0.51281941205E+03  0.00000000000E+00 0.  1.
         21   -1    0    0  501  502 -0.00000000000E+00 -0.00000000000E+00 -0.70110698492E+03  0.70110698492E+03  0.00000000000E+00 0.  1.
         25    1    1    2    0    0 -0.29651864433E+03  0.12916998014E+03  0.33651457688E+03  0.48319276760E+03  0.12500000000E+03 0.  0.
         25    1    1    2    0    0  0.18087607567E+03 -0.21125482478E+03 -0.23604029333E+03  0.38559664913E+03  0.12500000000E+03 0.  0.
         25    1    1    2    0    0  0.11564256865E+03  0.82084844642E+02 -0.28876185642E+03  0.34513698024E+03  0.12500000000E+03 0.  0.
</event>
<event>
 5    0  0.5452999E-005  0.3547715E+03  0.7546771E-02  0.1060673E+00
         21   -1    0    0  502  501  0.00000000000E+00  0.00000000000E+00  0.16905160372E+04  0.16905160372E+04  0.00000000000E+00 0. -1.
         21   -1    0    0  501  502 -0.00000000000E+00 -0.00000000000E+00 -0.74452304257E+02  0.74452304257E+02  0.00000000000E+00 0. -1.
         25    1    1    2    0    0 -0.51507997745E+02 -0.15663686347E+03  0.43280606417E+03  0.47972311807E+03  0.12500000000E+03 0.  0.
         25    1    1    2    0    0  0.41981119072E+02  0.13577547161E+03  0.14290402066E+03  0.23715807422E+03  0.12500000000E+03 0.  0.
         25    1    1    2    0    0  0.95268786727E+01  0.20861391854E+02  0.10403536481E+04  0.10480871492E+04  0.12500000000E+03 0.  0.
</event>
<event>
 5    0  0.5452999E-005  0.3338010E+03  0.7546771E-02  0.1069467E+00
         21   -1    0    0  502  501  0.00000000000E+00  0.00000000000E+00  0.27581066523E+03  0.27581066523E+03  0.00000000000E+00 0.  1.
         21   -1    0    0  501  502 -0.00000000000E+00 -0.00000000000E+00 -0.40398412265E+03  0.40398412265E+03  0.00000000000E+00 0.  1.
         25    1    1    2    0    0 -0.44844252734E+02 -0.15463932590E+02 -0.63948439222E+01  0.13385079097E+03  0.12500000000E+03 0.  0.
         25    1    1    2    0    0  0.20834500906E+03  0.10269630757E+03  0.44293291130E+02  0.26747162472E+03  0.12500000000E+03 0.  0.
         25    1    1    2    0    0 -0.16350075633E+03 -0.87232374977E+02 -0.16607190463E+03  0.27847237219E+03  0.12500000000E+03 0.  0.
</event>
<event>
 5    0  0.5452999E-005  0.5747226E+03  0.7546771E-02  0.9959282E-01
         21   -1    0    0  502  501  0.00000000000E+00  0.00000000000E+00  0.69839501054E+03  0.69839501054E+03  0.00000000000E+00 0.  1.
         21   -1    0    0  501  502 -0.00000000000E+00 -0.00000000000E+00 -0.47295026091E+03  0.47295026091E+03  0.00000000000E+00 0.  1.
         25    1    1    2    0    0 -0.36241818924E+03  0.42649654994E+02 -0.97803514031E+02  0.39794027733E+03  0.12500000000E+03 0.  0.
         25    1    1    2    0    0  0.77149822797E+01  0.11385036089E+01 -0.13154641835E+03  0.18163225848E+03  0.12500000000E+03 0.  0.
         25    1    1    2    0    0  0.35470320696E+03 -0.43788158603E+02  0.45479468201E+03  0.59177273564E+03  0.12500000000E+03 0.  0.
</event>
<event>
 5    0  0.5761481E-005  0.3521053E+03  0.7546771E-02  0.1061754E+00
         21   -1    0    0  502  501  0.00000000000E+00  0.00000000000E+00  0.66690715919E+03  0.66690715919E+03  0.00000000000E+00 0.  1.
         21   -1    0    0  501  502 -0.00000000000E+00 -0.00000000000E+00 -0.18590015782E+03  0.18590015782E+03  0.00000000000E+00 0.  1.
         25    1    1    2    0    0 -0.80061991407E+02 -0.23340735324E+03  0.23416486106E+03  0.36241840070E+03  0.12500000000E+03 0.  0.
         25    1    1    2    0    0  0.13742936195E+03  0.81697854210E+02  0.56132534984E+02  0.21056407669E+03  0.12500000000E+03 0.  0.
         25    1    1    2    0    0 -0.57367370539E+02  0.15170949903E+03  0.19070960533E+03  0.27982483961E+03  0.12500000000E+03 0.  0.
</event>
<event>
 5    0  0.5452999E-005  0.2719305E+03  0.7546771E-02  0.1100180E+00
         21   -1    0    0  502  501  0.00000000000E+00  0.00000000000E+00  0.28708024789E+03  0.28708024789E+03  0.00000000000E+00 0. -1.
         21   -1    0    0  501  502 -0.00000000000E+00 -0.00000000000E+00 -0.25758013898E+03  0.25758013898E+03  0.00000000000E+00 0. -1.
         25    1    1    2    0    0 -0.10487726724E+02 -0.84652037671E+01 -0.89587792916E+00  0.12572770054E+03  0.12500000000E+03 0.  0.
         25    1    1    2    0    0  0.10047189334E+03  0.10484715951E+03 -0.78550488874E+02  0.20708140310E+03  0.12500000000E+03 0.  0.
         25    1    1    2    0    0 -0.89984166616E+02 -0.96381955743E+02  0.10894647572E+03  0.21185128323E+03  0.12500000000E+03 0.  0.
</event>
<event>
 5    0  0.5452999E-005  0.3026986E+03  0.7546771E-02  0.1083899E+00
         21   -1    0    0  502  501  0.00000000000E+00  0.00000000000E+00  0.17646337881E+03  0.17646337881E+03  0.00000000000E+00 0.  1.
         21   -1    0    0  501  502 -0.00000000000E+00 -0.00000000000E+00 -0.51923780118E+03  0.51923780118E+03  0.00000000000E+00 0.  1.
         25    1    1    2    0    0 -0.11128830182E+03  0.84302380805E+01 -0.30277652343E+03  0.34605603329E+03  0.12500000000E+03 0.  0.
         25    1    1    2    0    0  0.62600313182E+02  0.10244138343E+03 -0.19696554539E+02  0.17443047472E+03  0.12500000000E+03 0.  0.
         25    1    1    2    0    0  0.48687988640E+02 -0.11087162151E+03 -0.20301344411E+02  0.17521467198E+03  0.12500000000E+03 0.  0.
</event>
<event>
 5    0  0.5452999E-005  0.2102987E+03  0.7546771E-02  0.1141330E+00
         21   -1    0    0  502  501  0.00000000000E+00  0.00000000000E+00  0.30115112969E+03  0.30115112969E+03  0.00000000000E+00 0.  1.
         21   -1    0    0  501  502 -0.00000000000E+00 -0.00000000000E+00 -0.14685498863E+03  0.14685498863E+03  0.00000000000E+00 0.  1.
         25    1    1    2    0    0 -0.35559745816E+02 -0.35261897367E+02  0.97054936640E+02  0.16598963117E+03  0.12500000000E+03 0.  0.
         25    1    1    2    0    0 -0.50050172015E+01 -0.67224529204E+01 -0.15189360984E+02  0.12619809134E+03  0.12500000000E+03 0.  0.
         25    1    1    2    0    0  0.40564763018E+02  0.41984350287E+02  0.72430565404E+02  0.15581839581E+03  0.12500000000E+03 0.  0.
</event>
<event>
 5    0  0.5452999E-005  0.4079950E+03  0.7546771E-02  0.1041046E+00
         21   -1    0    0  502  501  0.00000000000E+00  0.00000000000E+00  0.26426771204E+03  0.26426771204E+03  0.00000000000E+00 0.  1.
         21   -1    0    0  501  502 -0.00000000000E+00 -0.00000000000E+00 -0.62989130870E+03  0.62989130870E+03  0.00000000000E+00 0.  1.
         25    1    1    2    0    0  0.45359452546E+01  0.45838815122E+02  0.16921888972E+03  0.21536435269E+03  0.12500000000E+03 0.  0.
         25    1    1    2    0    0  0.55556385685E+02 -0.17884671854E+03 -0.30739346908E+03  0.38103596360E+03  0.12500000000E+03 0.  0.
         25    1    1    2    0    0 -0.60092330939E+02  0.13300790342E+03 -0.22744901730E+03  0.29775870446E+03  0.12500000000E+03 0.  0.
</event>
<event>
 5    0  0.5452999E-005  0.4113201E+03  0.7546771E-02  0.1039929E+00
         21   -1    0    0  502  501  0.00000000000E+00  0.00000000000E+00  0.65224123160E+03  0.65224123160E+03  0.00000000000E+00 0.  1.
         21   -1    0    0  501  502 -0.00000000000E+00 -0.00000000000E+00 -0.25938901109E+03  0.25938901109E+03  0.00000000000E+00 0.  1.
         25    1    1    2    0    0 -0.24918148840E+03 -0.73079185969E+02  0.26899803845E+03  0.39422953501E+03  0.12500000000E+03 0.  0.
         25    1    1    2    0    0 -0.56100679506E+02  0.94674706981E+02  0.77105700594E+02  0.18352350108E+03  0.12500000000E+03 0.  0.
         25    1    1    2    0    0  0.30528216791E+03 -0.21595521012E+02  0.46748481468E+02  0.33387720660E+03  0.12500000000E+03 0.  0.
</event>
<event>
 5    0  0.5452999E-005  0.2702567E+03  0.7546771E-02  0.1101133E+00
         21   -1    0    0  502  501  0.00000000000E+00  0.00000000000E+00  0.85889627949E+03  0.85889627949E+03  0.00000000000E+00 0.  1.
         21   -1    0    0  501  502 -0.00000000000E+00 -0.00000000000E+00 -0.85037844589E+02  0.85037844589E+02  0.00000000000E+00 0.  1.
         25    1    1    2    0    0  0.44292785011E+02  0.58585776238E+02  0.14724773462E+03  0.20664229802E+03  0.12500000000E+03 0.  0.
         25    1    1    2    0    0  0.78567275163E+02  0.76131826746E+02  0.29963005380E+03  0.34259603166E+03  0.12500000000E+03 0.  0.
         25    1    1    2    0    0 -0.12286006017E+03 -0.13471760298E+03  0.32698064648E+03  0.39469579439E+03  0.12500000000E+03 0.  0.
</event>
<event>
 5    0  0.5452999E-005  0.2174342E+03  0.7546771E-02  0.1135811E+00
         21   -1    0    0  502  501  0.00000000000E+00  0.00000000000E+00  0.38593127570E+03  0.38593127570E+03  0.00000000000E+00 0. -1.
         21   -1    0    0  501  502 -0.00000000000E+00 -0.00000000000E+00 -0.12250273572E+03  0.12250273572E+03  0.00000000000E+00 0. -1.
         25    1    1    2    0    0  0.17149454494E+02  0.42209619543E+01  0.36015013917E+02  0.13127833613E+03  0.12500000000E+03 0.  0.
         25    1    1    2    0    0 -0.81520661526E+02 -0.36897092407E+02  0.91536349486E+02  0.17891594943E+03  0.12500000000E+03 0.  0.
         25    1    1    2    0    0  0.64371207032E+02  0.32676130453E+02  0.13587717658E+03  0.19823972586E+03  0.12500000000E+03 0.  0.
</event>
<event>
 5    0  0.5452999E-005  0.3723262E+03  0.7546771E-02  0.1053807E+00
         21   -1    0    0  502  501  0.00000000000E+00  0.00000000000E+00  0.61524745988E+03  0.61524745988E+03  0.00000000000E+00 0.  1.
         21   -1    0    0  501  502 -0.00000000000E+00 -0.00000000000E+00 -0.22531873855E+03  0.22531873855E+03  0.00000000000E+00 0.  1.
         25    1    1    2    0    0 -0.91518734799E+02  0.11674492006E+03  0.26524745307E+03  0.32861263904E+03  0.12500000000E+03 0.  0.
         25    1    1    2    0    0  0.51216914322E+02  0.14129799125E+03  0.10461635958E+03  0.22171575798E+03  0.12500000000E+03 0.  0.
         25    1    1    2    0    0  0.40301820478E+02 -0.25804291131E+03  0.20064908680E+02  0.29023780141E+03  0.12500000000E+03 0.  0.
</event>
<event>
 5    0  0.5452999E-005  0.4780267E+03  0.7546771E-02  0.1019679E+00
         21   -1    0    0  502  501  0.00000000000E+00  0.00000000000E+00  0.24394727677E+03  0.24394727677E+03  0.00000000000E+00 0.  1.
         21   -1    0    0  501  502 -0.00000000000E+00 -0.00000000000E+00 -0.93671693104E+03  0.93671693104E+03  0.00000000000E+00 0.  1.
         25    1    1    2    0    0  0.11508717581E+03 -0.16095406036E+03 -0.68663723962E+03  0.72542881554E+03  0.12500000000E+03 0.  0.
         25    1    1    2    0    0 -0.26376532891E+02 -0.80818097356E+02  0.57928626681E+02  0.16188888824E+03  0.12500000000E+03 0.  0.
         25    1    1    2    0    0 -0.88710642917E+02  0.24177215771E+03 -0.64061041329E+02  0.29334650403E+03  0.12500000000E+03 0.  0.
</event>
<event>
 5    0  0.5452999E-005  0.2185125E+03  0.7546771E-02  0.1134997E+00
         21   -1    0    0  502  501  0.00000000000E+00  0.00000000000E+00  0.33155931648E+03  0.33155931648E+03  0.00000000000E+00 0. -1.
         21   -1    0    0  501  502 -0.00000000000E+00 -0.00000000000E+00 -0.14400960962E+03  0.14400960962E+03  0.00000000000E+00 0. -1.
         25    1    1    2    0    0  0.37806785700E+02  0.17651416085E+02  0.42386026234E+02  0.13842868472E+03  0.12500000000E+03 0.  0.
         25    1    1    2    0    0 -0.47702127243E+01 -0.81806197023E+02  0.29893801048E+02  0.15242587753E+03  0.12500000000E+03 0.  0.
         25    1    1    2    0    0 -0.33036572975E+02  0.64154780938E+02  0.11526987958E+03  0.18471436384E+03  0.12500000000E+03 0.  0.
</event>
<event>
 5    0  0.5452999E-005  0.3803534E+03  0.7546771E-02  0.1050803E+00
         21   -1    0    0  502  501  0.00000000000E+00  0.00000000000E+00  0.41098580928E+03  0.41098580928E+03  0.00000000000E+00 0. -1.
         21   -1    0    0  501  502 -0.00000000000E+00 -0.00000000000E+00 -0.35200414710E+03  0.35200414710E+03  0.00000000000E+00 0. -1.
         25    1    1    2    0    0  0.36591042394E+02  0.88348651335E+02 -0.12904549159E+03  0.20352426754E+03  0.12500000000E+03 0.  0.
         25    1    1    2    0    0 -0.15901755303E+03  0.78005426094E+02  0.22815814867E+03  0.31472618174E+03  0.12500000000E+03 0.  0.
         25    1    1    2    0    0  0.12242651064E+03 -0.16635407743E+03 -0.40130994899E+02  0.24473950710E+03  0.12500000000E+03 0.  0.
</event>
<event>
 5    0  0.5452999E-005  0.5549096E+03  0.7546771E-02  0.1000364E+00
         21   -1    0    0  502  501  0.00000000000E+00  0.00000000000E+00  0.18341854736E+04  0.18341854736E+04  0.00000000000E+00 0.  1.
         21   -1    0    0  501  502 -0.00000000000E+00 -0.00000000000E+00 -0.16788086156E+03  0.16788086156E+03  0.00000000000E+00 0.  1.
         25    1    1    2    0    0 -0.52641479343E+02 -0.64006796799E+02  0.30998566119E+03  0.34436042968E+03  0.12500000000E+03 0.  0.
         25    1    1    2    0    0  0.12040873379E+03  0.48081879119E+03  0.68191083160E+03  0.85223961149E+03  0.12500000000E+03 0.  0.
         25    1    1    2    0    0 -0.67767254444E+02 -0.41681199439E+03  0.67440811927E+03  0.80546629401E+03  0.12500000000E+03 0.  0.
</event>
<event>
 5    0  0.5452999E-005  0.3395580E+03  0.7546771E-02  0.1066984E+00
         21   -1    0    0  502  501  0.00000000000E+00  0.00000000000E+00  0.92097055125E+02  0.92097055125E+02  0.00000000000E+00 0. -1.
         21   -1    0    0  501  502 -0.00000000000E+00 -0.00000000000E+00 -0.12519362985E+04  0.12519362985E+04  0.00000000000E+00 0. -1.
         25    1    1    2    0    0  0.13707135016E+03  0.17430636437E+03 -0.27615516297E+03  0.37557680670E+03  0.12500000000E+03 0.  0.
         25    1    1    2    0    0 -0.10305394542E+03 -0.20149428357E+03 -0.50558639701E+03  0.56785796360E+03  0.12500000000E+03 0.  0.
         25    1    1    2    0    0 -0.34017404744E+02  0.27187919207E+02 -0.37809768334E+03  0.40059858328E+03  0.12500000000E+03 0.  0.
</event>
<event>
 5    0  0.5452999E-005  0.3010776E+03  0.7546771E-02  0.1084703E+00
         21   -1    0    0  502  501  0.00000000000E+00  0.00000000000E+00  0.81662028945E+03  0.81662028945E+03  0.00000000000E+00 0. -1.
         21   -1    0    0  501  502 -0.00000000000E+00 -0.00000000000E+00 -0.11100350045E+03  0.11100350045E+03  0.00000000000E+00 0. -1.
         25    1    1    2    0    0  0.35363075705E+01 -0.80736414171E+02  0.13024051415E+03  0.19778388602E+03  0.12500000000E+03 0.  0.
         25    1    1    2    0    0 -0.30031457349E+02  0.20472041373E+03  0.45404181483E+03  0.51438439502E+03  0.12500000000E+03 0.  0.
         25    1    1    2    0    0  0.26495149778E+02 -0.12398399956E+03  0.12133446003E+03  0.21545550886E+03  0.12500000000E+03 0.  0.
</event>
<event>
 5    0  0.5452999E-005  0.2591193E+03  0.7546771E-02  0.1107674E+00
         21   -1    0    0  502  501  0.00000000000E+00  0.00000000000E+00  0.39328763825E+03  0.39328763825E+03  0.00000000000E+00 0.  1.
         21   -1    0    0  501  502 -0.00000000000E+00 -0.00000000000E+00 -0.17072194556E+03  0.17072194556E+03  0.00000000000E+00 0.  1.
         25    1    1    2    0    0 -0.79400719953E+01 -0.39413300343E+02  0.18768805051E+03  0.22905950601E+03  0.12500000000E+03 0.  0.
         25    1    1    2    0    0  0.69837044741E+02  0.18566764376E+01  0.10185241234E+03  0.17572584888E+03  0.12500000000E+03 0.  0.
         25    1    1    2    0    0 -0.61896972746E+02  0.37556623906E+02 -0.66974770163E+02  0.15922422891E+03  0.12500000000E+03 0.  0.
</event>
<event>
 5    0  0.5452999E-005  0.3304821E+03  0.7546771E-02  0.1070924E+00
         21   -1    0    0  502  501  0.00000000000E+00  0.00000000000E+00  0.30517838582E+03  0.30517838582E+03  0.00000000000E+00 0. -1.
         21   -1    0    0  501  502 -0.00000000000E+00 -0.00000000000E+00 -0.35788390163E+03  0.35788390163E+03  0.00000000000E+00 0. -1.
         25    1    1    2    0    0  0.17581022462E+02  0.16737276597E+03  0.21082097490E+02  0.21069454187E+03  0.12500000000E+03 0.  0.
         25    1    1    2    0    0 -0.29419158648E+02 -0.67739772055E+02 -0.20084798183E+03  0.24782872194E+03  0.12500000000E+03 0.  0.
         25    1    1    2    0    0  0.11838136186E+02 -0.99632993911E+02  0.12706036853E+03  0.20453902365E+03  0.12500000000E+03 0.  0.
</event>
<event>
 5    0  0.5452999E-005  0.2548285E+03  0.7546771E-02  0.1110291E+00
         21   -1    0    0  502  501  0.00000000000E+00  0.00000000000E+00  0.80941732521E+03  0.80941732521E+03  0.00000000000E+00 0. -1.
         21   -1    0    0  501  502 -0.00000000000E+00 -0.00000000000E+00 -0.80227541691E+02  0.80227541691E+02  0.00000000000E+00 0. -1.
         25    1    1    2    0    0  0.85829350935E+02  0.33452662766E+02  0.16134247204E+03  0.22392443237E+03  0.12500000000E+03 0.  0.
         25    1    1    2    0    0 -0.37446154075E+01  0.60111369388E+02  0.11667181394E+03  0.18128626821E+03  0.12500000000E+03 0.  0.
         25    1    1    2    0    0 -0.82084735528E+02 -0.93564032153E+02  0.45117549754E+03  0.48443416632E+03  0.12500000000E+03 0.  0.
</event>
<event>
 5    0  0.5452999E-005  0.2750513E+03  0.7546771E-02  0.1098423E+00
         21   -1    0    0  502  501  0.00000000000E+00  0.00000000000E+00  0.58303440670E+03  0.58303440670E+03  0.00000000000E+00 0.  1.
         21   -1    0    0  501  502 -0.00000000000E+00 -0.00000000000E+00 -0.12975768631E+03  0.12975768631E+03  0.00000000000E+00 0.  1.
         25    1    1    2    0    0 -0.63160581403E+02  0.92853083393E+02  0.25726775957E+03  0.30728269436E+03  0.12500000000E+03 0.  0.
         25    1    1    2    0    0  0.20511005052E+02  0.59332445453E+02  0.26890251433E+02  0.14243990324E+03  0.12500000000E+03 0.  0.
         25    1    1    2    0    0  0.42649576351E+02 -0.15218552885E+03  0.16911870939E+03  0.26306949542E+03  0.12500000000E+03 0.  0.
</event>
<event>
 5    0  0.5611136E-005  0.3585330E+03  0.7546771E-02  0.1059166E+00
         21   -1    0    0  502  501  0.00000000000E+00  0.00000000000E+00  0.85939391760E+03  0.85939391760E+03  0.00000000000E+00 0. -1.
         21   -1    0    0  501  502 -0.00000000000E+00 -0.00000000000E+00 -0.14957738173E+03  0.14957738173E+03  0.00000000000E+00 0. -1.
         25    1    1    2    0    0 -0.12624177089E+03 -0.10349947247E+01  0.54484222629E+03  0.57307600498E+03  0.12500000000E+03 0.  0.
         25    1    1    2    0    0  0.13329661096E+03  0.39832199842E+02  0.22428078627E+03  0.29202989869E+03  0.12500000000E+03 0.  0.
         25    1    1    2    0    0 -0.70548400721E+01 -0.38797205117E+02 -0.59306476693E+02  0.14386539567E+03  0.12500000000E+03 0.  0.
</event>
<event>
 5    0  0.5452999E-005  0.4277366E+03  0.7546771E-02  0.1034577E+00
         21   -1    0    0  502  501  0.00000000000E+00  0.00000000000E+00  0.27171380392E+03  0.27171380392E+03  0.00000000000E+00 0. -1.
         21   -1    0    0  501  502 -0.00000000000E+00 -0.00000000000E+00 -0.67335028787E+03  0.67335028787E+03  0.00000000000E+00 0. -1.
         25    1    1    2    0    0 -0.74795297820E+02  0.21038206308E+02 -0.35896753044E+02  0.15149428893E+03  0.12500000000E+03 0.  0.
         25    1    1    2    0    0  0.14526761709E+03 -0.20271108592E+03  0.80934748445E+02  0.29046496938E+03  0.12500000000E+03 0.  0.
         25    1    1    2    0    0 -0.70472319267E+02  0.18167287961E+03 -0.44667447935E+03  0.50310483348E+03  0.12500000000E+03 0.  0.
</event>
<event>
 5    0  0.5452999E-005  0.2942891E+03  0.7546771E-02  0.1088131E+00
         21   -1    0    0  502  501  0.00000000000E+00  0.00000000000E+00  0.32542609321E+03  0.32542609321E+03  0.00000000000E+00 0.  1.
         21   -1    0    0  501  502 -0.00000000000E+00 -0.00000000000E+00 -0.26613130307E+03  0.26613130307E+03  0.00000000000E+00 0.  1.
         25    1    1    2    0    0  0.56392858360E+02  0.11383741543E+03 -0.85282877571E+01  0.17842881863E+03  0.12500000000E+03 0.  0.
         25    1    1    2    0    0  0.68295993447E+02 -0.14919112759E+03  0.10158682892E+03  0.22992872609E+03  0.12500000000E+03 0.  0.
         25    1    1    2    0    0 -0.12468885181E+03  0.35353712165E+02 -0.33763751025E+02  0.18319985156E+03  0.12500000000E+03 0.  0.
</event>
<event>
 5    0  0.5452999E-005  0.4916689E+03  0.7546771E-02  0.1015977E+00
         21   -1    0    0  502  501  0.00000000000E+00  0.00000000000E+00  0.14875577780E+04  0.14875577780E+04  0.00000000000E+00 0. -1.
         21   -1    0    0  501  502 -0.00000000000E+00 -0.00000000000E+00 -0.16250680868E+03  0.16250680868E+03  0.00000000000E+00 0. -1.
         25    1    1    2    0    0  0.13289082913E+03 -0.21065977870E+03  0.57948237420E+03  0.64301037070E+03  0.12500000000E+03 0.  0.
         25    1    1    2    0    0 -0.28505566977E+03  0.23503419888E+03  0.70324781109E+03  0.80416434472E+03  0.12500000000E+03 0.  0.
         25    1    1    2    0    0  0.15216484064E+03 -0.24374420185E+02  0.42320784000E+02  0.20288987123E+03  0.12500000000E+03 0.  0.
</event>
<event>
 5    0  0.5452999E-005  0.2276174E+03  0.7546771E-02  0.1128328E+00
         21   -1    0    0  502  501  0.00000000000E+00  0.00000000000E+00  0.52688929600E+03  0.52688929600E+03  0.00000000000E+00 0.  1.
         21   -1    0    0  501  502 -0.00000000000E+00 -0.00000000000E+00 -0.98331273607E+02  0.98331273607E+02  0.00000000000E+00 0.  1.
         25    1    1    2    0    0  0.10572384658E+03 -0.23818266509E+02  0.11318705321E+03  0.20045236484E+03  0.12500000000E+03 0.  0.
         25    1    1    2    0    0 -0.69133174571E+02  0.50602832319E+02  0.16452974827E+03  0.22368522645E+03  0.12500000000E+03 0.  0.
         25    1    1    2    0    0 -0.36590672012E+02 -0.26784565810E+02  0.15084122091E+03  0.20108297832E+03  0.12500000000E+03 0.  0.
</event>
<event>
 5    0  0.5452999E-005  0.3935988E+03  0.7546771E-02  0.1046019E+00
         21   -1    0    0  502  501  0.00000000000E+00  0.00000000000E+00  0.87046014047E+03  0.87046014047E+03  0.00000000000E+00 0. -1.
         21   -1    0    0  501  502 -0.00000000000E+00 -0.00000000000E+00 -0.17797487925E+03  0.17797487925E+03  0.00000000000E+00 0. -1.
         25    1    1    2    0    0  0.59943163292E+01  0.25553945523E+02  0.47307950803E+03  0.49001852708E+03  0.12500000000E+03 0.  0.
         25    1    1    2    0    0  0.82135351451E+02 -0.21962842210E+03  0.99220584366E+02  0.28364164735E+03  0.12500000000E+03 0.  0.
         25    1    1    2    0    0 -0.88129667781E+02  0.19407447657E+03  0.12018516882E+03  0.27477484529E+03  0.12500000000E+03 0.  0.
</event>
<event>
 5    0  0.5452999E-005  0.2394353E+03  0.7546771E-02  0.1120170E+00
         21   -1    0    0  502  501  0.00000000000E+00  0.00000000000E+00  0.63261885388E+03  0.63261885388E+03  0.00000000000E+00 0. -1.
         21   -1    0    0  501  502 -0.00000000000E+00 -0.00000000000E+00 -0.90622140632E+02  0.90622140632E+02  0.00000000000E+00 0. -1.
         25    1    1    2    0    0 -0.87528021052E+02 -0.21851834997E+02  0.10403668690E+03  0.18597658289E+03  0.12500000000E+03 0.  0.
         25    1    1    2    0    0  0.33783077111E+02 -0.23270490301E+02  0.33744888561E+03  0.36218719251E+03  0.12500000000E+03 0.  0.
         25    1    1    2    0    0  0.53744943941E+02  0.45122325298E+02  0.10051114073E+03  0.17507721911E+03  0.12500000000E+03 0.  0.
</event>
<event>
 5    0  0.5452999E-005  0.3481812E+03  0.7546771E-02  0.1063364E+00
         21   -1    0    0  502  501  0.00000000000E+00  0.00000000000E+00  0.14480115434E+03  0.14480115434E+03  0.00000000000E+00 0.  1.
         21   -1    0    0  501  502 -0.00000000000E+00 -0.00000000000E+00 -0.83721824217E+03  0.83721824217E+03  0.00000000000E+00 0. -1.
         25    1    1    2    0    0  0.48891391082E+02 -0.33686883542E+02 -0.84577076174E+01  0.13864237109E+03  0.12500000000E+03 0.  0.
         25    1    1    2    0    0 -0.21709798105E+03 -0.52649070793E+02 -0.27426908126E+03  0.37516927775E+03  0.12500000000E+03 0.  0.
         25    1    1    2    0    0  0.16820658997E+03  0.86335954335E+02 -0.40969029896E+03  0.46820774767E+03  0.12500000000E+03 0.  0.
</event>
<event>
 5    0  0.5452999E-005  0.3464785E+03  0.7546771E-02  0.1064070E+00
         21   -1    0    0  502  501  0.00000000000E+00  0.00000000000E+00  0.10809520640E+04  0.10809520640E+04  0.00000000000E+00 0. -1.
         21   -1    0    0  501  502 -0.00000000000E+00 -0.00000000000E+00 -0.11105702688E+03  0.11105702688E+03  0.00000000000E+00 0. -1.
         25    1    1    2    0    0  0.17591530244E+03  0.18364001289E+03  0.37145771165E+03  0.46719982824E+03  0.12500000000E+03 0.  0.
         25    1    1    2    0    0 -0.36724736178E+02 -0.24934898902E+02  0.35595948198E+03  0.37987183134E+03  0.12500000000E+03 0.  0.
         25    1    1    2    0    0 -0.13919056626E+03 -0.15870511399E+03  0.24247784353E+03  0.34493743135E+03  0.12500000000E+03 0.  0.
</event>
<event>
 5    0  0.5452999E-005  0.3026238E+03  0.7546771E-02  0.1083936E+00
         21   -1    0    0  502  501  0.00000000000E+00  0.00000000000E+00  0.71978127192E+02  0.71978127192E+02  0.00000000000E+00 0. -1.
         21   -1    0    0  501  502 -0.00000000000E+00 -0.00000000000E+00 -0.12723473496E+04  0.12723473496E+04  0.00000000000E+00 0. -1.
         25    1    1    2    0    0  0.87745575921E+02 -0.91938148854E+02 -0.10957717275E+03  0.20924642433E+03  0.12500000000E+03 0.  0.
         25    1    1    2    0    0  0.56066605868E+01  0.93832998310E+02 -0.48978739129E+03  0.51415246268E+03  0.12500000000E+03 0.  0.
         25    1    1    2    0    0 -0.93352236507E+02 -0.18948494560E+01 -0.60100465838E+03  0.62092658979E+03  0.12500000000E+03 0.  0.
</event>
<event>
 5    0  0.5452999E-005  0.2734978E+03  0.7546771E-02  0.1099294E+00
         21   -1    0    0  502  501  0.00000000000E+00  0.00000000000E+00  0.67900419055E+03  0.67900419055E+03  0.00000000000E+00 0. -1.
         21   -1    0    0  501  502 -0.00000000000E+00 -0.00000000000E+00 -0.11016283357E+03  0.11016283357E+03  0.00000000000E+00 0.  1.
         25    1    1    2    0    0  0.63200712758E+02  0.52979109795E+02  0.26875463112E+03  0.30766080009E+03  0.12500000000E+03 0.  0.
         25    1    1    2    0    0 -0.10512143944E+03 -0.57012728748E+02  0.22854638789E+02  0.17449442049E+03  0.12500000000E+03 0.  0.
         25    1    1    2    0    0  0.41920726678E+02  0.40336189531E+01  0.27723208707E+03  0.30701180353E+03  0.12500000000E+03 0.  0.
</event>
<event>
 5    0  0.5452999E-005  0.2744385E+03  0.7546771E-02  0.1098766E+00
         21   -1    0    0  502  501  0.00000000000E+00  0.00000000000E+00  0.10783864988E+03  0.10783864988E+03  0.00000000000E+00 0. -1.
         21   -1    0    0  501  502 -0.00000000000E+00 -0.00000000000E+00 -0.69841857207E+03  0.69841857207E+03  0.00000000000E+00 0. -1.
         25    1    1    2    0    0  0.56798207440E+02  0.72506316621E+02 -0.25222436791E+02  0.15730344445E+03  0.12500000000E+03 0.  0.
         25    1    1    2    0    0 -0.37202540705E+02 -0.10327821958E+03 -0.43033688955E+03  0.46137323089E+03  0.12500000000E+03 0.  0.
         25    1    1    2    0    0 -0.19595666734E+02  0.30771902954E+02 -0.13502059585E+03  0.18758054662E+03  0.12500000000E+03 0.  0.
</event>
<event>
 5    0  0.5452999E-005  0.3176782E+03  0.7546771E-02  0.1076723E+00
         21   -1    0    0  502  501  0.00000000000E+00  0.00000000000E+00  0.11613630666E+03  0.11613630666E+03  0.00000000000E+00 0.  1.
         21   -1    0    0  501  502 -0.00000000000E+00 -0.00000000000E+00 -0.86897385895E+03  0.86897385895E+03  0.00000000000E+00 0.  1.
         25    1    1    2    0    0 -0.49905673187E+02  0.21490943327E+03 -0.16932896325E+03  0.30491628117E+03  0.12500000000E+03 0.  0.
         25    1    1    2    0    0 -0.49318311232E+01 -0.72630501942E+02 -0.17860040905E+03  0.22983171862E+03  0.12500000000E+03 0.  0.
         25    1    1    2    0    0  0.54837504311E+02 -0.14227893133E+03 -0.40490817999E+03  0.45036216582E+03  0.12500000000E+03 0.  0.
</event>
<event>
 5    0  0.5452999E-005  0.5375508E+03  0.7546771E-02  0.1004417E+00
         21   -1    0    0  502  501  0.00000000000E+00  0.00000000000E+00  0.21046440954E+03  0.21046440954E+03  0.00000000000E+00 0.  1.
         21   -1    0    0  501  502 -0.00000000000E+00 -0.00000000000E+00 -0.13729679116E+04  0.13729679116E+04  0.00000000000E+00 0.  1.
         25    1    1    2    0    0 -0.34985711437E+03  0.91960887966E+02 -0.30611261986E+03  0.49008850367E+03  0.12500000000E+03 0.  0.
         25    1    1    2    0    0 -0.12217676938E+03 -0.54693564417E+01 -0.15080161163E+03  0.23091817361E+03  0.12500000000E+03 0.  0.
         25    1    1    2    0    0  0.47203388375E+03 -0.86491531525E+02 -0.70558927060E+03  0.86242564388E+03  0.12500000000E+03 0.  0.
</event>
<event>
 5    0  0.6281631E-005  0.3405865E+03  0.7546771E-02  0.1066546E+00
         21   -1    0    0  502  501  0.00000000000E+00  0.00000000000E+00  0.77253605376E+03  0.77253605376E+03  0.00000000000E+00 0. -1.
         21   -1    0    0  501  502 -0.00000000000E+00 -0.00000000000E+00 -0.15015373883E+03  0.15015373883E+03  0.00000000000E+00 0. -1.
         25    1    1    2    0    0  0.10035435729E+02 -0.56532170211E+02  0.34752334220E+03  0.37375669842E+03  0.12500000000E+03 0.  0.
         25    1    1    2    0    0 -0.18380660308E+03  0.66188179194E+02  0.47937690659E+02  0.23683066648E+03  0.12500000000E+03 0.  0.
         25    1    1    2    0    0  0.17377116735E+03 -0.96560089835E+01  0.22692128208E+03  0.31210242769E+03  0.12500000000E+03 0.  0.
</event>
<event>
 5    0  0.5452999E-005  0.4046824E+03  0.7546771E-02  0.1042170E+00
         21   -1    0    0  502  501  0.00000000000E+00  0.00000000000E+00  0.30195704349E+03  0.30195704349E+03  0.00000000000E+00 0.  1.
         21   -1    0    0  501  502 -0.00000000000E+00 -0.00000000000E+00 -0.54235480478E+03  0.54235480478E+03  0.00000000000E+00 0.  1.
         25    1    1    2    0    0 -0.26986844184E+03  0.14224537768E+03  0.69342593115E+02  0.33689185000E+03  0.12500000000E+03 0.  0.
         25    1    1    2    0    0  0.92511138431E+02 -0.81762363458E+02 -0.11835094975E+03  0.21183800915E+03  0.12500000000E+03 0.  0.
         25    1    1    2    0    0  0.17735730341E+03 -0.60483014224E+02 -0.19138940465E+03  0.29558198913E+03  0.12500000000E+03 0.  0.
</event>
<event>
 5    0  0.5452999E-005  0.3023458E+03  0.7546771E-02  0.1084074E+00
         21   -1    0    0  502  501  0.00000000000E+00  0.00000000000E+00  0.37000658014E+02  0.37000658014E+02  0.00000000000E+00 0. -1.
         21   -1    0    0  501  502 -0.00000000000E+00 -0.00000000000E+00 -0.24705765912E+04  0.24705765912E+04  0.00000000000E+00 0. -1.
         25    1    1    2    0    0  0.65076644999E+02  0.12934916657E+03 -0.16984445018E+04  0.17091825246E+04  0.12500000000E+03 0.  0.
         25    1    1    2    0    0 -0.41517256600E+02 -0.10971543395E+03 -0.31039996568E+03  0.35459032381E+03  0.12500000000E+03 0.  0.
         25    1    1    2    0    0 -0.23559388399E+02 -0.19633732620E+02 -0.42473146568E+03  0.44380440081E+03  0.12500000000E+03 0.  0.
</event>
<event>
 5    0  0.5452999E-005  0.2608298E+03  0.7546771E-02  0.1106646E+00
         21   -1    0    0  502  501  0.00000000000E+00  0.00000000000E+00  0.20608596242E+03  0.20608596242E+03  0.00000000000E+00 0.  1.
         21   -1    0    0  501  502 -0.00000000000E+00 -0.00000000000E+00 -0.33011555254E+03  0.33011555254E+03  0.00000000000E+00 0.  1.
         25    1    1    2    0    0 -0.34070322925E+02 -0.64681819503E+02  0.61691972601E+01  0.14493993126E+03  0.12500000000E+03 0.  0.
         25    1    1    2    0    0 -0.11092589342E+03  0.27753963212E+02 -0.91317009186E+02  0.19245423474E+03  0.12500000000E+03 0.  0.
         25    1    1    2    0    0  0.14499621634E+03  0.36927856291E+02 -0.38881778201E+02  0.19880734896E+03  0.12500000000E+03 0.  0.
</event>
<event>
 5    0  0.6550453E-005  0.2904351E+03  0.7546771E-02  0.1090122E+00
         21   -1    0    0  502  501  0.00000000000E+00  0.00000000000E+00  0.45834868772E+03  0.45834868772E+03  0.00000000000E+00 0. -1.
         21   -1    0    0  501  502 -0.00000000000E+00 -0.00000000000E+00 -0.18403581854E+03  0.18403581854E+03  0.00000000000E+00 0. -1.
         25    1    1    2    0    0 -0.58298399258E+02 -0.16636026844E+03 -0.75740712496E+01  0.21623322785E+03  0.12500000000E+03 0.  0.
         25    1    1    2    0    0  0.60420961111E+02  0.56168191839E+02  0.16353195879E+03  0.22175044501E+03  0.12500000000E+03 0.  0.
         25    1    1    2    0    0 -0.21225618529E+01  0.11019207660E+03  0.11835498165E+03  0.20440083340E+03  0.12500000000E+03 0.  0.
</event>
<event>
 5    0  0.5452999E-005  0.3537082E+03  0.7546771E-02  0.1061103E+00
         21   -1    0    0  502  501  0.00000000000E+00  0.00000000000E+00  0.98405891152E+02  0.98405891152E+02  0.00000000000E+00 0. -1.
         21   -1    0    0  501  502 -0.00000000000E+00 -0.00000000000E+00 -0.12713617607E+04  0.12713617607E+04  0.00000000000E+00 0. -1.
         25    1    1    2    0    0  0.34360611457E+02  0.96714495419E+02 -0.29169114898E+03  0.33353121539E+03  0.12500000000E+03 0.  0.
         25    1    1    2    0    0  0.19855063426E+03 -0.12235945537E+03 -0.56032586959E+03  0.61966464383E+03  0.12500000000E+03 0.  0.
         25    1    1    2    0    0 -0.23291124572E+03  0.25644959948E+02 -0.32093885098E+03  0.41657179264E+03  0.12500000000E+03 0.  0.
</event>
<event>
 5    0  0.5452999E-005  0.7132056E+03  0.7546771E-02  0.9694912E-01
         21   -1    0    0  502  501  0.00000000000E+00  0.00000000000E+00  0.32943154899E+03  0.32943154899E+03  0.00000000000E+00 0. -1.
         21   -1    0    0  501  502 -0.00000000000E+00 -0.00000000000E+00 -0.15440603140E+04  0.15440603140E+04  0.00000000000E+00 0. -1.
         25    1    1    2    0    0 -0.28466021919E+03  0.11188917903E+03 -0.12082571853E+03  0.35181597894E+03  0.12500000000E+03 0.  0.
         25    1    1    2    0    0 -0.24782854568E+03  0.24779720854E+03 -0.58175746923E+03  0.69057164554E+03  0.12500000000E+03 0.  0.
         25    1    1    2    0    0  0.53248876488E+03 -0.35968638757E+03 -0.51204557727E+03  0.83110423854E+03  0.12500000000E+03 0.  0.
</event>
<event>
 5    0  0.5452999E-005  0.3127076E+03  0.7546771E-02  0.1079055E+00
         21   -1    0    0  502  501  0.00000000000E+00  0.00000000000E+00  0.10946183339E+04  0.10946183339E+04  0.00000000000E+00 0.  1.
         21   -1    0    0  501  502 -0.00000000000E+00 -0.00000000000E+00 -0.89333459688E+02  0.89333459688E+02  0.00000000000E+00 0.  1.
         25    1    1    2    0    0  0.12662774458E+03  0.85055119718E+01  0.44058691372E+03  0.47523547634E+03  0.12500000000E+03 0.  0.
         25    1    1    2    0    0 -0.73675505711E+02  0.13369589417E+03  0.42182878254E+03  0.46569001926E+03  0.12500000000E+03 0.  0.
         25    1    1    2    0    0 -0.52952238865E+02 -0.14220140614E+03  0.14286917797E+03  0.24302629800E+03  0.12500000000E+03 0.  0.
</event>
<event>
 5    0  0.5452999E-005  0.3366088E+03  0.7546771E-02  0.1068250E+00
         21   -1    0    0  502  501  0.00000000000E+00  0.00000000000E+00  0.29439142809E+03  0.29439142809E+03  0.00000000000E+00 0. -1.
         21   -1    0    0  501  502 -0.00000000000E+00 -0.00000000000E+00 -0.38488034699E+03  0.38488034699E+03  0.00000000000E+00 0. -1.
         25    1    1    2    0    0  0.43019883133E+02 -0.17870218348E+03  0.13616208054E+03  0.26067276977E+03  0.12500000000E+03 0.  0.
         25    1    1    2    0    0 -0.23216111549E+01 -0.18578301559E+01 -0.11045487434E+03  0.16683560974E+03  0.12500000000E+03 0.  0.
         25    1    1    2    0    0 -0.40698271978E+02  0.18056001363E+03 -0.11619612509E+03  0.25176339558E+03  0.12500000000E+03 0.  0.
</event>
<event>
 5    0  0.5452999E-005  0.3015350E+03  0.7546771E-02  0.1084476E+00
         21   -1    0    0  502  501  0.00000000000E+00  0.00000000000E+00  0.35050587329E+03  0.35050587329E+03  0.00000000000E+00 0.  1.
         21   -1    0    0  501  502 -0.00000000000E+00 -0.00000000000E+00 -0.25940603790E+03  0.25940603790E+03  0.00000000000E+00 0.  1.
         25    1    1    2    0    0  0.17566160947E+03  0.12338436563E+03  0.22091816943E+02  0.24938675005E+03  0.12500000000E+03 0.  0.
         25    1    1    2    0    0 -0.56401283005E+02 -0.65402786034E+02 -0.27361729111E+02  0.15437711412E+03  0.12500000000E+03 0.  0.
         25    1    1    2    0    0 -0.11926032647E+03 -0.57981579601E+02  0.96369747563E+02  0.20614804701E+03  0.12500000000E+03 0.  0.
</event>
<event>
 5    0  0.5452999E-005  0.5297110E+03  0.7546771E-02  0.1006302E+00
         21   -1    0    0  502  501  0.00000000000E+00  0.00000000000E+00  0.18346795753E+03  0.18346795753E+03  0.00000000000E+00 0. -1.
         21   -1    0    0  501  502 -0.00000000000E+00 -0.00000000000E+00 -0.15293880893E+04  0.15293880893E+04  0.00000000000E+00 0. -1.
         25    1    1    2    0    0 -0.42364770364E+03  0.24473699864E+02 -0.68482793870E+03  0.81528562137E+03  0.12500000000E+03 0.  0.
         25    1    1    2    0    0  0.97803645545E+02  0.63607932350E+02 -0.33724850137E+02  0.17428105937E+03  0.12500000000E+03 0.  0.
         25    1    1    2    0    0  0.32584405810E+03 -0.88081632214E+02 -0.62736734295E+03  0.72328936611E+03  0.12500000000E+03 0.  0.
</event>
<event>
 5    0  0.5452999E-005  0.2338219E+03  0.7546771E-02  0.1123978E+00
         21   -1    0    0  502  501  0.00000000000E+00  0.00000000000E+00  0.26354491117E+03  0.26354491117E+03  0.00000000000E+00 0. -1.
         21   -1    0    0  501  502 -0.00000000000E+00 -0.00000000000E+00 -0.20745107583E+03  0.20745107583E+03  0.00000000000E+00 0. -1.
         25    1    1    2    0    0  0.62536366383E+01  0.24502291734E+02 -0.74171363517E+02  0.14753257755E+03  0.12500000000E+03 0.  0.
         25    1    1    2    0    0  0.17903240196E+02 -0.70232976667E+02  0.14145307751E+02  0.14518363114E+03  0.12500000000E+03 0.  0.
         25    1    1    2    0    0 -0.24156876834E+02  0.45730684932E+02  0.11611989111E+03  0.17827977831E+03  0.12500000000E+03 0.  0.
</event>
<event>
 5    0  0.5452999E-005  0.3454564E+03  0.7546771E-02  0.1064496E+00
         21   -1    0    0  502  501  0.00000000000E+00  0.00000000000E+00  0.10026560012E+03  0.10026560012E+03  0.00000000000E+00 0. -1.
         21   -1    0    0  501  502 -0.00000000000E+00 -0.00000000000E+00 -0.11902399562E+04  0.11902399562E+04  0.00000000000E+00 0. -1.
         25    1    1    2    0    0  0.65625163801E+02 -0.70661848663E+02 -0.35447033790E+03  0.38803863136E+03  0.12500000000E+03 0.  0.
         25    1    1    2    0    0  0.18783610065E+03  0.70278367029E+02 -0.27978508251E+03  0.36623236063E+03  0.12500000000E+03 0.  0.
         25    1    1    2    0    0 -0.25346126445E+03  0.38348163412E+00 -0.45571893567E+03  0.53623456432E+03  0.12500000000E+03 0.  0.
</event>
<event>
 5    0  0.5452999E-005  0.2492426E+03  0.7546771E-02  0.1113784E+00
         21   -1    0    0  502  501  0.00000000000E+00  0.00000000000E+00  0.29261948822E+03  0.29261948822E+03  0.00000000000E+00 0.  1.
         21   -1    0    0  501  502 -0.00000000000E+00 -0.00000000000E+00 -0.21229573587E+03  0.21229573587E+03  0.00000000000E+00 0.  1.
         25    1    1    2    0    0 -0.14294170274E+02 -0.90203846371E+02 -0.56251120211E+01  0.15491190751E+03  0.12500000000E+03 0.  0.
         25    1    1    2    0    0  0.38932883452E+02  0.10867738330E+03 -0.34602675938E+02  0.17363435212E+03  0.12500000000E+03 0.  0.
         25    1    1    2    0    0 -0.24638713178E+02 -0.18473536931E+02  0.12055154031E+03  0.17636896446E+03  0.12500000000E+03 0.  0.
</event>
<event>
 5    0  0.5452999E-005  0.3417563E+03  0.7546771E-02  0.1066050E+00
         21   -1    0    0  502  501  0.00000000000E+00  0.00000000000E+00  0.74180631557E+03  0.74180631557E+03  0.00000000000E+00 0.  1.
         21   -1    0    0  501  502 -0.00000000000E+00 -0.00000000000E+00 -0.15744999301E+03  0.15744999301E+03  0.00000000000E+00 0.  1.
         25    1    1    2    0    0  0.34833636968E+01  0.25463598914E+03  0.14860763436E+03  0.32025122916E+03  0.12500000000E+03 0.  0.
         25    1    1    2    0    0 -0.34952022441E+02 -0.11735200261E+03  0.29841403785E+03  0.34593218176E+03  0.12500000000E+03 0.  0.
         25    1    1    2    0    0  0.31468658744E+02 -0.13728398653E+03  0.13733465035E+03  0.23307289767E+03  0.12500000000E+03 0.  0.
</event>
<event>
 5    0  0.5452999E-005  0.5838339E+03  0.7546771E-02  0.9939525E-01
         21   -1    0    0  502  501  0.00000000000E+00  0.00000000000E+00  0.15196375763E+04  0.15196375763E+04  0.00000000000E+00 0.  1.
         21   -1    0    0  501  502 -0.00000000000E+00 -0.00000000000E+00 -0.22430481780E+03  0.22430481780E+03  0.00000000000E+00 0.  1.
         25    1    1    2    0    0 -0.14519507579E+02  0.29591600508E+03  0.17959645578E+03  0.36831641979E+03  0.12500000000E+03 0.  0.
         25    1    1    2    0    0  0.63420509063E+02 -0.41563871934E+03  0.27916490878E+03  0.51993821968E+03  0.12500000000E+03 0.  0.
         25    1    1    2    0    0 -0.48901001484E+02  0.11972271427E+03  0.83657139392E+03  0.85568775461E+03  0.12500000000E+03 0.  0.
</event>
<event>
 5    0  0.5452999E-005  0.3198525E+03  0.7546771E-02  0.1075717E+00
         21   -1    0    0  502  501  0.00000000000E+00  0.00000000000E+00  0.94462918813E+03  0.94462918813E+03  0.00000000000E+00 0. -1.
         21   -1    0    0  501  502 -0.00000000000E+00 -0.00000000000E+00 -0.10830242736E+03  0.10830242736E+03  0.00000000000E+00 0. -1.
         25    1    1    2    0    0 -0.72579709500E+02 -0.67338675420E+02  0.48828180123E+03  0.51365983768E+03  0.12500000000E+03 0.  0.
         25    1    1    2    0    0 -0.16435981721E+01  0.95984885129E+02  0.35760060311E+03  0.39079277236E+03  0.12500000000E+03 0.  0.
         25    1    1    2    0    0  0.74223307672E+02 -0.28646209709E+02 -0.95556435657E+01  0.14847900544E+03  0.12500000000E+03 0.  0.
</event>
<event>
 5    0  0.5452999E-005  0.2593546E+03  0.7546771E-02  0.1107532E+00
         21   -1    0    0  502  501  0.00000000000E+00  0.00000000000E+00  0.69829122882E+02  0.69829122882E+02  0.00000000000E+00 0.  1.
         21   -1    0    0  501  502 -0.00000000000E+00 -0.00000000000E+00 -0.96327735271E+03  0.96327735271E+03  0.00000000000E+00 0.  1.
         25    1    1    2    0    0 -0.37875623053E+02  0.42481149121E+02 -0.16474843166E+03  0.21449069115E+03  0.12500000000E+03 0.  0.
         25    1    1    2    0    0  0.98879678455E+02 -0.38680003814E+02 -0.14614459864E+03  0.21967379730E+03  0.12500000000E+03 0.  0.
         25    1    1    2    0    0 -0.61004055401E+02 -0.38011453074E+01 -0.58255519953E+03  0.59894198715E+03  0.12500000000E+03 0.  0.
</event>
<event>
 5    0  0.5452999E-005  0.2873437E+03  0.7546771E-02  0.1091744E+00
         21   -1    0    0  502  501  0.00000000000E+00  0.00000000000E+00  0.12932412140E+03  0.12932412140E+03  0.00000000000E+00 0. -1.
         21   -1    0    0  501  502 -0.00000000000E+00 -0.00000000000E+00 -0.63844530851E+03  0.63844530851E+03  0.00000000000E+00 0. -1.
         25    1    1    2    0    0 -0.15062802323E+03 -0.19741412708E+02 -0.30239743993E+03  0.36075994295E+03  0.12500000000E+03 0.  0.
         25    1    1    2    0    0  0.17464702295E+02 -0.65434073977E+02 -0.12583041008E+03  0.18985501301E+03  0.12500000000E+03 0.  0.
         25    1    1    2    0    0  0.13316332094E+03  0.85175486685E+02 -0.80893337104E+02  0.21715447396E+03  0.12500000000E+03 0.  0.
</event>
<event>
 5    0  0.5452999E-005  0.3577741E+03  0.7546771E-02  0.1059469E+00
         21   -1    0    0  502  501  0.00000000000E+00  0.00000000000E+00  0.37019807301E+03  0.37019807301E+03  0.00000000000E+00 0.  1.
         21   -1    0    0  501  502 -0.00000000000E+00 -0.00000000000E+00 -0.34576714794E+03  0.34576714794E+03  0.00000000000E+00 0.  1.
         25    1    1    2    0    0  0.58515648957E+02 -0.21883139083E+03 -0.17937286429E+03  0.31481881016E+03  0.12500000000E+03 0.  0.
         25    1    1    2    0    0 -0.66148428767E+02  0.12500381801E+03  0.10330357402E+03  0.21517015952E+03  0.12500000000E+03 0.  0.
         25    1    1    2    0    0  0.76327798102E+01  0.93827572825E+02  0.10050021535E+03  0.18597625126E+03  0.12500000000E+03 0.  0.
</event>
<event>
 5    0  0.5452999E-005  0.4465468E+03  0.7546771E-02  0.1028757E+00
         21   -1    0    0  502  501  0.00000000000E+00  0.00000000000E+00  0.17819679246E+03  0.17819679246E+03  0.00000000000E+00 0. -1.
         21   -1    0    0  501  502 -0.00000000000E+00 -0.00000000000E+00 -0.11190104652E+04  0.11190104652E+04  0.00000000000E+00 0. -1.
         25    1    1    2    0    0  0.32625538834E+03  0.11874330419E+03 -0.53443236732E+03  0.64945015663E+03  0.12500000000E+03 0.  0.
         25    1    1    2    0    0 -0.10704629297E+03  0.40367226919E+02 -0.37866905906E+02  0.17362984885E+03  0.12500000000E+03 0.  0.
         25    1    1    2    0    0 -0.21920909537E+03 -0.15911053111E+03 -0.36851439951E+03  0.47412725217E+03  0.12500000000E+03 0.  0.
</event>
<event>
 5    0  0.5452999E-005  0.3586579E+03  0.7546771E-02  0.1059117E+00
         21   -1    0    0  502  501  0.00000000000E+00  0.00000000000E+00  0.13219126101E+04  0.13219126101E+04  0.00000000000E+00 0. -1.
         21   -1    0    0  501  502 -0.00000000000E+00 -0.00000000000E+00 -0.97310104945E+02  0.97310104945E+02  0.00000000000E+00 0. -1.
         25    1    1    2    0    0 -0.74822161442E+02 -0.70823407297E+02  0.73274111084E+03  0.75043243959E+03  0.12500000000E+03 0.  0.
         25    1    1    2    0    0  0.20672602821E+03  0.97237981448E+02  0.35251186522E+03  0.43826988363E+03  0.12500000000E+03 0.  0.
         25    1    1    2    0    0 -0.13190386677E+03 -0.26414574151E+02  0.13934952912E+03  0.23052039186E+03  0.12500000000E+03 0.  0.
</event>
<event>
 5    0  0.5452999E-005  0.3671085E+03  0.7546771E-02  0.1055804E+00
         21   -1    0    0  502  501  0.00000000000E+00  0.00000000000E+00  0.91268195844E+03  0.91268195844E+03  0.00000000000E+00 0. -1.
         21   -1    0    0  501  502 -0.00000000000E+00 -0.00000000000E+00 -0.14766226306E+03  0.14766226306E+03  0.00000000000E+00 0. -1.
         25    1    1    2    0    0  0.12114768493E+03 -0.10336200511E+03  0.41048316578E+03  0.45769192155E+03  0.12500000000E+03 0.  0.
         25    1    1    2    0    0 -0.11238511709E+03  0.24454811393E+03  0.24171594184E+03  0.38273462231E+03  0.12500000000E+03 0.  0.
         25    1    1    2    0    0 -0.87625678315E+01 -0.14118610883E+03  0.11282058775E+03  0.21991767764E+03  0.12500000000E+03 0.  0.
</event>
<event>
 5    0  0.5452999E-005  0.3068849E+03  0.7546771E-02  0.1081849E+00
         21   -1    0    0  502  501  0.00000000000E+00  0.00000000000E+00  0.87976415973E+02  0.87976415973E+02  0.00000000000E+00 0. -1.
         21   -1    0    0  501  502 -0.00000000000E+00 -0.00000000000E+00 -0.10704951473E+04  0.10704951473E+04  0.00000000000E+00 0. -1.
         25    1    1    2    0    0  0.43524857907E+02 -0.89149981892E+01 -0.25437943413E+03  0.28689333725E+03  0.12500000000E+03 0.  0.
         25    1    1    2    0    0  0.18034165683E+03 -0.14454462176E+02 -0.37171483032E+03  0.43188998570E+03  0.12500000000E+03 0.  0.
         25    1    1    2    0    0 -0.22386651474E+03  0.23369460365E+02 -0.35642446691E+03  0.43968824036E+03  0.12500000000E+03 0.  0.
</event>
<event>
 5    0  0.5452999E-005  0.2371523E+03  0.7546771E-02  0.1121705E+00
         21   -1    0    0  502  501  0.00000000000E+00  0.00000000000E+00  0.31668549820E+03  0.31668549820E+03  0.00000000000E+00 0.  1.
         21   -1    0    0  501  502 -0.00000000000E+00 -0.00000000000E+00 -0.17759332056E+03  0.17759332056E+03  0.00000000000E+00 0.  1.
         25    1    1    2    0    0  0.24987973765E+02  0.97872684576E+00 -0.88328452874E+01  0.12778253361E+03  0.12500000000E+03 0.  0.
         25    1    1    2    0    0 -0.78952904742E+02 -0.64145597265E+02  0.14435984818E+03  0.21636308507E+03  0.12500000000E+03 0.  0.
         25    1    1    2    0    0  0.53964930977E+02  0.63166870420E+02  0.35651747523E+01  0.15013320008E+03  0.12500000000E+03 0.  0.
</event>
<event>
 5    0  0.5452999E-005  0.2584064E+03  0.7546771E-02  0.1108105E+00
         21   -1    0    0  502  501  0.00000000000E+00  0.00000000000E+00  0.16687248753E+03  0.16687248753E+03  0.00000000000E+00 0. -1.
         21   -1    0    0  501  502 -0.00000000000E+00 -0.00000000000E+00 -0.40014890008E+03  0.40014890008E+03  0.00000000000E+00 0. -1.
         25    1    1    2    0    0 -0.11429583466E+03 -0.32601352583E+02 -0.57006267867E+02  0.18166205049E+03  0.12500000000E+03 0.  0.
         25    1    1    2    0    0  0.42337238177E+02 -0.11650649829E+02 -0.19242890680E+03  0.23362804530E+03  0.12500000000E+03 0.  0.
         25    1    1    2    0    0  0.71958596486E+02  0.44252002412E+02  0.16158762125E+02  0.15173129183E+03  0.12500000000E+03 0.  0.
</event>
<event>
 5    0  0.5452999E-005  0.2775279E+03  0.7546771E-02  0.1097047E+00
         21   -1    0    0  502  501  0.00000000000E+00  0.00000000000E+00  0.79702842613E+02  0.79702842613E+02  0.00000000000E+00 0.  1.
         21   -1    0    0  501  502 -0.00000000000E+00 -0.00000000000E+00 -0.96636119307E+03  0.96636119307E+03  0.00000000000E+00 0.  1.
         25    1    1    2    0    0 -0.25667733890E+02 -0.14028302654E+02 -0.11177009585E+03  0.17021509970E+03  0.12500000000E+03 0.  0.
         25    1    1    2    0    0  0.10509299916E+03  0.60207064843E+01 -0.68095588505E+03  0.70029044314E+03  0.12500000000E+03 0.  0.
         25    1    1    2    0    0 -0.79425265267E+02  0.80075961694E+01 -0.93932369566E+02  0.17555849285E+03  0.12500000000E+03 0.  0.
</event>
<event>
 5    0  0.5452999E-005  0.3250433E+03  0.7546771E-02  0.1073351E+00
         21   -1    0    0  502  501  0.00000000000E+00  0.00000000000E+00  0.36347106628E+03  0.36347106628E+03  0.00000000000E+00 0. -1.
         21   -1    0    0  501  502 -0.00000000000E+00 -0.00000000000E+00 -0.29067829078E+03  0.29067829078E+03  0.00000000000E+00 0. -1.
         25    1    1    2    0    0  0.79507482148E+02 -0.11343331964E+02 -0.52887312847E+02  0.15770915876E+03  0.12500000000E+03 0.  0.
         25    1    1    2    0    0 -0.10096915152E+03 -0.18570137956E+03  0.73971009557E+02  0.25646926168E+03  0.12500000000E+03 0.  0.
         25    1    1    2    0    0  0.21461669376E+02  0.19704471152E+03  0.51709078788E+02  0.23997093662E+03  0.12500000000E+03 0.  0.
</event>
<event>
 5    0  0.5452999E-005  0.3216006E+03  0.7546771E-02  0.1074915E+00
         21   -1    0    0  502  501  0.00000000000E+00  0.00000000000E+00  0.47063632807E+03  0.47063632807E+03  0.00000000000E+00 0. -1.
         21   -1    0    0  501  502 -0.00000000000E+00 -0.00000000000E+00 -0.21975977544E+03  0.21975977544E+03  0.00000000000E+00 0. -1.
         25    1    1    2    0    0 -0.38527510018E+02 -0.10813088940E+03  0.28080049879E+03  0.32810147575E+03  0.12500000000E+03 0.  0.
         25    1    1    2    0    0  0.61668084813E+02  0.15791226767E+03 -0.66642378935E+02  0.22091954109E+03  0.12500000000E+03 0.  0.
         25    1    1    2    0    0 -0.23140574794E+02 -0.49781378271E+02  0.36718432775E+02  0.14137508667E+03  0.12500000000E+03 0.  0.
</event>
<event>
 5    0  0.5452999E-005  0.3957234E+03  0.7546771E-02  0.1045271E+00
         21   -1    0    0  502  501  0.00000000000E+00  0.00000000000E+00  0.53956975082E+03  0.53956975082E+03  0.00000000000E+00 0.  1.
         21   -1    0    0  501  502 -0.00000000000E+00 -0.00000000000E+00 -0.29022573703E+03  0.29022573703E+03  0.00000000000E+00 0.  1.
         25    1    1    2    0    0 -0.48087046394E+02 -0.25153401497E+03  0.92254700110E+02  0.29952905437E+03  0.12500000000E+03 0.  0.
         25    1    1    2    0    0  0.35784696309E+02  0.20336693963E+03 -0.82840063077E+02  0.25519822232E+03  0.12500000000E+03 0.  0.
         25    1    1    2    0    0  0.12302350085E+02  0.48167075344E+02  0.23992937676E+03  0.27506821117E+03  0.12500000000E+03 0.  0.
</event>
<event>
 5    0  0.5452999E-005  0.2439405E+03  0.7546771E-02  0.1117195E+00
         21   -1    0    0  502  501  0.00000000000E+00  0.00000000000E+00  0.32772853296E+03  0.32772853296E+03  0.00000000000E+00 0.  1.
         21   -1    0    0  501  502 -0.00000000000E+00 -0.00000000000E+00 -0.18157403302E+03  0.18157403302E+03  0.00000000000E+00 0.  1.
         25    1    1    2    0    0 -0.45282980994E+02 -0.70785377605E+01  0.16279730550E+03  0.21030600739E+03  0.12500000000E+03 0.  0.
         25    1    1    2    0    0  0.97140748842E+02  0.27729116328E+02  0.26979222570E+01  0.16074049820E+03  0.12500000000E+03 0.  0.
         25    1    1    2    0    0 -0.51857767849E+02 -0.20650578568E+02 -0.19340727822E+02  0.13825606039E+03  0.12500000000E+03 0.  0.
</event>
<event>
 5    0  0.5452999E-005  0.2825976E+03  0.7546771E-02  0.1094279E+00
         21   -1    0    0  502  501  0.00000000000E+00  0.00000000000E+00  0.59287896539E+03  0.59287896539E+03  0.00000000000E+00 0.  1.
         21   -1    0    0  501  502 -0.00000000000E+00 -0.00000000000E+00 -0.13470103684E+03  0.13470103684E+03  0.00000000000E+00 0.  1.
         25    1    1    2    0    0  0.56385367860E+02 -0.22382590157E+02  0.12191650831E+03  0.18484838395E+03  0.12500000000E+03 0.  0.
         25    1    1    2    0    0  0.11400359155E+03 -0.80653250138E+02  0.11503734689E+03  0.21990988341E+03  0.12500000000E+03 0.  0.
         25    1    1    2    0    0 -0.17038895941E+03  0.10303584030E+03  0.22122407335E+03  0.32282173487E+03  0.12500000000E+03 0.  0.
</event>
<event>
 5    0  0.5452999E-005  0.2448860E+03  0.7546771E-02  0.1116580E+00
         21   -1    0    0  502  501  0.00000000000E+00  0.00000000000E+00  0.75952652791E+02  0.75952652791E+02  0.00000000000E+00 0.  1.
         21   -1    0    0  501  502 -0.00000000000E+00 -0.00000000000E+00 -0.78955996021E+03  0.78955996021E+03  0.00000000000E+00 0.  1.
         25    1    1    2    0    0 -0.11837969906E+02  0.75095416836E+02 -0.24155992613E+03  0.28241044080E+03  0.12500000000E+03 0.  0.
         25    1    1    2    0    0  0.76603137982E+02  0.45517532618E+01 -0.10030189948E+03  0.17769139047E+03  0.12500000000E+03 0.  0.
         25    1    1    2    0    0 -0.64765168076E+02 -0.79647170098E+02 -0.37174548181E+03  0.40541078174E+03  0.12500000000E+03 0.  0.
</event>
<event>
 5    0  0.5452999E-005  0.3785825E+03  0.7546771E-02  0.1051459E+00
         21   -1    0    0  502  501  0.00000000000E+00  0.00000000000E+00  0.93943682454E+02  0.93943682454E+02  0.00000000000E+00 0. -1.
         21   -1    0    0  501  502 -0.00000000000E+00 -0.00000000000E+00 -0.15256450507E+04  0.15256450507E+04  0.00000000000E+00 0. -1.
         25    1    1    2    0    0  0.22399626556E+03 -0.21407550236E+03 -0.58279322743E+03  0.67177049178E+03  0.12500000000E+03 0.  0.
         25    1    1    2    0    0 -0.17293362566E+03  0.14074905039E+03 -0.63434955546E+03  0.68391570576E+03  0.12500000000E+03 0.  0.
         25    1    1    2    0    0 -0.51062639894E+02  0.73326451963E+02 -0.21455858533E+03  0.26390253558E+03  0.12500000000E+03 0.  0.
</event>
<event>
 5    0  0.5452999E-005  0.5441884E+03  0.7546771E-02  0.1002848E+00
         21   -1    0    0  502  501  0.00000000000E+00  0.00000000000E+00  0.15255996320E+04  0.15255996320E+04  0.00000000000E+00 0. -1.
         21   -1    0    0  501  502 -0.00000000000E+00 -0.00000000000E+00 -0.19411449548E+03  0.19411449548E+03  0.00000000000E+00 0. -1.
         25    1    1    2    0    0 -0.46437619448E+03 -0.12027905339E+03  0.80312513646E+03  0.94379409063E+03  0.12500000000E+03 0.  0.
         25    1    1    2    0    0  0.30168833170E+03 -0.71698552923E+01  0.30961869173E+03  0.45006220746E+03  0.12500000000E+03 0.  0.
         25    1    1    2    0    0  0.16268786277E+03  0.12744890868E+03  0.21874130835E+03  0.32585782943E+03  0.12500000000E+03 0.  0.
</event>
<event>
 5    0  0.5452999E-005  0.7091512E+03  0.7546771E-02  0.9701709E-01
         21   -1    0    0  502  501  0.00000000000E+00  0.00000000000E+00  0.10111841298E+04  0.10111841298E+04  0.00000000000E+00 0. -1.
         21   -1    0    0  501  502 -0.00000000000E+00 -0.00000000000E+00 -0.49733312749E+03  0.49733312749E+03  0.00000000000E+00 0. -1.
         25    1    1    2    0    0  0.16109029317E+03  0.18599829148E+03  0.56561175779E+03  0.62935451658E+03  0.12500000000E+03 0.  0.
         25    1    1    2    0    0  0.20728206134E+02  0.10351744557E+03  0.31966552586E+03  0.35910523317E+03  0.12500000000E+03 0.  0.
         25    1    1    2    0    0 -0.18181849930E+03 -0.28951573705E+03 -0.37142628133E+03  0.52005750754E+03  0.12500000000E+03 0.  0.
</event>
<event>
 5    0  0.5452999E-005  0.3277542E+03  0.7546771E-02  0.1072135E+00
         21   -1    0    0  502  501  0.00000000000E+00  0.00000000000E+00  0.21565008790E+04  0.21565008790E+04  0.00000000000E+00 0.  1.
         21   -1    0    0  501  502 -0.00000000000E+00 -0.00000000000E+00 -0.49813473857E+02  0.49813473857E+02  0.00000000000E+00 0.  1.
         25    1    1    2    0    0  0.18455332627E+03  0.11210307361E+03  0.10614948017E+04  0.10904234239E+04  0.12500000000E+03 0.  0.
         25    1    1    2    0    0 -0.18988672314E+03 -0.10545164892E+03  0.53879131019E+03  0.59422057674E+03  0.12500000000E+03 0.  0.
         25    1    1    2    0    0  0.53333968711E+01 -0.66514246946E+01  0.50640129322E+03  0.52167035218E+03  0.12500000000E+03 0.  0.
</event>
<event>
 5    0  0.5452999E-005  0.2464434E+03  0.7546771E-02  0.1115573E+00
         21   -1    0    0  502  501  0.00000000000E+00  0.00000000000E+00  0.46386008895E+03  0.46386008895E+03  0.00000000000E+00 0.  1.
         21   -1    0    0  501  502 -0.00000000000E+00 -0.00000000000E+00 -0.13093246770E+03  0.13093246770E+03  0.00000000000E+00 0.  1.
         25    1    1    2    0    0  0.22124812202E+02  0.39019998469E+02  0.27370268866E+02  0.13559571975E+03  0.12500000000E+03 0.  0.
         25    1    1    2    0    0  0.59851844215E+02  0.14274936624E+02  0.32019191054E+02  0.14295539748E+03  0.12500000000E+03 0.  0.
         25    1    1    2    0    0 -0.81976656417E+02 -0.53294935093E+02  0.27353816133E+03  0.31624143942E+03  0.12500000000E+03 0.  0.
</event>
<event>
 5    0  0.5452999E-005  0.3596426E+03  0.7546771E-02  0.1058725E+00
         21   -1    0    0  502  501  0.00000000000E+00  0.00000000000E+00  0.71537902841E+03  0.71537902841E+03  0.00000000000E+00 0.  1.
         21   -1    0    0  501  502 -0.00000000000E+00 -0.00000000000E+00 -0.18080316394E+03  0.18080316394E+03  0.00000000000E+00 0.  1.
         25    1    1    2    0    0  0.10489577886E+03 -0.34157512317E+02 -0.85126716740E+02  0.18719353080E+03  0.12500000000E+03 0.  0.
         25    1    1    2    0    0  0.51193660118E+01 -0.40955352987E+02  0.12458109093E+03  0.18124292280E+03  0.12500000000E+03 0.  0.
         25    1    1    2    0    0 -0.11001514487E+03  0.75112865304E+02  0.49512149028E+03  0.52774573876E+03  0.12500000000E+03 0.  0.
</event>
<event>
 5    0  0.5452999E-005  0.2457269E+03  0.7546771E-02  0.1116035E+00
         21   -1    0    0  502  501  0.00000000000E+00  0.00000000000E+00  0.53549251231E+03  0.53549251231E+03  0.00000000000E+00 0.  1.
         21   -1    0    0  501  502 -0.00000000000E+00 -0.00000000000E+00 -0.11275918311E+03  0.11275918311E+03  0.00000000000E+00 0.  1.
         25    1    1    2    0    0  0.40099463641E+02  0.10471737338E+03  0.25363325540E+03  0.30418501528E+03  0.12500000000E+03 0.  0.
         25    1    1    2    0    0  0.24449651068E+02 -0.93261619200E+02  0.10042659468E+03  0.18709894701E+03  0.12500000000E+03 0.  0.
         25    1    1    2    0    0 -0.64549114709E+02 -0.11455754176E+02  0.68673479124E+02  0.15696773314E+03  0.12500000000E+03 0.  0.
</event>
<event>
 5    0  0.5452999E-005  0.3277555E+03  0.7546771E-02  0.1072134E+00
         21   -1    0    0  502  501  0.00000000000E+00  0.00000000000E+00  0.24701632292E+04  0.24701632292E+04  0.00000000000E+00 0. -1.
         21   -1    0    0  501  502 -0.00000000000E+00 -0.00000000000E+00 -0.43488483127E+02  0.43488483127E+02  0.00000000000E+00 0. -1.
         25    1    1    2    0    0  0.39317053667E+02 -0.19654480350E+03  0.61316813860E+03  0.65709653529E+03  0.12500000000E+03 0.  0.
         25    1    1    2    0    0  0.26415491734E+02 -0.15968207593E+02  0.40027616878E+03  0.42047446195E+03  0.12500000000E+03 0.  0.
         25    1    1    2    0    0 -0.65732545401E+02  0.21251301110E+03  0.14132304387E+04  0.14360807151E+04  0.12500000000E+03 0.  0.
</event>
<event>
 5    0  0.5452999E-005  0.4404676E+03  0.7546771E-02  0.1030603E+00
         21   -1    0    0  502  501  0.00000000000E+00  0.00000000000E+00  0.44486953586E+03  0.44486953586E+03  0.00000000000E+00 0.  1.
         21   -1    0    0  501  502 -0.00000000000E+00 -0.00000000000E+00 -0.43610919974E+03  0.43610919974E+03  0.00000000000E+00 0.  1.
         25    1    1    2    0    0  0.29993619295E+03  0.17472171783E+03  0.74006891848E+02  0.37628635182E+03  0.12500000000E+03 0.  0.
         25    1    1    2    0    0 -0.34337278720E+02 -0.12649073613E+03  0.46373801566E+02  0.18696118450E+03  0.12500000000E+03 0.  0.
         25    1    1    2    0    0 -0.26559891423E+03 -0.48230981699E+02 -0.11162035728E+03  0.31773119928E+03  0.12500000000E+03 0.  0.
</event>
<event>
 5    0  0.5452999E-005  0.2236838E+03  0.7546771E-02  0.1131166E+00
         21   -1    0    0  502  501  0.00000000000E+00  0.00000000000E+00  0.15359049701E+03  0.15359049701E+03  0.00000000000E+00 0.  1.
         21   -1    0    0  501  502 -0.00000000000E+00 -0.00000000000E+00 -0.32576534056E+03  0.32576534056E+03  0.00000000000E+00 0.  1.
         25    1    1    2    0    0 -0.45710546028E+02 -0.62998095009E+02 -0.11899521464E+03  0.18932267456E+03  0.12500000000E+03 0.  0.
         25    1    1    2    0    0  0.25630437261E+02 -0.20931623165E+02 -0.64118130668E+00  0.12930763039E+03  0.12500000000E+03 0.  0.
         25    1    1    2    0    0  0.20080108767E+02  0.83929718174E+02 -0.52538447602E+02  0.16072553262E+03  0.12500000000E+03 0.  0.
</event>
<event>
 5    0  0.5452999E-005  0.2883582E+03  0.7546771E-02  0.1091209E+00
         21   -1    0    0  502  501  0.00000000000E+00  0.00000000000E+00  0.28589128314E+03  0.28589128314E+03  0.00000000000E+00 0. -1.
         21   -1    0    0  501  502 -0.00000000000E+00 -0.00000000000E+00 -0.29084636186E+03  0.29084636186E+03  0.00000000000E+00 0. -1.
         25    1    1    2    0    0 -0.35152170313E+02 -0.27163604269E+02  0.14017862063E+03  0.19299891750E+03  0.12500000000E+03 0.  0.
         25    1    1    2    0    0  0.54185627938E+02  0.67003331358E+02  0.39088878288E+02  0.15677521837E+03  0.12500000000E+03 0.  0.
         25    1    1    2    0    0 -0.19033457625E+02 -0.39839727089E+02 -0.18422257765E+03  0.22696350913E+03  0.12500000000E+03 0.  0.
</event>
<event>
 5    0  0.5452999E-005  0.4306520E+03  0.7546771E-02  0.1033654E+00
         21   -1    0    0  502  501  0.00000000000E+00  0.00000000000E+00  0.45367129886E+03  0.45367129886E+03  0.00000000000E+00 0. -1.
         21   -1    0    0  501  502 -0.00000000000E+00 -0.00000000000E+00 -0.40880077374E+03  0.40880077374E+03  0.00000000000E+00 0. -1.
         25    1    1    2    0    0  0.17104154909E+03  0.72415776755E+02 -0.10437797949E+03  0.24702028022E+03  0.12500000000E+03 0.  0.
         25    1    1    2    0    0 -0.76921821626E+02 -0.27309534654E+03 -0.18624136054E+02  0.31059602925E+03  0.12500000000E+03 0.  0.
         25    1    1    2    0    0 -0.94119727466E+02  0.20067956978E+03  0.16787264067E+03  0.30485576313E+03  0.12500000000E+03 0.  0.
</event>
<event>
 5    0  0.5452999E-005  0.2528425E+03  0.7546771E-02  0.1111522E+00
         21   -1    0    0  502  501  0.00000000000E+00  0.00000000000E+00  0.23040948458E+04  0.23040948458E+04  0.00000000000E+00 0.  1.
         21   -1    0    0  501  502 -0.00000000000E+00 -0.00000000000E+00 -0.27745955575E+02  0.27745955575E+02  0.00000000000E+00 0.  1.
         25    1    1    2    0    0  0.66606082173E+02  0.59907225571E+02  0.35569372138E+03  0.38751550845E+03  0.12500000000E+03 0.  0.
         25    1    1    2    0    0 -0.95834091907E+02  0.70674108957E+01  0.99629538347E+03  0.10086940134E+04  0.12500000000E+03 0.  0.
         25    1    1    2    0    0  0.29228009734E+02 -0.66974636467E+02  0.92435978541E+03  0.93563127960E+03  0.12500000000E+03 0.  0.
</event>
<event>
 5    0  0.5452999E-005  0.2265227E+03  0.7546771E-02  0.1129111E+00
         21   -1    0    0  502  501  0.00000000000E+00  0.00000000000E+00  0.17264074582E+03  0.17264074582E+03  0.00000000000E+00 0.  1.
         21   -1    0    0  501  502 -0.00000000000E+00 -0.00000000000E+00 -0.29722153844E+03  0.29722153844E+03  0.00000000000E+00 0.  1.
         25    1    1    2    0    0 -0.70580182137E+02 -0.56615313137E+02 -0.52492227653E+02  0.16299475377E+03  0.12500000000E+03 0.  0.
         25    1    1    2    0    0 -0.22186012412E+02  0.15477399866E+02  0.57715882095E+01  0.12802374891E+03  0.12500000000E+03 0.  0.
         25    1    1    2    0    0  0.92766194549E+02  0.41137913272E+02 -0.77860153176E+02  0.17884378159E+03  0.12500000000E+03 0.  0.
</event>
<event>
 5    0  0.5452999E-005  0.2574398E+03  0.7546771E-02  0.1108691E+00
         21   -1    0    0  502  501  0.00000000000E+00  0.00000000000E+00  0.87505312920E+02  0.87505312920E+02  0.00000000000E+00 0. -1.
         21   -1    0    0  501  502 -0.00000000000E+00 -0.00000000000E+00 -0.75738522948E+03  0.75738522948E+03  0.00000000000E+00 0. -1.
         25    1    1    2    0    0 -0.94081737111E+02 -0.13336744551E+02 -0.29976053482E+03  0.33839417880E+03  0.12500000000E+03 0.  0.
         25    1    1    2    0    0 -0.31013491601E+02  0.83476808175E+02 -0.19279301160E+03  0.24642313099E+03  0.12500000000E+03 0.  0.
         25    1    1    2    0    0  0.12509522871E+03 -0.70140063624E+02 -0.17732637014E+03  0.26007323261E+03  0.12500000000E+03 0.  0.
</event>
<event>
 5    0  0.5452999E-005  0.4783767E+03  0.7546771E-02  0.1019582E+00
         21   -1    0    0  502  501  0.00000000000E+00  0.00000000000E+00  0.42935384987E+03  0.42935384987E+03  0.00000000000E+00 0. -1.
         21   -1    0    0  501  502 -0.00000000000E+00 -0.00000000000E+00 -0.53299686506E+03  0.53299686506E+03  0.00000000000E+00 0. -1.
         25    1    1    2    0    0  0.19963486024E+03  0.25331611826E+02  0.13516615748E+03  0.27274650888E+03  0.12500000000E+03 0.  0.
         25    1    1    2    0    0  0.55930593454E+02  0.10141555177E+03  0.12451934572E+03  0.21105310441E+03  0.12500000000E+03 0.  0.
         25    1    1    2    0    0 -0.25556545370E+03 -0.12674716359E+03 -0.36332851839E+03  0.47855110163E+03  0.12500000000E+03 0.  0.
</event>
<event>
 5    0  0.5452999E-005  0.3495891E+03  0.7546771E-02  0.1062784E+00
         21   -1    0    0  502  501  0.00000000000E+00  0.00000000000E+00  0.24944912497E+03  0.24944912497E+03  0.00000000000E+00 0.  1.
         21   -1    0    0  501  502 -0.00000000000E+00 -0.00000000000E+00 -0.48992967207E+03  0.48992967207E+03  0.00000000000E+00 0.  1.
         25    1    1    2    0    0 -0.59982337704E+02 -0.11172061248E+03 -0.16276767309E+03  0.24124197705E+03  0.12500000000E+03 0.  0.
         25    1    1    2    0    0 -0.96722804569E+02 -0.81374557229E+02  0.59972990325E+02  0.18761364304E+03  0.12500000000E+03 0.  0.
         25    1    1    2    0    0  0.15670514227E+03  0.19309516971E+03 -0.13768586434E+03  0.31052317694E+03  0.12500000000E+03 0.  0.
</event>
<event>
 5    0  0.5452999E-005  0.3245298E+03  0.7546771E-02  0.1073583E+00
         21   -1    0    0  502  501  0.00000000000E+00  0.00000000000E+00  0.16359922270E+03  0.16359922270E+03  0.00000000000E+00 0. -1.
         21   -1    0    0  501  502 -0.00000000000E+00 -0.00000000000E+00 -0.64376592626E+03  0.64376592626E+03  0.00000000000E+00 0. -1.
         25    1    1    2    0    0  0.26794341313E+02 -0.58655385168E+02 -0.22066837865E+03  0.26168286966E+03  0.12500000000E+03 0.  0.
         25    1    1    2    0    0  0.10758554633E+03 -0.11747348528E+02  0.55478850813E+02  0.17440055293E+03  0.12500000000E+03 0.  0.
         25    1    1    2    0    0 -0.13437988764E+03  0.70402733696E+02 -0.31497717571E+03  0.37128172637E+03  0.12500000000E+03 0.  0.
</event>
<event>
 5    0  0.5452999E-005  0.3229953E+03  0.7546771E-02  0.1074279E+00
         21   -1    0    0  502  501  0.00000000000E+00  0.00000000000E+00  0.38568559516E+03  0.38568559516E+03  0.00000000000E+00 0.  1.
         21   -1    0    0  501  502 -0.00000000000E+00 -0.00000000000E+00 -0.27049486985E+03  0.27049486985E+03  0.00000000000E+00 0.  1.
         25    1    1    2    0    0  0.37518886859E+02  0.14324389821E+03 -0.15903514250E+03  0.25068637337E+03  0.12500000000E+03 0.  0.
         25    1    1    2    0    0 -0.46469600683E+01 -0.62930763082E+02  0.89590508011E+02  0.16623277145E+03  0.12500000000E+03 0.  0.
         25    1    1    2    0    0 -0.32871926791E+02 -0.80313135127E+02  0.18463535981E+03  0.23926132018E+03  0.12500000000E+03 0.  0.
</event>
<event>
 5    0  0.5452999E-005  0.2052397E+03  0.7546771E-02  0.1145392E+00
         21   -1    0    0  502  501  0.00000000000E+00  0.00000000000E+00  0.29174145210E+03  0.29174145210E+03  0.00000000000E+00 0.  1.
         21   -1    0    0  501  502 -0.00000000000E+00 -0.00000000000E+00 -0.14438587821E+03  0.14438587821E+03  0.00000000000E+00 0.  1.
         25    1    1    2    0    0 -0.42929916096E+02  0.24203039352E+02  0.96580357335E+02  0.16547365420E+03  0.12500000000E+03 0.  0.
         25    1    1    2    0    0  0.11665501560E+02 -0.27153231751E+02  0.59328459566E+02  0.14148585808E+03  0.12500000000E+03 0.  0.
         25    1    1    2    0    0  0.31264414536E+02  0.29501923986E+01 -0.85532430089E+01  0.12916781804E+03  0.12500000000E+03 0.  0.
</event>
<event>
 5    0  0.5452999E-005  0.3085215E+03  0.7546771E-02  0.1081057E+00
         21   -1    0    0  502  501  0.00000000000E+00  0.00000000000E+00  0.79698443608E+02  0.79698443608E+02  0.00000000000E+00 0. -1.
         21   -1    0    0  501  502 -0.00000000000E+00 -0.00000000000E+00 -0.11943210151E+04  0.11943210151E+04  0.00000000000E+00 0. -1.
         25    1    1    2    0    0  0.12367458581E+03  0.27452357003E+02 -0.10015494663E+03  0.20421813929E+03  0.12500000000E+03 0.  0.
         25    1    1    2    0    0 -0.10373504958E+03  0.44725739030E+02 -0.33615026446E+03  0.37600977719E+03  0.12500000000E+03 0.  0.
         25    1    1    2    0    0 -0.19939536228E+02 -0.72178096033E+02 -0.67831736036E+03  0.69379154219E+03  0.12500000000E+03 0.  0.
</event>
<event>
 5    0  0.5452999E-005  0.3165493E+03  0.7546771E-02  0.1077248E+00
         21   -1    0    0  502  501  0.00000000000E+00  0.00000000000E+00  0.21428398465E+03  0.21428398465E+03  0.00000000000E+00 0. -1.
         21   -1    0    0  501  502 -0.00000000000E+00 -0.00000000000E+00 -0.46761994692E+03  0.46761994692E+03  0.00000000000E+00 0. -1.
         25    1    1    2    0    0 -0.83014596350E+02  0.63125167761E+02 -0.16984465256E+03  0.23526244072E+03  0.12500000000E+03 0.  0.
         25    1    1    2    0    0  0.81936575486E+02 -0.12549039493E+03  0.97378977553E+02  0.21810343164E+03  0.12500000000E+03 0.  0.
         25    1    1    2    0    0  0.10780208635E+01  0.62365227170E+02 -0.18087028727E+03  0.22853805920E+03  0.12500000000E+03 0.  0.
</event>
<event>
 5    0  0.5781488E-005  0.3286550E+03  0.7546771E-02  0.1071734E+00
         21   -1    0    0  502  501  0.00000000000E+00  0.00000000000E+00  0.30663009616E+03  0.30663009616E+03  0.00000000000E+00 0.  1.
         21   -1    0    0  501  502 -0.00000000000E+00 -0.00000000000E+00 -0.35226198568E+03  0.35226198568E+03  0.00000000000E+00 0.  1.
         25    1    1    2    0    0  0.15912059050E+03  0.12238118330E+03  0.93957268231E+02  0.25445920027E+03  0.12500000000E+03 0.  0.
         25    1    1    2    0    0 -0.14976674821E+03 -0.11727679111E+03 -0.15761456830E+02  0.22816079445E+03  0.12500000000E+03 0.  0.
         25    1    1    2    0    0 -0.93538422985E+01 -0.51043921952E+01 -0.12382770092E+03  0.17627208713E+03  0.12500000000E+03 0.  0.
</event>
<event>
 5    0  0.5452999E-005  0.3537626E+03  0.7546771E-02  0.1061081E+00
         21   -1    0    0  502  501  0.00000000000E+00  0.00000000000E+00  0.11753986425E+03  0.11753986425E+03  0.00000000000E+00 0. -1.
         21   -1    0    0  501  502 -0.00000000000E+00 -0.00000000000E+00 -0.10647282000E+04  0.10647282000E+04  0.00000000000E+00 0. -1.
         25    1    1    2    0    0  0.19319902695E+02 -0.62062432238E+02 -0.18479632286E+03  0.23237832316E+03  0.12500000000E+03 0.  0.
         25    1    1    2    0    0 -0.20635020545E+03  0.74276769889E+02 -0.14149534377E+03  0.28938448152E+03  0.12500000000E+03 0.  0.
         25    1    1    2    0    0  0.18703030275E+03 -0.12214337651E+02 -0.62089666916E+03  0.66050525960E+03  0.12500000000E+03 0.  0.
</event>
<event>
 5    0  0.5452999E-005  0.3898686E+03  0.7546771E-02  0.1047345E+00
         21   -1    0    0  502  501  0.00000000000E+00  0.00000000000E+00  0.39051906616E+02  0.39051906616E+02  0.00000000000E+00 0.  1.
         21   -1    0    0  501  502 -0.00000000000E+00 -0.00000000000E+00 -0.38921916009E+04  0.38921916009E+04  0.00000000000E+00 0.  1.
         25    1    1    2    0    0 -0.23248199932E+03  0.57808048982E+02 -0.90048198845E+03  0.94015023377E+03  0.12500000000E+03 0.  0.
         25    1    1    2    0    0  0.23050899608E+03  0.96179123568E+02 -0.17799814285E+04  0.18017612791E+04  0.12500000000E+03 0.  0.
         25    1    1    2    0    0  0.19730032383E+01 -0.15398717255E+03 -0.11726762773E+04  0.11893319946E+04  0.12500000000E+03 0.  0.
</event>
<event>
 5    0  0.5452999E-005  0.2290963E+03  0.7546771E-02  0.1127277E+00
         21   -1    0    0  502  501  0.00000000000E+00  0.00000000000E+00  0.48328602931E+02  0.48328602931E+02  0.00000000000E+00 0.  1.
         21   -1    0    0  501  502 -0.00000000000E+00 -0.00000000000E+00 -0.10860052142E+04  0.10860052142E+04  0.00000000000E+00 0.  1.
         25    1    1    2    0    0 -0.46548104890E+02 -0.82276370435E+02 -0.41996163335E+03  0.44825093495E+03  0.12500000000E+03 0.  0.
         25    1    1    2    0    0 -0.34846858061E+02  0.37099539145E+01 -0.27953875512E+03  0.30821256121E+03  0.12500000000E+03 0.  0.
         25    1    1    2    0    0  0.81394962951E+02  0.78566416521E+02 -0.33817622279E+03  0.37787032095E+03  0.12500000000E+03 0.  0.
</event>
<event>
 5    0  0.5452999E-005  0.2785437E+03  0.7546771E-02  0.1096487E+00
         21   -1    0    0  502  501  0.00000000000E+00  0.00000000000E+00  0.37813621946E+03  0.37813621946E+03  0.00000000000E+00 0. -1.
         21   -1    0    0  501  502 -0.00000000000E+00 -0.00000000000E+00 -0.20518152308E+03  0.20518152308E+03  0.00000000000E+00 0. -1.
         25    1    1    2    0    0  0.16841125640E+02 -0.13459725194E+03  0.18882009877E+03  0.26396604601E+03  0.12500000000E+03 0.  0.
         25    1    1    2    0    0  0.31496059911E+02  0.16680710789E+02 -0.46860756795E+02  0.13817083060E+03  0.12500000000E+03 0.  0.
         25    1    1    2    0    0 -0.48337185551E+02  0.11791654115E+03  0.30995354410E+02  0.18118086593E+03  0.12500000000E+03 0.  0.
</event>
<event>
 5    0  0.5452999E-005  0.2819336E+03  0.7546771E-02  0.1094638E+00
         21   -1    0    0  502  501  0.00000000000E+00  0.00000000000E+00  0.38672224088E+03  0.38672224088E+03  0.00000000000E+00 0.  1.
         21   -1    0    0  501  502 -0.00000000000E+00 -0.00000000000E+00 -0.20553911601E+03  0.20553911601E+03  0.00000000000E+00 0.  1.
         25    1    1    2    0    0  0.86119848142E+02 -0.78151712507E+02  0.14883761410E+03  0.22649934610E+03  0.12500000000E+03 0.  0.
         25    1    1    2    0    0  0.63846302717E+02  0.81910481515E+02 -0.19634567802E+02  0.16369542940E+03  0.12500000000E+03 0.  0.
         25    1    1    2    0    0 -0.14996615086E+03 -0.37587690083E+01  0.51980078564E+02  0.20206658139E+03  0.12500000000E+03 0.  0.
</event>
<event>
 5    0  0.5452999E-005  0.2222635E+03  0.7546771E-02  0.1132207E+00
         21   -1    0    0  502  501  0.00000000000E+00  0.00000000000E+00  0.16572304286E+03  0.16572304286E+03  0.00000000000E+00 0.  1.
         21   -1    0    0  501  502 -0.00000000000E+00 -0.00000000000E+00 -0.29809398976E+03  0.29809398976E+03  0.00000000000E+00 0.  1.
         25    1    1    2    0    0  0.36126269915E+02 -0.10355444376E+02  0.30534017007E+02  0.13405099329E+03  0.12500000000E+03 0.  0.
         25    1    1    2    0    0  0.49453976454E+02  0.11452835980E+02 -0.84415513350E+02  0.15914723414E+03  0.12500000000E+03 0.  0.
         25    1    1    2    0    0 -0.85580246369E+02 -0.10973916039E+01 -0.78489450553E+02  0.17061880519E+03  0.12500000000E+03 0.  0.
</event>
<event>
 5    0  0.5452999E-005  0.2922771E+03  0.7546771E-02  0.1089166E+00
         21   -1    0    0  502  501  0.00000000000E+00  0.00000000000E+00  0.12656192146E+03  0.12656192146E+03  0.00000000000E+00 0.  1.
         21   -1    0    0  501  502 -0.00000000000E+00 -0.00000000000E+00 -0.67497308496E+03  0.67497308496E+03  0.00000000000E+00 0.  1.
         25    1    1    2    0    0  0.12019154571E+03 -0.14357426771E+03 -0.20216562316E+03  0.30258142242E+03  0.12500000000E+03 0.  0.
         25    1    1    2    0    0 -0.10403179781E+03  0.13755535603E+03 -0.29241472031E+03  0.36176713447E+03  0.12500000000E+03 0.  0.
         25    1    1    2    0    0 -0.16159747904E+02  0.60189116815E+01 -0.53830820023E+02  0.13718644953E+03  0.12500000000E+03 0.  0.
</event>
<event>
 5    0  0.5452999E-005  0.4346169E+03  0.7546771E-02  0.1032411E+00
         21   -1    0    0  502  501  0.00000000000E+00  0.00000000000E+00  0.10564211689E+04  0.10564211689E+04  0.00000000000E+00 0. -1.
         21   -1    0    0  501  502 -0.00000000000E+00 -0.00000000000E+00 -0.17880352793E+03  0.17880352793E+03  0.00000000000E+00 0. -1.
         25    1    1    2    0    0  0.37594132319E+02 -0.65297597914E+02  0.20359033676E+03  0.25050173712E+03  0.12500000000E+03 0.  0.
         25    1    1    2    0    0  0.27924028472E+03  0.74290198330E+02  0.12536386078E+03  0.33887352769E+03  0.12500000000E+03 0.  0.
         25    1    1    2    0    0 -0.31683441704E+03 -0.89926004153E+01  0.54866344339E+03  0.64584943199E+03  0.12500000000E+03 0.  0.
</event>
<event>
 5    0  0.5866478E-005  0.5042310E+03  0.7546771E-02  0.1012680E+00
         21   -1    0    0  502  501  0.00000000000E+00  0.00000000000E+00  0.33861185774E+03  0.33861185774E+03  0.00000000000E+00 0. -1.
         21   -1    0    0  501  502 -0.00000000000E+00 -0.00000000000E+00 -0.75085635306E+03  0.75085635306E+03  0.00000000000E+00 0. -1.
         25    1    1    2    0    0  0.10088732337E+03 -0.10428364363E+03 -0.46516123721E+03  0.50304404076E+03  0.12500000000E+03 0.  0.
         25    1    1    2    0    0 -0.95246658074E+02 -0.19043343803E+03  0.92804006465E+02  0.26376960365E+03  0.12500000000E+03 0.  0.
         25    1    1    2    0    0 -0.56406652931E+01  0.29471708167E+03 -0.39887264580E+02  0.32265456638E+03  0.12500000000E+03 0.  0.
</event>
<event>
 5    0  0.5452999E-005  0.2650924E+03  0.7546771E-02  0.1104122E+00
         21   -1    0    0  502  501  0.00000000000E+00  0.00000000000E+00  0.78033380219E+02  0.78033380219E+02  0.00000000000E+00 0. -1.
         21   -1    0    0  501  502 -0.00000000000E+00 -0.00000000000E+00 -0.90056319487E+03  0.90056319487E+03  0.00000000000E+00 0. -1.
         25    1    1    2    0    0  0.59126145729E+02 -0.96329528244E+02 -0.12794206522E+03  0.21158792776E+03  0.12500000000E+03 0.  0.
         25    1    1    2    0    0 -0.42975001421E+02  0.34881675331E+02 -0.14281801821E+03  0.19770070396E+03  0.12500000000E+03 0.  0.
         25    1    1    2    0    0 -0.16151144308E+02  0.61447852913E+02 -0.55176973123E+03  0.56930794337E+03  0.12500000000E+03 0.  0.
</event>
<event>
 5    0  0.5452999E-005  0.2781848E+03  0.7546771E-02  0.1096685E+00
         21   -1    0    0  502  501  0.00000000000E+00  0.00000000000E+00  0.45134048380E+03  0.45134048380E+03  0.00000000000E+00 0.  1.
         21   -1    0    0  501  502 -0.00000000000E+00 -0.00000000000E+00 -0.17145986775E+03  0.17145986775E+03  0.00000000000E+00 0.  1.
         25    1    1    2    0    0 -0.86985744022E+02  0.11632424392E+03  0.12261268754E+03  0.22750103414E+03  0.12500000000E+03 0.  0.
         25    1    1    2    0    0 -0.19138917277E+02 -0.93174427004E+02  0.16719046448E+03  0.22940231781E+03  0.12500000000E+03 0.  0.
         25    1    1    2    0    0  0.10612466130E+03 -0.23149816918E+02 -0.99225359670E+01  0.16589699961E+03  0.12500000000E+03 0.  0.
</event>
<event>
 5    0  0.5452999E-005  0.3860073E+03  0.7546771E-02  0.1048736E+00
         21   -1    0    0  502  501  0.00000000000E+00  0.00000000000E+00  0.19306020609E+03  0.19306020609E+03  0.00000000000E+00 0. -1.
         21   -1    0    0  501  502 -0.00000000000E+00 -0.00000000000E+00 -0.77178837891E+03  0.77178837891E+03  0.00000000000E+00 0. -1.
         25    1    1    2    0    0  0.15539284089E+03  0.15580886761E+03 -0.22125434788E+03  0.33615744032E+03  0.12500000000E+03 0.  0.
         25    1    1    2    0    0 -0.26933449005E+03 -0.11553918051E+03 -0.13424445394E+03  0.34574115054E+03  0.12500000000E+03 0.  0.
         25    1    1    2    0    0  0.11394164915E+03 -0.40269687104E+02 -0.22322937099E+03  0.28294999414E+03  0.12500000000E+03 0.  0.
</event>
<event>
 5    0  0.5452999E-005  0.4863800E+03  0.7546771E-02  0.1017396E+00
         21   -1    0    0  502  501  0.00000000000E+00  0.00000000000E+00  0.30277443151E+03  0.30277443151E+03  0.00000000000E+00 0. -1.
         21   -1    0    0  501  502 -0.00000000000E+00 -0.00000000000E+00 -0.78132584066E+03  0.78132584066E+03  0.00000000000E+00 0. -1.
         25    1    1    2    0    0 -0.29238677893E+03  0.22984713858E+03 -0.38490973284E+03  0.54963645989E+03  0.12500000000E+03 0.  0.
         25    1    1    2    0    0 -0.21100114498E+02 -0.20014833590E+02 -0.32454376927E+02  0.13237860468E+03  0.12500000000E+03 0.  0.
         25    1    1    2    0    0  0.31348689342E+03 -0.20983230499E+03 -0.61187299385E+02  0.40208520760E+03  0.12500000000E+03 0.  0.
</event>
<event>
 5    0  0.5452999E-005  0.2900447E+03  0.7546771E-02  0.1090326E+00
         21   -1    0    0  502  501  0.00000000000E+00  0.00000000000E+00  0.34206471483E+03  0.34206471483E+03  0.00000000000E+00 0.  1.
         21   -1    0    0  501  502 -0.00000000000E+00 -0.00000000000E+00 -0.24593565827E+03  0.24593565827E+03  0.00000000000E+00 0.  1.
         25    1    1    2    0    0  0.10744026811E+03  0.97563818476E+02  0.78475556090E+02  0.20699160077E+03  0.12500000000E+03 0.  0.
         25    1    1    2    0    0 -0.12737479694E+03 -0.13990000388E+03  0.70479731692E+02  0.23746313937E+03  0.12500000000E+03 0.  0.
         25    1    1    2    0    0  0.19934528826E+02  0.42336185402E+02 -0.52826231222E+02  0.14354563295E+03  0.12500000000E+03 0.  0.
</event>
<event>
 5    0  0.5452999E-005  0.2805163E+03  0.7546771E-02  0.1095407E+00
         21   -1    0    0  502  501  0.00000000000E+00  0.00000000000E+00  0.14690405754E+04  0.14690405754E+04  0.00000000000E+00 0.  1.
         21   -1    0    0  501  502 -0.00000000000E+00 -0.00000000000E+00 -0.53565171440E+02  0.53565171440E+02  0.00000000000E+00 0.  1.
         25    1    1    2    0    0  0.42550518179E+02 -0.57910928887E+02  0.67152655412E+03  0.68683122758E+03  0.12500000000E+03 0.  0.
         25    1    1    2    0    0  0.37287958803E+02 -0.97935907643E+02  0.36984393732E+03  0.40421698610E+03  0.12500000000E+03 0.  0.
         25    1    1    2    0    0 -0.79838476981E+02  0.15584683653E+03  0.37410491252E+03  0.43155753317E+03  0.12500000000E+03 0.  0.
</event>
<event>
 5    0  0.5452999E-005  0.5434600E+03  0.7546771E-02  0.1003019E+00
         21   -1    0    0  502  501  0.00000000000E+00  0.00000000000E+00  0.32647694544E+03  0.32647694544E+03  0.00000000000E+00 0.  1.
         21   -1    0    0  501  502 -0.00000000000E+00 -0.00000000000E+00 -0.90465441326E+03  0.90465441326E+03  0.00000000000E+00 0.  1.
         25    1    1    2    0    0 -0.39099358134E+03  0.99297440861E+02 -0.43381625808E+03  0.60543992946E+03  0.12500000000E+03 0.  0.
         25    1    1    2    0    0  0.69087900643E+02  0.12970211774E+03 -0.66637074988E+02  0.20411094318E+03  0.12500000000E+03 0.  0.
         25    1    1    2    0    0  0.32190568069E+03 -0.22899955860E+03 -0.77724134754E+02  0.42158048606E+03  0.12500000000E+03 0.  0.
</event>
<event>
 5    0  0.5452999E-005  0.4030058E+03  0.7546771E-02  0.1042744E+00
         21   -1    0    0  502  501  0.00000000000E+00  0.00000000000E+00  0.12172577523E+03  0.12172577523E+03  0.00000000000E+00 0.  1.
         21   -1    0    0  501  502 -0.00000000000E+00 -0.00000000000E+00 -0.13342589288E+04  0.13342589288E+04  0.00000000000E+00 0.  1.
         25    1    1    2    0    0 -0.84278051904E+01 -0.14800471595E+03 -0.71620336263E+02  0.20671452878E+03  0.12500000000E+03 0.  0.
         25    1    1    2    0    0  0.16169115357E+03  0.10113891747E+03 -0.26279070392E+03  0.34793255645E+03  0.12500000000E+03 0.  0.
         25    1    1    2    0    0 -0.15326334838E+03  0.46865798477E+02 -0.87812211341E+03  0.90133761881E+03  0.12500000000E+03 0.  0.
</event>
<event>
 5    0  0.5473993E-005  0.4522876E+03  0.7546771E-02  0.1027042E+00
         21   -1    0    0  502  501  0.00000000000E+00  0.00000000000E+00  0.45033926507E+03  0.45033926507E+03  0.00000000000E+00 0. -1.
         21   -1    0    0  501  502 -0.00000000000E+00 -0.00000000000E+00 -0.45424443608E+03  0.45424443608E+03  0.00000000000E+00 0. -1.
         25    1    1    2    0    0 -0.98620655053E+02  0.27680012614E+03 -0.42174845957E+02  0.32209945835E+03  0.12500000000E+03 0.  0.
         25    1    1    2    0    0 -0.26080078079E+02 -0.21119213244E+03  0.21266910172E+03  0.32578433680E+03  0.12500000000E+03 0.  0.
         25    1    1    2    0    0  0.12470073313E+03 -0.65607993702E+02 -0.17439942678E+03  0.25669990600E+03  0.12500000000E+03 0.  0.
</event>
<event>
 5    0  0.5452999E-005  0.3002695E+03  0.7546771E-02  0.1085106E+00
         21   -1    0    0  502  501  0.00000000000E+00  0.00000000000E+00  0.58053720694E+02  0.58053720694E+02  0.00000000000E+00 0. -1.
         21   -1    0    0  501  502 -0.00000000000E+00 -0.00000000000E+00 -0.15530746066E+04  0.15530746066E+04  0.00000000000E+00 0. -1.
         25    1    1    2    0    0 -0.43808049263E+02  0.19131819844E+03 -0.49555900538E+03  0.54747194088E+03  0.12500000000E+03 0.  0.
         25    1    1    2    0    0  0.47909107198E+02 -0.47470111086E+02 -0.22498793176E+03  0.26607003484E+03  0.12500000000E+03 0.  0.
         25    1    1    2    0    0 -0.41010579349E+01 -0.14384808736E+03 -0.77447394875E+03  0.79758635157E+03  0.12500000000E+03 0.  0.
</event>
<event>
 5    0  0.5452999E-005  0.3885485E+03  0.7546771E-02  0.1047819E+00
         21   -1    0    0  502  501  0.00000000000E+00  0.00000000000E+00  0.54546050797E+03  0.54546050797E+03  0.00000000000E+00 0.  1.
         21   -1    0    0  501  502 -0.00000000000E+00 -0.00000000000E+00 -0.27677523568E+03  0.27677523568E+03  0.00000000000E+00 0.  1.
         25    1    1    2    0    0 -0.86433918292E+01 -0.14255844236E+03 -0.11358866115E+03  0.22118996734E+03  0.12500000000E+03 0.  0.
         25    1    1    2    0    0  0.16245401034E+03  0.12527419840E+03  0.30349665284E+03  0.38706607775E+03  0.12500000000E+03 0.  0.
         25    1    1    2    0    0 -0.15381061851E+03  0.17284243960E+02  0.78777280602E+02  0.21397969856E+03  0.12500000000E+03 0.  0.
</event>
<event>
 5    0  0.5452999E-005  0.2920650E+03  0.7546771E-02  0.1089276E+00
         21   -1    0    0  502  501  0.00000000000E+00  0.00000000000E+00  0.55114448757E+02  0.55114448757E+02  0.00000000000E+00 0. -1.
         21   -1    0    0  501  502 -0.00000000000E+00 -0.00000000000E+00 -0.15477236645E+04  0.15477236645E+04  0.00000000000E+00 0. -1.
         25    1    1    2    0    0 -0.49676009234E+02 -0.10947200734E+03 -0.19893386823E+03  0.26391572559E+03  0.12500000000E+03 0.  0.
         25    1    1    2    0    0 -0.50527954369E+02  0.89761638115E+02 -0.41393809683E+03  0.44449968938E+03  0.12500000000E+03 0.  0.
         25    1    1    2    0    0  0.10020396360E+03  0.19710369224E+02 -0.87973725071E+03  0.89442269831E+03  0.12500000000E+03 0.  0.
</event>
<event>
 5    0  0.5452999E-005  0.3109873E+03  0.7546771E-02  0.1079874E+00
         21   -1    0    0  502  501  0.00000000000E+00  0.00000000000E+00  0.15748669175E+03  0.15748669175E+03  0.00000000000E+00 0.  1.
         21   -1    0    0  501  502 -0.00000000000E+00 -0.00000000000E+00 -0.61410326895E+03  0.61410326895E+03  0.00000000000E+00 0.  1.
         25    1    1    2    0    0 -0.95733029383E+02 -0.10569346793E+03  0.39722407459E+02  0.19374930125E+03  0.12500000000E+03 0.  0.
         25    1    1    2    0    0  0.23717662257E+02  0.43345371626E+02 -0.18034971668E+03  0.22492747509E+03  0.12500000000E+03 0.  0.
         25    1    1    2    0    0  0.72015367126E+02  0.62348096308E+02 -0.31598926798E+03  0.35291318435E+03  0.12500000000E+03 0.  0.
</event>
<event>
 5    0  0.5452999E-005  0.3614777E+03  0.7546771E-02  0.1058000E+00
         21   -1    0    0  502  501  0.00000000000E+00  0.00000000000E+00  0.83989051419E+03  0.83989051419E+03  0.00000000000E+00 0. -1.
         21   -1    0    0  501  502 -0.00000000000E+00 -0.00000000000E+00 -0.15557517500E+03  0.15557517500E+03  0.00000000000E+00 0. -1.
         25    1    1    2    0    0  0.11424986454E+02 -0.53278716686E+02  0.60322420659E+01  0.13649373580E+03  0.12500000000E+03 0.  0.
         25    1    1    2    0    0 -0.13270290603E+02 -0.64080189842E+02  0.67277925218E+03  0.68741493547E+03  0.12500000000E+03 0.  0.
         25    1    1    2    0    0  0.18453041496E+01  0.11735890653E+03  0.55038449450E+01  0.17155701792E+03  0.12500000000E+03 0.  0.
</event>
<event>
 5    0  0.5452999E-005  0.2402911E+03  0.7546771E-02  0.1119599E+00
         21   -1    0    0  502  501  0.00000000000E+00  0.00000000000E+00  0.40104516738E+02  0.40104516738E+02  0.00000000000E+00 0.  1.
         21   -1    0    0  501  502 -0.00000000000E+00 -0.00000000000E+00 -0.14397333037E+04  0.14397333037E+04  0.00000000000E+00 0.  1.
         25    1    1    2    0    0  0.42908695387E+02 -0.55049230263E+02 -0.61995659176E+03  0.63627254345E+03  0.12500000000E+03 0.  0.
         25    1    1    2    0    0 -0.66850004150E+02  0.44902326183E+02 -0.62773674875E+03  0.64510740787E+03  0.12500000000E+03 0.  0.
         25    1    1    2    0    0  0.23941308763E+02  0.10146904080E+02 -0.15193544649E+03  0.19845786915E+03  0.12500000000E+03 0.  0.
</event>
<event>
 5    0  0.5452999E-005  0.3193579E+03  0.7546771E-02  0.1075945E+00
         21   -1    0    0  502  501  0.00000000000E+00  0.00000000000E+00  0.90163936594E+03  0.90163936594E+03  0.00000000000E+00 0.  1.
         21   -1    0    0  501  502 -0.00000000000E+00 -0.00000000000E+00 -0.11311558652E+03  0.11311558652E+03  0.00000000000E+00 0.  1.
         25    1    1    2    0    0  0.12618269479E+03  0.37763585982E+02  0.10816068498E+03  0.21135726783E+03  0.12500000000E+03 0.  0.
         25    1    1    2    0    0 -0.20644647141E+03 -0.36852238811E+02  0.56440826508E+03  0.61494708939E+03  0.12500000000E+03 0.  0.
         25    1    1    2    0    0  0.80263776626E+02 -0.91134717138E+00  0.11595482937E+03  0.18845059524E+03  0.12500000000E+03 0.  0.
</event>
<event>
 5    0  0.5452999E-005  0.2924036E+03  0.7546771E-02  0.1089101E+00
         21   -1    0    0  502  501  0.00000000000E+00  0.00000000000E+00  0.30698448044E+03  0.30698448044E+03  0.00000000000E+00 0. -1.
         21   -1    0    0  501  502 -0.00000000000E+00 -0.00000000000E+00 -0.27851520026E+03  0.27851520026E+03  0.00000000000E+00 0. -1.
         25    1    1    2    0    0  0.14879818800E+01 -0.73343294874E+02  0.12705483064E+03  0.19274175204E+03  0.12500000000E+03 0.  0.
         25    1    1    2    0    0 -0.42266261330E+01  0.17702410335E+03 -0.42172534325E+02  0.22081422098E+03  0.12500000000E+03 0.  0.
         25    1    1    2    0    0  0.27386442529E+01 -0.10368080848E+03 -0.56413016129E+02  0.17194370767E+03  0.12500000000E+03 0.  0.
</event>
<event>
 5    0  0.5452999E-005  0.2695923E+03  0.7546771E-02  0.1101513E+00
         21   -1    0    0  502  501  0.00000000000E+00  0.00000000000E+00  0.11674546660E+04  0.11674546660E+04  0.00000000000E+00 0. -1.
         21   -1    0    0  501  502 -0.00000000000E+00 -0.00000000000E+00 -0.62255084542E+02  0.62255084542E+02  0.00000000000E+00 0. -1.
         25    1    1    2    0    0  0.48319307607E+02 -0.40888974215E+01  0.76210991163E+03  0.77381392593E+03  0.12500000000E+03 0.  0.
         25    1    1    2    0    0 -0.89889387651E+02  0.24167269886E+02  0.12270171127E+03  0.19835541055E+03  0.12500000000E+03 0.  0.
         25    1    1    2    0    0  0.41570080044E+02 -0.20078372465E+02  0.22038795858E+03  0.25754041408E+03  0.12500000000E+03 0.  0.
</event>
<event>
 5    0  0.5452999E-005  0.2521812E+03  0.7546771E-02  0.1111934E+00
         21   -1    0    0  502  501  0.00000000000E+00  0.00000000000E+00  0.62530795875E+03  0.62530795875E+03  0.00000000000E+00 0.  1.
         21   -1    0    0  501  502 -0.00000000000E+00 -0.00000000000E+00 -0.10170244973E+03  0.10170244973E+03  0.00000000000E+00 0.  1.
         25    1    1    2    0    0 -0.47640622086E+02  0.81983138892E+01  0.36235662169E+03  0.38634720461E+03  0.12500000000E+03 0.  0.
         25    1    1    2    0    0  0.28088552022E+02  0.40238575065E+01  0.17039657989E+03  0.21322559092E+03  0.12500000000E+03 0.  0.
         25    1    1    2    0    0  0.19552070065E+02 -0.12222171396E+02 -0.91476925564E+01  0.12743761296E+03  0.12500000000E+03 0.  0.
</event>
<event>
 5    0  0.5452999E-005  0.4144242E+03  0.7546771E-02  0.1038896E+00
         21   -1    0    0  502  501  0.00000000000E+00  0.00000000000E+00  0.49151886431E+03  0.49151886431E+03  0.00000000000E+00 0. -1.
         21   -1    0    0  501  502 -0.00000000000E+00 -0.00000000000E+00 -0.34942176716E+03  0.34942176716E+03  0.00000000000E+00 0. -1.
         25    1    1    2    0    0 -0.18264351252E+03 -0.20239689982E+02  0.28683811794E+03  0.36286278897E+03  0.12500000000E+03 0.  0.
         25    1    1    2    0    0  0.89580229084E+02 -0.11003635309E+03 -0.19205197950E+03  0.26952101825E+03  0.12500000000E+03 0.  0.
         25    1    1    2    0    0  0.93063283440E+02  0.13027604308E+03  0.47310958711E+02  0.20855682424E+03  0.12500000000E+03 0.  0.
</event>
<event>
 5    0  0.5452999E-005  0.3134111E+03  0.7546771E-02  0.1078722E+00
         21   -1    0    0  502  501  0.00000000000E+00  0.00000000000E+00  0.13684219889E+03  0.13684219889E+03  0.00000000000E+00 0.  1.
         21   -1    0    0  501  502 -0.00000000000E+00 -0.00000000000E+00 -0.71780874252E+03  0.71780874252E+03  0.00000000000E+00 0.  1.
         25    1    1    2    0    0 -0.12938726141E+02 -0.65538497005E+02 -0.14712485689E+02  0.14249267511E+03  0.12500000000E+03 0.  0.
         25    1    1    2    0    0  0.86838201449E+02 -0.70115638312E+02 -0.77655179651E+02  0.18469543279E+03  0.12500000000E+03 0.  0.
         25    1    1    2    0    0 -0.73899475309E+02  0.13565413532E+03 -0.48859887829E+03  0.52746283352E+03  0.12500000000E+03 0.  0.
</event>
<event>
 5    0  0.5452999E-005  0.2658840E+03  0.7546771E-02  0.1103659E+00
         21   -1    0    0  502  501  0.00000000000E+00  0.00000000000E+00  0.74003279728E+02  0.74003279728E+02  0.00000000000E+00 0. -1.
         21   -1    0    0  501  502 -0.00000000000E+00 -0.00000000000E+00 -0.95528575893E+03  0.95528575893E+03  0.00000000000E+00 0. -1.
         25    1    1    2    0    0  0.56208578655E+01  0.17313047192E+02 -0.19903975060E+03  0.23573959779E+03  0.12500000000E+03 0.  0.
         25    1    1    2    0    0 -0.89302386858E+02  0.54298085393E+02 -0.56959023987E+03  0.59243669681E+03  0.12500000000E+03 0.  0.
         25    1    1    2    0    0  0.83681528993E+02 -0.71611132585E+02 -0.11265248873E+03  0.20111274406E+03  0.12500000000E+03 0.  0.
</event>
<event>
 5    0  0.5452999E-005  0.3222061E+03  0.7546771E-02  0.1074638E+00
         21   -1    0    0  502  501  0.00000000000E+00  0.00000000000E+00  0.12754282501E+04  0.12754282501E+04  0.00000000000E+00 0. -1.
         21   -1    0    0  501  502 -0.00000000000E+00 -0.00000000000E+00 -0.81397554638E+02  0.81397554638E+02  0.00000000000E+00 0. -1.
         25    1    1    2    0    0 -0.42718105666E+02 -0.77940008176E+02  0.23014121384E+03  0.27656727886E+03  0.12500000000E+03 0.  0.
         25    1    1    2    0    0 -0.18056581102E+03 -0.14023802452E+01  0.41888743255E+03  0.47296686980E+03  0.12500000000E+03 0.  0.
         25    1    1    2    0    0  0.22328391668E+03  0.79342388421E+02  0.54500204902E+03  0.60729165603E+03  0.12500000000E+03 0.  0.
</event>
<event>
 5    0  0.5985615E-005  0.3358159E+03  0.7546771E-02  0.1068592E+00
         21   -1    0    0  502  501  0.00000000000E+00  0.00000000000E+00  0.58515017191E+03  0.58515017191E+03  0.00000000000E+00 0. -1.
         21   -1    0    0  501  502 -0.00000000000E+00 -0.00000000000E+00 -0.19272370902E+03  0.19272370902E+03  0.00000000000E+00 0. -1.
         25    1    1    2    0    0  0.48847463854E+02 -0.19115221987E+03  0.11707848210E+03  0.26126158703E+03  0.12500000000E+03 0.  0.
         25    1    1    2    0    0  0.82626472215E+02  0.51151316917E+02 -0.70037335188E-01  0.15833065413E+03  0.12500000000E+03 0.  0.
         25    1    1    2    0    0 -0.13147393607E+03  0.14000090295E+03  0.27541801812E+03  0.35828163977E+03  0.12500000000E+03 0.  0.
</event>
<event>
 5    0  0.5452999E-005  0.2958901E+03  0.7546771E-02  0.1087313E+00
         21   -1    0    0  502  501  0.00000000000E+00  0.00000000000E+00  0.29611982442E+03  0.29611982442E+03  0.00000000000E+00 0. -1.
         21   -1    0    0  501  502 -0.00000000000E+00 -0.00000000000E+00 -0.29566048454E+03  0.29566048454E+03  0.00000000000E+00 0. -1.
         25    1    1    2    0    0  0.99860805193E+02 -0.34559555712E+02 -0.62512256263E+02  0.17521222985E+03  0.12500000000E+03 0.  0.
         25    1    1    2    0    0  0.99889708181E+02 -0.36925535348E+02  0.41587045272E+02  0.16939873463E+03  0.12500000000E+03 0.  0.
         25    1    1    2    0    0 -0.19975051337E+03  0.71485091059E+02  0.21384550868E+02  0.24716934448E+03  0.12500000000E+03 0.  0.
</event>
<event>
 5    0  0.5452999E-005  0.2766571E+03  0.7546771E-02  0.1097529E+00
         21   -1    0    0  502  501  0.00000000000E+00  0.00000000000E+00  0.10401319757E+04  0.10401319757E+04  0.00000000000E+00 0. -1.
         21   -1    0    0  501  502 -0.00000000000E+00 -0.00000000000E+00 -0.73586024079E+02  0.73586024079E+02  0.00000000000E+00 0. -1.
         25    1    1    2    0    0  0.17493674105E+03  0.45949599442E+02  0.29247337801E+03  0.36589603155E+03  0.12500000000E+03 0.  0.
         25    1    1    2    0    0 -0.48654690124E+02 -0.54724754831E+02  0.27275873787E+03  0.30884366069E+03  0.12500000000E+03 0.  0.
         25    1    1    2    0    0 -0.12628205093E+03  0.87751553890E+01  0.40131383578E+03  0.43897830758E+03  0.12500000000E+03 0.  0.
</event>
<event>
 5    0  0.5452999E-005  0.2356443E+03  0.7546771E-02  0.1122729E+00
         21   -1    0    0  502  501  0.00000000000E+00  0.00000000000E+00  0.22029525161E+03  0.22029525161E+03  0.00000000000E+00 0.  1.
         21   -1    0    0  501  502 -0.00000000000E+00 -0.00000000000E+00 -0.25206283710E+03  0.25206283710E+03  0.00000000000E+00 0.  1.
         25    1    1    2    0    0 -0.29239897512E+02  0.16969847926E+01  0.10973533650E+03  0.16889255591E+03  0.12500000000E+03 0.  0.
         25    1    1    2    0    0 -0.31735873763E+01 -0.50219751844E+01 -0.11832829068E+03  0.17222623571E+03  0.12500000000E+03 0.  0.
         25    1    1    2    0    0  0.32413484888E+02  0.33249903917E+01 -0.23174631314E+02  0.13123929709E+03  0.12500000000E+03 0.  0.
</event>
<event>
 5    0  0.5452999E-005  0.4714356E+03  0.7546771E-02  0.1021516E+00
         21   -1    0    0  502  501  0.00000000000E+00  0.00000000000E+00  0.57261655985E+03  0.57261655985E+03  0.00000000000E+00 0. -1.
         21   -1    0    0  501  502 -0.00000000000E+00 -0.00000000000E+00 -0.38813322713E+03  0.38813322713E+03  0.00000000000E+00 0. -1.
         25    1    1    2    0    0 -0.12070261938E+03  0.31651495800E+02 -0.23471441083E+02  0.17817645203E+03  0.12500000000E+03 0.  0.
         25    1    1    2    0    0  0.33338667589E+03  0.64919999895E+02  0.33101051299E+03  0.49046329298E+03  0.12500000000E+03 0.  0.
         25    1    1    2    0    0 -0.21268405651E+03 -0.96571495695E+02 -0.12305573920E+03  0.29211004198E+03  0.12500000000E+03 0.  0.
</event>
<event>
 5    0  0.5625843E-005  0.3031141E+03  0.7546771E-02  0.1083694E+00
         21   -1    0    0  502  501  0.00000000000E+00  0.00000000000E+00  0.73014317743E+03  0.73014317743E+03  0.00000000000E+00 0. -1.
         21   -1    0    0  501  502 -0.00000000000E+00 -0.00000000000E+00 -0.12583582852E+03  0.12583582852E+03  0.00000000000E+00 0. -1.
         25    1    1    2    0    0 -0.11657243063E+03  0.78273946327E+02  0.35361532688E+03  0.40048063831E+03  0.12500000000E+03 0.  0.
         25    1    1    2    0    0  0.11127610400E+03 -0.46360029152E+02  0.27389955784E+03  0.32431094865E+03  0.12500000000E+03 0.  0.
         25    1    1    2    0    0  0.52963266221E+01 -0.31913917175E+02 -0.23207535813E+02  0.13118741900E+03  0.12500000000E+03 0.  0.
</event>
<event>
 5    0  0.5452999E-005  0.3151240E+03  0.7546771E-02  0.1077915E+00
         21   -1    0    0  502  501  0.00000000000E+00  0.00000000000E+00  0.15284295086E+04  0.15284295086E+04  0.00000000000E+00 0.  1.
         21   -1    0    0  501  502 -0.00000000000E+00 -0.00000000000E+00 -0.64970715182E+02  0.64970715182E+02  0.00000000000E+00 0.  1.
         25    1    1    2    0    0  0.41274100786E+01 -0.52390544442E+02  0.10251173253E+04  0.10340465827E+04  0.12500000000E+03 0.  0.
         25    1    1    2    0    0  0.36345005684E+02 -0.59708512598E+02  0.86249137845E+02  0.16718247424E+03  0.12500000000E+03 0.  0.
         25    1    1    2    0    0 -0.40472415763E+02  0.11209905704E+03  0.35209233028E+03  0.39217116680E+03  0.12500000000E+03 0.  0.
</event>
<event>
 5    0  0.5452999E-005  0.3530539E+03  0.7546771E-02  0.1061369E+00
         21   -1    0    0  502  501  0.00000000000E+00  0.00000000000E+00  0.60186888643E+03  0.60186888643E+03  0.00000000000E+00 0. -1.
         21   -1    0    0  501  502 -0.00000000000E+00 -0.00000000000E+00 -0.20710007000E+03  0.20710007000E+03  0.00000000000E+00 0. -1.
         25    1    1    2    0    0  0.15597356076E+03  0.14992097567E+02 -0.46106333233E+02  0.20567768136E+03  0.12500000000E+03 0.  0.
         25    1    1    2    0    0  0.15200448858E+00  0.14767190874E+02  0.87202034179E+01  0.12617105444E+03  0.12500000000E+03 0.  0.
         25    1    1    2    0    0 -0.15612556525E+03 -0.29759288441E+02  0.43215494624E+03  0.47712022063E+03  0.12500000000E+03 0.  0.
</event>
<event>
 5    0  0.5452999E-005  0.2868471E+03  0.7546771E-02  0.1092007E+00
         21   -1    0    0  502  501  0.00000000000E+00  0.00000000000E+00  0.71744071039E+03  0.71744071039E+03  0.00000000000E+00 0. -1.
         21   -1    0    0  501  502 -0.00000000000E+00 -0.00000000000E+00 -0.11468715705E+03  0.11468715705E+03  0.00000000000E+00 0. -1.
         25    1    1    2    0    0 -0.88132260585E+02 -0.30306674484E+02  0.42581639402E+03  0.45346487327E+03  0.12500000000E+03 0.  0.
         25    1    1    2    0    0 -0.26635744300E+02  0.73320744251E+02  0.30589083294E+02  0.15048616690E+03  0.12500000000E+03 0.  0.
         25    1    1    2    0    0  0.11476800488E+03 -0.43014069768E+02  0.14634807604E+03  0.22817682727E+03  0.12500000000E+03 0.  0.
</event>
<event>
 5    0  0.5452999E-005  0.3371003E+03  0.7546771E-02  0.1068038E+00
         21   -1    0    0  502  501  0.00000000000E+00  0.00000000000E+00  0.10375916600E+03  0.10375916600E+03  0.00000000000E+00 0.  1.
         21   -1    0    0  501  502 -0.00000000000E+00 -0.00000000000E+00 -0.10951956185E+04  0.10951956185E+04  0.00000000000E+00 0.  1.
         25    1    1    2    0    0  0.61131098604E+02 -0.20087015711E+03 -0.14880755113E+03  0.28610228679E+03  0.12500000000E+03 0.  0.
         25    1    1    2    0    0  0.12595106223E+02  0.12131064481E+03 -0.54507846728E+03  0.57237264499E+03  0.12500000000E+03 0.  0.
         25    1    1    2    0    0 -0.73726204827E+02  0.79559512305E+02 -0.29755043411E+03  0.34047985273E+03  0.12500000000E+03 0.  0.
</event>
<event>
 5    0  0.5583015E-005  0.2993156E+03  0.7546771E-02  0.1085583E+00
         21   -1    0    0  502  501  0.00000000000E+00  0.00000000000E+00  0.67737362572E+03  0.67737362572E+03  0.00000000000E+00 0. -1.
         21   -1    0    0  501  502 -0.00000000000E+00 -0.00000000000E+00 -0.13226054821E+03  0.13226054821E+03  0.00000000000E+00 0. -1.
         25    1    1    2    0    0 -0.41901413944E+02  0.85511198169E+02  0.15255772703E+02  0.15787853592E+03  0.12500000000E+03 0.  0.
         25    1    1    2    0    0  0.18635204134E+02  0.48483672701E+02  0.40948420414E+03  0.43127746381E+03  0.12500000000E+03 0.  0.
         25    1    1    2    0    0  0.23266209810E+02 -0.13399487087E+03  0.12037310067E+03  0.22047817421E+03  0.12500000000E+03 0.  0.
</event>
<event>
 5    0  0.5452999E-005  0.3230432E+03  0.7546771E-02  0.1074257E+00
         21   -1    0    0  502  501  0.00000000000E+00  0.00000000000E+00  0.27374217457E+03  0.27374217457E+03  0.00000000000E+00 0.  1.
         21   -1    0    0  501  502 -0.00000000000E+00 -0.00000000000E+00 -0.38122330454E+03  0.38122330454E+03  0.00000000000E+00 0.  1.
         25    1    1    2    0    0 -0.17916096123E+03  0.10291170497E+03 -0.13495556362E+03  0.27663599404E+03  0.12500000000E+03 0.  0.
         25    1    1    2    0    0  0.19112728386E+02 -0.71441248238E+02 -0.57161151941E+02  0.15608185554E+03  0.12500000000E+03 0.  0.
         25    1    1    2    0    0  0.16004823284E+03 -0.31470456737E+02  0.84635585590E+02  0.22224762953E+03  0.12500000000E+03 0.  0.
</event>
<event>
 5    0  0.7687420E-005  0.2675746E+03  0.7546771E-02  0.1102676E+00
         21   -1    0    0  502  501  0.00000000000E+00  0.00000000000E+00  0.18520368443E+03  0.18520368443E+03  0.00000000000E+00 0. -1.
         21   -1    0    0  501  502 -0.00000000000E+00 -0.00000000000E+00 -0.38658076771E+03  0.38658076771E+03  0.00000000000E+00 0. -1.
         25    1    1    2    0    0 -0.46905821468E+02  0.68053992131E+02 -0.19177621443E+02  0.15107707668E+03  0.12500000000E+03 0.  0.
         25    1    1    2    0    0  0.10338197429E+03 -0.13201553004E+03 -0.39790019006E+02  0.21289475896E+03  0.12500000000E+03 0.  0.
         25    1    1    2    0    0 -0.56476152826E+02  0.63961537910E+02 -0.14240944283E+03  0.20781261650E+03  0.12500000000E+03 0.  0.
</event>
<event>
 5    0  0.5452999E-005  0.4268131E+03  0.7546771E-02  0.1034871E+00
         21   -1    0    0  502  501  0.00000000000E+00  0.00000000000E+00  0.16920108327E+03  0.16920108327E+03  0.00000000000E+00 0. -1.
         21   -1    0    0  501  502 -0.00000000000E+00 -0.00000000000E+00 -0.10766447239E+04  0.10766447239E+04  0.00000000000E+00 0. -1.
         25    1    1    2    0    0 -0.86006567365E+02  0.32302445654E+03 -0.51099484115E+03  0.62328376911E+03  0.12500000000E+03 0.  0.
         25    1    1    2    0    0 -0.66830411313E+02 -0.92436885907E+02 -0.91939092471E+02  0.19258421139E+03  0.12500000000E+03 0.  0.
         25    1    1    2    0    0  0.15283697868E+03 -0.23058757064E+03 -0.30450970705E+03  0.42997782672E+03  0.12500000000E+03 0.  0.
</event>
<event>
 5    0  0.5452999E-005  0.3281587E+03  0.7546771E-02  0.1071954E+00
         21   -1    0    0  502  501  0.00000000000E+00  0.00000000000E+00  0.25531771528E+03  0.25531771528E+03  0.00000000000E+00 0.  1.
         21   -1    0    0  501  502 -0.00000000000E+00 -0.00000000000E+00 -0.42178092857E+03  0.42178092857E+03  0.00000000000E+00 0.  1.
         25    1    1    2    0    0  0.35866618392E+02  0.20876351330E+03 -0.41029957548E+02  0.24935331603E+03  0.12500000000E+03 0.  0.
         25    1    1    2    0    0  0.34742674008E+02  0.18863747706E+02 -0.64901487932E+00  0.13110421654E+03  0.12500000000E+03 0.  0.
         25    1    1    2    0    0 -0.70609292400E+02 -0.22762726101E+03 -0.12478424086E+03  0.29664111127E+03  0.12500000000E+03 0.  0.
</event>
<event>
 5    0  0.5452999E-005  0.2725661E+03  0.7546771E-02  0.1099820E+00
         21   -1    0    0  502  501  0.00000000000E+00  0.00000000000E+00  0.68474365178E+02  0.68474365178E+02  0.00000000000E+00 0.  1.
         21   -1    0    0  501  502 -0.00000000000E+00 -0.00000000000E+00 -0.10849649431E+04  0.10849649431E+04  0.00000000000E+00 0.  1.
         25    1    1    2    0    0 -0.19560992402E+02  0.40668009049E+02 -0.89451352750E+02  0.16019695344E+03  0.12500000000E+03 0.  0.
         25    1    1    2    0    0 -0.93545072592E+02  0.16881411425E+02 -0.26863787791E+03  0.31117032652E+03  0.12500000000E+03 0.  0.
         25    1    1    2    0    0  0.11310606499E+03 -0.57549420474E+02 -0.65840134729E+03  0.68207202835E+03  0.12500000000E+03 0.  0.
</event>
<event>
 5    0  0.5452999E-005  0.2428672E+03  0.7546771E-02  0.1117897E+00
         21   -1    0    0  502  501  0.00000000000E+00  0.00000000000E+00  0.18939424620E+03  0.18939424620E+03  0.00000000000E+00 0. -1.
         21   -1    0    0  501  502 -0.00000000000E+00 -0.00000000000E+00 -0.31143759469E+03  0.31143759469E+03  0.00000000000E+00 0. -1.
         25    1    1    2    0    0  0.26724356043E+02 -0.36919222776E+02 -0.12691272166E+03  0.18387239906E+03  0.12500000000E+03 0.  0.
         25    1    1    2    0    0 -0.95791793998E+02  0.10597794598E+02  0.48853076803E+02  0.16522712901E+03  0.12500000000E+03 0.  0.
         25    1    1    2    0    0  0.69067437955E+02  0.26321428177E+02 -0.43983703633E+02  0.15173231282E+03  0.12500000000E+03 0.  0.
</event>
<event>
 5    0  0.5452999E-005  0.2502420E+03  0.7546771E-02  0.1113152E+00
         21   -1    0    0  502  501  0.00000000000E+00  0.00000000000E+00  0.10401396343E+03  0.10401396343E+03  0.00000000000E+00 0. -1.
         21   -1    0    0  501  502 -0.00000000000E+00 -0.00000000000E+00 -0.60204482769E+03  0.60204482769E+03  0.00000000000E+00 0. -1.
         25    1    1    2    0    0  0.97648963156E+02 -0.80156664687E+02 -0.13741040300E+03  0.22464868072E+03  0.12500000000E+03 0.  0.
         25    1    1    2    0    0 -0.13444518279E+02  0.18740249843E+02 -0.26175321829E+03  0.29098401901E+03  0.12500000000E+03 0.  0.
         25    1    1    2    0    0 -0.84204444877E+02  0.61416414844E+02 -0.98867242970E+02  0.19042609139E+03  0.12500000000E+03 0.  0.
</event>
<event>
 5    0  0.5452999E-005  0.2596639E+03  0.7546771E-02  0.1107345E+00
         21   -1    0    0  502  501  0.00000000000E+00  0.00000000000E+00  0.88837316874E+02  0.88837316874E+02  0.00000000000E+00 0. -1.
         21   -1    0    0  501  502 -0.00000000000E+00 -0.00000000000E+00 -0.75897526807E+03  0.75897526807E+03  0.00000000000E+00 0. -1.
         25    1    1    2    0    0  0.34677893693E+01 -0.22739761583E+02 -0.17866839467E+03  0.21926358013E+03  0.12500000000E+03 0.  0.
         25    1    1    2    0    0  0.85642095009E+02 -0.11039758800E+03 -0.21182912538E+03  0.28287589900E+03  0.12500000000E+03 0.  0.
         25    1    1    2    0    0 -0.89109884379E+02  0.13313734959E+03 -0.27964043114E+03  0.34567310581E+03  0.12500000000E+03 0.  0.
</event>
<event>
 5    0  0.5643521E-005  0.3205059E+03  0.7546771E-02  0.1075417E+00
         21   -1    0    0  502  501  0.00000000000E+00  0.00000000000E+00  0.17079232805E+03  0.17079232805E+03  0.00000000000E+00 0. -1.
         21   -1    0    0  501  502 -0.00000000000E+00 -0.00000000000E+00 -0.60145595773E+03  0.60145595773E+03  0.00000000000E+00 0. -1.
         25    1    1    2    0    0  0.73247333420E+02  0.12391368030E+03 -0.27135515141E+03  0.33162989946E+03  0.12500000000E+03 0.  0.
         25    1    1    2    0    0 -0.15141700386E+02 -0.17566272279E+03 -0.19279120516E+03  0.28962063472E+03  0.12500000000E+03 0.  0.
         25    1    1    2    0    0 -0.58105633034E+02  0.51749042485E+02  0.33482726892E+02  0.15099775160E+03  0.12500000000E+03 0.  0.
</event>
<event>
 5    0  0.5452999E-005  0.4243545E+03  0.7546771E-02  0.1035658E+00
         21   -1    0    0  502  501  0.00000000000E+00  0.00000000000E+00  0.81521020673E+03  0.81521020673E+03  0.00000000000E+00 0.  1.
         21   -1    0    0  501  502 -0.00000000000E+00 -0.00000000000E+00 -0.22089610002E+03  0.22089610002E+03  0.00000000000E+00 0.  1.
         25    1    1    2    0    0 -0.14354935327E+03 -0.42463074053E+02  0.25663732047E+03  0.32233095375E+03  0.12500000000E+03 0.  0.
         25    1    1    2    0    0  0.98128000814E+02  0.28278170139E+03  0.73319066244E+02  0.33255868754E+03  0.12500000000E+03 0.  0.
         25    1    1    2    0    0  0.45421352457E+02 -0.24031862734E+03  0.26435771999E+03  0.38121666546E+03  0.12500000000E+03 0.  0.
</event>
<event>
 5    0  0.6464476E-005  0.2986372E+03  0.7546771E-02  0.1085924E+00
         21   -1    0    0  502  501  0.00000000000E+00  0.00000000000E+00  0.57480569839E+03  0.57480569839E+03  0.00000000000E+00 0. -1.
         21   -1    0    0  501  502 -0.00000000000E+00 -0.00000000000E+00 -0.15515538756E+03  0.15515538756E+03  0.00000000000E+00 0. -1.
         25    1    1    2    0    0 -0.13177660801E+02 -0.17592857986E+03  0.27265038148E+03  0.34797664645E+03  0.12500000000E+03 0.  0.
         25    1    1    2    0    0  0.93779134347E+02  0.80461715402E+02  0.76964177686E+02  0.19187782136E+03  0.12500000000E+03 0.  0.
         25    1    1    2    0    0 -0.80601473547E+02  0.95466864453E+02  0.70035751669E+02  0.19010661813E+03  0.12500000000E+03 0.  0.
</event>
<event>
 5    0  0.6021769E-005  0.2731123E+03  0.7546771E-02  0.1099511E+00
         21   -1    0    0  502  501  0.00000000000E+00  0.00000000000E+00  0.16177242440E+03  0.16177242440E+03  0.00000000000E+00 0.  1.
         21   -1    0    0  501  502 -0.00000000000E+00 -0.00000000000E+00 -0.46108185507E+03  0.46108185507E+03  0.00000000000E+00 0.  1.
         25    1    1    2    0    0  0.10179508438E+03  0.45534778946E+02 -0.45022417025E+02  0.17345798722E+03  0.12500000000E+03 0.  0.
         25    1    1    2    0    0 -0.24365791295E+02  0.84756580095E+02 -0.38853107999E+02  0.15783514709E+03  0.12500000000E+03 0.  0.
         25    1    1    2    0    0 -0.77429293082E+02 -0.13029135904E+03 -0.21543390565E+03  0.29156114517E+03  0.12500000000E+03 0.  0.
</event>
<event>
 5    0  0.5452999E-005  0.5144497E+03  0.7546771E-02  0.1010075E+00
         21   -1    0    0  502  501  0.00000000000E+00  0.00000000000E+00  0.22394121172E+04  0.22394121172E+04  0.00000000000E+00 0.  1.
         21   -1    0    0  501  502 -0.00000000000E+00 -0.00000000000E+00 -0.11818214377E+03  0.11818214377E+03  0.00000000000E+00 0.  1.
         25    1    1    2    0    0  0.22679551820E+03 -0.16899083314E+03  0.73232123540E+03  0.79492987149E+03  0.12500000000E+03 0.  0.
         25    1    1    2    0    0 -0.12094113107E+03  0.57433620610E+02  0.25507605462E+02  0.18493516674E+03  0.12500000000E+03 0.  0.
         25    1    1    2    0    0 -0.10585438713E+03  0.11155721253E+03  0.13634011326E+04  0.13777292227E+04  0.12500000000E+03 0.  0.
</event>
<event>
 5    0  0.5452999E-005  0.2973268E+03  0.7546771E-02  0.1086585E+00
         21   -1    0    0  502  501  0.00000000000E+00  0.00000000000E+00  0.60540363755E+02  0.60540363755E+02  0.00000000000E+00 0. -1.
         21   -1    0    0  501  502 -0.00000000000E+00 -0.00000000000E+00 -0.14602361230E+04  0.14602361230E+04  0.00000000000E+00 0. -1.
         25    1    1    2    0    0 -0.62807075116E+02 -0.12221361440E+03 -0.42000807119E+03  0.45925230113E+03  0.12500000000E+03 0.  0.
         25    1    1    2    0    0  0.51052556632E+02  0.20368870228E+03 -0.46221774517E+03  0.52284385329E+03  0.12500000000E+03 0.  0.
         25    1    1    2    0    0  0.11754518484E+02 -0.81475087884E+02 -0.51746994285E+03  0.53868033230E+03  0.12500000000E+03 0.  0.
</event>
<event>
 5    0  0.6189181E-005  0.3422447E+03  0.7546771E-02  0.1065844E+00
         21   -1    0    0  502  501  0.00000000000E+00  0.00000000000E+00  0.56165675792E+03  0.56165675792E+03  0.00000000000E+00 0.  1.
         21   -1    0    0  501  502 -0.00000000000E+00 -0.00000000000E+00 -0.20854634185E+03  0.20854634185E+03  0.00000000000E+00 0.  1.
         25    1    1    2    0    0 -0.12298939359E+03  0.28884450030E+01  0.19563807828E+03  0.26274320491E+03  0.12500000000E+03 0.  0.
         25    1    1    2    0    0  0.90934291310E+02  0.17321253897E+03 -0.98951396246E+01  0.23236725841E+03  0.12500000000E+03 0.  0.
         25    1    1    2    0    0  0.32055102281E+02 -0.17610098397E+03  0.16736747742E+03  0.27509263646E+03  0.12500000000E+03 0.  0.
</event>
<event>
 5    0  0.5452999E-005  0.2756670E+03  0.7546771E-02  0.1098079E+00
         21   -1    0    0  502  501  0.00000000000E+00  0.00000000000E+00  0.98084779404E+02  0.98084779404E+02  0.00000000000E+00 0. -1.
         21   -1    0    0  501  502 -0.00000000000E+00 -0.00000000000E+00 -0.77476157895E+03  0.77476157895E+03  0.00000000000E+00 0. -1.
         25    1    1    2    0    0  0.14278351450E+03 -0.48155260282E+02 -0.11930385513E+03  0.22926942874E+03  0.12500000000E+03 0.  0.
         25    1    1    2    0    0 -0.63495221666E+02 -0.40306910445E+02 -0.30262300775E+03  0.33594936378E+03  0.12500000000E+03 0.  0.
         25    1    1    2    0    0 -0.79288292834E+02  0.88462170727E+02 -0.25474993666E+03  0.30762756583E+03  0.12500000000E+03 0.  0.
</event>
<event>
 5    0  0.5452999E-005  0.2545633E+03  0.7546771E-02  0.1110454E+00
         21   -1    0    0  502  501  0.00000000000E+00  0.00000000000E+00  0.29004749212E+03  0.29004749212E+03  0.00000000000E+00 0. -1.
         21   -1    0    0  501  502 -0.00000000000E+00 -0.00000000000E+00 -0.22342017052E+03  0.22342017052E+03  0.00000000000E+00 0. -1.
         25    1    1    2    0    0  0.10224872744E+03  0.22161998546E+02  0.33919437976E+02  0.16649770183E+03  0.12500000000E+03 0.  0.
         25    1    1    2    0    0 -0.46147141873E+02 -0.10285438486E+03  0.72158987082E+02  0.18314066344E+03  0.12500000000E+03 0.  0.
         25    1    1    2    0    0 -0.56101585564E+02  0.80692386314E+02 -0.39451103461E+02  0.16382929737E+03  0.12500000000E+03 0.  0.
</event>
<event>
 5    0  0.5452999E-005  0.4523226E+03  0.7546771E-02  0.1027032E+00
         21   -1    0    0  502  501  0.00000000000E+00  0.00000000000E+00  0.24905381185E+03  0.24905381185E+03  0.00000000000E+00 0.  1.
         21   -1    0    0  501  502 -0.00000000000E+00 -0.00000000000E+00 -0.82149199132E+03  0.82149199132E+03  0.00000000000E+00 0.  1.
         25    1    1    2    0    0 -0.20356146273E+03  0.72590289734E+02 -0.12932555765E+03  0.28117026716E+03  0.12500000000E+03 0.  0.
         25    1    1    2    0    0 -0.85326006299E+02 -0.23128573480E+03 -0.30274810221E+03  0.40994515714E+03  0.12500000000E+03 0.  0.
         25    1    1    2    0    0  0.28888746903E+03  0.15869544507E+03 -0.14036451961E+03  0.37943037887E+03  0.12500000000E+03 0.  0.
</event>
<event>
 5    0  0.5452999E-005  0.2311575E+03  0.7546771E-02  0.1125828E+00
         21   -1    0    0  502  501  0.00000000000E+00  0.00000000000E+00  0.60404158574E+02  0.60404158574E+02  0.00000000000E+00 0.  1.
         21   -1    0    0  501  502 -0.00000000000E+00 -0.00000000000E+00 -0.88460450631E+03  0.88460450631E+03  0.00000000000E+00 0.  1.
         25    1    1    2    0    0  0.59788929361E+02 -0.34954804159E+01 -0.18890629729E+03  0.23430220574E+03  0.12500000000E+03 0.  0.
         25    1    1    2    0    0 -0.41154626455E+02  0.95174806582E+02 -0.31721555337E+03  0.35637431780E+03  0.12500000000E+03 0.  0.
         25    1    1    2    0    0 -0.18634302906E+02 -0.91679326166E+02 -0.31807849708E+03  0.35433214135E+03  0.12500000000E+03 0.  0.
</event>
<event>
 5    0  0.5452999E-005  0.4361156E+03  0.7546771E-02  0.1031945E+00
         21   -1    0    0  502  501  0.00000000000E+00  0.00000000000E+00  0.68867349575E+03  0.68867349575E+03  0.00000000000E+00 0. -1.
         21   -1    0    0  501  502 -0.00000000000E+00 -0.00000000000E+00 -0.27617852001E+03  0.27617852001E+03  0.00000000000E+00 0. -1.
         25    1    1    2    0    0  0.87149797883E+01  0.10114104954E+03 -0.13437426467E+03  0.20973055519E+03  0.12500000000E+03 0.  0.
         25    1    1    2    0    0 -0.13950194754E+03 -0.21993408799E+03  0.40059978804E+03  0.49389977384E+03  0.12500000000E+03 0.  0.
         25    1    1    2    0    0  0.13078696776E+03  0.11879303844E+03  0.14626945238E+03  0.26122168673E+03  0.12500000000E+03 0.  0.
</event>
<event>
 5    0  0.5452999E-005  0.2697852E+03  0.7546771E-02  0.1101403E+00
         21   -1    0    0  502  501  0.00000000000E+00  0.00000000000E+00  0.28475334446E+03  0.28475334446E+03  0.00000000000E+00 0. -1.
         21   -1    0    0  501  502 -0.00000000000E+00 -0.00000000000E+00 -0.25560387132E+03  0.25560387132E+03  0.00000000000E+00 0. -1.
         25    1    1    2    0    0 -0.63426438392E+02 -0.29254912595E+02  0.26353201996E+02  0.14559620274E+03  0.12500000000E+03 0.  0.
         25    1    1    2    0    0  0.12188584560E+03  0.65344892019E+02 -0.10683590416E+03  0.21486047726E+03  0.12500000000E+03 0.  0.
         25    1    1    2    0    0 -0.58459407213E+02 -0.36089979423E+02  0.10963217531E+03  0.17990053577E+03  0.12500000000E+03 0.  0.
</event>
<event>
 5    0  0.5452999E-005  0.3768254E+03  0.7546771E-02  0.1052113E+00
         21   -1    0    0  502  501  0.00000000000E+00  0.00000000000E+00  0.65646476698E+02  0.65646476698E+02  0.00000000000E+00 0.  1.
         21   -1    0    0  501  502 -0.00000000000E+00 -0.00000000000E+00 -0.21630614652E+04  0.21630614652E+04  0.00000000000E+00 0.  1.
         25    1    1    2    0    0 -0.17981767031E+03 -0.41752181573E+01 -0.44884173221E+03  0.49943540881E+03  0.12500000000E+03 0.  0.
         25    1    1    2    0    0  0.27629396061E+02  0.14794534028E+03 -0.12250351323E+04  0.12405592620E+04  0.12500000000E+03 0.  0.
         25    1    1    2    0    0  0.15218827425E+03 -0.14377012212E+03 -0.42353812398E+03  0.48871327105E+03  0.12500000000E+03 0.  0.
</event>
<event>
 5    0  0.5452999E-005  0.2904639E+03  0.7546771E-02  0.1090107E+00
         21   -1    0    0  502  501  0.00000000000E+00  0.00000000000E+00  0.12740602199E+04  0.12740602199E+04  0.00000000000E+00 0. -1.
         21   -1    0    0  501  502 -0.00000000000E+00 -0.00000000000E+00 -0.66220814607E+02  0.66220814607E+02  0.00000000000E+00 0. -1.
         25    1    1    2    0    0  0.93964653627E+02  0.47704091452E+02  0.24398794192E+03  0.29370078699E+03  0.12500000000E+03 0.  0.
         25    1    1    2    0    0  0.10381230520E+03  0.19926393315E+02  0.41492914555E+03  0.44605521148E+03  0.12500000000E+03 0.  0.
         25    1    1    2    0    0 -0.19777695883E+03 -0.67630484768E+02  0.54892231786E+03  0.60052503608E+03  0.12500000000E+03 0.  0.
</event>
<event>
 5    0  0.5753781E-005  0.5537515E+03  0.7546771E-02  0.1000629E+00
         21   -1    0    0  502  501  0.00000000000E+00  0.00000000000E+00  0.12616670783E+04  0.12616670783E+04  0.00000000000E+00 0. -1.
         21   -1    0    0  501  502 -0.00000000000E+00 -0.00000000000E+00 -0.24304407080E+03  0.24304407080E+03  0.00000000000E+00 0. -1.
         25    1    1    2    0    0 -0.31757851616E+03 -0.85747933359E+02  0.27939713944E+03  0.44932903704E+03  0.12500000000E+03 0.  0.
         25    1    1    2    0    0  0.32401616049E+03  0.71307235361E+02  0.53947951616E+02  0.35861758958E+03  0.12500000000E+03 0.  0.
         25    1    1    2    0    0 -0.64376443283E+01  0.14440697998E+02  0.68527791646E+03  0.69676452249E+03  0.12500000000E+03 0.  0.
</event>
<event>
 5    0  0.5452999E-005  0.2458936E+03  0.7546771E-02  0.1115928E+00
         21   -1    0    0  502  501  0.00000000000E+00  0.00000000000E+00  0.58811943955E+02  0.58811943955E+02  0.00000000000E+00 0. -1.
         21   -1    0    0  501  502 -0.00000000000E+00 -0.00000000000E+00 -0.10280846405E+04  0.10280846405E+04  0.00000000000E+00 0. -1.
         25    1    1    2    0    0 -0.98899727432E+02  0.34852443823E+01 -0.36830538348E+03  0.40133173126E+03  0.12500000000E+03 0.  0.
         25    1    1    2    0    0  0.93856756146E+02 -0.78768055414E+02 -0.24761440910E+03  0.30323488061E+03  0.12500000000E+03 0.  0.
         25    1    1    2    0    0  0.50429712862E+01  0.75282811031E+02 -0.35335290402E+03  0.38232997263E+03  0.12500000000E+03 0.  0.
</event>
<event>
 5    0  0.5452999E-005  0.3534830E+03  0.7546771E-02  0.1061194E+00
         21   -1    0    0  502  501  0.00000000000E+00  0.00000000000E+00  0.16304435927E+03  0.16304435927E+03  0.00000000000E+00 0.  1.
         21   -1    0    0  501  502 -0.00000000000E+00 -0.00000000000E+00 -0.76635723296E+03  0.76635723296E+03  0.00000000000E+00 0.  1.
         25    1    1    2    0    0  0.94105070320E+02 -0.74659546873E+02 -0.30988432338E+03  0.35508183011E+03  0.12500000000E+03 0.  0.
         25    1    1    2    0    0  0.14112462103E+03 -0.54128834945E+02 -0.93969461409E+02  0.21748873329E+03  0.12500000000E+03 0.  0.
         25    1    1    2    0    0 -0.23522969135E+03  0.12878838182E+03 -0.19945908890E+03  0.35683102882E+03  0.12500000000E+03 0.  0.
</event>
<event>
 5    0  0.5452999E-005  0.2556026E+03  0.7546771E-02  0.1109814E+00
         21   -1    0    0  502  501  0.00000000000E+00  0.00000000000E+00  0.75239030425E+03  0.75239030425E+03  0.00000000000E+00 0. -1.
         21   -1    0    0  501  502 -0.00000000000E+00 -0.00000000000E+00 -0.86833515548E+02  0.86833515548E+02  0.00000000000E+00 0. -1.
         25    1    1    2    0    0  0.14716832978E+02  0.32568810105E+02  0.13568056786E+03  0.18791362127E+03  0.12500000000E+03 0.  0.
         25    1    1    2    0    0 -0.83251122024E+02  0.63998912550E+02  0.41055710549E+03  0.44182433952E+03  0.12500000000E+03 0.  0.
         25    1    1    2    0    0  0.68534289046E+02 -0.96567722655E+02  0.11931911535E+03  0.20948585900E+03  0.12500000000E+03 0.  0.
</event>
<event>
 5    0  0.5452999E-005  0.2435887E+03  0.7546771E-02  0.1117425E+00
         21   -1    0    0  502  501  0.00000000000E+00  0.00000000000E+00  0.29289105133E+03  0.29289105133E+03  0.00000000000E+00 0. -1.
         21   -1    0    0  501  502 -0.00000000000E+00 -0.00000000000E+00 -0.20258546581E+03  0.20258546581E+03  0.00000000000E+00 0. -1.
         25    1    1    2    0    0 -0.65657808191E+01 -0.38013813538E+02  0.34882032083E+02  0.13538801889E+03  0.12500000000E+03 0.  0.
         25    1    1    2    0    0 -0.76612187628E+02  0.10169383091E+03  0.79306863250E+02  0.19525788357E+03  0.12500000000E+03 0.  0.
         25    1    1    2    0    0  0.83177968447E+02 -0.63680017374E+02 -0.23883309819E+02  0.16483061468E+03  0.12500000000E+03 0.  0.
</event>
<event>
 5    0  0.5452999E-005  0.2776597E+03  0.7546771E-02  0.1096974E+00
         21   -1    0    0  502  501  0.00000000000E+00  0.00000000000E+00  0.49309966677E+03  0.49309966677E+03  0.00000000000E+00 0. -1.
         21   -1    0    0  501  502 -0.00000000000E+00 -0.00000000000E+00 -0.15634748946E+03  0.15634748946E+03  0.00000000000E+00 0. -1.
         25    1    1    2    0    0  0.34887739771E+02  0.14368438915E+03  0.16416715184E+03  0.25384682746E+03  0.12500000000E+03 0.  0.
         25    1    1    2    0    0 -0.74629624344E+02  0.18079350598E+02  0.56761500302E+02  0.15730006886E+03  0.12500000000E+03 0.  0.
         25    1    1    2    0    0  0.39741884573E+02 -0.16176373975E+03  0.11582352517E+03  0.23830025990E+03  0.12500000000E+03 0.  0.
</event>
<event>
 5    0  0.5495881E-005  0.3000932E+03  0.7546771E-02  0.1085194E+00
         21   -1    0    0  502  501  0.00000000000E+00  0.00000000000E+00  0.16392407397E+03  0.16392407397E+03  0.00000000000E+00 0.  1.
         21   -1    0    0  501  502 -0.00000000000E+00 -0.00000000000E+00 -0.54937591118E+03  0.54937591118E+03  0.00000000000E+00 0.  1.
         25    1    1    2    0    0 -0.28568419242E+02 -0.45933930343E+02  0.80665768082E+02  0.15829733629E+03  0.12500000000E+03 0.  0.
         25    1    1    2    0    0  0.32067256613E+02 -0.54631165959E+02 -0.19900747854E+03  0.24339648674E+03  0.12500000000E+03 0.  0.
         25    1    1    2    0    0 -0.34988373710E+01  0.10056509630E+03 -0.26711012675E+03  0.31160616212E+03  0.12500000000E+03 0.  0.
</event>
<event>
 5    0  0.5810307E-005  0.2954143E+03  0.7546771E-02  0.1087556E+00
         21   -1    0    0  502  501  0.00000000000E+00  0.00000000000E+00  0.18502626533E+03  0.18502626533E+03  0.00000000000E+00 0. -1.
         21   -1    0    0  501  502 -0.00000000000E+00 -0.00000000000E+00 -0.47166053923E+03  0.47166053923E+03  0.00000000000E+00 0. -1.
         25    1    1    2    0    0 -0.17558766877E+02  0.92424844204E+02  0.44282392008E+01  0.15650965281E+03  0.12500000000E+03 0.  0.
         25    1    1    2    0    0 -0.74892679576E+02 -0.89738102091E+02 -0.10837907499E+01  0.17113741561E+03  0.12500000000E+03 0.  0.
         25    1    1    2    0    0  0.92451446453E+02 -0.26867421128E+01 -0.28997872236E+03  0.32903973613E+03  0.12500000000E+03 0.  0.
</event>
<event>
 5    0  0.5452999E-005  0.2886172E+03  0.7546771E-02  0.1091073E+00
         21   -1    0    0  502  501  0.00000000000E+00  0.00000000000E+00  0.14388522413E+03  0.14388522413E+03  0.00000000000E+00 0. -1.
         21   -1    0    0  501  502 -0.00000000000E+00 -0.00000000000E+00 -0.57893284929E+03  0.57893284929E+03  0.00000000000E+00 0. -1.
         25    1    1    2    0    0 -0.10550477115E+03  0.18777998285E+01 -0.27681077568E+03  0.32153380600E+03  0.12500000000E+03 0.  0.
         25    1    1    2    0    0  0.48063748852E+02  0.95237234124E+02 -0.16484331886E+03  0.23276291477E+03  0.12500000000E+03 0.  0.
         25    1    1    2    0    0  0.57441022300E+02 -0.97115033953E+02  0.66064693812E+01  0.16852135265E+03  0.12500000000E+03 0.  0.
</event>
<event>
 5    0  0.5452999E-005  0.4009821E+03  0.7546771E-02  0.1043440E+00
         21   -1    0    0  502  501  0.00000000000E+00  0.00000000000E+00  0.45402786963E+03  0.45402786963E+03  0.00000000000E+00 0.  1.
         21   -1    0    0  501  502 -0.00000000000E+00 -0.00000000000E+00 -0.35413393522E+03  0.35413393522E+03  0.00000000000E+00 0.  1.
         25    1    1    2    0    0  0.15831305745E+03  0.22322227967E+03  0.14176713045E+03  0.33258702557E+03  0.12500000000E+03 0.  0.
         25    1    1    2    0    0 -0.12111486758E+03 -0.62303627938E+02 -0.15349296807E+03  0.24028242643E+03  0.12500000000E+03 0.  0.
         25    1    1    2    0    0 -0.37198189873E+02 -0.16091865173E+03  0.11161977203E+03  0.23529235286E+03  0.12500000000E+03 0.  0.
</event>
<event>
 5    0  0.5452999E-005  0.2347081E+03  0.7546771E-02  0.1123369E+00
         21   -1    0    0  502  501  0.00000000000E+00  0.00000000000E+00  0.13498127803E+04  0.13498127803E+04  0.00000000000E+00 0.  1.
         21   -1    0    0  501  502 -0.00000000000E+00 -0.00000000000E+00 -0.40811513653E+02  0.40811513653E+02  0.00000000000E+00 0.  1.
         25    1    1    2    0    0 -0.86075211386E+01  0.27425888202E+02  0.22396545096E+03  0.25809260351E+03  0.12500000000E+03 0.  0.
         25    1    1    2    0    0  0.29764345447E+02  0.32476231783E+02  0.22494231564E+03  0.26108364035E+03  0.12500000000E+03 0.  0.
         25    1    1    2    0    0 -0.21156824309E+02 -0.59902119985E+02  0.86009350001E+03  0.87144805006E+03  0.12500000000E+03 0.  0.
</event>
<event>
 5    0  0.5452999E-005  0.3562569E+03  0.7546771E-02  0.1060076E+00
         21   -1    0    0  502  501  0.00000000000E+00  0.00000000000E+00  0.42676274827E+03  0.42676274827E+03  0.00000000000E+00 0.  1.
         21   -1    0    0  501  502 -0.00000000000E+00 -0.00000000000E+00 -0.29739932169E+03  0.29739932169E+03  0.00000000000E+00 0.  1.
         25    1    1    2    0    0  0.12979648463E+03 -0.22531903734E+03  0.19745139115E+02  0.28918967224E+03  0.12500000000E+03 0.  0.
         25    1    1    2    0    0 -0.94037537809E+02  0.23105340534E+03  0.25883782776E+02  0.28022081445E+03  0.12500000000E+03 0.  0.
         25    1    1    2    0    0 -0.35758946825E+02 -0.57343680077E+01  0.83734504688E+02  0.15475158329E+03  0.12500000000E+03 0.  0.
</event>
<event>
 5    0  0.5452999E-005  0.2674506E+03  0.7546771E-02  0.1102748E+00
         21   -1    0    0  502  501  0.00000000000E+00  0.00000000000E+00  0.56337695086E+03  0.56337695086E+03  0.00000000000E+00 0. -1.
         21   -1    0    0  501  502 -0.00000000000E+00 -0.00000000000E+00 -0.12696622238E+03  0.12696622238E+03  0.00000000000E+00 0. -1.
         25    1    1    2    0    0  0.40524616509E+02 -0.10181251436E+02  0.17620010080E+03  0.22003949179E+03  0.12500000000E+03 0.  0.
         25    1    1    2    0    0 -0.14521887996E+03 -0.75842798655E+02  0.11792590749E+03  0.23742824782E+03  0.12500000000E+03 0.  0.
         25    1    1    2    0    0  0.10469426346E+03  0.86024050091E+02  0.14228472019E+03  0.23287543364E+03  0.12500000000E+03 0.  0.
</event>
<event>
 5    0  0.5452999E-005  0.2960096E+03  0.7546771E-02  0.1087253E+00
         21   -1    0    0  502  501  0.00000000000E+00  0.00000000000E+00  0.43272261209E+03  0.43272261209E+03  0.00000000000E+00 0.  1.
         21   -1    0    0  501  502 -0.00000000000E+00 -0.00000000000E+00 -0.20248924572E+03  0.20248924572E+03  0.00000000000E+00 0.  1.
         25    1    1    2    0    0 -0.11414859441E+03  0.80818457403E+02  0.11083419663E+03  0.21787781853E+03  0.12500000000E+03 0.  0.
         25    1    1    2    0    0  0.32892149218E+02  0.52627095515E+02 -0.56846867317E+02  0.15069197386E+03  0.12500000000E+03 0.  0.
         25    1    1    2    0    0  0.81256445191E+02 -0.13344555292E+03  0.17624603705E+03  0.26664206542E+03  0.12500000000E+03 0.  0.
</event>
<event>
 5    0  0.5452999E-005  0.2774418E+03  0.7546771E-02  0.1097094E+00
         21   -1    0    0  502  501  0.00000000000E+00  0.00000000000E+00  0.24049884508E+04  0.24049884508E+04  0.00000000000E+00 0. -1.
         21   -1    0    0  501  502 -0.00000000000E+00 -0.00000000000E+00 -0.32005953270E+02  0.32005953270E+02  0.00000000000E+00 0. -1.
         25    1    1    2    0    0 -0.45093117194E+02  0.60383115111E+02  0.78220343198E+03  0.79570517078E+03  0.12500000000E+03 0.  0.
         25    1    1    2    0    0  0.81752205207E+02 -0.17111832386E+03  0.10431579159E+04  0.10675993356E+04  0.12500000000E+03 0.  0.
         25    1    1    2    0    0 -0.36659088012E+02  0.11073520875E+03  0.54762114960E+03  0.57368989766E+03  0.12500000000E+03 0.  0.
</event>
<event>
 5    0  0.5452999E-005  0.2902538E+03  0.7546771E-02  0.1090217E+00
         21   -1    0    0  502  501  0.00000000000E+00  0.00000000000E+00  0.52377575313E+03  0.52377575313E+03  0.00000000000E+00 0. -1.
         21   -1    0    0  501  502 -0.00000000000E+00 -0.00000000000E+00 -0.16084604844E+03  0.16084604844E+03  0.00000000000E+00 0. -1.
         25    1    1    2    0    0 -0.91137239033E+02 -0.11339669595E+03  0.15695640867E+03  0.24784091917E+03  0.12500000000E+03 0.  0.
         25    1    1    2    0    0  0.34027853034E+02 -0.44441454490E+01 -0.36047759281E+02  0.13454399340E+03  0.12500000000E+03 0.  0.
         25    1    1    2    0    0  0.57109385999E+02  0.11784084139E+03  0.24202105530E+03  0.30223688901E+03  0.12500000000E+03 0.  0.
</event>
<event>
 5    0  0.5452999E-005  0.2951496E+03  0.7546771E-02  0.1087691E+00
         21   -1    0    0  502  501  0.00000000000E+00  0.00000000000E+00  0.80258668609E+03  0.80258668609E+03  0.00000000000E+00 0. -1.
         21   -1    0    0  501  502 -0.00000000000E+00 -0.00000000000E+00 -0.10854066348E+03  0.10854066348E+03  0.00000000000E+00 0. -1.
         25    1    1    2    0    0  0.97851315967E+01 -0.43128233520E+02  0.30408461082E+03  0.33173520142E+03  0.12500000000E+03 0.  0.
         25    1    1    2    0    0  0.17913766804E+02  0.15547563711E+02 -0.37237529047E+02  0.13256795747E+03  0.12500000000E+03 0.  0.
         25    1    1    2    0    0 -0.27698898401E+02  0.27580669809E+02  0.42719894084E+03  0.44682419068E+03  0.12500000000E+03 0.  0.
</event>
<event>
 5    0  0.5452999E-005  0.2489104E+03  0.7546771E-02  0.1113995E+00
         21   -1    0    0  502  501  0.00000000000E+00  0.00000000000E+00  0.35071343558E+03  0.35071343558E+03  0.00000000000E+00 0.  1.
         21   -1    0    0  501  502 -0.00000000000E+00 -0.00000000000E+00 -0.17665809812E+03  0.17665809812E+03  0.00000000000E+00 0.  1.
         25    1    1    2    0    0 -0.11538925131E+02  0.12444850727E+03  0.54083788978E+02  0.18485300643E+03  0.12500000000E+03 0.  0.
         25    1    1    2    0    0  0.21843302894E+02 -0.85017592003E+02  0.14277336081E+03  0.20907977757E+03  0.12500000000E+03 0.  0.
         25    1    1    2    0    0 -0.10304377763E+02 -0.39430915265E+02 -0.22801812323E+02  0.13343874971E+03  0.12500000000E+03 0.  0.
</event>
<event>
 5    0  0.5452999E-005  0.6658213E+03  0.7546771E-02  0.9777536E-01
         21   -1    0    0  502  501  0.00000000000E+00  0.00000000000E+00  0.43046877456E+03  0.43046877456E+03  0.00000000000E+00 0.  1.
         21   -1    0    0  501  502 -0.00000000000E+00 -0.00000000000E+00 -0.10298494304E+04  0.10298494304E+04  0.00000000000E+00 0.  1.
         25    1    1    2    0    0 -0.94773903159E+02  0.30269254194E+03  0.24997749734E+03  0.42275124700E+03  0.12500000000E+03 0.  0.
         25    1    1    2    0    0  0.23643624470E+03 -0.10073184791E+03 -0.25918865060E+03  0.38581441081E+03  0.12500000000E+03 0.  0.
         25    1    1    2    0    0 -0.14166234154E+03 -0.20196069403E+03 -0.59016950258E+03  0.65175254715E+03  0.12500000000E+03 0.  0.
</event>
<event>
 5    0  0.5452999E-005  0.3075759E+03  0.7546771E-02  0.1081514E+00
         21   -1    0    0  502  501  0.00000000000E+00  0.00000000000E+00  0.22323522779E+03  0.22323522779E+03  0.00000000000E+00 0.  1.
         21   -1    0    0  501  502 -0.00000000000E+00 -0.00000000000E+00 -0.42378138392E+03  0.42378138392E+03  0.00000000000E+00 0.  1.
         25    1    1    2    0    0  0.25363055219E+02 -0.16477012817E+00 -0.39860164164E+02  0.13363062675E+03  0.12500000000E+03 0.  0.
         25    1    1    2    0    0 -0.16197300254E+03  0.70175310278E+02 -0.21819947848E+03  0.30723906024E+03  0.12500000000E+03 0.  0.
         25    1    1    2    0    0  0.13660994732E+03 -0.70010540150E+02  0.57513486512E+02  0.20614692472E+03  0.12500000000E+03 0.  0.
</event>
<event>
 5    0  0.5452999E-005  0.3488426E+03  0.7546771E-02  0.1063091E+00
         21   -1    0    0  502  501  0.00000000000E+00  0.00000000000E+00  0.14959623113E+03  0.14959623113E+03  0.00000000000E+00 0.  1.
         21   -1    0    0  501  502 -0.00000000000E+00 -0.00000000000E+00 -0.81346418256E+03  0.81346418256E+03  0.00000000000E+00 0.  1.
         25    1    1    2    0    0 -0.12117377744E+03  0.14885117342E+03 -0.18630114210E+03  0.29525052365E+03  0.12500000000E+03 0.  0.
         25    1    1    2    0    0  0.21582788999E+03 -0.14766939159E+03 -0.21088846848E+03  0.35845065693E+03  0.12500000000E+03 0.  0.
         25    1    1    2    0    0 -0.94654112548E+02 -0.11817818309E+01 -0.26667834085E+03  0.30935923311E+03  0.12500000000E+03 0.  0.
</event>
<event>
 5    0  0.5452999E-005  0.3615550E+03  0.7546771E-02  0.1057970E+00
         21   -1    0    0  502  501  0.00000000000E+00  0.00000000000E+00  0.12715641901E+04  0.12715641901E+04  0.00000000000E+00 0.  1.
         21   -1    0    0  501  502 -0.00000000000E+00 -0.00000000000E+00 -0.10280410806E+03  0.10280410806E+03  0.00000000000E+00 0.  1.
         25    1    1    2    0    0  0.83077101100E+02  0.72077126475E+02  0.81978351281E+03  0.83652072585E+03  0.12500000000E+03 0.  0.
         25    1    1    2    0    0 -0.12059280864E+03  0.92283040851E+02  0.13803817391E+03  0.24028799924E+03  0.12500000000E+03 0.  0.
         25    1    1    2    0    0  0.37515707541E+02 -0.16436016733E+03  0.21093839534E+03  0.29755957310E+03  0.12500000000E+03 0.  0.
</event>
<event>
 5    0  0.5452999E-005  0.3146597E+03  0.7546771E-02  0.1078134E+00
         21   -1    0    0  502  501  0.00000000000E+00  0.00000000000E+00  0.26768892224E+04  0.26768892224E+04  0.00000000000E+00 0. -1.
         21   -1    0    0  501  502 -0.00000000000E+00 -0.00000000000E+00 -0.36987240297E+02  0.36987240297E+02  0.00000000000E+00 0. -1.
         25    1    1    2    0    0  0.47262762770E+02  0.14742938743E+03  0.62843404553E+03  0.65918399753E+03  0.12500000000E+03 0.  0.
         25    1    1    2    0    0 -0.14040267838E+03 -0.16847089168E+03  0.14406501732E+04  0.14625981249E+04  0.12500000000E+03 0.  0.
         25    1    1    2    0    0  0.93139915607E+02  0.21041504252E+02  0.57081776333E+03  0.59209434022E+03  0.12500000000E+03 0.  0.
</event>
<event>
 5    0  0.5452999E-005  0.2062662E+03  0.7546771E-02  0.1144557E+00
         21   -1    0    0  502  501  0.00000000000E+00  0.00000000000E+00  0.13693868801E+03  0.13693868801E+03  0.00000000000E+00 0. -1.
         21   -1    0    0  501  502 -0.00000000000E+00 -0.00000000000E+00 -0.31069199975E+03  0.31069199975E+03  0.00000000000E+00 0. -1.
         25    1    1    2    0    0  0.12088400024E+02 -0.68115637080E+02 -0.57619849060E+02  0.15404842237E+03  0.12500000000E+03 0.  0.
         25    1    1    2    0    0 -0.39835009089E+02  0.24072658028E+02 -0.46011710743E+02  0.14109712378E+03  0.12500000000E+03 0.  0.
         25    1    1    2    0    0  0.27746609065E+02  0.44042979052E+02 -0.70121751935E+02  0.15248514161E+03  0.12500000000E+03 0.  0.
</event>
<event>
 5    0  0.5452999E-005  0.2735815E+03  0.7546771E-02  0.1099247E+00
         21   -1    0    0  502  501  0.00000000000E+00  0.00000000000E+00  0.19387090456E+03  0.19387090456E+03  0.00000000000E+00 0.  1.
         21   -1    0    0  501  502 -0.00000000000E+00 -0.00000000000E+00 -0.38606540711E+03  0.38606540711E+03  0.00000000000E+00 0.  1.
         25    1    1    2    0    0  0.36659597350E+02 -0.19102289022E+02  0.32931166558E+02  0.13571398327E+03  0.12500000000E+03 0.  0.
         25    1    1    2    0    0 -0.97745653340E+01  0.45622532188E+02 -0.27402936006E+03  0.30478524857E+03  0.12500000000E+03 0.  0.
         25    1    1    2    0    0 -0.26885032016E+02 -0.26520243166E+02  0.48903690955E+02  0.13943707984E+03  0.12500000000E+03 0.  0.
</event>
<event>
 5    0  0.5452999E-005  0.3332068E+03  0.7546771E-02  0.1069727E+00
         21   -1    0    0  502  501  0.00000000000E+00  0.00000000000E+00  0.52362675935E+03  0.52362675935E+03  0.00000000000E+00 0. -1.
         21   -1    0    0  501  502 -0.00000000000E+00 -0.00000000000E+00 -0.21203424149E+03  0.21203424149E+03  0.00000000000E+00 0. -1.
         25    1    1    2    0    0 -0.90440558730E+02  0.82523090793E+02 -0.16877709646E+02  0.17578228654E+03  0.12500000000E+03 0.  0.
         25    1    1    2    0    0 -0.72150862241E+02 -0.39416092240E+02  0.31636678520E+03  0.34996045209E+03  0.12500000000E+03 0.  0.
         25    1    1    2    0    0  0.16259142097E+03 -0.43106998553E+02  0.12103442309E+02  0.20991826222E+03  0.12500000000E+03 0.  0.
</event>
<event>
 5    0  0.5452999E-005  0.6495616E+03  0.7546771E-02  0.9807602E-01
         21   -1    0    0  502  501  0.00000000000E+00  0.00000000000E+00  0.21097863716E+03  0.21097863716E+03  0.00000000000E+00 0. -1.
         21   -1    0    0  501  502 -0.00000000000E+00 -0.00000000000E+00 -0.19998718413E+04  0.19998718413E+04  0.00000000000E+00 0. -1.
         25    1    1    2    0    0 -0.24399988182E+03 -0.25473928084E+03 -0.23961850875E+03  0.44437604939E+03  0.12500000000E+03 0.  0.
         25    1    1    2    0    0  0.46882351790E+03  0.17580464402E+03 -0.66253877453E+03  0.83981271219E+03  0.12500000000E+03 0.  0.
         25    1    1    2    0    0 -0.22482363608E+03  0.78934636817E+02 -0.88673592090E+03  0.92666171694E+03  0.12500000000E+03 0.  0.
</event>
<event>
 5    0  0.5452999E-005  0.3677702E+03  0.7546771E-02  0.1055549E+00
         21   -1    0    0  502  501  0.00000000000E+00  0.00000000000E+00  0.21034226724E+03  0.21034226724E+03  0.00000000000E+00 0. -1.
         21   -1    0    0  501  502 -0.00000000000E+00 -0.00000000000E+00 -0.64302287445E+03  0.64302287445E+03  0.00000000000E+00 0. -1.
         25    1    1    2    0    0 -0.26207427293E+03  0.30222635489E+02 -0.12593762516E+03  0.31793335411E+03  0.12500000000E+03 0.  0.
         25    1    1    2    0    0  0.13439725580E+03  0.10623235540E+03 -0.17422242021E+03  0.27445653099E+03  0.12500000000E+03 0.  0.
         25    1    1    2    0    0  0.12767701713E+03 -0.13645499089E+03 -0.13252056184E+03  0.26097525659E+03  0.12500000000E+03 0.  0.
</event>
<event>
 5    0  0.5452999E-005  0.5096397E+03  0.7546771E-02  0.1011293E+00
         21   -1    0    0  502  501  0.00000000000E+00  0.00000000000E+00  0.14698984165E+04  0.14698984165E+04  0.00000000000E+00 0. -1.
         21   -1    0    0  501  502 -0.00000000000E+00 -0.00000000000E+00 -0.17670109584E+03  0.17670109584E+03  0.00000000000E+00 0. -1.
         25    1    1    2    0    0 -0.25145741978E+03  0.16661264240E+03  0.51259644771E+03  0.60775877187E+03  0.12500000000E+03 0.  0.
         25    1    1    2    0    0 -0.23259394485E+02  0.36139193634E+01  0.65968616597E+03  0.67183695747E+03  0.12500000000E+03 0.  0.
         25    1    1    2    0    0  0.27471681427E+03 -0.17022656176E+03  0.12091470696E+03  0.36700378299E+03  0.12500000000E+03 0.  0.
</event>
<event>
 5    0  0.5452999E-005  0.2569412E+03  0.7546771E-02  0.1108995E+00
         21   -1    0    0  502  501  0.00000000000E+00  0.00000000000E+00  0.11019204326E+04  0.11019204326E+04  0.00000000000E+00 0. -1.
         21   -1    0    0  501  502 -0.00000000000E+00 -0.00000000000E+00 -0.59912459833E+02  0.59912459833E+02  0.00000000000E+00 0. -1.
         25    1    1    2    0    0 -0.53691152139E+02 -0.88568346912E+01  0.51455987665E+03  0.53231386418E+03  0.12500000000E+03 0.  0.
         25    1    1    2    0    0  0.11093823258E+03  0.52543829695E+02  0.17025456299E+03  0.24429441604E+03  0.12500000000E+03 0.  0.
         25    1    1    2    0    0 -0.57247080445E+02 -0.43686995004E+02  0.35719353316E+03  0.38522461225E+03  0.12500000000E+03 0.  0.
</event>
<event>
 5    0  0.5452999E-005  0.3641809E+03  0.7546771E-02  0.1056941E+00
         21   -1    0    0  502  501  0.00000000000E+00  0.00000000000E+00  0.31581464037E+03  0.31581464037E+03  0.00000000000E+00 0.  1.
         21   -1    0    0  501  502 -0.00000000000E+00 -0.00000000000E+00 -0.41995422501E+03  0.41995422501E+03  0.00000000000E+00 0.  1.
         25    1    1    2    0    0 -0.19296134962E+03 -0.84425757136E+02  0.25258103491E+02  0.24622096318E+03  0.12500000000E+03 0.  0.
         25    1    1    2    0    0 -0.83003752887E+02  0.18778772244E+02  0.58720451991E+01  0.15133322899E+03  0.12500000000E+03 0.  0.
         25    1    1    2    0    0  0.27596510251E+03  0.65646984893E+02 -0.13526973333E+03  0.33821467322E+03  0.12500000000E+03 0.  0.
</event>
<event>
 5    0  0.7077573E-005  0.8869164E+03  0.7546771E-02  0.9442086E-01
         21   -1    0    0  502  501  0.00000000000E+00  0.00000000000E+00  0.18290513449E+04  0.18290513449E+04  0.00000000000E+00 0.  1.
         21   -1    0    0  501  502 -0.00000000000E+00 -0.00000000000E+00 -0.43007029735E+03  0.43007029735E+03  0.00000000000E+00 0.  1.
         25    1    1    2    0    0  0.21344119697E+03 -0.16944258925E+03  0.76879882050E+02  0.30952132702E+03  0.12500000000E+03 0.  0.
         25    1    1    2    0    0  0.45071847702E+02 -0.32808140479E+03  0.13287808290E+04  0.13751190389E+04  0.12500000000E+03 0.  0.
         25    1    1    2    0    0 -0.25851304467E+03  0.49752399404E+03 -0.66796635283E+01  0.57448127630E+03  0.12500000000E+03 0.  0.
</event>
<event>
 5    0  0.5452999E-005  0.3225485E+03  0.7546771E-02  0.1074482E+00
         21   -1    0    0  502  501  0.00000000000E+00  0.00000000000E+00  0.38237477709E+03  0.38237477709E+03  0.00000000000E+00 0.  1.
         21   -1    0    0  501  502 -0.00000000000E+00 -0.00000000000E+00 -0.27208263371E+03  0.27208263371E+03  0.00000000000E+00 0.  1.
         25    1    1    2    0    0 -0.57123237731E+02 -0.15088558412E+02  0.28183787292E+03  0.31392406008E+03  0.12500000000E+03 0.  0.
         25    1    1    2    0    0  0.25659279940E+02  0.44398848012E+02 -0.15457853470E+02  0.13599118201E+03  0.12500000000E+03 0.  0.
         25    1    1    2    0    0  0.31463957791E+02 -0.29310289600E+02 -0.15608787608E+03  0.20454216870E+03  0.12500000000E+03 0.  0.
</event>
<event>
 5    0  0.5452999E-005  0.8149352E+03  0.7546771E-02  0.9538647E-01
         21   -1    0    0  502  501  0.00000000000E+00  0.00000000000E+00  0.15633996468E+04  0.15633996468E+04  0.00000000000E+00 0. -1.
         21   -1    0    0  501  502 -0.00000000000E+00 -0.00000000000E+00 -0.42479184766E+03  0.42479184766E+03  0.00000000000E+00 0. -1.
         25    1    1    2    0    0 -0.15743215119E+03 -0.28158534165E+03 -0.12046237124E+03  0.36634869966E+03  0.12500000000E+03 0.  0.
         25    1    1    2    0    0  0.10467523730E+03  0.34719049408E+03  0.13776681594E+04  0.14300673767E+04  0.12500000000E+03 0.  0.
         25    1    1    2    0    0  0.52756913893E+02 -0.65605152431E+02 -0.11859798901E+03  0.19177541810E+03  0.12500000000E+03 0.  0.
</event>
<event>
 5    0  0.5452999E-005  0.2336812E+03  0.7546771E-02  0.1124075E+00
         21   -1    0    0  502  501  0.00000000000E+00  0.00000000000E+00  0.14533467092E+03  0.14533467092E+03  0.00000000000E+00 0. -1.
         21   -1    0    0  501  502 -0.00000000000E+00 -0.00000000000E+00 -0.37573219857E+03  0.37573219857E+03  0.00000000000E+00 0. -1.
         25    1    1    2    0    0  0.12581972368E+02  0.68925538310E+02 -0.17613372093E+03  0.22706193760E+03  0.12500000000E+03 0.  0.
         25    1    1    2    0    0 -0.44550245883E+01 -0.13911322329E+02  0.35025406529E+02  0.13063365277E+03  0.12500000000E+03 0.  0.
         25    1    1    2    0    0 -0.81269477798E+01 -0.55014215981E+02 -0.89289213254E+02  0.16337127913E+03  0.12500000000E+03 0.  0.
</event>
<event>
 5    0  0.5452999E-005  0.2553538E+03  0.7546771E-02  0.1109967E+00
         21   -1    0    0  502  501  0.00000000000E+00  0.00000000000E+00  0.38222756050E+03  0.38222756050E+03  0.00000000000E+00 0. -1.
         21   -1    0    0  501  502 -0.00000000000E+00 -0.00000000000E+00 -0.17059359770E+03  0.17059359770E+03  0.00000000000E+00 0. -1.
         25    1    1    2    0    0 -0.76199492718E+02  0.17152092877E+02  0.23464488009E+03  0.27709885733E+03  0.12500000000E+03 0.  0.
         25    1    1    2    0    0  0.12268219735E+01  0.12107115397E+02 -0.22402489847E+01  0.12561093126E+03  0.12500000000E+03 0.  0.
         25    1    1    2    0    0  0.74972670745E+02 -0.29259208274E+02 -0.20770668297E+02  0.15011136962E+03  0.12500000000E+03 0.  0.
</event>
<event>
 5    0  0.5452999E-005  0.2749866E+03  0.7546771E-02  0.1098459E+00
         21   -1    0    0  502  501  0.00000000000E+00  0.00000000000E+00  0.94141715921E+03  0.94141715921E+03  0.00000000000E+00 0.  1.
         21   -1    0    0  501  502 -0.00000000000E+00 -0.00000000000E+00 -0.80323169570E+02  0.80323169570E+02  0.00000000000E+00 0.  1.
         25    1    1    2    0    0 -0.17344282760E+02  0.92592018060E+02  0.20586262056E+03  0.25860882525E+03  0.12500000000E+03 0.  0.
         25    1    1    2    0    0 -0.57475576270E+02  0.81687229990E+02  0.21799697776E+03  0.27041436301E+03  0.12500000000E+03 0.  0.
         25    1    1    2    0    0  0.74819859031E+02 -0.17427924805E+03  0.43723439132E+03  0.49271714052E+03  0.12500000000E+03 0.  0.
</event>
<event>
 5    0  0.5452999E-005  0.3341427E+03  0.7546771E-02  0.1069318E+00
         21   -1    0    0  502  501  0.00000000000E+00  0.00000000000E+00  0.65379675553E+03  0.65379675553E+03  0.00000000000E+00 0. -1.
         21   -1    0    0  501  502 -0.00000000000E+00 -0.00000000000E+00 -0.17077380872E+03  0.17077380872E+03  0.00000000000E+00 0. -1.
         25    1    1    2    0    0  0.28513797496E+02  0.14334691987E+03  0.36591090157E+03  0.41337291151E+03  0.12500000000E+03 0.  0.
         25    1    1    2    0    0  0.88998395362E+01 -0.18476840536E+03  0.15179956841E+03  0.26997533171E+03  0.12500000000E+03 0.  0.
         25    1    1    2    0    0 -0.37413637032E+02  0.41421485485E+02 -0.34687523158E+02  0.14122232104E+03  0.12500000000E+03 0.  0.
</event>
<event>
 5    0  0.5452999E-005  0.3891153E+03  0.7546771E-02  0.1047615E+00
         21   -1    0    0  502  501  0.00000000000E+00  0.00000000000E+00  0.97917475184E+02  0.97917475184E+02  0.00000000000E+00 0. -1.
         21   -1    0    0  501  502 -0.00000000000E+00 -0.00000000000E+00 -0.15463091485E+04  0.15463091485E+04  0.00000000000E+00 0. -1.
         25    1    1    2    0    0  0.64342002580E+02  0.21466097101E+03 -0.25377254153E+03  0.36089434549E+03  0.12500000000E+03 0.  0.
         25    1    1    2    0    0  0.17456875706E+02 -0.27889956001E+03 -0.76648726340E+03  0.82535897162E+03  0.12500000000E+03 0.  0.
         25    1    1    2    0    0 -0.81798878286E+02  0.64238588998E+02 -0.42813186840E+03  0.45797330658E+03  0.12500000000E+03 0.  0.
</event>
<event>
 5    0  0.5452999E-005  0.2947882E+03  0.7546771E-02  0.1087875E+00
         21   -1    0    0  502  501  0.00000000000E+00  0.00000000000E+00  0.29086209794E+03  0.29086209794E+03  0.00000000000E+00 0. -1.
         21   -1    0    0  501  502 -0.00000000000E+00 -0.00000000000E+00 -0.29876727475E+03  0.29876727475E+03  0.00000000000E+00 0. -1.
         25    1    1    2    0    0  0.17362940489E+01  0.17462205606E+03 -0.84606870485E+02  0.23082287520E+03  0.12500000000E+03 0.  0.
         25    1    1    2    0    0 -0.65546682309E+02 -0.28680293910E+02  0.58712454438E+02  0.15553481645E+03  0.12500000000E+03 0.  0.
         25    1    1    2    0    0  0.63810388260E+02 -0.14594176215E+03  0.17989239241E+02  0.20327168105E+03  0.12500000000E+03 0.  0.
</event>
<event>
 5    0  0.5542281E-005  0.3386971E+03  0.7546771E-02  0.1067352E+00
         21   -1    0    0  502  501  0.00000000000E+00  0.00000000000E+00  0.55807630513E+03  0.55807630513E+03  0.00000000000E+00 0.  1.
         21   -1    0    0  501  502 -0.00000000000E+00 -0.00000000000E+00 -0.20555568195E+03  0.20555568195E+03  0.00000000000E+00 0.  1.
         25    1    1    2    0    0  0.10662654272E+03 -0.11055089666E+03 -0.53750502971E+02  0.20519463184E+03  0.12500000000E+03 0.  0.
         25    1    1    2    0    0 -0.23826530139E+02  0.12904169341E+03  0.78450461124E+02  0.19748148527E+03  0.12500000000E+03 0.  0.
         25    1    1    2    0    0 -0.82800012577E+02 -0.18490796742E+02  0.32782066502E+03  0.36095586997E+03  0.12500000000E+03 0.  0.
</event>
<event>
 5    0  0.5452999E-005  0.2729205E+03  0.7546771E-02  0.1099620E+00
         21   -1    0    0  502  501  0.00000000000E+00  0.00000000000E+00  0.36038874805E+04  0.36038874805E+04  0.00000000000E+00 0.  1.
         21   -1    0    0  501  502 -0.00000000000E+00 -0.00000000000E+00 -0.20668121079E+02  0.20668121079E+02  0.00000000000E+00 0.  1.
         25    1    1    2    0    0  0.53287903925E+02 -0.19210530828E+02  0.86034242234E+03  0.87121910498E+03  0.12500000000E+03 0.  0.
         25    1    1    2    0    0  0.56763161784E+02  0.14016566512E+03  0.15722710442E+04  0.15844651168E+04  0.12500000000E+03 0.  0.
         25    1    1    2    0    0 -0.11005106571E+03 -0.12095513429E+03  0.11506058929E+04  0.11688713797E+04  0.12500000000E+03 0.  0.
</event>
<event>
 5    0  0.5452999E-005  0.2484763E+03  0.7546771E-02  0.1114272E+00
         21   -1    0    0  502  501  0.00000000000E+00  0.00000000000E+00  0.31971061183E+03  0.31971061183E+03  0.00000000000E+00 0. -1.
         21   -1    0    0  501  502 -0.00000000000E+00 -0.00000000000E+00 -0.19311365789E+03  0.19311365789E+03  0.00000000000E+00 0. -1.
         25    1    1    2    0    0 -0.31217977861E+02  0.87287760185E+02  0.18368119156E+02  0.15670387047E+03  0.12500000000E+03 0.  0.
         25    1    1    2    0    0 -0.77363050309E+00 -0.15007297694E+03  0.71613026884E+02  0.20802865796E+03  0.12500000000E+03 0.  0.
         25    1    1    2    0    0  0.31991608364E+02  0.62785216759E+02  0.36615807905E+02  0.14809174129E+03  0.12500000000E+03 0.  0.
</event>
<event>
 5    0  0.5452999E-005  0.2649665E+03  0.7546771E-02  0.1104195E+00
         21   -1    0    0  502  501  0.00000000000E+00  0.00000000000E+00  0.25152561382E+03  0.25152561382E+03  0.00000000000E+00 0.  1.
         21   -1    0    0  501  502 -0.00000000000E+00 -0.00000000000E+00 -0.27912571454E+03  0.27912571454E+03  0.00000000000E+00 0.  1.
         25    1    1    2    0    0  0.69626262033E+02  0.10949634693E+02 -0.55550346016E+02  0.15387836692E+03  0.12500000000E+03 0.  0.
         25    1    1    2    0    0 -0.36287044621E+02  0.12489583659E+03  0.51778053163E+02  0.18767441593E+03  0.12500000000E+03 0.  0.
         25    1    1    2    0    0 -0.33339217412E+02 -0.13584547129E+03 -0.23827807866E+02  0.18909854551E+03  0.12500000000E+03 0.  0.
</event>
<event>
 5    0  0.5452999E-005  0.4570234E+03  0.7546771E-02  0.1025648E+00
         21   -1    0    0  502  501  0.00000000000E+00  0.00000000000E+00  0.20158739926E+03  0.20158739926E+03  0.00000000000E+00 0.  1.
         21   -1    0    0  501  502 -0.00000000000E+00 -0.00000000000E+00 -0.10361280076E+04  0.10361280076E+04  0.00000000000E+00 0.  1.
         25    1    1    2    0    0  0.79645283286E+02 -0.33786927887E+03 -0.53630823438E+03  0.65096124541E+03  0.12500000000E+03 0.  0.
         25    1    1    2    0    0 -0.49801793882E+02 -0.76615159693E+01 -0.10276828539E+03  0.16948521465E+03  0.12500000000E+03 0.  0.
         25    1    1    2    0    0 -0.29843489404E+02  0.34553079484E+03 -0.19546408854E+03  0.41726894678E+03  0.12500000000E+03 0.  0.
</event>
<event>
 5    0  0.5452999E-005  0.4889069E+03  0.7546771E-02  0.1016716E+00
         21   -1    0    0  502  501  0.00000000000E+00  0.00000000000E+00  0.69243683352E+03  0.69243683352E+03  0.00000000000E+00 0. -1.
         21   -1    0    0  501  502 -0.00000000000E+00 -0.00000000000E+00 -0.34520105607E+03  0.34520105607E+03  0.00000000000E+00 0. -1.
         25    1    1    2    0    0  0.10679914136E+03  0.16171264017E+03  0.74049284025E+00  0.23061349249E+03  0.12500000000E+03 0.  0.
         25    1    1    2    0    0  0.22337383795E+03 -0.22692013944E+03  0.59085506701E+02  0.34713789517E+03  0.12500000000E+03 0.  0.
         25    1    1    2    0    0 -0.33017297931E+03  0.65207499266E+02  0.28740977790E+03  0.45988650193E+03  0.12500000000E+03 0.  0.
</event>
<event>
 5    0  0.5452999E-005  0.2757122E+03  0.7546771E-02  0.1098054E+00
         21   -1    0    0  502  501  0.00000000000E+00  0.00000000000E+00  0.66494794306E+02  0.66494794306E+02  0.00000000000E+00 0. -1.
         21   -1    0    0  501  502 -0.00000000000E+00 -0.00000000000E+00 -0.11432055994E+04  0.11432055994E+04  0.00000000000E+00 0. -1.
         25    1    1    2    0    0  0.96738627171E+02 -0.11169338231E+03 -0.28036885616E+03  0.34068382577E+03  0.12500000000E+03 0.  0.
         25    1    1    2    0    0 -0.11110323371E+03  0.12858618997E+03 -0.59184415741E+03  0.62831747028E+03  0.12500000000E+03 0.  0.
         25    1    1    2    0    0  0.14364606544E+02 -0.16892807657E+02 -0.20449779148E+03  0.24069909761E+03  0.12500000000E+03 0.  0.
</event>
<event>
 5    0  0.5452999E-005  0.4138115E+03  0.7546771E-02  0.1039099E+00
         21   -1    0    0  502  501  0.00000000000E+00  0.00000000000E+00  0.28908848444E+03  0.28908848444E+03  0.00000000000E+00 0. -1.
         21   -1    0    0  501  502 -0.00000000000E+00 -0.00000000000E+00 -0.59234452929E+03  0.59234452929E+03  0.00000000000E+00 0. -1.
         25    1    1    2    0    0 -0.96780119333E+01  0.16133276252E+03 -0.10364866582E+03  0.22910689667E+03  0.12500000000E+03 0.  0.
         25    1    1    2    0    0 -0.21003687667E+03  0.93642331961E+02 -0.93320207060E+02  0.27788133608E+03  0.12500000000E+03 0.  0.
         25    1    1    2    0    0  0.21971488860E+03 -0.25497509448E+03 -0.10628717197E+03  0.37444478098E+03  0.12500000000E+03 0.  0.
</event>
<event>
 5    0  0.5452999E-005  0.3955988E+03  0.7546771E-02  0.1045314E+00
         21   -1    0    0  502  501  0.00000000000E+00  0.00000000000E+00  0.10608391837E+04  0.10608391837E+04  0.00000000000E+00 0. -1.
         21   -1    0    0  501  502 -0.00000000000E+00 -0.00000000000E+00 -0.14752322753E+03  0.14752322753E+03  0.00000000000E+00 0. -1.
         25    1    1    2    0    0 -0.15994410495E+03  0.25605585698E+03  0.34799624245E+03  0.47736055907E+03  0.12500000000E+03 0.  0.
         25    1    1    2    0    0 -0.22461407692E+02 -0.58319032702E+02  0.30832547871E+03  0.33851916524E+03  0.12500000000E+03 0.  0.
         25    1    1    2    0    0  0.18240551264E+03 -0.19773682428E+03  0.25699423504E+03  0.39248268695E+03  0.12500000000E+03 0.  0.
</event>
<event>
 5    0  0.5452999E-005  0.3218172E+03  0.7546771E-02  0.1074816E+00
         21   -1    0    0  502  501  0.00000000000E+00  0.00000000000E+00  0.97095713902E+02  0.97095713902E+02  0.00000000000E+00 0. -1.
         21   -1    0    0  501  502 -0.00000000000E+00 -0.00000000000E+00 -0.10666412363E+04  0.10666412363E+04  0.00000000000E+00 0. -1.
         25    1    1    2    0    0  0.18930523732E+03  0.70027864355E+02 -0.63059282524E+03  0.67380463482E+03  0.12500000000E+03 0.  0.
         25    1    1    2    0    0 -0.13985911758E+03 -0.85961583185E+02 -0.14020150542E+03  0.24946227906E+03  0.12500000000E+03 0.  0.
         25    1    1    2    0    0 -0.49446119746E+02  0.15933718830E+02 -0.19875119179E+03  0.24047003637E+03  0.12500000000E+03 0.  0.
</event>
<event>
 5    0  0.5452999E-005  0.4043288E+03  0.7546771E-02  0.1042291E+00
         21   -1    0    0  502  501  0.00000000000E+00  0.00000000000E+00  0.17179952323E+04  0.17179952323E+04  0.00000000000E+00 0.  1.
         21   -1    0    0  501  502 -0.00000000000E+00 -0.00000000000E+00 -0.95158461774E+02  0.95158461774E+02  0.00000000000E+00 0.  1.
         25    1    1    2    0    0  0.20847672493E+03 -0.22697424020E+03  0.84457778113E+03  0.90769845154E+03  0.12500000000E+03 0.  0.
         25    1    1    2    0    0 -0.98174797350E+02  0.59000459503E+02  0.12497144735E+03  0.21062337883E+03  0.12500000000E+03 0.  0.
         25    1    1    2    0    0 -0.11030192758E+03  0.16797378069E+03  0.65328754206E+03  0.69483186372E+03  0.12500000000E+03 0.  0.
</event>
<event>
 5    0  0.5452999E-005  0.2711352E+03  0.7546771E-02  0.1100632E+00
         21   -1    0    0  502  501  0.00000000000E+00  0.00000000000E+00  0.48777382695E+03  0.48777382695E+03  0.00000000000E+00 0. -1.
         21   -1    0    0  501  502 -0.00000000000E+00 -0.00000000000E+00 -0.15071394284E+03  0.15071394284E+03  0.00000000000E+00 0. -1.
         25    1    1    2    0    0  0.64436901281E+02  0.87615420413E+02  0.68874438489E+02  0.17943596189E+03  0.12500000000E+03 0.  0.
         25    1    1    2    0    0  0.91266748702E+01 -0.59259868758E+02 -0.15178701227E+02  0.13946476691E+03  0.12500000000E+03 0.  0.
         25    1    1    2    0    0 -0.73563576151E+02 -0.28355551655E+02  0.28336414685E+03  0.31958704098E+03  0.12500000000E+03 0.  0.
</event>
<event>
 5    0  0.5452999E-005  0.2933103E+03  0.7546771E-02  0.1088633E+00
         21   -1    0    0  502  501  0.00000000000E+00  0.00000000000E+00  0.62299570695E+02  0.62299570695E+02  0.00000000000E+00 0.  1.
         21   -1    0    0  501  502 -0.00000000000E+00 -0.00000000000E+00 -0.13809237641E+04  0.13809237641E+04  0.00000000000E+00 0.  1.
         25    1    1    2    0    0 -0.11096629770E+03  0.88215883007E+02 -0.31129630800E+03  0.36417846259E+03  0.12500000000E+03 0.  0.
         25    1    1    2    0    0 -0.53777796016E+02  0.35370217743E+02 -0.28883089296E+03  0.32123416440E+03  0.12500000000E+03 0.  0.
         25    1    1    2    0    0  0.16474409372E+03 -0.12358610075E+03 -0.71849699242E+03  0.75781070779E+03  0.12500000000E+03 0.  0.
</event>
<event>
 5    0  0.5888688E-005  0.6639436E+03  0.7546771E-02  0.9780961E-01
         21   -1    0    0  502  501  0.00000000000E+00  0.00000000000E+00  0.39029730661E+03  0.39029730661E+03  0.00000000000E+00 0.  1.
         21   -1    0    0  501  502 -0.00000000000E+00 -0.00000000000E+00 -0.11294496107E+04  0.11294496107E+04  0.00000000000E+00 0.  1.
         25    1    1    2    0    0  0.22668499492E+03 -0.32224296884E+03 -0.49765897730E+03  0.64692818425E+03  0.12500000000E+03 0.  0.
         25    1    1    2    0    0  0.17673668211E+03  0.25686383780E+03 -0.28858818869E+03  0.44285779729E+03  0.12500000000E+03 0.  0.
         25    1    1    2    0    0 -0.40342167702E+03  0.65379131041E+02  0.47094861913E+02  0.42996093577E+03  0.12500000000E+03 0.  0.
</event>
<event>
 5    0  0.5452999E-005  0.2842552E+03  0.7546771E-02  0.1093387E+00
         21   -1    0    0  502  501  0.00000000000E+00  0.00000000000E+00  0.10607457894E+03  0.10607457894E+03  0.00000000000E+00 0.  1.
         21   -1    0    0  501  502 -0.00000000000E+00 -0.00000000000E+00 -0.76173789672E+03  0.76173789672E+03  0.00000000000E+00 0.  1.
         25    1    1    2    0    0 -0.37330905453E+02  0.30282777747E+02  0.20051984496E+02  0.13541685719E+03  0.12500000000E+03 0.  0.
         25    1    1    2    0    0  0.25574150016E+01 -0.12619515875E+02 -0.17896086762E+03  0.21867277995E+03  0.12500000000E+03 0.  0.
         25    1    1    2    0    0  0.34773490452E+02 -0.17663261872E+02 -0.49675443466E+03  0.51372283851E+03  0.12500000000E+03 0.  0.
</event>
<event>
 5    0  0.5452999E-005  0.2518411E+03  0.7546771E-02  0.1112147E+00
         21   -1    0    0  502  501  0.00000000000E+00  0.00000000000E+00  0.56573423018E+03  0.56573423018E+03  0.00000000000E+00 0. -1.
         21   -1    0    0  501  502 -0.00000000000E+00 -0.00000000000E+00 -0.11210910769E+03  0.11210910769E+03  0.00000000000E+00 0. -1.
         25    1    1    2    0    0 -0.87607584520E+02  0.20459172969E+02  0.54252991635E+02  0.16328519138E+03  0.12500000000E+03 0.  0.
         25    1    1    2    0    0  0.87743532746E+02 -0.75696043955E+02  0.13683098872E+03  0.21857844835E+03  0.12500000000E+03 0.  0.
         25    1    1    2    0    0 -0.13594822581E+00  0.55236870986E+02  0.26254114213E+03  0.29597969814E+03  0.12500000000E+03 0.  0.
</event>
<event>
 5    0  0.5452999E-005  0.3090091E+03  0.7546771E-02  0.1080822E+00
         21   -1    0    0  502  501  0.00000000000E+00  0.00000000000E+00  0.18299019356E+03  0.18299019356E+03  0.00000000000E+00 0.  1.
         21   -1    0    0  501  502 -0.00000000000E+00 -0.00000000000E+00 -0.52181263417E+03  0.52181263417E+03  0.00000000000E+00 0.  1.
         25    1    1    2    0    0  0.19233973673E+01 -0.78447090018E+02 -0.95863341704E+02  0.17598984537E+03  0.12500000000E+03 0.  0.
         25    1    1    2    0    0  0.50447519624E+02  0.35402411836E+01 -0.32622524449E+03  0.35299489470E+03  0.12500000000E+03 0.  0.
         25    1    1    2    0    0 -0.52370916991E+02  0.74906848835E+02  0.83266145576E+02  0.17581808766E+03  0.12500000000E+03 0.  0.
</event>
<event>
 5    0  0.5452999E-005  0.3889415E+03  0.7546771E-02  0.1047678E+00
         21   -1    0    0  502  501  0.00000000000E+00  0.00000000000E+00  0.17267216985E+03  0.17267216985E+03  0.00000000000E+00 0.  1.
         21   -1    0    0  501  502 -0.00000000000E+00 -0.00000000000E+00 -0.87608499146E+03  0.87608499146E+03  0.00000000000E+00 0.  1.
         25    1    1    2    0    0 -0.20581478514E+03  0.61190296467E+02 -0.16087523698E+03  0.29598956069E+03  0.12500000000E+03 0.  0.
         25    1    1    2    0    0  0.10088321358E+03 -0.22146284509E+03 -0.39528396464E+03  0.48072614578E+03  0.12500000000E+03 0.  0.
         25    1    1    2    0    0  0.10493157155E+03  0.16027254862E+03 -0.14725361999E+03  0.27204145484E+03  0.12500000000E+03 0.  0.
</event>
<event>
 5    0  0.5452999E-005  0.3254874E+03  0.7546771E-02  0.1073151E+00
         21   -1    0    0  502  501  0.00000000000E+00  0.00000000000E+00  0.44726473681E+03  0.44726473681E+03  0.00000000000E+00 0. -1.
         21   -1    0    0  501  502 -0.00000000000E+00 -0.00000000000E+00 -0.23686648108E+03  0.23686648108E+03  0.00000000000E+00 0. -1.
         25    1    1    2    0    0 -0.12073898822E+03  0.46222399285E+02  0.73452681332E+02  0.19425424028E+03  0.12500000000E+03 0.  0.
         25    1    1    2    0    0 -0.10465988338E+03  0.57798855991E+02  0.12174767038E+03  0.21152279827E+03  0.12500000000E+03 0.  0.
         25    1    1    2    0    0  0.22539887160E+03 -0.10402125528E+03  0.15197904020E+02  0.27835417934E+03  0.12500000000E+03 0.  0.
</event>
<event>
 5    0  0.5452999E-005  0.2009417E+03  0.7546771E-02  0.1148947E+00
         21   -1    0    0  502  501  0.00000000000E+00  0.00000000000E+00  0.51065499911E+02  0.51065499911E+02  0.00000000000E+00 0.  1.
         21   -1    0    0  501  502 -0.00000000000E+00 -0.00000000000E+00 -0.79070136196E+03  0.79070136196E+03  0.00000000000E+00 0.  1.
         25    1    1    2    0    0 -0.12632409881E+02  0.23345429467E+02 -0.18772012102E+03  0.22708683513E+03  0.12500000000E+03 0.  0.
         25    1    1    2    0    0  0.36963542096E+02 -0.19391507978E+02 -0.19197598093E+03  0.23285641773E+03  0.12500000000E+03 0.  0.
         25    1    1    2    0    0 -0.24331132215E+02 -0.39539214885E+01 -0.35993976010E+03  0.38182360900E+03  0.12500000000E+03 0.  0.
</event>
<event>
 5    0  0.5452999E-005  0.3523118E+03  0.7546771E-02  0.1061670E+00
         21   -1    0    0  502  501  0.00000000000E+00  0.00000000000E+00  0.15632272453E+03  0.15632272453E+03  0.00000000000E+00 0. -1.
         21   -1    0    0  501  502 -0.00000000000E+00 -0.00000000000E+00 -0.79402149152E+03  0.79402149152E+03  0.00000000000E+00 0. -1.
         25    1    1    2    0    0 -0.14117003854E+03  0.34766882856E+02 -0.43572457773E+03  0.47604477054E+03  0.12500000000E+03 0.  0.
         25    1    1    2    0    0  0.16197602513E+03  0.11334088160E+03 -0.10089151770E+03  0.25472826011E+03  0.12500000000E+03 0.  0.
         25    1    1    2    0    0 -0.20805986582E+02 -0.14810776445E+03 -0.10108267157E+03  0.21957118540E+03  0.12500000000E+03 0.  0.
</event>
<event>
 5    0  0.5452999E-005  0.3781093E+03  0.7546771E-02  0.1051635E+00
         21   -1    0    0  502  501  0.00000000000E+00  0.00000000000E+00  0.69605410312E+03  0.69605410312E+03  0.00000000000E+00 0.  1.
         21   -1    0    0  501  502 -0.00000000000E+00 -0.00000000000E+00 -0.20539583576E+03  0.20539583576E+03  0.00000000000E+00 0.  1.
         25    1    1    2    0    0  0.14574101963E+03  0.68324547972E+02 -0.19512067737E+02  0.20473008925E+03  0.12500000000E+03 0.  0.
         25    1    1    2    0    0  0.10865811353E+02  0.13628345966E+03  0.16369816913E+03  0.24721111992E+03  0.12500000000E+03 0.  0.
         25    1    1    2    0    0 -0.15660683098E+03 -0.20460800763E+03  0.34647216597E+03  0.44950872971E+03  0.12500000000E+03 0.  0.
</event>
<event>
 5    0  0.5452999E-005  0.3679912E+03  0.7546771E-02  0.1055464E+00
         21   -1    0    0  502  501  0.00000000000E+00  0.00000000000E+00  0.53702578701E+03  0.53702578701E+03  0.00000000000E+00 0.  1.
         21   -1    0    0  501  502 -0.00000000000E+00 -0.00000000000E+00 -0.25216200400E+03  0.25216200400E+03  0.00000000000E+00 0.  1.
         25    1    1    2    0    0 -0.24566710809E+01 -0.12268428298E+03 -0.74426887456E+02  0.19032033549E+03  0.12500000000E+03 0.  0.
         25    1    1    2    0    0  0.17913978542E+03  0.10723829336E+03  0.10622895406E+03  0.26551968847E+03  0.12500000000E+03 0.  0.
         25    1    1    2    0    0 -0.17668311434E+03  0.15445989619E+02  0.25306171640E+03  0.33334776705E+03  0.12500000000E+03 0.  0.
</event>
<event>
 5    0  0.5452999E-005  0.4275738E+03  0.7546771E-02  0.1034629E+00
         21   -1    0    0  502  501  0.00000000000E+00  0.00000000000E+00  0.82678849958E+02  0.82678849958E+02  0.00000000000E+00 0.  1.
         21   -1    0    0  501  502 -0.00000000000E+00 -0.00000000000E+00 -0.22111980791E+04  0.22111980791E+04  0.00000000000E+00 0.  1.
         25    1    1    2    0    0 -0.19880576817E+03  0.19482860289E+02 -0.85669529833E+03  0.88851288650E+03  0.12500000000E+03 0.  0.
         25    1    1    2    0    0 -0.44228298416E+02 -0.12750855302E+03 -0.95770486692E+03  0.97521186703E+03  0.12500000000E+03 0.  0.
         25    1    1    2    0    0  0.24303406659E+03  0.10802569273E+03 -0.31411906391E+03  0.43015217554E+03  0.12500000000E+03 0.  0.
</event>
<event>
 5    0  0.5452999E-005  0.2614136E+03  0.7546771E-02  0.1106297E+00
         21   -1    0    0  502  501  0.00000000000E+00  0.00000000000E+00  0.53704552995E+03  0.53704552995E+03  0.00000000000E+00 0. -1.
         21   -1    0    0  501  502 -0.00000000000E+00 -0.00000000000E+00 -0.12724630467E+03  0.12724630467E+03  0.00000000000E+00 0. -1.
         25    1    1    2    0    0  0.44285429320E+02  0.11849298259E+03  0.13360680777E+03  0.22243553056E+03  0.12500000000E+03 0.  0.
         25    1    1    2    0    0  0.28108189767E+02 -0.88597067729E+02  0.35828785778E+02  0.15983808255E+03  0.12500000000E+03 0.  0.
         25    1    1    2    0    0 -0.72393619088E+02 -0.29895914856E+02  0.24036363173E+03  0.28201822152E+03  0.12500000000E+03 0.  0.
</event>
<event>
 5    0  0.5452999E-005  0.6694047E+03  0.7546771E-02  0.9771034E-01
         21   -1    0    0  502  501  0.00000000000E+00  0.00000000000E+00  0.11533232549E+04  0.11533232549E+04  0.00000000000E+00 0. -1.
         21   -1    0    0  501  502 -0.00000000000E+00 -0.00000000000E+00 -0.38853169019E+03  0.38853169019E+03  0.00000000000E+00 0. -1.
         25    1    1    2    0    0  0.15150548298E+03  0.97306013088E+02  0.15257401356E+03  0.26706965603E+03  0.12500000000E+03 0.  0.
         25    1    1    2    0    0 -0.30003353133E+03 -0.52286200666E+03  0.18904409241E+03  0.64402443029E+03  0.12500000000E+03 0.  0.
         25    1    1    2    0    0  0.14852804835E+03  0.42555599357E+03  0.42317345878E+03  0.63076085883E+03  0.12500000000E+03 0.  0.
</event>
<event>
 5    0  0.5965183E-005  0.2657013E+03  0.7546771E-02  0.1103765E+00
         21   -1    0    0  502  501  0.00000000000E+00  0.00000000000E+00  0.45976776797E+03  0.45976776797E+03  0.00000000000E+00 0.  1.
         21   -1    0    0  501  502 -0.00000000000E+00 -0.00000000000E+00 -0.15354962491E+03  0.15354962491E+03  0.00000000000E+00 0.  1.
         25    1    1    2    0    0  0.87604988412E+02 -0.53833432393E+02  0.25185213335E+03  0.29937797098E+03  0.12500000000E+03 0.  0.
         25    1    1    2    0    0 -0.90221779002E+02 -0.21715266857E+02  0.62206298437E+02  0.16764887648E+03  0.12500000000E+03 0.  0.
         25    1    1    2    0    0  0.26167905906E+01  0.75548699250E+02 -0.78402887153E+01  0.14629054542E+03  0.12500000000E+03 0.  0.
</event>
<event>
 5    0  0.5452999E-005  0.3697260E+03  0.7546771E-02  0.1054798E+00
         21   -1    0    0  502  501  0.00000000000E+00  0.00000000000E+00  0.13606329573E+04  0.13606329573E+04  0.00000000000E+00 0.  1.
         21   -1    0    0  501  502 -0.00000000000E+00 -0.00000000000E+00 -0.10046599067E+03  0.10046599067E+03  0.00000000000E+00 0.  1.
         25    1    1    2    0    0 -0.14906948116E+03 -0.14967367080E+03  0.31133050970E+03  0.39645378572E+03  0.12500000000E+03 0.  0.
         25    1    1    2    0    0  0.24323648387E+03  0.93257192346E+02  0.41642758543E+03  0.50685089022E+03  0.12500000000E+03 0.  0.
         25    1    1    2    0    0 -0.94167002707E+02  0.56416478454E+02  0.53240887146E+03  0.55779427197E+03  0.12500000000E+03 0.  0.
</event>
<event>
 5    0  0.5452999E-005  0.2893745E+03  0.7546771E-02  0.1090676E+00
         21   -1    0    0  502  501  0.00000000000E+00  0.00000000000E+00  0.24086709103E+03  0.24086709103E+03  0.00000000000E+00 0.  1.
         21   -1    0    0  501  502 -0.00000000000E+00 -0.00000000000E+00 -0.34765071641E+03  0.34765071641E+03  0.00000000000E+00 0.  1.
         25    1    1    2    0    0 -0.47685699437E+02 -0.10866707014E+03  0.98912337748E+02  0.19872369920E+03  0.12500000000E+03 0.  0.
         25    1    1    2    0    0  0.30600256423E+01 -0.35886894912E+02 -0.11489547436E+03  0.17356037281E+03  0.12500000000E+03 0.  0.
         25    1    1    2    0    0  0.44625673794E+02  0.14455396505E+03 -0.90800488769E+02  0.21623373542E+03  0.12500000000E+03 0.  0.
</event>
<event>
 5    0  0.5452999E-005  0.3657469E+03  0.7546771E-02  0.1056331E+00
         21   -1    0    0  502  501  0.00000000000E+00  0.00000000000E+00  0.65656971608E+03  0.65656971608E+03  0.00000000000E+00 0.  1.
         21   -1    0    0  501  502 -0.00000000000E+00 -0.00000000000E+00 -0.20374192628E+03  0.20374192628E+03  0.00000000000E+00 0.  1.
         25    1    1    2    0    0  0.20851671451E+02  0.71557988637E+02  0.21308063105E+03  0.25803816242E+03  0.12500000000E+03 0.  0.
         25    1    1    2    0    0 -0.59389411740E+02 -0.14373637607E+03  0.35926250086E+03  0.41095229962E+03  0.12500000000E+03 0.  0.
         25    1    1    2    0    0  0.38537740289E+02  0.72178387434E+02 -0.11951534211E+03  0.19132118032E+03  0.12500000000E+03 0.  0.
</event>
<event>
 5    0  0.5452999E-005  0.4880150E+03  0.7546771E-02  0.1016955E+00
         21   -1    0    0  502  501  0.00000000000E+00  0.00000000000E+00  0.55171182048E+03  0.55171182048E+03  0.00000000000E+00 0.  1.
         21   -1    0    0  501  502 -0.00000000000E+00 -0.00000000000E+00 -0.43167221950E+03  0.43167221950E+03  0.00000000000E+00 0.  1.
         25    1    1    2    0    0 -0.19487283660E+02 -0.15170071679E+03 -0.14736407812E+03  0.24644275850E+03  0.12500000000E+03 0.  0.
         25    1    1    2    0    0  0.17396047101E+03 -0.11726491740E+03 -0.77818582232E+02  0.25630848224E+03  0.12500000000E+03 0.  0.
         25    1    1    2    0    0 -0.15447318735E+03  0.26896563419E+03  0.34522226133E+03  0.48063279924E+03  0.12500000000E+03 0.  0.
</event>
<event>
 5    0  0.5452999E-005  0.3504946E+03  0.7546771E-02  0.1062412E+00
         21   -1    0    0  502  501  0.00000000000E+00  0.00000000000E+00  0.71523319849E+03  0.71523319849E+03  0.00000000000E+00 0.  1.
         21   -1    0    0  501  502 -0.00000000000E+00 -0.00000000000E+00 -0.17175717829E+03  0.17175717829E+03  0.00000000000E+00 0.  1.
         25    1    1    2    0    0 -0.21450929938E+03  0.13855959475E+02  0.20230059829E+03  0.32055695157E+03  0.12500000000E+03 0.  0.
         25    1    1    2    0    0  0.68757428857E+02 -0.89778146352E+02  0.31636863966E+03  0.35847149921E+03  0.12500000000E+03 0.  0.
         25    1    1    2    0    0  0.14575187052E+03  0.75922186878E+02  0.24806782257E+02  0.20796192600E+03  0.12500000000E+03 0.  0.
</event>
<event>
 5    0  0.5466577E-005  0.3126250E+03  0.7546771E-02  0.1079094E+00
         21   -1    0    0  502  501  0.00000000000E+00  0.00000000000E+00  0.16879619208E+03  0.16879619208E+03  0.00000000000E+00 0.  1.
         21   -1    0    0  501  502 -0.00000000000E+00 -0.00000000000E+00 -0.57900816592E+03  0.57900816592E+03  0.00000000000E+00 0.  1.
         25    1    1    2    0    0 -0.67649046048E+02  0.65231176616E+02  0.65453180392E+01  0.15652265338E+03  0.12500000000E+03 0.  0.
         25    1    1    2    0    0  0.28018900934E+02 -0.56397850873E+02  0.14241084436E+02  0.14068967581E+03  0.12500000000E+03 0.  0.
         25    1    1    2    0    0  0.39630145114E+02 -0.88333257432E+01 -0.43099837631E+03  0.45059202881E+03  0.12500000000E+03 0.  0.
</event>
<event>
 5    0  0.5452999E-005  0.4042388E+03  0.7546771E-02  0.1042322E+00
         21   -1    0    0  502  501  0.00000000000E+00  0.00000000000E+00  0.56391402187E+03  0.56391402187E+03  0.00000000000E+00 0. -1.
         21   -1    0    0  501  502 -0.00000000000E+00 -0.00000000000E+00 -0.28977652066E+03  0.28977652066E+03  0.00000000000E+00 0. -1.
         25    1    1    2    0    0 -0.15589187570E+03 -0.86723141693E+02  0.18687297213E+02  0.21862615418E+03  0.12500000000E+03 0.  0.
         25    1    1    2    0    0 -0.17103884443E+02  0.27048129587E+03  0.10998646742E+03  0.31807970274E+03  0.12500000000E+03 0.  0.
         25    1    1    2    0    0  0.17299576014E+03 -0.18375815418E+03  0.14546373658E+03  0.31698468561E+03  0.12500000000E+03 0.  0.
</event>
<event>
 5    0  0.5452999E-005  0.2322177E+03  0.7546771E-02  0.1125088E+00
         21   -1    0    0  502  501  0.00000000000E+00  0.00000000000E+00  0.76275868800E+02  0.76275868800E+02  0.00000000000E+00 0.  1.
         21   -1    0    0  501  502 -0.00000000000E+00 -0.00000000000E+00 -0.70697432592E+03  0.70697432592E+03  0.00000000000E+00 0.  1.
         25    1    1    2    0    0 -0.13722617608E+02  0.70741855509E+02 -0.26645347345E+03  0.30301018773E+03  0.12500000000E+03 0.  0.
         25    1    1    2    0    0  0.41562721534E+02 -0.11682389426E+03 -0.22242988981E+03  0.28368175474E+03  0.12500000000E+03 0.  0.
         25    1    1    2    0    0 -0.27840103925E+02  0.46082038747E+02 -0.14181509386E+03  0.19655825225E+03  0.12500000000E+03 0.  0.
</event>
<event>
 5    0  0.5452999E-005  0.2396145E+03  0.7546771E-02  0.1120050E+00
         21   -1    0    0  502  501  0.00000000000E+00  0.00000000000E+00  0.18510896569E+03  0.18510896569E+03  0.00000000000E+00 0.  1.
         21   -1    0    0  501  502 -0.00000000000E+00 -0.00000000000E+00 -0.31016917092E+03  0.31016917092E+03  0.00000000000E+00 0.  1.
         25    1    1    2    0    0 -0.12618116595E+01 -0.18996809846E+02 -0.24975779376E+01  0.12646623600E+03  0.12500000000E+03 0.  0.
         25    1    1    2    0    0  0.80643232687E+02  0.95645622069E+02 -0.34273836193E+02  0.18014192140E+03  0.12500000000E+03 0.  0.
         25    1    1    2    0    0 -0.79381421027E+02 -0.76648812222E+02 -0.88288791106E+02  0.18866997921E+03  0.12500000000E+03 0.  0.
</event>
<event>
 5    0  0.5452999E-005  0.8429608E+03  0.7546771E-02  0.9499834E-01
         21   -1    0    0  502  501  0.00000000000E+00  0.00000000000E+00  0.21890020837E+03  0.21890020837E+03  0.00000000000E+00 0.  1.
         21   -1    0    0  501  502 -0.00000000000E+00 -0.00000000000E+00 -0.32461499189E+04  0.32461499189E+04  0.00000000000E+00 0.  1.
         25    1    1    2    0    0 -0.52394922983E+03  0.51637888524E+02 -0.19948479946E+04  0.20669380225E+04  0.12500000000E+03 0.  0.
         25    1    1    2    0    0  0.60788586900E+03 -0.17994191515E+03 -0.46188049477E+03  0.79426879204E+03  0.12500000000E+03 0.  0.
         25    1    1    2    0    0 -0.83936639163E+02  0.12830402663E+03 -0.57052122113E+03  0.60384331279E+03  0.12500000000E+03 0.  0.
</event>
<event>
 5    0  0.5452999E-005  0.3612767E+03  0.7546771E-02  0.1058079E+00
         21   -1    0    0  502  501  0.00000000000E+00  0.00000000000E+00  0.52901889184E+03  0.52901889184E+03  0.00000000000E+00 0.  1.
         21   -1    0    0  501  502 -0.00000000000E+00 -0.00000000000E+00 -0.24672252681E+03  0.24672252681E+03  0.00000000000E+00 0.  1.
         25    1    1    2    0    0  0.52222100660E+02  0.65626526152E+02 -0.11705199374E+03  0.19068339720E+03  0.12500000000E+03 0.  0.
         25    1    1    2    0    0  0.13511788648E+03 -0.62026235085E+02  0.12900051189E+03  0.23317424634E+03  0.12500000000E+03 0.  0.
         25    1    1    2    0    0 -0.18733998714E+03 -0.36002910671E+01  0.27034784687E+03  0.35188377511E+03  0.12500000000E+03 0.  0.
</event>
<event>
 5    0  0.5452999E-005  0.6472951E+03  0.7546771E-02  0.9811868E-01
         21   -1    0    0  502  501  0.00000000000E+00  0.00000000000E+00  0.37484967584E+03  0.37484967584E+03  0.00000000000E+00 0. -1.
         21   -1    0    0  501  502 -0.00000000000E+00 -0.00000000000E+00 -0.11177572961E+04  0.11177572961E+04  0.00000000000E+00 0. -1.
         25    1    1    2    0    0  0.19179789259E+03 -0.13404574310E+03 -0.35194494994E+03  0.44073227773E+03  0.12500000000E+03 0.  0.
         25    1    1    2    0    0 -0.26345501211E+03  0.17358921801E+03 -0.66113204240E+03  0.74314355107E+03  0.12500000000E+03 0.  0.
         25    1    1    2    0    0  0.71657119514E+02 -0.39543474903E+02  0.27016937204E+03  0.30873114318E+03  0.12500000000E+03 0.  0.
</event>
<event>
 5    0  0.5452999E-005  0.3246422E+03  0.7546771E-02  0.1073532E+00
         21   -1    0    0  502  501  0.00000000000E+00  0.00000000000E+00  0.35072062781E+03  0.35072062781E+03  0.00000000000E+00 0.  1.
         21   -1    0    0  501  502 -0.00000000000E+00 -0.00000000000E+00 -0.30050289221E+03  0.30050289221E+03  0.00000000000E+00 0.  1.
         25    1    1    2    0    0 -0.28135588234E+01 -0.97227992937E+02 -0.71396750098E+02  0.17373455226E+03  0.12500000000E+03 0.  0.
         25    1    1    2    0    0 -0.14458697784E+03 -0.50499905204E+02 -0.15416490262E+02  0.19828843325E+03  0.12500000000E+03 0.  0.
         25    1    1    2    0    0  0.14740053667E+03  0.14772789814E+03  0.13703097596E+03  0.27920053451E+03  0.12500000000E+03 0.  0.
</event>
<event>
 5    0  0.5452999E-005  0.4417644E+03  0.7546771E-02  0.1030207E+00
         21   -1    0    0  502  501  0.00000000000E+00  0.00000000000E+00  0.48596349914E+03  0.48596349914E+03  0.00000000000E+00 0. -1.
         21   -1    0    0  501  502 -0.00000000000E+00 -0.00000000000E+00 -0.40158519930E+03  0.40158519930E+03  0.00000000000E+00 0. -1.
         25    1    1    2    0    0 -0.23827108838E+03  0.10553263368E+03  0.31371692871E+03  0.42656014780E+03  0.12500000000E+03 0.  0.
         25    1    1    2    0    0  0.23180959940E+02 -0.20718033147E+00 -0.49377257676E+02  0.13638369918E+03  0.12500000000E+03 0.  0.
         25    1    1    2    0    0  0.21509012844E+03 -0.10532545335E+03 -0.17996137119E+03  0.32460485147E+03  0.12500000000E+03 0.  0.
</event>
<event>
 5    0  0.5452999E-005  0.2844220E+03  0.7546771E-02  0.1093298E+00
         21   -1    0    0  502  501  0.00000000000E+00  0.00000000000E+00  0.74412023462E+03  0.74412023462E+03  0.00000000000E+00 0.  1.
         21   -1    0    0  501  502 -0.00000000000E+00 -0.00000000000E+00 -0.10871342555E+03  0.10871342555E+03  0.00000000000E+00 0.  1.
         25    1    1    2    0    0 -0.41427774809E+02  0.71606398234E+02  0.10941279471E+02  0.15029453879E+03  0.12500000000E+03 0.  0.
         25    1    1    2    0    0  0.71718821970E+02 -0.29304936238E+02  0.15383822856E+03  0.21282285892E+03  0.12500000000E+03 0.  0.
         25    1    1    2    0    0 -0.30291047161E+02 -0.42301461996E+02  0.47062730104E+03  0.48971626246E+03  0.12500000000E+03 0.  0.
</event>
<event>
 5    0  0.6057628E-005  0.4918817E+03  0.7546771E-02  0.1015920E+00
         21   -1    0    0  502  501  0.00000000000E+00  0.00000000000E+00  0.65612235743E+03  0.65612235743E+03  0.00000000000E+00 0. -1.
         21   -1    0    0  501  502 -0.00000000000E+00 -0.00000000000E+00 -0.36875374984E+03  0.36875374984E+03  0.00000000000E+00 0. -1.
         25    1    1    2    0    0  0.13823390695E+03  0.28717165636E+03 -0.51156094455E+02  0.34614753971E+03  0.12500000000E+03 0.  0.
         25    1    1    2    0    0 -0.20200658063E+02 -0.20242062294E+03 -0.51406905185E+02  0.24423317767E+03  0.12500000000E+03 0.  0.
         25    1    1    2    0    0 -0.11803324889E+03 -0.84751033428E+02  0.38993160723E+03  0.43449538988E+03  0.12500000000E+03 0.  0.
</event>
<event>
 5    0  0.5452999E-005  0.4051981E+03  0.7546771E-02  0.1041994E+00
         21   -1    0    0  502  501  0.00000000000E+00  0.00000000000E+00  0.45752673593E+03  0.45752673593E+03  0.00000000000E+00 0.  1.
         21   -1    0    0  501  502 -0.00000000000E+00 -0.00000000000E+00 -0.35885440383E+03  0.35885440383E+03  0.00000000000E+00 0.  1.
         25    1    1    2    0    0 -0.70226347389E+02  0.95926030087E+02  0.46285170706E+02  0.17860811892E+03  0.12500000000E+03 0.  0.
         25    1    1    2    0    0 -0.27747162941E+02 -0.18034615628E+03 -0.21960969195E+03  0.31168583210E+03  0.12500000000E+03 0.  0.
         25    1    1    2    0    0  0.97973510330E+02  0.84420126192E+02  0.27199685334E+03  0.32608718874E+03  0.12500000000E+03 0.  0.
</event>
<event>
 5    0  0.5452999E-005  0.2502808E+03  0.7546771E-02  0.1113127E+00
         21   -1    0    0  502  501  0.00000000000E+00  0.00000000000E+00  0.29687859862E+03  0.29687859862E+03  0.00000000000E+00 0. -1.
         21   -1    0    0  501  502 -0.00000000000E+00 -0.00000000000E+00 -0.21099695588E+03  0.21099695588E+03  0.00000000000E+00 0. -1.
         25    1    1    2    0    0 -0.58607524681E+02  0.62335838996E+02 -0.62330323298E+02  0.16380069589E+03  0.12500000000E+03 0.  0.
         25    1    1    2    0    0  0.94573665743E+02 -0.42793147153E+02  0.13616374075E+03  0.21199291495E+03  0.12500000000E+03 0.  0.
         25    1    1    2    0    0 -0.35966141062E+02 -0.19542691843E+02  0.12048225298E+02  0.13208194366E+03  0.12500000000E+03 0.  0.
</event>
<event>
 5    0  0.5452999E-005  0.2662881E+03  0.7546771E-02  0.1103423E+00
         21   -1    0    0  502  501  0.00000000000E+00  0.00000000000E+00  0.53177738651E+03  0.53177738651E+03  0.00000000000E+00 0. -1.
         21   -1    0    0  501  502 -0.00000000000E+00 -0.00000000000E+00 -0.13334407139E+03  0.13334407139E+03  0.00000000000E+00 0. -1.
         25    1    1    2    0    0  0.18787465967E+02 -0.11576196518E+03  0.42190703059E+02  0.17651871540E+03  0.12500000000E+03 0.  0.
         25    1    1    2    0    0  0.25181244525E+02  0.10109453727E+02  0.47576388126E+02  0.13647274027E+03  0.12500000000E+03 0.  0.
         25    1    1    2    0    0 -0.43968710492E+02  0.10565251145E+03  0.30866622393E+03  0.35213000223E+03  0.12500000000E+03 0.  0.
</event>
<event>
 5    0  0.5476398E-005  0.3246020E+03  0.7546771E-02  0.1073551E+00
         21   -1    0    0  502  501  0.00000000000E+00  0.00000000000E+00  0.12009062194E+03  0.12009062194E+03  0.00000000000E+00 0. -1.
         21   -1    0    0  501  502 -0.00000000000E+00 -0.00000000000E+00 -0.87739144508E+03  0.87739144508E+03  0.00000000000E+00 0. -1.
         25    1    1    2    0    0  0.15725057420E+03 -0.64084686057E+02 -0.39691629685E+03  0.44944647821E+03  0.12500000000E+03 0.  0.
         25    1    1    2    0    0 -0.61743258005E+02  0.68573930517E+02 -0.63599563475E+00  0.15537058391E+03  0.12500000000E+03 0.  0.
         25    1    1    2    0    0 -0.95507316190E+02 -0.44892444598E+01 -0.35974853066E+03  0.39266500490E+03  0.12500000000E+03 0.  0.
</event>
<event>
 5    0  0.5452999E-005  0.3183415E+03  0.7546771E-02  0.1076415E+00
         21   -1    0    0  502  501  0.00000000000E+00  0.00000000000E+00  0.77657175000E+03  0.77657175000E+03  0.00000000000E+00 0.  1.
         21   -1    0    0  501  502 -0.00000000000E+00 -0.00000000000E+00 -0.13049835850E+03  0.13049835850E+03  0.00000000000E+00 0.  1.
         25    1    1    2    0    0  0.38382734810E+02 -0.55964128822E+01  0.36418010208E+03  0.38698410939E+03  0.12500000000E+03 0.  0.
         25    1    1    2    0    0  0.31469776605E+02 -0.16245223182E+03  0.84515628867E+02  0.22393964809E+03  0.12500000000E+03 0.  0.
         25    1    1    2    0    0 -0.69852511416E+02  0.16804864471E+03  0.19737766055E+03  0.29614635102E+03  0.12500000000E+03 0.  0.
</event>
<event>
 5    0  0.5452999E-005  0.3540541E+03  0.7546771E-02  0.1060963E+00
         21   -1    0    0  502  501  0.00000000000E+00  0.00000000000E+00  0.83131315921E+02  0.83131315921E+02  0.00000000000E+00 0. -1.
         21   -1    0    0  501  502 -0.00000000000E+00 -0.00000000000E+00 -0.15079072082E+04  0.15079072082E+04  0.00000000000E+00 0. -1.
         25    1    1    2    0    0  0.11813731169E+03 -0.12333813072E+03 -0.14208639587E+03  0.25491618778E+03  0.12500000000E+03 0.  0.
         25    1    1    2    0    0 -0.35627591982E+02  0.11711752312E+03 -0.34818739261E+03  0.38967332460E+03  0.12500000000E+03 0.  0.
         25    1    1    2    0    0 -0.82509719712E+02  0.62206076039E+01 -0.93450210382E+03  0.94644901175E+03  0.12500000000E+03 0.  0.
</event>
<event>
 5    0  0.5452999E-005  0.3761081E+03  0.7546771E-02  0.1052382E+00
         21   -1    0    0  502  501  0.00000000000E+00  0.00000000000E+00  0.45053139908E+03  0.45053139908E+03  0.00000000000E+00 0.  1.
         21   -1    0    0  501  502 -0.00000000000E+00 -0.00000000000E+00 -0.31397877343E+03  0.31397877343E+03  0.00000000000E+00 0.  1.
         25    1    1    2    0    0  0.12774352341E+02  0.88334292968E+02 -0.11888685450E+03  0.19422980092E+03  0.12500000000E+03 0.  0.
         25    1    1    2    0    0 -0.33398466316E+02  0.16810980454E+03  0.49525803046E+02  0.21783977851E+03  0.12500000000E+03 0.  0.
         25    1    1    2    0    0  0.20624113976E+02 -0.25644409751E+03  0.20591367711E+03  0.35244059307E+03  0.12500000000E+03 0.  0.
</event>
<event>
 5    0  0.5452999E-005  0.2860123E+03  0.7546771E-02  0.1092450E+00
         21   -1    0    0  502  501  0.00000000000E+00  0.00000000000E+00  0.12668868630E+03  0.12668868630E+03  0.00000000000E+00 0. -1.
         21   -1    0    0  501  502 -0.00000000000E+00 -0.00000000000E+00 -0.64570107061E+03  0.64570107061E+03  0.00000000000E+00 0. -1.
         25    1    1    2    0    0 -0.81297731830E+02  0.68500014806E+02 -0.27226871289E+03  0.31789436177E+03  0.12500000000E+03 0.  0.
         25    1    1    2    0    0 -0.70779128193E+02  0.39957236306E+02 -0.54541639237E+02  0.15876415254E+03  0.12500000000E+03 0.  0.
         25    1    1    2    0    0  0.15207686002E+03 -0.10845725111E+03 -0.19220203218E+03  0.29573124259E+03  0.12500000000E+03 0.  0.
</event>
<event>
 5    0  0.5452999E-005  0.2420979E+03  0.7546771E-02  0.1118403E+00
         21   -1    0    0  502  501  0.00000000000E+00  0.00000000000E+00  0.12185234260E+03  0.12185234260E+03  0.00000000000E+00 0.  1.
         21   -1    0    0  501  502 -0.00000000000E+00 -0.00000000000E+00 -0.48100353907E+03  0.48100353907E+03  0.00000000000E+00 0.  1.
         25    1    1    2    0    0 -0.45939469119E+02 -0.32531342591E+01 -0.16385018164E+03  0.21117030977E+03  0.12500000000E+03 0.  0.
         25    1    1    2    0    0 -0.21266101010E+02  0.10794425373E+02  0.24837669871E+02  0.12965599298E+03  0.12500000000E+03 0.  0.
         25    1    1    2    0    0  0.67205570128E+02 -0.75412911143E+01 -0.22013868470E+03  0.26202957892E+03  0.12500000000E+03 0.  0.
</event>
<event>
 5    0  0.5452999E-005  0.4097558E+03  0.7546771E-02  0.1040453E+00
         21   -1    0    0  502  501  0.00000000000E+00  0.00000000000E+00  0.13026101623E+03  0.13026101623E+03  0.00000000000E+00 0. -1.
         21   -1    0    0  501  502 -0.00000000000E+00 -0.00000000000E+00 -0.12889490104E+04  0.12889490104E+04  0.00000000000E+00 0. -1.
         25    1    1    2    0    0  0.48063035675E+02 -0.13262254830E+03 -0.33571308867E+03  0.38500269300E+03  0.12500000000E+03 0.  0.
         25    1    1    2    0    0  0.10469545889E+03  0.21922613784E+03 -0.76304602343E+03  0.81048471454E+03  0.12500000000E+03 0.  0.
         25    1    1    2    0    0 -0.15275849456E+03 -0.86603589542E+02 -0.59928882067E+02  0.22372261908E+03  0.12500000000E+03 0.  0.
</event>
<event>
 5    0  0.5452999E-005  0.3297157E+03  0.7546771E-02  0.1071263E+00
         21   -1    0    0  502  501  0.00000000000E+00  0.00000000000E+00  0.16872195000E+03  0.16872195000E+03  0.00000000000E+00 0. -1.
         21   -1    0    0  501  502 -0.00000000000E+00 -0.00000000000E+00 -0.64432883903E+03  0.64432883903E+03  0.00000000000E+00 0. -1.
         25    1    1    2    0    0  0.12526930022E+02  0.25040919265E+03 -0.18874615506E+03  0.33780437947E+03  0.12500000000E+03 0.  0.
         25    1    1    2    0    0 -0.55966009361E+02 -0.66851805003E+02 -0.10756239006E+03  0.18653692876E+03  0.12500000000E+03 0.  0.
         25    1    1    2    0    0  0.43439079339E+02 -0.18355738764E+03 -0.17929834391E+03  0.28870948079E+03  0.12500000000E+03 0.  0.
</event>
<event>
 5    0  0.5452999E-005  0.2628044E+03  0.7546771E-02  0.1105470E+00
         21   -1    0    0  502  501  0.00000000000E+00  0.00000000000E+00  0.32271992024E+03  0.32271992024E+03  0.00000000000E+00 0. -1.
         21   -1    0    0  501  502 -0.00000000000E+00 -0.00000000000E+00 -0.21401267529E+03  0.21401267529E+03  0.00000000000E+00 0. -1.
         25    1    1    2    0    0 -0.94422084687E+02 -0.59790853930E+02  0.14268649361E+02  0.16828271048E+03  0.12500000000E+03 0.  0.
         25    1    1    2    0    0 -0.17449389584E+02  0.98332811797E+02  0.11219712760E+03  0.19541499051E+03  0.12500000000E+03 0.  0.
         25    1    1    2    0    0  0.11187147427E+03 -0.38541957866E+02 -0.17758532007E+02  0.17303489455E+03  0.12500000000E+03 0.  0.
</event>
<event>
 5    0  0.6248106E-005  0.6877732E+03  0.7546771E-02  0.9738373E-01
         21   -1    0    0  502  501  0.00000000000E+00  0.00000000000E+00  0.12784802049E+04  0.12784802049E+04  0.00000000000E+00 0.  1.
         21   -1    0    0  501  502 -0.00000000000E+00 -0.00000000000E+00 -0.36999551958E+03  0.36999551958E+03  0.00000000000E+00 0.  1.
         25    1    1    2    0    0 -0.30851423025E+03 -0.32673575326E+02  0.35893409224E+03  0.49061927741E+03  0.12500000000E+03 0.  0.
         25    1    1    2    0    0  0.16738331690E+03  0.38400761615E+03  0.61424215031E+03  0.75392137737E+03  0.12500000000E+03 0.  0.
         25    1    1    2    0    0  0.14113091335E+03 -0.35133404083E+03 -0.64691557231E+02  0.40393506969E+03  0.12500000000E+03 0.  0.
</event>
<event>
 5    0  0.5452999E-005  0.2675429E+03  0.7546771E-02  0.1102694E+00
         21   -1    0    0  502  501  0.00000000000E+00  0.00000000000E+00  0.19223773880E+04  0.19223773880E+04  0.00000000000E+00 0. -1.
         21   -1    0    0  501  502 -0.00000000000E+00 -0.00000000000E+00 -0.37234734515E+02  0.37234734515E+02  0.00000000000E+00 0. -1.
         25    1    1    2    0    0 -0.42843700689E+02 -0.24781886254E+02  0.15002936025E+03  0.20145355175E+03  0.12500000000E+03 0.  0.
         25    1    1    2    0    0  0.16541074740E+02  0.51020026967E+02  0.58142311061E+03  0.59712183334E+03  0.12500000000E+03 0.  0.
         25    1    1    2    0    0  0.26302625950E+02 -0.26238140713E+02  0.11536901826E+04  0.11610367374E+04  0.12500000000E+03 0.  0.
</event>
<event>
 5    0  0.5452999E-005  0.2324810E+03  0.7546771E-02  0.1124906E+00
         21   -1    0    0  502  501  0.00000000000E+00  0.00000000000E+00  0.31382981088E+03  0.31382981088E+03  0.00000000000E+00 0.  1.
         21   -1    0    0  501  502 -0.00000000000E+00 -0.00000000000E+00 -0.17221893716E+03  0.17221893716E+03  0.00000000000E+00 0.  1.
         25    1    1    2    0    0  0.72164474083E+02 -0.21800674236E+02  0.24061421472E+02  0.14794232903E+03  0.12500000000E+03 0.  0.
         25    1    1    2    0    0  0.53397650836E+02  0.25543908808E+02  0.67860386127E+02  0.15405788651E+03  0.12500000000E+03 0.  0.
         25    1    1    2    0    0 -0.12556212492E+03 -0.37432345718E+01  0.49689066115E+02  0.18404853249E+03  0.12500000000E+03 0.  0.
</event>
<event>
 5    0  0.5452999E-005  0.3121812E+03  0.7546771E-02  0.1079305E+00
         21   -1    0    0  502  501  0.00000000000E+00  0.00000000000E+00  0.67571453308E+03  0.67571453308E+03  0.00000000000E+00 0. -1.
         21   -1    0    0  501  502 -0.00000000000E+00 -0.00000000000E+00 -0.14422819884E+03  0.14422819884E+03  0.00000000000E+00 0. -1.
         25    1    1    2    0    0 -0.63428956176E+02  0.10463332455E+03  0.42783604059E+02  0.18007443423E+03  0.12500000000E+03 0.  0.
         25    1    1    2    0    0  0.16039845931E+03 -0.24472269479E+01  0.15135658392E+03  0.25351029597E+03  0.12500000000E+03 0.  0.
         25    1    1    2    0    0 -0.96969503137E+02 -0.10218609760E+03  0.33734614627E+03  0.38635800171E+03  0.12500000000E+03 0.  0.
</event>
<event>
 5    0  0.5452999E-005  0.2993307E+03  0.7546771E-02  0.1085576E+00
         21   -1    0    0  502  501  0.00000000000E+00  0.00000000000E+00  0.10454413875E+04  0.10454413875E+04  0.00000000000E+00 0.  1.
         21   -1    0    0  501  502 -0.00000000000E+00 -0.00000000000E+00 -0.85704345094E+02  0.85704345094E+02  0.00000000000E+00 0.  1.
         25    1    1    2    0    0 -0.12398195622E+03  0.39392453267E+02  0.16351300663E+03  0.24348468983E+03  0.12500000000E+03 0.  0.
         25    1    1    2    0    0 -0.32203139710E+02 -0.11464302748E+03  0.28006772227E+03  0.32900303193E+03  0.12500000000E+03 0.  0.
         25    1    1    2    0    0  0.15618509593E+03  0.75250574217E+02  0.51615631354E+03  0.55865801088E+03  0.12500000000E+03 0.  0.
</event>
<event>
 5    0  0.5452999E-005  0.3586719E+03  0.7546771E-02  0.1059111E+00
         21   -1    0    0  502  501  0.00000000000E+00  0.00000000000E+00  0.54958032846E+03  0.54958032846E+03  0.00000000000E+00 0. -1.
         21   -1    0    0  501  502 -0.00000000000E+00 -0.00000000000E+00 -0.23407964052E+03  0.23407964052E+03  0.00000000000E+00 0. -1.
         25    1    1    2    0    0  0.78917574248E+02 -0.46699639922E+01  0.31962440486E+03  0.35218539474E+03  0.12500000000E+03 0.  0.
         25    1    1    2    0    0  0.58557574466E+02 -0.17304228081E+01 -0.14349508224E+03  0.19911760976E+03  0.12500000000E+03 0.  0.
         25    1    1    2    0    0 -0.13747514871E+03  0.64003868004E+01  0.13937136533E+03  0.23235696447E+03  0.12500000000E+03 0.  0.
</event>
<event>
 5    0  0.5452999E-005  0.5236339E+03  0.7546771E-02  0.1007788E+00
         21   -1    0    0  502  501  0.00000000000E+00  0.00000000000E+00  0.55860689185E+03  0.55860689185E+03  0.00000000000E+00 0.  1.
         21   -1    0    0  501  502 -0.00000000000E+00 -0.00000000000E+00 -0.49085049897E+03  0.49085049897E+03  0.00000000000E+00 0.  1.
         25    1    1    2    0    0 -0.12996921774E+03 -0.58389844898E+02  0.47541453397E+02  0.19541382075E+03  0.12500000000E+03 0.  0.
         25    1    1    2    0    0  0.20486324097E+03  0.37982626558E+03 -0.13407245486E+03  0.46886817196E+03  0.12500000000E+03 0.  0.
         25    1    1    2    0    0 -0.74894023221E+02 -0.32143642069E+03  0.15428739434E+03  0.38517539811E+03  0.12500000000E+03 0.  0.
</event>
<event>
 5    0  0.5452999E-005  0.2788447E+03  0.7546771E-02  0.1096322E+00
         21   -1    0    0  502  501  0.00000000000E+00  0.00000000000E+00  0.29743328383E+03  0.29743328383E+03  0.00000000000E+00 0. -1.
         21   -1    0    0  501  502 -0.00000000000E+00 -0.00000000000E+00 -0.26141777737E+03  0.26141777737E+03  0.00000000000E+00 0. -1.
         25    1    1    2    0    0 -0.10300254716E+03 -0.16859020003E+02  0.12874367427E+03  0.20759018508E+03  0.12500000000E+03 0.  0.
         25    1    1    2    0    0 -0.11792951550E+02  0.15589258245E+02 -0.12572424789E+03  0.17836391223E+03  0.12500000000E+03 0.  0.
         25    1    1    2    0    0  0.11479549871E+03  0.12697617583E+01  0.32996080081E+02  0.17289696388E+03  0.12500000000E+03 0.  0.
</event>
<event>
 5    0  0.5452999E-005  0.2744470E+03  0.7546771E-02  0.1098761E+00
         21   -1    0    0  502  501  0.00000000000E+00  0.00000000000E+00  0.50920574790E+03  0.50920574790E+03  0.00000000000E+00 0. -1.
         21   -1    0    0  501  502 -0.00000000000E+00 -0.00000000000E+00 -0.14791892747E+03  0.14791892747E+03  0.00000000000E+00 0. -1.
         25    1    1    2    0    0  0.20227585093E+01 -0.34321191336E+02 -0.67589478951E+02  0.14620319214E+03  0.12500000000E+03 0.  0.
         25    1    1    2    0    0 -0.31982238750E+02  0.54304470380E+02  0.16253163397E+03  0.21450727526E+03  0.12500000000E+03 0.  0.
         25    1    1    2    0    0  0.29959480241E+02 -0.19983279044E+02  0.26634466541E+03  0.29641420797E+03  0.12500000000E+03 0.  0.
</event>
<event>
 5    0  0.5452999E-005  0.3691835E+03  0.7546771E-02  0.1055006E+00
         21   -1    0    0  502  501  0.00000000000E+00  0.00000000000E+00  0.16218837782E+04  0.16218837782E+04  0.00000000000E+00 0.  1.
         21   -1    0    0  501  502 -0.00000000000E+00 -0.00000000000E+00 -0.84035913278E+02  0.84035913278E+02  0.00000000000E+00 0. -1.
         25    1    1    2    0    0  0.13196752793E+03  0.13075058807E+03  0.55455540717E+03  0.59805337916E+03  0.12500000000E+03 0.  0.
         25    1    1    2    0    0 -0.16616021803E+03 -0.22124337606E+03  0.39209658271E+03  0.49590581734E+03  0.12500000000E+03 0.  0.
         25    1    1    2    0    0  0.34192690100E+02  0.90492787990E+02  0.59119587509E+03  0.61196049501E+03  0.12500000000E+03 0.  0.
</event>
<event>
 5    0  0.5452999E-005  0.2903794E+03  0.7546771E-02  0.1090151E+00
         21   -1    0    0  502  501  0.00000000000E+00  0.00000000000E+00  0.21133985031E+03  0.21133985031E+03  0.00000000000E+00 0. -1.
         21   -1    0    0  501  502 -0.00000000000E+00 -0.00000000000E+00 -0.39897907882E+03  0.39897907882E+03  0.00000000000E+00 0. -1.
         25    1    1    2    0    0 -0.24639845987E+02  0.60084424263E+02 -0.27082879946E+03  0.30527118872E+03  0.12500000000E+03 0.  0.
         25    1    1    2    0    0  0.48422655978E+02  0.73476803896E+01 -0.81795560954E+01  0.13450147641E+03  0.12500000000E+03 0.  0.
         25    1    1    2    0    0 -0.23782809991E+02 -0.67432104653E+02  0.91369127041E+02  0.17054626400E+03  0.12500000000E+03 0.  0.
</event>
<event>
 5    0  0.5452999E-005  0.4258825E+03  0.7546771E-02  0.1035169E+00
         21   -1    0    0  502  501  0.00000000000E+00  0.00000000000E+00  0.14007132998E+04  0.14007132998E+04  0.00000000000E+00 0.  1.
         21   -1    0    0  501  502 -0.00000000000E+00 -0.00000000000E+00 -0.12948822483E+03  0.12948822483E+03  0.00000000000E+00 0.  1.
         25    1    1    2    0    0 -0.43368290925E+02 -0.52873228171E+01  0.37022743620E+03  0.39319475957E+03  0.12500000000E+03 0.  0.
         25    1    1    2    0    0 -0.12205815967E+03 -0.20392499096E-01  0.91269569902E+03  0.92926671832E+03  0.12500000000E+03 0.  0.
         25    1    1    2    0    0  0.16542645060E+03  0.53077153162E+01 -0.11698060261E+02  0.20774004673E+03  0.12500000000E+03 0.  0.
</event>
<event>
 5    0  0.5452999E-005  0.2578127E+03  0.7546771E-02  0.1108465E+00
         21   -1    0    0  502  501  0.00000000000E+00  0.00000000000E+00  0.89869968692E+03  0.89869968692E+03  0.00000000000E+00 0.  1.
         21   -1    0    0  501  502 -0.00000000000E+00 -0.00000000000E+00 -0.73959528241E+02  0.73959528241E+02  0.00000000000E+00 0. -1.
         25    1    1    2    0    0 -0.10441535437E+03 -0.77538076100E+02  0.18797256153E+03  0.26052524515E+03  0.12500000000E+03 0.  0.
         25    1    1    2    0    0  0.41271008350E+02 -0.19329432560E+02  0.17404477367E+03  0.21907420280E+03  0.12500000000E+03 0.  0.
         25    1    1    2    0    0  0.63144346015E+02  0.96867508660E+02  0.46272282348E+03  0.49305976721E+03  0.12500000000E+03 0.  0.
</event>
<event>
 5    0  0.5452999E-005  0.2878856E+03  0.7546771E-02  0.1091458E+00
         21   -1    0    0  502  501  0.00000000000E+00  0.00000000000E+00  0.29751423961E+03  0.29751423961E+03  0.00000000000E+00 0. -1.
         21   -1    0    0  501  502 -0.00000000000E+00 -0.00000000000E+00 -0.27856864332E+03  0.27856864332E+03  0.00000000000E+00 0. -1.
         25    1    1    2    0    0  0.43161024187E+02 -0.94680671036E+02  0.94734771595E+02  0.18822056324E+03  0.12500000000E+03 0.  0.
         25    1    1    2    0    0  0.81828146109E+02  0.26741160257E+02  0.50824504021E+02  0.16005956815E+03  0.12500000000E+03 0.  0.
         25    1    1    2    0    0 -0.12498917030E+03  0.67939510778E+02 -0.12661367933E+03  0.22780275154E+03  0.12500000000E+03 0.  0.
</event>
<event>
 5    0  0.6125665E-005  0.4816810E+03  0.7546771E-02  0.1018674E+00
         21   -1    0    0  502  501  0.00000000000E+00  0.00000000000E+00  0.10784004543E+04  0.10784004543E+04  0.00000000000E+00 0. -1.
         21   -1    0    0  501  502 -0.00000000000E+00 -0.00000000000E+00 -0.21514883830E+03  0.21514883830E+03  0.00000000000E+00 0. -1.
         25    1    1    2    0    0 -0.15956540029E+02 -0.28389154454E+03  0.27421338968E+03  0.41432716941E+03  0.12500000000E+03 0.  0.
         25    1    1    2    0    0  0.14104562286E+03  0.15146590965E+03 -0.87198947493E+01  0.24194384902E+03  0.12500000000E+03 0.  0.
         25    1    1    2    0    0 -0.12508908283E+03  0.13242563490E+03  0.59775812106E+03  0.63727827416E+03  0.12500000000E+03 0.  0.
</event>
<event>
 5    0  0.5452999E-005  0.3475497E+03  0.7546771E-02  0.1063625E+00
         21   -1    0    0  502  501  0.00000000000E+00  0.00000000000E+00  0.11527788924E+04  0.11527788924E+04  0.00000000000E+00 0.  1.
         21   -1    0    0  501  502 -0.00000000000E+00 -0.00000000000E+00 -0.10478228792E+03  0.10478228792E+03  0.00000000000E+00 0.  1.
         25    1    1    2    0    0 -0.53294023302E+02  0.30231443776E+02  0.75833111360E+03  0.77100276975E+03  0.12500000000E+03 0.  0.
         25    1    1    2    0    0  0.56644162894E+02 -0.73931908353E+01  0.32647447214E+03  0.35422281324E+03  0.12500000000E+03 0.  0.
         25    1    1    2    0    0 -0.33501395920E+01 -0.22838252940E+02 -0.36808981216E+02  0.13233559737E+03  0.12500000000E+03 0.  0.
</event>
<event>
 5    0  0.5452999E-005  0.4990848E+03  0.7546771E-02  0.1014018E+00
         21   -1    0    0  502  501  0.00000000000E+00  0.00000000000E+00  0.35668186191E+03  0.35668186191E+03  0.00000000000E+00 0. -1.
         21   -1    0    0  501  502 -0.00000000000E+00 -0.00000000000E+00 -0.69834116555E+03  0.69834116555E+03  0.00000000000E+00 0. -1.
         25    1    1    2    0    0 -0.97439286986E+02  0.13637082421E+03 -0.10998763012E+02  0.20937380240E+03  0.12500000000E+03 0.  0.
         25    1    1    2    0    0 -0.43497804968E+02 -0.37579194875E+03 -0.32564898833E+01  0.39843098839E+03  0.12500000000E+03 0.  0.
         25    1    1    2    0    0  0.14093709195E+03  0.23942112454E+03 -0.32740405075E+03  0.44721823667E+03  0.12500000000E+03 0.  0.
</event>
<event>
 5    0  0.5452999E-005  0.2585700E+03  0.7546771E-02  0.1108005E+00
         21   -1    0    0  502  501  0.00000000000E+00  0.00000000000E+00  0.45510191935E+03  0.45510191935E+03  0.00000000000E+00 0.  1.
         21   -1    0    0  501  502 -0.00000000000E+00 -0.00000000000E+00 -0.14690874404E+03  0.14690874404E+03  0.00000000000E+00 0.  1.
         25    1    1    2    0    0 -0.16854251661E+02  0.57413096900E+02  0.20488226439E+03  0.24735009957E+03  0.12500000000E+03 0.  0.
         25    1    1    2    0    0 -0.41484781121E+02  0.44126194942E+02 -0.24371982173E+02  0.14102163543E+03  0.12500000000E+03 0.  0.
         25    1    1    2    0    0  0.58339032782E+02 -0.10153929184E+03  0.12768289309E+03  0.21363892839E+03  0.12500000000E+03 0.  0.
</event>
<event>
 5    0  0.5452999E-005  0.3464826E+03  0.7546771E-02  0.1064068E+00
         21   -1    0    0  502  501  0.00000000000E+00  0.00000000000E+00  0.29869909207E+03  0.29869909207E+03  0.00000000000E+00 0. -1.
         21   -1    0    0  501  502 -0.00000000000E+00 -0.00000000000E+00 -0.40191007005E+03  0.40191007005E+03  0.00000000000E+00 0. -1.
         25    1    1    2    0    0  0.40812173495E+01  0.15817344434E+00 -0.18761946047E+03  0.22548335482E+03  0.12500000000E+03 0.  0.
         25    1    1    2    0    0  0.42044842974E+01  0.19665737466E+03  0.25131914677E+02  0.23441078011E+03  0.12500000000E+03 0.  0.
         25    1    1    2    0    0 -0.82857016469E+01 -0.19681554810E+03  0.59276567817E+02  0.24071502720E+03  0.12500000000E+03 0.  0.
</event>
<event>
 5    0  0.5452999E-005  0.2310355E+03  0.7546771E-02  0.1125913E+00
         21   -1    0    0  502  501  0.00000000000E+00  0.00000000000E+00  0.95190945476E+02  0.95190945476E+02  0.00000000000E+00 0.  1.
         21   -1    0    0  501  502 -0.00000000000E+00 -0.00000000000E+00 -0.56074040743E+03  0.56074040743E+03  0.00000000000E+00 0.  1.
         25    1    1    2    0    0  0.94260044084E+02  0.14643980459E+02 -0.26880525556E+03  0.31141719203E+03  0.12500000000E+03 0.  0.
         25    1    1    2    0    0 -0.64402614275E+02  0.13777883529E+02 -0.56465519787E+02  0.15215413805E+03  0.12500000000E+03 0.  0.
         25    1    1    2    0    0 -0.29857429809E+02 -0.28421863987E+02 -0.14027868661E+03  0.19236002283E+03  0.12500000000E+03 0.  0.
</event>
<event>
 5    0  0.5452999E-005  0.2736235E+03  0.7546771E-02  0.1099224E+00
         21   -1    0    0  502  501  0.00000000000E+00  0.00000000000E+00  0.14902156761E+03  0.14902156761E+03  0.00000000000E+00 0. -1.
         21   -1    0    0  501  502 -0.00000000000E+00 -0.00000000000E+00 -0.50240933884E+03  0.50240933884E+03  0.00000000000E+00 0. -1.
         25    1    1    2    0    0 -0.31649175953E+02  0.13765301858E+03 -0.15372745288E+03  0.24332520139E+03  0.12500000000E+03 0.  0.
         25    1    1    2    0    0 -0.10549427926E+02  0.39268321506E+02 -0.10380071676E+03  0.16748994090E+03  0.12500000000E+03 0.  0.
         25    1    1    2    0    0  0.42198603878E+02 -0.17692134008E+03 -0.95859601587E+02  0.24061576416E+03  0.12500000000E+03 0.  0.
</event>
<event>
 5    0  0.5620461E-005  0.2941653E+03  0.7546771E-02  0.1088194E+00
         21   -1    0    0  502  501  0.00000000000E+00  0.00000000000E+00  0.65378733143E+03  0.65378733143E+03  0.00000000000E+00 0.  1.
         21   -1    0    0  501  502 -0.00000000000E+00 -0.00000000000E+00 -0.13235682317E+03  0.13235682317E+03  0.00000000000E+00 0.  1.
         25    1    1    2    0    0  0.16652273142E+03 -0.64810163629E+02  0.13764298285E+03  0.25787742848E+03  0.12500000000E+03 0.  0.
         25    1    1    2    0    0 -0.15929541387E+03  0.15379744815E+00  0.13829731230E+03  0.24520644185E+03  0.12500000000E+03 0.  0.
         25    1    1    2    0    0 -0.72273175524E+01  0.64656366181E+02  0.24549021310E+03  0.28306028428E+03  0.12500000000E+03 0.  0.
</event>
<event>
 5    0  0.5452999E-005  0.3251061E+03  0.7546771E-02  0.1073323E+00
         21   -1    0    0  502  501  0.00000000000E+00  0.00000000000E+00  0.63229675502E+02  0.63229675502E+02  0.00000000000E+00 0.  1.
         21   -1    0    0  501  502 -0.00000000000E+00 -0.00000000000E+00 -0.16715876546E+04  0.16715876546E+04  0.00000000000E+00 0.  1.
         25    1    1    2    0    0 -0.22367367970E+03  0.21319085602E+02 -0.10076731814E+04  0.10399589699E+04  0.12500000000E+03 0.  0.
         25    1    1    2    0    0  0.13539857952E+03 -0.55545954744E+02 -0.32741271561E+03  0.37979233110E+03  0.12500000000E+03 0.  0.
         25    1    1    2    0    0  0.88275100184E+02  0.34226869143E+02 -0.27327208202E+03  0.31506602910E+03  0.12500000000E+03 0.  0.
</event>
<event>
 5    0  0.5452999E-005  0.2363223E+03  0.7546771E-02  0.1122267E+00
         21   -1    0    0  502  501  0.00000000000E+00  0.00000000000E+00  0.10387790455E+03  0.10387790455E+03  0.00000000000E+00 0. -1.
         21   -1    0    0  501  502 -0.00000000000E+00 -0.00000000000E+00 -0.53763316181E+03  0.53763316181E+03  0.00000000000E+00 0. -1.
         25    1    1    2    0    0 -0.78987548176E+02 -0.48413172956E+02 -0.15584061245E+03  0.22021390640E+03  0.12500000000E+03 0.  0.
         25    1    1    2    0    0  0.10138698845E+03  0.82719906301E+02 -0.19384148209E+03  0.26518187062E+03  0.12500000000E+03 0.  0.
         25    1    1    2    0    0 -0.22399440273E+02 -0.34306733345E+02 -0.84073162726E+02  0.15611528935E+03  0.12500000000E+03 0.  0.
</event>
<event>
 5    0  0.5452999E-005  0.2820556E+03  0.7546771E-02  0.1094571E+00
         21   -1    0    0  502  501  0.00000000000E+00  0.00000000000E+00  0.10529437388E+03  0.10529437388E+03  0.00000000000E+00 0. -1.
         21   -1    0    0  501  502 -0.00000000000E+00 -0.00000000000E+00 -0.75555204108E+03  0.75555204108E+03  0.00000000000E+00 0. -1.
         25    1    1    2    0    0  0.31863115612E+02  0.11683815550E+03 -0.25267469564E+03  0.30681576644E+03  0.12500000000E+03 0.  0.
         25    1    1    2    0    0 -0.76076723010E+01  0.31879522140E+02 -0.22841123854E+02  0.13122841746E+03  0.12500000000E+03 0.  0.
         25    1    1    2    0    0 -0.24255443311E+02 -0.14871767764E+03 -0.37474184771E+03  0.42280223107E+03  0.12500000000E+03 0.  0.
</event>
<event>
 5    0  0.5452999E-005  0.3415369E+03  0.7546771E-02  0.1066143E+00
         21   -1    0    0  502  501  0.00000000000E+00  0.00000000000E+00  0.95851278623E+03  0.95851278623E+03  0.00000000000E+00 0. -1.
         21   -1    0    0  501  502 -0.00000000000E+00 -0.00000000000E+00 -0.12169632405E+03  0.12169632405E+03  0.00000000000E+00 0. -1.
         25    1    1    2    0    0 -0.15762708583E+02 -0.66746134063E+02  0.78433406749E+03  0.79718783158E+03  0.12500000000E+03 0.  0.
         25    1    1    2    0    0  0.22849530070E+02  0.62203674630E+02  0.67653742033E+02  0.15682291597E+03  0.12500000000E+03 0.  0.
         25    1    1    2    0    0 -0.70868214879E+01  0.45424594324E+01 -0.15171347347E+02  0.12619836273E+03  0.12500000000E+03 0.  0.
</event>
<event>
 5    0  0.5452999E-005  0.2946457E+03  0.7546771E-02  0.1087948E+00
         21   -1    0    0  502  501  0.00000000000E+00  0.00000000000E+00  0.92621170897E+02  0.92621170897E+02  0.00000000000E+00 0.  1.
         21   -1    0    0  501  502 -0.00000000000E+00 -0.00000000000E+00 -0.93732441709E+03  0.93732441709E+03  0.00000000000E+00 0.  1.
         25    1    1    2    0    0  0.12497622014E+03 -0.29819164599E+02 -0.13354222325E+03  0.22353246647E+03  0.12500000000E+03 0.  0.
         25    1    1    2    0    0  0.63506601145E+02 -0.22259537816E+02 -0.20247297578E+03  0.24728299847E+03  0.12500000000E+03 0.  0.
         25    1    1    2    0    0 -0.18848282128E+03  0.52078702415E+02 -0.50868804717E+03  0.55913012305E+03  0.12500000000E+03 0.  0.
</event>
<event>
 5    0  0.5452999E-005  0.2352429E+03  0.7546771E-02  0.1123003E+00
         21   -1    0    0  502  501  0.00000000000E+00  0.00000000000E+00  0.14900794624E+03  0.14900794624E+03  0.00000000000E+00 0. -1.
         21   -1    0    0  501  502 -0.00000000000E+00 -0.00000000000E+00 -0.37138451450E+03  0.37138451450E+03  0.00000000000E+00 0. -1.
         25    1    1    2    0    0  0.14608847186E+02  0.69609107794E+02 -0.80840800704E+01  0.14404582137E+03  0.12500000000E+03 0.  0.
         25    1    1    2    0    0 -0.38518780969E+02 -0.31992145817E+01 -0.19009460542E+03  0.23077021140E+03  0.12500000000E+03 0.  0.
         25    1    1    2    0    0  0.23909933783E+02 -0.66409893213E+02 -0.24197882770E+02  0.14557642797E+03  0.12500000000E+03 0.  0.
</event>
<event>
 5    0  0.5452999E-005  0.2399650E+03  0.7546771E-02  0.1119816E+00
         21   -1    0    0  502  501  0.00000000000E+00  0.00000000000E+00  0.54618762198E+03  0.54618762198E+03  0.00000000000E+00 0.  1.
         21   -1    0    0  501  502 -0.00000000000E+00 -0.00000000000E+00 -0.10542749122E+03  0.10542749122E+03  0.00000000000E+00 0.  1.
         25    1    1    2    0    0 -0.99688339316E+02 -0.54139654767E+01  0.76206526671E+02  0.17719907089E+03  0.12500000000E+03 0.  0.
         25    1    1    2    0    0  0.58562275177E+02  0.40042677247E+02  0.94482595606E+02  0.17200266552E+03  0.12500000000E+03 0.  0.
         25    1    1    2    0    0  0.41126064138E+02 -0.34628711770E+02  0.27007100848E+03  0.30241337678E+03  0.12500000000E+03 0.  0.
</event>
<event>
 5    0  0.6401723E-005  0.5701226E+03  0.7546771E-02  0.9969407E-01
         21   -1    0    0  502  501  0.00000000000E+00  0.00000000000E+00  0.47089742950E+03  0.47089742950E+03  0.00000000000E+00 0. -1.
         21   -1    0    0  501  502 -0.00000000000E+00 -0.00000000000E+00 -0.69025589301E+03  0.69025589301E+03  0.00000000000E+00 0. -1.
         25    1    1    2    0    0  0.12876348101E+03 -0.11402205989E+01  0.22142624055E+03  0.28501914698E+03  0.12500000000E+03 0.  0.
         25    1    1    2    0    0  0.17457859201E+03 -0.26033670053E+03 -0.18691752757E+03  0.38576682665E+03  0.12500000000E+03 0.  0.
         25    1    1    2    0    0 -0.30334207302E+03  0.26147692113E+03 -0.25386717649E+03  0.49036734888E+03  0.12500000000E+03 0.  0.
</event>
<event>
 5    0  0.5452999E-005  0.2658963E+03  0.7546771E-02  0.1103652E+00
         21   -1    0    0  502  501  0.00000000000E+00  0.00000000000E+00  0.21725460060E+04  0.21725460060E+04  0.00000000000E+00 0. -1.
         21   -1    0    0  501  502 -0.00000000000E+00 -0.00000000000E+00 -0.32542841973E+02  0.32542841973E+02  0.00000000000E+00 0. -1.
         25    1    1    2    0    0 -0.70746359327E+02 -0.66957312073E+02  0.33729730443E+03  0.37266982783E+03  0.12500000000E+03 0.  0.
         25    1    1    2    0    0 -0.25590994145E+02  0.19856899611E+02  0.12222041649E+04  0.12290065973E+04  0.12500000000E+03 0.  0.
         25    1    1    2    0    0  0.96337353472E+02  0.47100412462E+02  0.58050169469E+03  0.60341242286E+03  0.12500000000E+03 0.  0.
</event>
<event>
 5    0  0.5452999E-005  0.4361014E+03  0.7546771E-02  0.1031950E+00
         21   -1    0    0  502  501  0.00000000000E+00  0.00000000000E+00  0.64780612494E+03  0.64780612494E+03  0.00000000000E+00 0. -1.
         21   -1    0    0  501  502 -0.00000000000E+00 -0.00000000000E+00 -0.29358237292E+03  0.29358237292E+03  0.00000000000E+00 0. -1.
         25    1    1    2    0    0  0.12547745116E+03 -0.24065543004E+01  0.10682395721E+03  0.20684955907E+03  0.12500000000E+03 0.  0.
         25    1    1    2    0    0 -0.33578890394E+03 -0.83623894521E+02 -0.11471318759E+02  0.36810831952E+03  0.12500000000E+03 0.  0.
         25    1    1    2    0    0  0.21031145278E+03  0.86030448821E+02  0.25887111356E+03  0.36643061926E+03  0.12500000000E+03 0.  0.
</event>
<event>
 5    0  0.5452999E-005  0.4045062E+03  0.7546771E-02  0.1042230E+00
         21   -1    0    0  502  501  0.00000000000E+00  0.00000000000E+00  0.10718966121E+03  0.10718966121E+03  0.00000000000E+00 0.  1.
         21   -1    0    0  501  502 -0.00000000000E+00 -0.00000000000E+00 -0.15265019905E+04  0.15265019905E+04  0.00000000000E+00 0.  1.
         25    1    1    2    0    0 -0.18487945315E+02  0.21554100553E+03 -0.67890735070E+03  0.72342236627E+03  0.12500000000E+03 0.  0.
         25    1    1    2    0    0  0.18929072159E+03 -0.29891215228E+02 -0.21388428871E+03  0.31320273145E+03  0.12500000000E+03 0.  0.
         25    1    1    2    0    0 -0.17080277628E+03 -0.18564979030E+03 -0.52652068987E+03  0.59706655398E+03  0.12500000000E+03 0.  0.
</event>
<event>
 5    0  0.5452999E-005  0.2123989E+03  0.7546771E-02  0.1139680E+00
         21   -1    0    0  502  501  0.00000000000E+00  0.00000000000E+00  0.36712495898E+03  0.36712495898E+03  0.00000000000E+00 0. -1.
         21   -1    0    0  501  502 -0.00000000000E+00 -0.00000000000E+00 -0.12288269588E+03  0.12288269588E+03  0.00000000000E+00 0. -1.
         25    1    1    2    0    0 -0.75543168838E+01 -0.53450092291E+02  0.14839237861E+03  0.20139334175E+03  0.12500000000E+03 0.  0.
         25    1    1    2    0    0  0.83322501074E+01  0.34746304026E+02  0.32615826953E-01  0.13000666560E+03  0.12500000000E+03 0.  0.
         25    1    1    2    0    0 -0.77793322360E+00  0.18703788264E+02  0.95817268667E+02  0.15860764752E+03  0.12500000000E+03 0.  0.
</event>
<event>
 5    0  0.5452999E-005  0.2760021E+03  0.7546771E-02  0.1097893E+00
         21   -1    0    0  502  501  0.00000000000E+00  0.00000000000E+00  0.41965425225E+03  0.41965425225E+03  0.00000000000E+00 0.  1.
         21   -1    0    0  501  502 -0.00000000000E+00 -0.00000000000E+00 -0.18152357626E+03  0.18152357626E+03  0.00000000000E+00 0.  1.
         25    1    1    2    0    0  0.58590432899E+02  0.47700335059E+02 -0.19191288407E+02  0.14731417563E+03  0.12500000000E+03 0.  0.
         25    1    1    2    0    0 -0.18375988653E+02  0.27641360486E+02  0.27258175773E+03  0.30170770030E+03  0.12500000000E+03 0.  0.
         25    1    1    2    0    0 -0.40214444246E+02 -0.75341695545E+02 -0.15259793333E+02  0.15215595258E+03  0.12500000000E+03 0.  0.
</event>
<event>
 5    0  0.5452999E-005  0.5119586E+03  0.7546771E-02  0.1010704E+00
         21   -1    0    0  502  501  0.00000000000E+00  0.00000000000E+00  0.47927121119E+03  0.47927121119E+03  0.00000000000E+00 0. -1.
         21   -1    0    0  501  502 -0.00000000000E+00 -0.00000000000E+00 -0.54687527946E+03  0.54687527946E+03  0.00000000000E+00 0. -1.
         25    1    1    2    0    0  0.92780652489E+02 -0.21567662194E+03  0.23596422660E+03  0.35556823672E+03  0.12500000000E+03 0.  0.
         25    1    1    2    0    0  0.13435015515E+03 -0.59955076653E+02 -0.13006674119E+02  0.19349095322E+03  0.12500000000E+03 0.  0.
         25    1    1    2    0    0 -0.22713080764E+03  0.27563169859E+03 -0.29056162075E+03  0.47708730071E+03  0.12500000000E+03 0.  0.
</event>
<event>
 5    0  0.5452999E-005  0.2959997E+03  0.7546771E-02  0.1087258E+00
         21   -1    0    0  502  501  0.00000000000E+00  0.00000000000E+00  0.27970350635E+03  0.27970350635E+03  0.00000000000E+00 0.  1.
         21   -1    0    0  501  502 -0.00000000000E+00 -0.00000000000E+00 -0.31324527075E+03  0.31324527075E+03  0.00000000000E+00 0.  1.
         25    1    1    2    0    0  0.84859741688E+02  0.19954622609E+03 -0.89852266775E+01  0.25045080636E+03  0.12500000000E+03 0.  0.
         25    1    1    2    0    0 -0.69352928480E+02 -0.64597959666E+02 -0.62277959415E+01  0.15699207153E+03  0.12500000000E+03 0.  0.
         25    1    1    2    0    0 -0.15506813207E+02 -0.13494826643E+03 -0.18328741776E+02  0.18550589921E+03  0.12500000000E+03 0.  0.
</event>
<event>
 5    0  0.5452999E-005  0.3204839E+03  0.7546771E-02  0.1075427E+00
         21   -1    0    0  502  501  0.00000000000E+00  0.00000000000E+00  0.81239735561E+02  0.81239735561E+02  0.00000000000E+00 0.  1.
         21   -1    0    0  501  502 -0.00000000000E+00 -0.00000000000E+00 -0.12642818575E+04  0.12642818575E+04  0.00000000000E+00 0.  1.
         25    1    1    2    0    0  0.55063995788E+02  0.50710670774E+02 -0.27441936450E+02  0.14826218546E+03  0.12500000000E+03 0.  0.
         25    1    1    2    0    0 -0.16157604071E+02 -0.36924498970E+02 -0.90217075914E+03  0.91168062689E+03  0.12500000000E+03 0.  0.
         25    1    1    2    0    0 -0.38906391717E+02 -0.13786171804E+02 -0.25342942631E+03  0.28557878067E+03  0.12500000000E+03 0.  0.
</event>
<event>
 5    0  0.5452999E-005  0.2574496E+03  0.7546771E-02  0.1108685E+00
         21   -1    0    0  502  501  0.00000000000E+00  0.00000000000E+00  0.10231284477E+04  0.10231284477E+04  0.00000000000E+00 0. -1.
         21   -1    0    0  501  502 -0.00000000000E+00 -0.00000000000E+00 -0.64781968103E+02  0.64781968103E+02  0.00000000000E+00 0. -1.
         25    1    1    2    0    0  0.10273457938E+03  0.14972792544E+02  0.48682357210E+03  0.51322584567E+03  0.12500000000E+03 0.  0.
         25    1    1    2    0    0  0.21154858565E+02  0.23163201375E+02  0.10470554584E+03  0.16604912908E+03  0.12500000000E+03 0.  0.
         25    1    1    2    0    0 -0.12388943794E+03 -0.38135993920E+02  0.36681736163E+03  0.40863544102E+03  0.12500000000E+03 0.  0.
</event>
<event>
 5    0  0.5452999E-005  0.3092693E+03  0.7546771E-02  0.1080697E+00
         21   -1    0    0  502  501  0.00000000000E+00  0.00000000000E+00  0.21782551186E+04  0.21782551186E+04  0.00000000000E+00 0.  1.
         21   -1    0    0  501  502 -0.00000000000E+00 -0.00000000000E+00 -0.43910137291E+02  0.43910137291E+02  0.00000000000E+00 0.  1.
         25    1    1    2    0    0 -0.10035927131E+03  0.11152023536E+03  0.11840964037E+04  0.12000908463E+04  0.12500000000E+03 0.  0.
         25    1    1    2    0    0  0.18480411434E+02  0.65789477150E+02  0.31119963568E+03  0.34225720469E+03  0.12500000000E+03 0.  0.
         25    1    1    2    0    0  0.81878859874E+02 -0.17730971251E+03  0.63904894196E+03  0.67981720489E+03  0.12500000000E+03 0.  0.
</event>
<event>
 5    0  0.5452999E-005  0.2474908E+03  0.7546771E-02  0.1114901E+00
         21   -1    0    0  502  501  0.00000000000E+00  0.00000000000E+00  0.24042894640E+03  0.24042894640E+03  0.00000000000E+00 0. -1.
         21   -1    0    0  501  502 -0.00000000000E+00 -0.00000000000E+00 -0.25476002604E+03  0.25476002604E+03  0.00000000000E+00 0. -1.
         25    1    1    2    0    0  0.53338002645E+02  0.77882923230E+02 -0.26424608352E+02  0.15885198199E+03  0.12500000000E+03 0.  0.
         25    1    1    2    0    0  0.61244120499E+02 -0.90462077604E+02  0.94932635471E+01  0.16628094248E+03  0.12500000000E+03 0.  0.
         25    1    1    2    0    0 -0.11458212314E+03  0.12579154374E+02  0.26002651574E+01  0.17005604796E+03  0.12500000000E+03 0.  0.
</event>
<event>
 5    0  0.5452999E-005  0.2621093E+03  0.7546771E-02  0.1105883E+00
         21   -1    0    0  502  501  0.00000000000E+00  0.00000000000E+00  0.33879626356E+03  0.33879626356E+03  0.00000000000E+00 0.  1.
         21   -1    0    0  501  502 -0.00000000000E+00 -0.00000000000E+00 -0.20278047114E+03  0.20278047114E+03  0.00000000000E+00 0.  1.
         25    1    1    2    0    0  0.10915354402E+03 -0.11585196284E+03  0.10334606456E+03  0.22724784383E+03  0.12500000000E+03 0.  0.
         25    1    1    2    0    0 -0.14065936997E+02  0.33987815070E+02 -0.14336162534E+02  0.13108603172E+03  0.12500000000E+03 0.  0.
         25    1    1    2    0    0 -0.95087607018E+02  0.81864147766E+02  0.47005890397E+02  0.18324285915E+03  0.12500000000E+03 0.  0.
</event>
<event>
 5    0  0.5452999E-005  0.3556943E+03  0.7546771E-02  0.1060302E+00
         21   -1    0    0  502  501  0.00000000000E+00  0.00000000000E+00  0.12055957148E+03  0.12055957148E+03  0.00000000000E+00 0. -1.
         21   -1    0    0  501  502 -0.00000000000E+00 -0.00000000000E+00 -0.10494269315E+04  0.10494269315E+04  0.00000000000E+00 0. -1.
         25    1    1    2    0    0  0.13408778153E+02  0.15782484944E+03 -0.11641751876E+03  0.23295174846E+03  0.12500000000E+03 0.  0.
         25    1    1    2    0    0  0.43374290756E+02 -0.17035982864E+03 -0.75919293007E+03  0.78924185481E+03  0.12500000000E+03 0.  0.
         25    1    1    2    0    0 -0.56783068909E+02  0.12534979200E+02 -0.53256911181E+02  0.14779289972E+03  0.12500000000E+03 0.  0.
</event>
<event>
 5    0  0.5452999E-005  0.2472739E+03  0.7546771E-02  0.1115040E+00
         21   -1    0    0  502  501  0.00000000000E+00  0.00000000000E+00  0.11864857882E+03  0.11864857882E+03  0.00000000000E+00 0. -1.
         21   -1    0    0  501  502 -0.00000000000E+00 -0.00000000000E+00 -0.51534016670E+03  0.51534016670E+03  0.00000000000E+00 0. -1.
         25    1    1    2    0    0 -0.12552205922E+03 -0.25791171944E+02 -0.24697800760E+03  0.30503132321E+03  0.12500000000E+03 0.  0.
         25    1    1    2    0    0  0.50257698193E+02 -0.18144719396E+02 -0.41758407099E+02  0.14221051871E+03  0.12500000000E+03 0.  0.
         25    1    1    2    0    0  0.75264361025E+02  0.43935891340E+02 -0.10795517317E+03  0.18674690360E+03  0.12500000000E+03 0.  0.
</event>
<event>
 5    0  0.5529755E-005  0.3148637E+03  0.7546771E-02  0.1078038E+00
         21   -1    0    0  502  501  0.00000000000E+00  0.00000000000E+00  0.63720427155E+03  0.63720427155E+03  0.00000000000E+00 0.  1.
         21   -1    0    0  501  502 -0.00000000000E+00 -0.00000000000E+00 -0.15558458797E+03  0.15558458797E+03  0.00000000000E+00 0.  1.
         25    1    1    2    0    0  0.14494358551E+03  0.10697132266E+03  0.18847957835E+03  0.28913847600E+03  0.12500000000E+03 0.  0.
         25    1    1    2    0    0 -0.17199418043E+02 -0.30125793838E+02 -0.23678014598E+02  0.13186747821E+03  0.12500000000E+03 0.  0.
         25    1    1    2    0    0 -0.12774416747E+03 -0.76845528824E+02  0.31681811984E+03  0.37178290531E+03  0.12500000000E+03 0.  0.
</event>
<event>
 5    0  0.5452999E-005  0.1954999E+03  0.7546771E-02  0.1153592E+00
         21   -1    0    0  502  501  0.00000000000E+00  0.00000000000E+00  0.53904187135E+02  0.53904187135E+02  0.00000000000E+00 0. -1.
         21   -1    0    0  501  502 -0.00000000000E+00 -0.00000000000E+00 -0.70904004843E+03  0.70904004843E+03  0.00000000000E+00 0. -1.
         25    1    1    2    0    0  0.48713509191E+01  0.18208874122E+01 -0.29125547761E+03  0.31698864164E+03  0.12500000000E+03 0.  0.
         25    1    1    2    0    0  0.23937165330E+02  0.12969020510E+02 -0.19816038153E+03  0.23586801433E+03  0.12500000000E+03 0.  0.
         25    1    1    2    0    0 -0.28808516249E+02 -0.14789907922E+02 -0.16572000216E+03  0.21008757959E+03  0.12500000000E+03 0.  0.
</event>
<event>
 5    0  0.6650598E-005  0.6971934E+03  0.7546771E-02  0.9722044E-01
         21   -1    0    0  502  501  0.00000000000E+00  0.00000000000E+00  0.63609176920E+03  0.63609176920E+03  0.00000000000E+00 0.  1.
         21   -1    0    0  501  502 -0.00000000000E+00 -0.00000000000E+00 -0.76416436646E+03  0.76416436646E+03  0.00000000000E+00 0.  1.
         25    1    1    2    0    0 -0.23120206066E+03 -0.11053813819E+02 -0.33176512131E+03  0.42340249807E+03  0.12500000000E+03 0.  0.
         25    1    1    2    0    0 -0.25055219482E+03  0.12032084972E+03  0.33273219049E+03  0.45120862114E+03  0.12500000000E+03 0.  0.
         25    1    1    2    0    0  0.48175425548E+03 -0.10926703590E+03 -0.12903966644E+03  0.52564501645E+03  0.12500000000E+03 0.  0.
</event>
<event>
 5    0  0.5452999E-005  0.2088023E+03  0.7546771E-02  0.1142518E+00
         21   -1    0    0  502  501  0.00000000000E+00  0.00000000000E+00  0.37099889646E+02  0.37099889646E+02  0.00000000000E+00 0.  1.
         21   -1    0    0  501  502 -0.00000000000E+00 -0.00000000000E+00 -0.11751619969E+04  0.11751619969E+04  0.00000000000E+00 0.  1.
         25    1    1    2    0    0 -0.25868365740E+02 -0.20733780725E+01 -0.20540381029E+03  0.24184539798E+03  0.12500000000E+03 0.  0.
         25    1    1    2    0    0  0.42012393370E+02 -0.16484588362E+02 -0.35969781361E+03  0.38346355754E+03  0.12500000000E+03 0.  0.
         25    1    1    2    0    0 -0.16144027630E+02  0.18557966435E+02 -0.57296048335E+03  0.58695293102E+03  0.12500000000E+03 0.  0.
</event>
<event>
 5    0  0.5452999E-005  0.3014224E+03  0.7546771E-02  0.1084532E+00
         21   -1    0    0  502  501  0.00000000000E+00  0.00000000000E+00  0.26881167560E+03  0.26881167560E+03  0.00000000000E+00 0. -1.
         21   -1    0    0  501  502 -0.00000000000E+00 -0.00000000000E+00 -0.33798928433E+03  0.33798928433E+03  0.00000000000E+00 0. -1.
         25    1    1    2    0    0  0.57696444388E+02 -0.84215946742E+01  0.30263124909E+02  0.14121140068E+03  0.12500000000E+03 0.  0.
         25    1    1    2    0    0  0.66415153747E+02 -0.13191672105E+03  0.44187511051E+02  0.19847047658E+03  0.12500000000E+03 0.  0.
         25    1    1    2    0    0 -0.12411159814E+03  0.14033831572E+03 -0.14362824469E+03  0.26711908267E+03  0.12500000000E+03 0.  0.
</event>
<event>
 5    0  0.5452999E-005  0.2333355E+03  0.7546771E-02  0.1124314E+00
         21   -1    0    0  502  501  0.00000000000E+00  0.00000000000E+00  0.74994911079E+02  0.74994911079E+02  0.00000000000E+00 0. -1.
         21   -1    0    0  501  502 -0.00000000000E+00 -0.00000000000E+00 -0.72598841857E+03  0.72598841857E+03  0.00000000000E+00 0. -1.
         25    1    1    2    0    0  0.92838110692E+02 -0.61911343868E+02 -0.28362741042E+03  0.32942592072E+03  0.12500000000E+03 0.  0.
         25    1    1    2    0    0 -0.22791862027E+01  0.16733315154E+02 -0.10643375776E+03  0.16504042934E+03  0.12500000000E+03 0.  0.
         25    1    1    2    0    0 -0.90558924490E+02  0.45178028714E+02 -0.26093233931E+03  0.30651697960E+03  0.12500000000E+03 0.  0.
</event>
<event>
 5    0  0.5452999E-005  0.3834229E+03  0.7546771E-02  0.1049676E+00
         21   -1    0    0  502  501  0.00000000000E+00  0.00000000000E+00  0.71291272927E+03  0.71291272927E+03  0.00000000000E+00 0. -1.
         21   -1    0    0  501  502 -0.00000000000E+00 -0.00000000000E+00 -0.20621473170E+03  0.20621473170E+03  0.00000000000E+00 0. -1.
         25    1    1    2    0    0 -0.23321426035E+03 -0.68110485571E+01  0.39241998436E+03  0.47334313742E+03  0.12500000000E+03 0.  0.
         25    1    1    2    0    0 -0.36687273865E+02 -0.20351937164E+02  0.26693950224E+02  0.13452778296E+03  0.12500000000E+03 0.  0.
         25    1    1    2    0    0  0.26990153422E+03  0.27162985721E+02  0.87584062988E+02  0.31125654058E+03  0.12500000000E+03 0.  0.
</event>
<event>
 5    0  0.5452999E-005  0.5093130E+03  0.7546771E-02  0.1011376E+00
         21   -1    0    0  502  501  0.00000000000E+00  0.00000000000E+00  0.15122995503E+04  0.15122995503E+04  0.00000000000E+00 0. -1.
         21   -1    0    0  501  502 -0.00000000000E+00 -0.00000000000E+00 -0.17152668266E+03  0.17152668266E+03  0.00000000000E+00 0. -1.
         25    1    1    2    0    0 -0.37145401909E+03 -0.60497452260E+02  0.47294092262E+03  0.61720024814E+03  0.12500000000E+03 0.  0.
         25    1    1    2    0    0  0.10070069576E+03  0.80277063910E+02  0.36422722693E+02  0.18313015002E+03  0.12500000000E+03 0.  0.
         25    1    1    2    0    0  0.27075332332E+03 -0.19779611650E+02  0.83140922236E+03  0.88349583482E+03  0.12500000000E+03 0.  0.
</event>
<event>
 5    0  0.5452999E-005  0.3892910E+03  0.7546771E-02  0.1047552E+00
         21   -1    0    0  502  501  0.00000000000E+00  0.00000000000E+00  0.26530763823E+03  0.26530763823E+03  0.00000000000E+00 0.  1.
         21   -1    0    0  501  502 -0.00000000000E+00 -0.00000000000E+00 -0.57121428356E+03  0.57121428356E+03  0.00000000000E+00 0.  1.
         25    1    1    2    0    0 -0.12072131094E+03  0.11350866681E+03 -0.25383666371E+03  0.32789617900E+03  0.12500000000E+03 0.  0.
         25    1    1    2    0    0  0.16883321519E+03  0.42817178642E+02 -0.16799644265E+03  0.27237064835E+03  0.12500000000E+03 0.  0.
         25    1    1    2    0    0 -0.48111904249E+02 -0.15632584546E+03  0.11592646102E+03  0.23625509445E+03  0.12500000000E+03 0.  0.
</event>
<event>
 5    0  0.5452999E-005  0.2098563E+03  0.7546771E-02  0.1141680E+00
         21   -1    0    0  502  501  0.00000000000E+00  0.00000000000E+00  0.22954405258E+03  0.22954405258E+03  0.00000000000E+00 0. -1.
         21   -1    0    0  501  502 -0.00000000000E+00 -0.00000000000E+00 -0.19185711422E+03  0.19185711422E+03  0.00000000000E+00 0. -1.
         25    1    1    2    0    0 -0.43946279592E-01 -0.13620751651E+02  0.22164562217E+01  0.12575945088E+03  0.12500000000E+03 0.  0.
         25    1    1    2    0    0  0.67179358359E+02  0.43235109435E+02  0.12323299124E+02  0.14885968084E+03  0.12500000000E+03 0.  0.
         25    1    1    2    0    0 -0.67135412079E+02 -0.29614357783E+02  0.23147183013E+02  0.14678203508E+03  0.12500000000E+03 0.  0.
</event>
<event>
 5    0  0.5452999E-005  0.3539054E+03  0.7546771E-02  0.1061023E+00
         21   -1    0    0  502  501  0.00000000000E+00  0.00000000000E+00  0.61867368342E+03  0.61867368342E+03  0.00000000000E+00 0.  1.
         21   -1    0    0  501  502 -0.00000000000E+00 -0.00000000000E+00 -0.20244761673E+03  0.20244761673E+03  0.00000000000E+00 0.  1.
         25    1    1    2    0    0  0.14170267362E+03  0.23701766201E+03  0.15239380131E+03  0.33927259025E+03  0.12500000000E+03 0.  0.
         25    1    1    2    0    0 -0.20401192428E+02 -0.35081019931E+02  0.12420673318E+03  0.18082919891E+03  0.12500000000E+03 0.  0.
         25    1    1    2    0    0 -0.12130148119E+03 -0.20193664208E+03  0.13962553221E+03  0.30101951099E+03  0.12500000000E+03 0.  0.
</event>
<event>
 5    0  0.5452999E-005  0.2841335E+03  0.7546771E-02  0.1093452E+00
         21   -1    0    0  502  501  0.00000000000E+00  0.00000000000E+00  0.73338996252E+03  0.73338996252E+03  0.00000000000E+00 0. -1.
         21   -1    0    0  501  502 -0.00000000000E+00 -0.00000000000E+00 -0.11008037982E+03  0.11008037982E+03  0.00000000000E+00 0. -1.
         25    1    1    2    0    0 -0.98986949937E+02  0.44529193262E+02  0.73373087208E+02  0.18107974828E+03  0.12500000000E+03 0.  0.
         25    1    1    2    0    0  0.30956238658E+02 -0.28322189684E+02  0.47841494628E+02  0.14026490562E+03  0.12500000000E+03 0.  0.
         25    1    1    2    0    0  0.68030711279E+02 -0.16207003578E+02  0.50209500086E+03  0.52212568844E+03  0.12500000000E+03 0.  0.
</event>
<event>
 5    0  0.5452999E-005  0.3415057E+03  0.7546771E-02  0.1066156E+00
         21   -1    0    0  502  501  0.00000000000E+00  0.00000000000E+00  0.41571291880E+03  0.41571291880E+03  0.00000000000E+00 0.  1.
         21   -1    0    0  501  502 -0.00000000000E+00 -0.00000000000E+00 -0.28054486447E+03  0.28054486447E+03  0.00000000000E+00 0.  1.
         25    1    1    2    0    0 -0.19284776184E+03 -0.10506456070E+03  0.40479879279E+02  0.25591491123E+03  0.12500000000E+03 0.  0.
         25    1    1    2    0    0  0.29346923415E+02 -0.73719168719E+02  0.77671238682E+02  0.16719323871E+03  0.12500000000E+03 0.  0.
         25    1    1    2    0    0  0.16350083843E+03  0.17878372941E+03  0.17016936373E+02  0.27314963334E+03  0.12500000000E+03 0.  0.
</event>
<event>
 5    0  0.5452999E-005  0.2375230E+03  0.7546771E-02  0.1121454E+00
         21   -1    0    0  502  501  0.00000000000E+00  0.00000000000E+00  0.11452153219E+03  0.11452153219E+03  0.00000000000E+00 0.  1.
         21   -1    0    0  501  502 -0.00000000000E+00 -0.00000000000E+00 -0.49263389544E+03  0.49263389544E+03  0.00000000000E+00 0.  1.
         25    1    1    2    0    0  0.39192979563E+02 -0.55339438907E+02 -0.11646778533E+03  0.18381590836E+03  0.12500000000E+03 0.  0.
         25    1    1    2    0    0  0.62086265583E+02  0.63022428241E+02 -0.58126556270E+02  0.16379935097E+03  0.12500000000E+03 0.  0.
         25    1    1    2    0    0 -0.10127924515E+03 -0.76829893341E+01 -0.20351802166E+03  0.25954016830E+03  0.12500000000E+03 0.  0.
</event>
<event>
 5    0  0.5452999E-005  0.3139718E+03  0.7546771E-02  0.1078458E+00
         21   -1    0    0  502  501  0.00000000000E+00  0.00000000000E+00  0.17953843657E+04  0.17953843657E+04  0.00000000000E+00 0.  1.
         21   -1    0    0  501  502 -0.00000000000E+00 -0.00000000000E+00 -0.54906510676E+02  0.54906510676E+02  0.00000000000E+00 0.  1.
         25    1    1    2    0    0  0.50041675872E+02 -0.56582849646E+02  0.34077462855E+03  0.37075347020E+03  0.12500000000E+03 0.  0.
         25    1    1    2    0    0 -0.77132144150E+02  0.16830315836E+03  0.11845887226E+04  0.12054670309E+04  0.12500000000E+03 0.  0.
         25    1    1    2    0    0  0.27090468278E+02 -0.11172030872E+03  0.21511450386E+03  0.27407037531E+03  0.12500000000E+03 0.  0.
</event>
<event>
 5    0  0.5452999E-005  0.3610493E+03  0.7546771E-02  0.1058169E+00
         21   -1    0    0  502  501  0.00000000000E+00  0.00000000000E+00  0.10084755266E+04  0.10084755266E+04  0.00000000000E+00 0. -1.
         21   -1    0    0  501  502 -0.00000000000E+00 -0.00000000000E+00 -0.12926105961E+03  0.12926105961E+03  0.00000000000E+00 0. -1.
         25    1    1    2    0    0  0.72312356150E+01 -0.88384353168E+02 -0.28682732790E+02  0.15592236470E+03  0.12500000000E+03 0.  0.
         25    1    1    2    0    0 -0.11332967257E+03  0.11939618926E+03  0.51738293421E+03  0.55714375641E+03  0.12500000000E+03 0.  0.
         25    1    1    2    0    0  0.10609843696E+03 -0.31011836094E+02  0.39051426553E+03  0.42467046504E+03  0.12500000000E+03 0.  0.
</event>
<event>
 5    0  0.5452999E-005  0.4952577E+03  0.7546771E-02  0.1015024E+00
         21   -1    0    0  502  501  0.00000000000E+00  0.00000000000E+00  0.47756591537E+03  0.47756591537E+03  0.00000000000E+00 0. -1.
         21   -1    0    0  501  502 -0.00000000000E+00 -0.00000000000E+00 -0.51360479339E+03  0.51360479339E+03  0.00000000000E+00 0. -1.
         25    1    1    2    0    0 -0.80106675622E+02  0.12503281890E+02  0.70738607406E+02  0.16493138608E+03  0.12500000000E+03 0.  0.
         25    1    1    2    0    0  0.27897159486E+03  0.20052236431E+03  0.17198732240E+03  0.40402847473E+03  0.12500000000E+03 0.  0.
         25    1    1    2    0    0 -0.19886491924E+03 -0.21302564620E+03 -0.27876480782E+03  0.42221084795E+03  0.12500000000E+03 0.  0.
</event>
<event>
 5    0  0.6398118E-005  0.2855492E+03  0.7546771E-02  0.1092696E+00
         21   -1    0    0  502  501  0.00000000000E+00  0.00000000000E+00  0.67370270320E+03  0.67370270320E+03  0.00000000000E+00 0. -1.
         21   -1    0    0  501  502 -0.00000000000E+00 -0.00000000000E+00 -0.12103013374E+03  0.12103013374E+03  0.00000000000E+00 0. -1.
         25    1    1    2    0    0  0.94938732542E+02 -0.39796371769E+02  0.35889439677E+03  0.39373506597E+03  0.12500000000E+03 0.  0.
         25    1    1    2    0    0 -0.16195583943E+02  0.77629355092E+02  0.19945936865E+03  0.24839012350E+03  0.12500000000E+03 0.  0.
         25    1    1    2    0    0 -0.78743148598E+02 -0.37832983323E+02 -0.56811959515E+01  0.15260764747E+03  0.12500000000E+03 0.  0.
</event>
<event>
 5    0  0.5452999E-005  0.2672972E+03  0.7546771E-02  0.1102837E+00
         21   -1    0    0  502  501  0.00000000000E+00  0.00000000000E+00  0.52320065262E+02  0.52320065262E+02  0.00000000000E+00 0.  1.
         21   -1    0    0  501  502 -0.00000000000E+00 -0.00000000000E+00 -0.13655908336E+04  0.13655908336E+04  0.00000000000E+00 0.  1.
         25    1    1    2    0    0  0.25976299658E+02 -0.83267075726E+02 -0.14938519970E+03  0.21342237917E+03  0.12500000000E+03 0.  0.
         25    1    1    2    0    0  0.50546729814E+02 -0.11880449426E+02 -0.50410001887E+03  0.52195588511E+03  0.12500000000E+03 0.  0.
         25    1    1    2    0    0 -0.76523029472E+02  0.95147525152E+02 -0.65978554982E+03  0.68253263463E+03  0.12500000000E+03 0.  0.
</event>
<event>
 5    0  0.5452999E-005  0.3000932E+03  0.7546771E-02  0.1085194E+00
         21   -1    0    0  502  501  0.00000000000E+00  0.00000000000E+00  0.83562595143E+03  0.83562595143E+03  0.00000000000E+00 0.  1.
         21   -1    0    0  501  502 -0.00000000000E+00 -0.00000000000E+00 -0.10777060656E+03  0.10777060656E+03  0.00000000000E+00 0.  1.
         25    1    1    2    0    0 -0.84157580959E+02 -0.59886576921E+02  0.90609271590E+02  0.18575236372E+03  0.12500000000E+03 0.  0.
         25    1    1    2    0    0  0.67328231749E+02  0.17393934241E+03  0.46081763726E+03  0.51260694537E+03  0.12500000000E+03 0.  0.
         25    1    1    2    0    0  0.16829349209E+02 -0.11405276549E+03  0.17642843603E+03  0.24503724890E+03  0.12500000000E+03 0.  0.
</event>
<event>
 5    0  0.5452999E-005  0.3370377E+03  0.7546771E-02  0.1068065E+00
         21   -1    0    0  502  501  0.00000000000E+00  0.00000000000E+00  0.10631735411E+03  0.10631735411E+03  0.00000000000E+00 0. -1.
         21   -1    0    0  501  502 -0.00000000000E+00 -0.00000000000E+00 -0.10684465517E+04  0.10684465517E+04  0.00000000000E+00 0. -1.
         25    1    1    2    0    0 -0.43451104144E+02  0.12656702293E+03 -0.21785579637E+03  0.28459331994E+03  0.12500000000E+03 0.  0.
         25    1    1    2    0    0 -0.17341564458E+03 -0.97555152879E+02 -0.39235976570E+03  0.45734142539E+03  0.12500000000E+03 0.  0.
         25    1    1    2    0    0  0.21686674873E+03 -0.29011870047E+02 -0.35191363555E+03  0.43282916051E+03  0.12500000000E+03 0.  0.
</event>
<event>
 5    0  0.5452999E-005  0.2705759E+03  0.7546771E-02  0.1100950E+00
         21   -1    0    0  502  501  0.00000000000E+00  0.00000000000E+00  0.82175996226E+02  0.82175996226E+02  0.00000000000E+00 0. -1.
         21   -1    0    0  501  502 -0.00000000000E+00 -0.00000000000E+00 -0.89090881332E+03  0.89090881332E+03  0.00000000000E+00 0. -1.
         25    1    1    2    0    0  0.80384750462E+02  0.76854114969E+02 -0.34691502058E+03  0.38515359871E+03  0.12500000000E+03 0.  0.
         25    1    1    2    0    0  0.34332000456E+01  0.38636480068E+02 -0.60815337250E+02  0.14431933238E+03  0.12500000000E+03 0.  0.
         25    1    1    2    0    0 -0.83817950507E+02 -0.11549059504E+03 -0.40100245926E+03  0.44361187845E+03  0.12500000000E+03 0.  0.
</event>
<event>
 5    0  0.6067977E-005  0.3517009E+03  0.7546771E-02  0.1061919E+00
         21   -1    0    0  502  501  0.00000000000E+00  0.00000000000E+00  0.88486772400E+03  0.88486772400E+03  0.00000000000E+00 0. -1.
         21   -1    0    0  501  502 -0.00000000000E+00 -0.00000000000E+00 -0.13978755991E+03  0.13978755991E+03  0.00000000000E+00 0. -1.
         25    1    1    2    0    0 -0.18622752597E+03  0.88423217970E+02  0.15826083236E+03  0.28839356436E+03  0.12500000000E+03 0.  0.
         25    1    1    2    0    0  0.75906532405E+01 -0.14969518664E+03  0.39044142685E+03  0.43650403746E+03  0.12500000000E+03 0.  0.
         25    1    1    2    0    0  0.17863687273E+03  0.61271968673E+02  0.19637790488E+03  0.29975768208E+03  0.12500000000E+03 0.  0.
</event>
<event>
 5    0  0.5452999E-005  0.2192337E+03  0.7546771E-02  0.1134456E+00
         21   -1    0    0  502  501  0.00000000000E+00  0.00000000000E+00  0.41454898579E+03  0.41454898579E+03  0.00000000000E+00 0. -1.
         21   -1    0    0  501  502 -0.00000000000E+00 -0.00000000000E+00 -0.11594149615E+03  0.11594149615E+03  0.00000000000E+00 0. -1.
         25    1    1    2    0    0 -0.83525695175E+02  0.37149162938E+02  0.95940213288E+02  0.18217059748E+03  0.12500000000E+03 0.  0.
         25    1    1    2    0    0  0.70474399482E+02  0.16410415704E+02  0.12595654099E+03  0.19164026963E+03  0.12500000000E+03 0.  0.
         25    1    1    2    0    0  0.13051295692E+02 -0.53559578641E+02  0.76710735353E+02  0.15667961483E+03  0.12500000000E+03 0.  0.
</event>
<event>
 5    0  0.5452999E-005  0.2854164E+03  0.7546771E-02  0.1092767E+00
         21   -1    0    0  502  501  0.00000000000E+00  0.00000000000E+00  0.41232928892E+03  0.41232928892E+03  0.00000000000E+00 0. -1.
         21   -1    0    0  501  502 -0.00000000000E+00 -0.00000000000E+00 -0.19756660057E+03  0.19756660057E+03  0.00000000000E+00 0. -1.
         25    1    1    2    0    0 -0.45968419635E+02 -0.68968268101E+02  0.28381136542E+03  0.32100406345E+03  0.12500000000E+03 0.  0.
         25    1    1    2    0    0  0.33300531667E+02  0.36803819379E+02 -0.83643044808E+02  0.15838120304E+03  0.12500000000E+03 0.  0.
         25    1    1    2    0    0  0.12667887968E+02  0.32164448722E+02  0.14594367741E+02  0.13051062300E+03  0.12500000000E+03 0.  0.
</event>
<event>
 5    0  0.5452999E-005  0.3796781E+03  0.7546771E-02  0.1051053E+00
         21   -1    0    0  502  501  0.00000000000E+00  0.00000000000E+00  0.33367474875E+03  0.33367474875E+03  0.00000000000E+00 0.  1.
         21   -1    0    0  501  502 -0.00000000000E+00 -0.00000000000E+00 -0.43202398713E+03  0.43202398713E+03  0.00000000000E+00 0.  1.
         25    1    1    2    0    0 -0.22662414169E+03  0.77316032665E+02 -0.82312333153E+02  0.28237668228E+03  0.12500000000E+03 0.  0.
         25    1    1    2    0    0 -0.26552948601E+02  0.36814755574E+02 -0.10117434018E+03  0.16709767329E+03  0.12500000000E+03 0.  0.
         25    1    1    2    0    0  0.25317709030E+03 -0.11413078824E+03  0.85137434953E+02  0.31622438031E+03  0.12500000000E+03 0.  0.
</event>
<event>
 5    0  0.5452999E-005  0.3421856E+03  0.7546771E-02  0.1065869E+00
         21   -1    0    0  502  501  0.00000000000E+00  0.00000000000E+00  0.67604266157E+03  0.67604266157E+03  0.00000000000E+00 0. -1.
         21   -1    0    0  501  502 -0.00000000000E+00 -0.00000000000E+00 -0.17320054453E+03  0.17320054453E+03  0.00000000000E+00 0. -1.
         25    1    1    2    0    0 -0.53449494685E+02  0.24451773860E+02  0.16020535967E+03  0.21153130972E+03  0.12500000000E+03 0.  0.
         25    1    1    2    0    0  0.24322438505E+03 -0.10807728196E+03  0.21267926296E+03  0.36289980608E+03  0.12500000000E+03 0.  0.
         25    1    1    2    0    0 -0.18977489037E+03  0.83625508104E+02  0.12995749441E+03  0.27481209030E+03  0.12500000000E+03 0.  0.
</event>
<event>
 5    0  0.5452999E-005  0.2686834E+03  0.7546771E-02  0.1102036E+00
         21   -1    0    0  502  501  0.00000000000E+00  0.00000000000E+00  0.62393779766E+02  0.62393779766E+02  0.00000000000E+00 0. -1.
         21   -1    0    0  501  502 -0.00000000000E+00 -0.00000000000E+00 -0.11570185501E+04  0.11570185501E+04  0.00000000000E+00 0. -1.
         25    1    1    2    0    0  0.49495739242E+01 -0.22473590171E+01 -0.43608999501E+03  0.45368384659E+03  0.12500000000E+03 0.  0.
         25    1    1    2    0    0 -0.15070057740E+03  0.18824094233E+02 -0.36391965748E+03  0.41367563096E+03  0.12500000000E+03 0.  0.
         25    1    1    2    0    0  0.14575100347E+03 -0.16576735216E+02 -0.29461511784E+03  0.35205285232E+03  0.12500000000E+03 0.  0.
</event>
<event>
 5    0  0.5452999E-005  0.3991094E+03  0.7546771E-02  0.1044088E+00
         21   -1    0    0  502  501  0.00000000000E+00  0.00000000000E+00  0.14215208840E+03  0.14215208840E+03  0.00000000000E+00 0.  1.
         21   -1    0    0  501  502 -0.00000000000E+00 -0.00000000000E+00 -0.11205486476E+04  0.11205486476E+04  0.00000000000E+00 0.  1.
         25    1    1    2    0    0 -0.79973465596E+02  0.15961804692E+03 -0.15789353545E+03  0.26912644730E+03  0.12500000000E+03 0.  0.
         25    1    1    2    0    0  0.90128813062E+01  0.16067198619E+03 -0.37041098336E+03  0.42275999784E+03  0.12500000000E+03 0.  0.
         25    1    1    2    0    0  0.70960584290E+02 -0.32029003311E+03 -0.45009204042E+03  0.57081429089E+03  0.12500000000E+03 0.  0.
</event>
<event>
 5    0  0.5452999E-005  0.4822050E+03  0.7546771E-02  0.1018531E+00
         21   -1    0    0  502  501  0.00000000000E+00  0.00000000000E+00  0.27202399998E+03  0.27202399998E+03  0.00000000000E+00 0.  1.
         21   -1    0    0  501  502 -0.00000000000E+00 -0.00000000000E+00 -0.85478361907E+03  0.85478361907E+03  0.00000000000E+00 0.  1.
         25    1    1    2    0    0  0.23161252069E+03 -0.16794637085E+03 -0.41550256843E+03  0.51972851336E+03  0.12500000000E+03 0.  0.
         25    1    1    2    0    0 -0.24035425383E+03  0.43787899825E+02 -0.28448649313E+03  0.39527852494E+03  0.12500000000E+03 0.  0.
         25    1    1    2    0    0  0.87417331345E+01  0.12415847103E+03  0.11722944247E+03  0.21180058075E+03  0.12500000000E+03 0.  0.
</event>
<event>
 5    0  0.5452999E-005  0.2635358E+03  0.7546771E-02  0.1105037E+00
         21   -1    0    0  502  501  0.00000000000E+00  0.00000000000E+00  0.10967721902E+03  0.10967721902E+03  0.00000000000E+00 0.  1.
         21   -1    0    0  501  502 -0.00000000000E+00 -0.00000000000E+00 -0.63323199282E+03  0.63323199282E+03  0.00000000000E+00 0.  1.
         25    1    1    2    0    0  0.12349022383E+02  0.83899288733E+02 -0.19925252084E+03  0.25003630949E+03  0.12500000000E+03 0.  0.
         25    1    1    2    0    0 -0.44113242406E+02  0.73471387819E+01 -0.69629868326E+00  0.13276085054E+03  0.12500000000E+03 0.  0.
         25    1    1    2    0    0  0.31764220023E+02 -0.91246427515E+02 -0.32360595428E+03  0.36011205181E+03  0.12500000000E+03 0.  0.
</event>
<event>
 5    0  0.5452999E-005  0.2752861E+03  0.7546771E-02  0.1098292E+00
         21   -1    0    0  502  501  0.00000000000E+00  0.00000000000E+00  0.26499643908E+02  0.26499643908E+02  0.00000000000E+00 0.  1.
         21   -1    0    0  501  502 -0.00000000000E+00 -0.00000000000E+00 -0.28597538942E+04  0.28597538942E+04  0.00000000000E+00 0.  1.
         25    1    1    2    0    0 -0.97737353420E+01 -0.42892942647E+01 -0.63231942400E+03  0.64464469122E+03  0.12500000000E+03 0.  0.
         25    1    1    2    0    0 -0.13288709488E+03 -0.96332818472E+02 -0.92442122619E+03  0.94716344700E+03  0.12500000000E+03 0.  0.
         25    1    1    2    0    0  0.14266083022E+03  0.10062211274E+03 -0.12765136001E+04  0.12944453999E+04  0.12500000000E+03 0.  0.
</event>
<event>
 5    0  0.5452999E-005  0.5025768E+03  0.7546771E-02  0.1013109E+00
         21   -1    0    0  502  501  0.00000000000E+00  0.00000000000E+00  0.35696775505E+04  0.35696775505E+04  0.00000000000E+00 0. -1.
         21   -1    0    0  501  502 -0.00000000000E+00 -0.00000000000E+00 -0.70758056558E+02  0.70758056558E+02  0.00000000000E+00 0. -1.
         25    1    1    2    0    0  0.10132982804E+03  0.38529761753E+02  0.76453649970E+03  0.78223611267E+03  0.12500000000E+03 0.  0.
         25    1    1    2    0    0 -0.38840640571E+03  0.14678905525E+03  0.10702944572E+04  0.11547994579E+04  0.12500000000E+03 0.  0.
         25    1    1    2    0    0  0.28707657767E+03 -0.18531881700E+03  0.16640885370E+04  0.17034000365E+04  0.12500000000E+03 0.  0.
</event>
<event>
 5    0  0.5452999E-005  0.2775715E+03  0.7546771E-02  0.1097023E+00
         21   -1    0    0  502  501  0.00000000000E+00  0.00000000000E+00  0.15752113299E+03  0.15752113299E+03  0.00000000000E+00 0.  1.
         21   -1    0    0  501  502 -0.00000000000E+00 -0.00000000000E+00 -0.48911485864E+03  0.48911485864E+03  0.00000000000E+00 0.  1.
         25    1    1    2    0    0  0.69168840379E+02 -0.28710223979E+02 -0.10626952186E+03  0.18035192462E+03  0.12500000000E+03 0.  0.
         25    1    1    2    0    0 -0.12767199724E+02  0.64545840020E+01  0.67059636499E+02  0.14257158865E+03  0.12500000000E+03 0.  0.
         25    1    1    2    0    0 -0.56401640655E+02  0.22255639977E+02 -0.29238384029E+03  0.32371247835E+03  0.12500000000E+03 0.  0.
</event>
<event>
 5    0  0.5452999E-005  0.3567635E+03  0.7546771E-02  0.1059873E+00
         21   -1    0    0  502  501  0.00000000000E+00  0.00000000000E+00  0.12599265987E+04  0.12599265987E+04  0.00000000000E+00 0. -1.
         21   -1    0    0  501  502 -0.00000000000E+00 -0.00000000000E+00 -0.10102192325E+03  0.10102192325E+03  0.00000000000E+00 0. -1.
         25    1    1    2    0    0  0.11851172619E+03 -0.14917495241E+03  0.19830435983E+03  0.30207253235E+03  0.12500000000E+03 0.  0.
         25    1    1    2    0    0  0.83336470508E+02  0.36540051184E+02  0.55055358398E+03  0.57185172160E+03  0.12500000000E+03 0.  0.
         25    1    1    2    0    0 -0.20184819670E+03  0.11263490123E+03  0.41004673160E+03  0.48702426796E+03  0.12500000000E+03 0.  0.
</event>
<event>
 5    0  0.5452999E-005  0.3363867E+03  0.7546771E-02  0.1068345E+00
         21   -1    0    0  502  501  0.00000000000E+00  0.00000000000E+00  0.36854975836E+03  0.36854975836E+03  0.00000000000E+00 0.  1.
         21   -1    0    0  501  502 -0.00000000000E+00 -0.00000000000E+00 -0.30703041064E+03  0.30703041064E+03  0.00000000000E+00 0.  1.
         25    1    1    2    0    0 -0.15940542999E+03 -0.42413452516E+02  0.16305661055E+02  0.20760507375E+03  0.12500000000E+03 0.  0.
         25    1    1    2    0    0  0.25064228708E+03  0.96202655093E+02  0.64257042065E+02  0.30303543419E+03  0.12500000000E+03 0.  0.
         25    1    1    2    0    0 -0.91236857086E+02 -0.53789202577E+02 -0.19043355406E+02  0.16493966106E+03  0.12500000000E+03 0.  0.
</event>
<event>
 5    0  0.5452999E-005  0.2542885E+03  0.7546771E-02  0.1110624E+00
         21   -1    0    0  502  501  0.00000000000E+00  0.00000000000E+00  0.84015569972E+03  0.84015569972E+03  0.00000000000E+00 0.  1.
         21   -1    0    0  501  502 -0.00000000000E+00 -0.00000000000E+00 -0.76965098234E+02  0.76965098234E+02  0.00000000000E+00 0.  1.
         25    1    1    2    0    0  0.11688595547E+03  0.73614338044E+02  0.15623776710E+03  0.24313913140E+03  0.12500000000E+03 0.  0.
         25    1    1    2    0    0 -0.38563039774E+02 -0.42605401184E+02  0.22997200102E+03  0.26798218131E+03  0.12500000000E+03 0.  0.
         25    1    1    2    0    0 -0.78322915697E+02 -0.31008936860E+02  0.37698083337E+03  0.40599948524E+03  0.12500000000E+03 0.  0.
</event>
<event>
 5    0  0.5452999E-005  0.7726083E+03  0.7546771E-02  0.9600534E-01
         21   -1    0    0  502  501  0.00000000000E+00  0.00000000000E+00  0.11255469205E+04  0.11255469205E+04  0.00000000000E+00 0.  1.
         21   -1    0    0  501  502 -0.00000000000E+00 -0.00000000000E+00 -0.53034089880E+03  0.53034089880E+03  0.00000000000E+00 0.  1.
         25    1    1    2    0    0  0.48985638252E+03 -0.34104796666E+03  0.38040866863E+02  0.61101972031E+03  0.12500000000E+03 0.  0.
         25    1    1    2    0    0 -0.11556340646E+03 -0.32960100920E+02 -0.93459626060E+02  0.19697962044E+03  0.12500000000E+03 0.  0.
         25    1    1    2    0    0 -0.37429297606E+03  0.37400806758E+03  0.65062478086E+03  0.84788847852E+03  0.12500000000E+03 0.  0.
</event>
<event>
 5    0  0.5452999E-005  0.2427961E+03  0.7546771E-02  0.1117944E+00
         21   -1    0    0  502  501  0.00000000000E+00  0.00000000000E+00  0.22273378587E+04  0.22273378587E+04  0.00000000000E+00 0. -1.
         21   -1    0    0  501  502 -0.00000000000E+00 -0.00000000000E+00 -0.26466552297E+02  0.26466552297E+02  0.00000000000E+00 0. -1.
         25    1    1    2    0    0 -0.33759433803E+02 -0.73251957711E+02  0.36004707554E+03  0.38956956411E+03  0.12500000000E+03 0.  0.
         25    1    1    2    0    0 -0.29567799150E+01  0.39848045014E+02  0.50930573293E+03  0.52594100319E+03  0.12500000000E+03 0.  0.
         25    1    1    2    0    0  0.36716213718E+02  0.33403912697E+02  0.13315184979E+04  0.13382938437E+04  0.12500000000E+03 0.  0.
</event>
<event>
 5    0  0.5452999E-005  0.2198158E+03  0.7546771E-02  0.1134020E+00
         21   -1    0    0  502  501  0.00000000000E+00  0.00000000000E+00  0.88978614642E+02  0.88978614642E+02  0.00000000000E+00 0.  1.
         21   -1    0    0  501  502 -0.00000000000E+00 -0.00000000000E+00 -0.54304059007E+03  0.54304059007E+03  0.00000000000E+00 0.  1.
         25    1    1    2    0    0 -0.55428440691E+02 -0.34028527517E+02 -0.24836211222E+03  0.28555033096E+03  0.12500000000E+03 0.  0.
         25    1    1    2    0    0  0.41647186585E+01  0.49410265670E+02 -0.14438144088E+03  0.19730615729E+03  0.12500000000E+03 0.  0.
         25    1    1    2    0    0  0.51263722033E+02 -0.15381738153E+02 -0.61318422323E+02  0.14916271646E+03  0.12500000000E+03 0.  0.
</event>
<event>
 5    0  0.5452999E-005  0.3268931E+03  0.7546771E-02  0.1072520E+00
         21   -1    0    0  502  501  0.00000000000E+00  0.00000000000E+00  0.11414582688E+04  0.11414582688E+04  0.00000000000E+00 0.  1.
         21   -1    0    0  501  502 -0.00000000000E+00 -0.00000000000E+00 -0.93616270739E+02  0.93616270739E+02  0.00000000000E+00 0.  1.
         25    1    1    2    0    0  0.10927251446E+03 -0.22156829323E+03  0.29817223674E+03  0.40689639190E+03  0.12500000000E+03 0.  0.
         25    1    1    2    0    0 -0.46450303964E+02  0.10216600984E+03  0.35141503474E+03  0.38950359555E+03  0.12500000000E+03 0.  0.
         25    1    1    2    0    0 -0.62822210491E+02  0.11940228339E+03  0.39825472664E+03  0.43867455214E+03  0.12500000000E+03 0.  0.
</event>
<event>
 5    0  0.5452999E-005  0.2259617E+03  0.7546771E-02  0.1129515E+00
         21   -1    0    0  502  501  0.00000000000E+00  0.00000000000E+00  0.11967375007E+04  0.11967375007E+04  0.00000000000E+00 0. -1.
         21   -1    0    0  501  502 -0.00000000000E+00 -0.00000000000E+00 -0.42664894183E+02  0.42664894183E+02  0.00000000000E+00 0. -1.
         25    1    1    2    0    0 -0.38427151682E+02 -0.33025073043E+01  0.31899064085E+03  0.34477178175E+03  0.12500000000E+03 0.  0.
         25    1    1    2    0    0  0.67411811632E+02  0.84566185996E+02  0.36652231511E+03  0.40206889912E+03  0.12500000000E+03 0.  0.
         25    1    1    2    0    0 -0.28984659949E+02 -0.81263678692E+02  0.46855965053E+03  0.49256171399E+03  0.12500000000E+03 0.  0.
</event>
<event>
 5    0  0.5452999E-005  0.3867419E+03  0.7546771E-02  0.1048470E+00
         21   -1    0    0  502  501  0.00000000000E+00  0.00000000000E+00  0.27759238677E+03  0.27759238677E+03  0.00000000000E+00 0. -1.
         21   -1    0    0  501  502 -0.00000000000E+00 -0.00000000000E+00 -0.53880900469E+03  0.53880900469E+03  0.00000000000E+00 0. -1.
         25    1    1    2    0    0 -0.20674531309E+03 -0.28557484825E+02 -0.16739364873E+03  0.29530456830E+03  0.12500000000E+03 0.  0.
         25    1    1    2    0    0  0.15498281136E+03 -0.28697718585E+01  0.14396083536E+03  0.24571859825E+03  0.12500000000E+03 0.  0.
         25    1    1    2    0    0  0.51762501729E+02  0.31427256683E+02 -0.23778380455E+03  0.27537822491E+03  0.12500000000E+03 0.  0.
</event>
<event>
 5    0  0.5452999E-005  0.2157420E+03  0.7546771E-02  0.1137098E+00
         21   -1    0    0  502  501  0.00000000000E+00  0.00000000000E+00  0.39308709450E+03  0.39308709450E+03  0.00000000000E+00 0. -1.
         21   -1    0    0  501  502 -0.00000000000E+00 -0.00000000000E+00 -0.11840788581E+03  0.11840788581E+03  0.00000000000E+00 0. -1.
         25    1    1    2    0    0  0.75039845138E+02  0.80183144110E+01  0.92559701231E+02  0.17288021870E+03  0.12500000000E+03 0.  0.
         25    1    1    2    0    0 -0.19355237223E+02 -0.40997578141E+02  0.40637897718E+02  0.13903907851E+03  0.12500000000E+03 0.  0.
         25    1    1    2    0    0 -0.55684607915E+02  0.32979263730E+02  0.14148160973E+03  0.19957568311E+03  0.12500000000E+03 0.  0.
</event>
<event>
 5    0  0.5452999E-005  0.2970782E+03  0.7546771E-02  0.1086710E+00
         21   -1    0    0  502  501  0.00000000000E+00  0.00000000000E+00  0.15864811741E+04  0.15864811741E+04  0.00000000000E+00 0. -1.
         21   -1    0    0  501  502 -0.00000000000E+00 -0.00000000000E+00 -0.55629678483E+02  0.55629678483E+02  0.00000000000E+00 0. -1.
         25    1    1    2    0    0 -0.99456088250E+02  0.89166836514E+01  0.86074274971E+03  0.87548506664E+03  0.12500000000E+03 0.  0.
         25    1    1    2    0    0  0.16045750664E+02 -0.11132363144E+03  0.45426459690E+03  0.48438800669E+03  0.12500000000E+03 0.  0.
         25    1    1    2    0    0  0.83410337586E+02  0.10240694779E+03  0.21584414899E+03  0.28223777923E+03  0.12500000000E+03 0.  0.
</event>
<event>
 5    0  0.5452999E-005  0.2321960E+03  0.7546771E-02  0.1125104E+00
         21   -1    0    0  502  501  0.00000000000E+00  0.00000000000E+00  0.21605250499E+03  0.21605250499E+03  0.00000000000E+00 0. -1.
         21   -1    0    0  501  502 -0.00000000000E+00 -0.00000000000E+00 -0.24954580704E+03  0.24954580704E+03  0.00000000000E+00 0. -1.
         25    1    1    2    0    0 -0.96061532707E+02 -0.72828592133E+01  0.98711290859E+01  0.15812430962E+03  0.12500000000E+03 0.  0.
         25    1    1    2    0    0  0.10027462898E+03 -0.17866700612E+02 -0.72218928214E+02  0.17667708906E+03  0.12500000000E+03 0.  0.
         25    1    1    2    0    0 -0.42130962719E+01  0.25149559825E+02  0.28854497082E+02  0.13079691335E+03  0.12500000000E+03 0.  0.
</event>
<event>
 5    0  0.5452999E-005  0.4231777E+03  0.7546771E-02  0.1036037E+00
         21   -1    0    0  502  501  0.00000000000E+00  0.00000000000E+00  0.11841933326E+04  0.11841933326E+04  0.00000000000E+00 0.  1.
         21   -1    0    0  501  502 -0.00000000000E+00 -0.00000000000E+00 -0.15122477652E+03  0.15122477652E+03  0.00000000000E+00 0.  1.
         25    1    1    2    0    0  0.10287012175E+03 -0.94678615165E+02  0.16414832609E+03  0.24923076671E+03  0.12500000000E+03 0.  0.
         25    1    1    2    0    0 -0.77093996827E+02  0.10135595004E+03  0.92824654364E+03  0.94524238095E+03  0.12500000000E+03 0.  0.
         25    1    1    2    0    0 -0.25776124928E+02 -0.66773348721E+01 -0.59426313621E+02  0.14094496148E+03  0.12500000000E+03 0.  0.
</event>
<event>
 5    0  0.5452999E-005  0.3074534E+03  0.7546771E-02  0.1081573E+00
         21   -1    0    0  502  501  0.00000000000E+00  0.00000000000E+00  0.78688532184E+03  0.78688532184E+03  0.00000000000E+00 0.  1.
         21   -1    0    0  501  502 -0.00000000000E+00 -0.00000000000E+00 -0.12012879406E+03  0.12012879406E+03  0.00000000000E+00 0.  1.
         25    1    1    2    0    0  0.12909633790E+03  0.40234233613E+02  0.50944706732E+02  0.19106287226E+03  0.12500000000E+03 0.  0.
         25    1    1    2    0    0 -0.67893599996E+01 -0.63316757410E+02  0.45889373232E+03  0.47985785890E+03  0.12500000000E+03 0.  0.
         25    1    1    2    0    0 -0.12230697790E+03  0.23082523797E+02  0.15691808873E+03  0.23609338474E+03  0.12500000000E+03 0.  0.
</event>
<event>
 5    0  0.5452999E-005  0.2962157E+03  0.7546771E-02  0.1087148E+00
         21   -1    0    0  502  501  0.00000000000E+00  0.00000000000E+00  0.29654398690E+03  0.29654398690E+03  0.00000000000E+00 0. -1.
         21   -1    0    0  501  502 -0.00000000000E+00 -0.00000000000E+00 -0.29588781595E+03  0.29588781595E+03  0.00000000000E+00 0. -1.
         25    1    1    2    0    0  0.51280972007E+02 -0.35402824821E+02 -0.89056279674E+02  0.16564757482E+03  0.12500000000E+03 0.  0.
         25    1    1    2    0    0 -0.16370722833E+01  0.17084170886E+02  0.21028127243E+03  0.24523001944E+03  0.12500000000E+03 0.  0.
         25    1    1    2    0    0 -0.49643899724E+02  0.18318653935E+02 -0.12056882180E+03  0.18155420858E+03  0.12500000000E+03 0.  0.
</event>
<event>
 5    0  0.5452999E-005  0.3321716E+03  0.7546771E-02  0.1070180E+00
         21   -1    0    0  502  501  0.00000000000E+00  0.00000000000E+00  0.82847621956E+02  0.82847621956E+02  0.00000000000E+00 0.  1.
         21   -1    0    0  501  502 -0.00000000000E+00 -0.00000000000E+00 -0.13318178358E+04  0.13318178358E+04  0.00000000000E+00 0.  1.
         25    1    1    2    0    0 -0.17062267946E+03 -0.17611523824E+03 -0.46861042035E+03  0.54346057994E+03  0.12500000000E+03 0.  0.
         25    1    1    2    0    0  0.35500898356E+02  0.98168251036E+02 -0.50727689095E+03  0.53277778049E+03  0.12500000000E+03 0.  0.
         25    1    1    2    0    0  0.13512178111E+03  0.77946987207E+02 -0.27308290258E+03  0.33842709736E+03  0.12500000000E+03 0.  0.
</event>
<event>
 5    0  0.5452999E-005  0.3420055E+03  0.7546771E-02  0.1065945E+00
         21   -1    0    0  502  501  0.00000000000E+00  0.00000000000E+00  0.30549492937E+04  0.30549492937E+04  0.00000000000E+00 0. -1.
         21   -1    0    0  501  502 -0.00000000000E+00 -0.00000000000E+00 -0.38287961349E+02  0.38287961349E+02  0.00000000000E+00 0. -1.
         25    1    1    2    0    0  0.17746045936E+03  0.44272506774E+01  0.21088489715E+04  0.21199954717E+04  0.12500000000E+03 0.  0.
         25    1    1    2    0    0 -0.17721916956E+03  0.65402748487E+01  0.46740902316E+03  0.51531117219E+03  0.12500000000E+03 0.  0.
         25    1    1    2    0    0 -0.24128980453E+00 -0.10967525526E+02  0.44040333764E+03  0.45793061116E+03  0.12500000000E+03 0.  0.
</event>
<event>
 5    0  0.6310461E-005  0.3291717E+03  0.7546771E-02  0.1071504E+00
         21   -1    0    0  502  501  0.00000000000E+00  0.00000000000E+00  0.37111724504E+03  0.37111724504E+03  0.00000000000E+00 0.  1.
         21   -1    0    0  501  502 -0.00000000000E+00 -0.00000000000E+00 -0.29196698277E+03  0.29196698277E+03  0.00000000000E+00 0. -1.
         25    1    1    2    0    0 -0.54009485050E+02 -0.13514371846E+03  0.74067844041E+02  0.20564993225E+03  0.12500000000E+03 0.  0.
         25    1    1    2    0    0  0.86664128554E+02  0.57336110175E+02  0.16914048750E+03  0.23458816087E+03  0.12500000000E+03 0.  0.
         25    1    1    2    0    0 -0.32654643504E+02  0.77807608288E+02 -0.16405806927E+03  0.22284613468E+03  0.12500000000E+03 0.  0.
</event>
<event>
 5    0  0.5678879E-005  0.4336466E+03  0.7546771E-02  0.1032714E+00
         21   -1    0    0  502  501  0.00000000000E+00  0.00000000000E+00  0.46736519079E+03  0.46736519079E+03  0.00000000000E+00 0. -1.
         21   -1    0    0  501  502 -0.00000000000E+00 -0.00000000000E+00 -0.40236058291E+03  0.40236058291E+03  0.00000000000E+00 0. -1.
         25    1    1    2    0    0 -0.14301423408E+03 -0.24505761008E+03 -0.39569479079E+01  0.31007573404E+03  0.12500000000E+03 0.  0.
         25    1    1    2    0    0 -0.32829763654E+02  0.17923901607E+03 -0.13213047506E+03  0.25746432899E+03  0.12500000000E+03 0.  0.
         25    1    1    2    0    0  0.17584399774E+03  0.65818594003E+02  0.20109203085E+03  0.30218571066E+03  0.12500000000E+03 0.  0.
</event>
<event>
 5    0  0.5452999E-005  0.2621199E+03  0.7546771E-02  0.1105876E+00
         21   -1    0    0  502  501  0.00000000000E+00  0.00000000000E+00  0.34309479354E+03  0.34309479354E+03  0.00000000000E+00 0. -1.
         21   -1    0    0  501  502 -0.00000000000E+00 -0.00000000000E+00 -0.20025614688E+03  0.20025614688E+03  0.00000000000E+00 0. -1.
         25    1    1    2    0    0 -0.66581798942E+02 -0.92709294229E+02  0.38413559298E+02  0.17357635416E+03  0.12500000000E+03 0.  0.
         25    1    1    2    0    0  0.13557696706E+02  0.20224559605E+02  0.16145218706E+03  0.20563232396E+03  0.12500000000E+03 0.  0.
         25    1    1    2    0    0  0.53024102236E+02  0.72484734624E+02 -0.57027099704E+02  0.16414226230E+03  0.12500000000E+03 0.  0.
</event>
<event>
 5    0  0.5452999E-005  0.3039447E+03  0.7546771E-02  0.1083285E+00
         21   -1    0    0  502  501  0.00000000000E+00  0.00000000000E+00  0.21619531507E+03  0.21619531507E+03  0.00000000000E+00 0.  1.
         21   -1    0    0  501  502 -0.00000000000E+00 -0.00000000000E+00 -0.42730977110E+03  0.42730977110E+03  0.00000000000E+00 0.  1.
         25    1    1    2    0    0  0.11503540950E+03 -0.10110020946E+03 -0.19182388596E+03  0.27545562441E+03  0.12500000000E+03 0.  0.
         25    1    1    2    0    0 -0.60590760052E+02 -0.53376052108E+02 -0.55552430679E+02  0.15884368321E+03  0.12500000000E+03 0.  0.
         25    1    1    2    0    0 -0.54444649453E+02  0.15447626157E+03  0.36261860609E+02  0.20920577855E+03  0.12500000000E+03 0.  0.
</event>
<event>
 5    0  0.5452999E-005  0.2738127E+03  0.7546771E-02  0.1099117E+00
         21   -1    0    0  502  501  0.00000000000E+00  0.00000000000E+00  0.25666553277E+03  0.25666553277E+03  0.00000000000E+00 0.  1.
         21   -1    0    0  501  502 -0.00000000000E+00 -0.00000000000E+00 -0.29210543973E+03  0.29210543973E+03  0.00000000000E+00 0.  1.
         25    1    1    2    0    0 -0.11967613506E+03 -0.25731936465E+02  0.92949349762E+02  0.19811383465E+03  0.12500000000E+03 0.  0.
         25    1    1    2    0    0  0.10489795732E+03  0.57291547892E+02 -0.71947847786E+01  0.17309727854E+03  0.12500000000E+03 0.  0.
         25    1    1    2    0    0  0.14778177741E+02 -0.31559611427E+02 -0.12119447193E+03  0.17755985931E+03  0.12500000000E+03 0.  0.
</event>
<event>
 5    0  0.5452999E-005  0.4001573E+03  0.7546771E-02  0.1043725E+00
         21   -1    0    0  502  501  0.00000000000E+00  0.00000000000E+00  0.68404856939E+03  0.68404856939E+03  0.00000000000E+00 0. -1.
         21   -1    0    0  501  502 -0.00000000000E+00 -0.00000000000E+00 -0.23408551873E+03  0.23408551873E+03  0.00000000000E+00 0. -1.
         25    1    1    2    0    0 -0.16588654324E+03 -0.46246398669E+02  0.13765349546E+03  0.25343748624E+03  0.12500000000E+03 0.  0.
         25    1    1    2    0    0  0.33575199234E+03 -0.26697762842E+02  0.15286522068E+03  0.39042918256E+03  0.12500000000E+03 0.  0.
         25    1    1    2    0    0 -0.16986544909E+03  0.72944161512E+02  0.15944433451E+03  0.27426741932E+03  0.12500000000E+03 0.  0.
</event>
<event>
 5    0  0.5452999E-005  0.2947508E+03  0.7546771E-02  0.1087894E+00
         21   -1    0    0  502  501  0.00000000000E+00  0.00000000000E+00  0.35679969417E+03  0.35679969417E+03  0.00000000000E+00 0.  1.
         21   -1    0    0  501  502 -0.00000000000E+00 -0.00000000000E+00 -0.24349238762E+03  0.24349238762E+03  0.00000000000E+00 0.  1.
         25    1    1    2    0    0 -0.39056905854E+02 -0.90017583176E+02 -0.49638241219E+02  0.16648592183E+03  0.12500000000E+03 0.  0.
         25    1    1    2    0    0  0.76738853168E+02  0.18424154167E+03  0.13161355937E+03  0.26977940298E+03  0.12500000000E+03 0.  0.
         25    1    1    2    0    0 -0.37681947314E+02 -0.94223958494E+02  0.31331988399E+02  0.16402675698E+03  0.12500000000E+03 0.  0.
</event>
<event>
 5    0  0.5452999E-005  0.2852575E+03  0.7546771E-02  0.1092852E+00
         21   -1    0    0  502  501  0.00000000000E+00  0.00000000000E+00  0.54406818893E+03  0.54406818893E+03  0.00000000000E+00 0. -1.
         21   -1    0    0  501  502 -0.00000000000E+00 -0.00000000000E+00 -0.14956187738E+03  0.14956187738E+03  0.00000000000E+00 0. -1.
         25    1    1    2    0    0  0.38921167123E+02  0.62996624659E+02 -0.47601575766E+01  0.14536537094E+03  0.12500000000E+03 0.  0.
         25    1    1    2    0    0 -0.62125663383E+02  0.58926820653E+02  0.32209388061E+03  0.35595145198E+03  0.12500000000E+03 0.  0.
         25    1    1    2    0    0  0.23204496260E+02 -0.12192344531E+03  0.77172588523E+02  0.19231324339E+03  0.12500000000E+03 0.  0.
</event>
<event>
 5    0  0.5452999E-005  0.2812782E+03  0.7546771E-02  0.1094993E+00
         21   -1    0    0  502  501  0.00000000000E+00  0.00000000000E+00  0.74850281574E+02  0.74850281574E+02  0.00000000000E+00 0.  1.
         21   -1    0    0  501  502 -0.00000000000E+00 -0.00000000000E+00 -0.10570088337E+04  0.10570088337E+04  0.00000000000E+00 0.  1.
         25    1    1    2    0    0 -0.51557324249E+02  0.44258293697E+02 -0.45190889487E+03  0.47377590010E+03  0.12500000000E+03 0.  0.
         25    1    1    2    0    0  0.11901769030E+03 -0.13650147877E+01 -0.92408773246E+02  0.19578420580E+03  0.12500000000E+03 0.  0.
         25    1    1    2    0    0 -0.67460366051E+02 -0.42893278910E+02 -0.43784088405E+03  0.46229900942E+03  0.12500000000E+03 0.  0.
</event>
<event>
 5    0  0.5452999E-005  0.3825253E+03  0.7546771E-02  0.1050004E+00
         21   -1    0    0  502  501  0.00000000000E+00  0.00000000000E+00  0.14196595409E+03  0.14196595409E+03  0.00000000000E+00 0. -1.
         21   -1    0    0  501  502 -0.00000000000E+00 -0.00000000000E+00 -0.10307090403E+04  0.10307090403E+04  0.00000000000E+00 0. -1.
         25    1    1    2    0    0  0.15226394775E+03 -0.71196768969E+02 -0.49301051598E+03  0.53566562198E+03  0.12500000000E+03 0.  0.
         25    1    1    2    0    0 -0.19379628116E+02 -0.65120005341E+02 -0.38338846571E+03  0.40893508130E+03  0.12500000000E+03 0.  0.
         25    1    1    2    0    0 -0.13288431963E+03  0.13631677431E+03 -0.12344104553E+02  0.22807429114E+03  0.12500000000E+03 0.  0.
</event>
<event>
 5    0  0.5452999E-005  0.3284143E+03  0.7546771E-02  0.1071841E+00
         21   -1    0    0  502  501  0.00000000000E+00  0.00000000000E+00  0.17228321927E+03  0.17228321927E+03  0.00000000000E+00 0.  1.
         21   -1    0    0  501  502 -0.00000000000E+00 -0.00000000000E+00 -0.62603881068E+03  0.62603881068E+03  0.00000000000E+00 0.  1.
         25    1    1    2    0    0  0.16281313037E+03  0.98078177249E+01 -0.31622306755E+03  0.37712907229E+03  0.12500000000E+03 0.  0.
         25    1    1    2    0    0 -0.10822073060E+03  0.12361271753E+03 -0.57612992145E+02  0.21432705692E+03  0.12500000000E+03 0.  0.
         25    1    1    2    0    0 -0.54592399767E+02 -0.13342053525E+03 -0.79919531707E+02  0.20686590074E+03  0.12500000000E+03 0.  0.
</event>
<event>
 5    0  0.5452999E-005  0.2995963E+03  0.7546771E-02  0.1085443E+00
         21   -1    0    0  502  501  0.00000000000E+00  0.00000000000E+00  0.12940956907E+04  0.12940956907E+04  0.00000000000E+00 0.  1.
         21   -1    0    0  501  502 -0.00000000000E+00 -0.00000000000E+00 -0.69359572117E+02  0.69359572117E+02  0.00000000000E+00 0.  1.
         25    1    1    2    0    0  0.21120125107E+02  0.74949122188E+02  0.10602131366E+03  0.18146335595E+03  0.12500000000E+03 0.  0.
         25    1    1    2    0    0  0.38548489629E+02 -0.13512805129E+02  0.14178878511E+03  0.19338469830E+03  0.12500000000E+03 0.  0.
         25    1    1    2    0    0 -0.59668614736E+02 -0.61436317059E+02  0.97692601978E+03  0.98860720853E+03  0.12500000000E+03 0.  0.
</event>
<event>
 5    0  0.5452999E-005  0.2514079E+03  0.7546771E-02  0.1112418E+00
         21   -1    0    0  502  501  0.00000000000E+00  0.00000000000E+00  0.36223598457E+02  0.36223598457E+02  0.00000000000E+00 0. -1.
         21   -1    0    0  501  502 -0.00000000000E+00 -0.00000000000E+00 -0.17448833002E+04  0.17448833002E+04  0.00000000000E+00 0. -1.
         25    1    1    2    0    0  0.42414075602E+02  0.34994816175E+02 -0.97677527776E+03  0.98627508039E+03  0.12500000000E+03 0.  0.
         25    1    1    2    0    0 -0.64267456900E+01  0.62691758571E+02 -0.42555235076E+03  0.44798589586E+03  0.12500000000E+03 0.  0.
         25    1    1    2    0    0 -0.35987329912E+02 -0.97686574747E+02 -0.30633207322E+03  0.34684592240E+03  0.12500000000E+03 0.  0.
</event>
<event>
 5    0  0.5452999E-005  0.3060944E+03  0.7546771E-02  0.1082233E+00
         21   -1    0    0  502  501  0.00000000000E+00  0.00000000000E+00  0.13400947845E+03  0.13400947845E+03  0.00000000000E+00 0. -1.
         21   -1    0    0  501  502 -0.00000000000E+00 -0.00000000000E+00 -0.69915772889E+03  0.69915772889E+03  0.00000000000E+00 0. -1.
         25    1    1    2    0    0  0.87340740985E+02  0.18141277111E+03 -0.19605026161E+03  0.30757064820E+03  0.12500000000E+03 0.  0.
         25    1    1    2    0    0 -0.12234068793E+03 -0.16014152592E+03 -0.27896098598E+03  0.36613765710E+03  0.12500000000E+03 0.  0.
         25    1    1    2    0    0  0.34999946941E+02 -0.21271245195E+02 -0.90137002847E+02  0.15945890204E+03  0.12500000000E+03 0.  0.
</event>
<event>
 5    0  0.5452999E-005  0.3222499E+03  0.7546771E-02  0.1074618E+00
         21   -1    0    0  502  501  0.00000000000E+00  0.00000000000E+00  0.36669727921E+03  0.36669727921E+03  0.00000000000E+00 0. -1.
         21   -1    0    0  501  502 -0.00000000000E+00 -0.00000000000E+00 -0.28319003972E+03  0.28319003972E+03  0.00000000000E+00 0. -1.
         25    1    1    2    0    0 -0.18017425452E+02 -0.58359298879E+01  0.29618962535E+02  0.12984979260E+03  0.12500000000E+03 0.  0.
         25    1    1    2    0    0  0.19943205221E+03 -0.58074690273E+02  0.13407695835E+03  0.27703329016E+03  0.12500000000E+03 0.  0.
         25    1    1    2    0    0 -0.18141462676E+03  0.63910620161E+02 -0.80188681396E+02  0.24300423616E+03  0.12500000000E+03 0.  0.
</event>
<event>
 5    0  0.5452999E-005  0.2512902E+03  0.7546771E-02  0.1112492E+00
         21   -1    0    0  502  501  0.00000000000E+00  0.00000000000E+00  0.47535347718E+03  0.47535347718E+03  0.00000000000E+00 0.  1.
         21   -1    0    0  501  502 -0.00000000000E+00 -0.00000000000E+00 -0.13284166108E+03  0.13284166108E+03  0.00000000000E+00 0.  1.
         25    1    1    2    0    0 -0.32081365188E+02  0.65702286647E+02  0.12252985500E+03  0.18969599318E+03  0.12500000000E+03 0.  0.
         25    1    1    2    0    0  0.52387326911E+02 -0.14860611544E+03  0.15430833298E+03  0.25350398654E+03  0.12500000000E+03 0.  0.
         25    1    1    2    0    0 -0.20305961722E+02  0.82903828788E+02  0.65673628121E+02  0.16499515853E+03  0.12500000000E+03 0.  0.
</event>
<event>
 5    0  0.5452999E-005  0.3987279E+03  0.7546771E-02  0.1044221E+00
         21   -1    0    0  502  501  0.00000000000E+00  0.00000000000E+00  0.16700729351E+03  0.16700729351E+03  0.00000000000E+00 0. -1.
         21   -1    0    0  501  502 -0.00000000000E+00 -0.00000000000E+00 -0.95195809673E+03  0.95195809673E+03  0.00000000000E+00 0. -1.
         25    1    1    2    0    0 -0.90351230546E+02 -0.14728508984E+03 -0.53933690166E+03  0.57997028893E+03  0.12500000000E+03 0.  0.
         25    1    1    2    0    0  0.11862014494E+03  0.21427450872E+03 -0.26204525961E+02  0.27621727146E+03  0.12500000000E+03 0.  0.
         25    1    1    2    0    0 -0.28268914395E+02 -0.66989418878E+02 -0.21940937559E+03  0.26277782985E+03  0.12500000000E+03 0.  0.
</event>
<event>
 5    0  0.5452999E-005  0.2695753E+03  0.7546771E-02  0.1101523E+00
         21   -1    0    0  502  501  0.00000000000E+00  0.00000000000E+00  0.67021216969E+03  0.67021216969E+03  0.00000000000E+00 0.  1.
         21   -1    0    0  501  502 -0.00000000000E+00 -0.00000000000E+00 -0.10842959712E+03  0.10842959712E+03  0.00000000000E+00 0.  1.
         25    1    1    2    0    0 -0.94567940747E+01 -0.11999656765E+03  0.24978239806E+03  0.30414610565E+03  0.12500000000E+03 0.  0.
         25    1    1    2    0    0  0.95779360585E+02  0.59364311603E+02  0.24613325996E+03  0.29816839045E+03  0.12500000000E+03 0.  0.
         25    1    1    2    0    0 -0.86322566511E+02  0.60632256052E+02  0.65866914550E+02  0.17632727071E+03  0.12500000000E+03 0.  0.
</event>
<event>
 5    0  0.5452999E-005  0.2771273E+03  0.7546771E-02  0.1097268E+00
         21   -1    0    0  502  501  0.00000000000E+00  0.00000000000E+00  0.14393169021E+04  0.14393169021E+04  0.00000000000E+00 0. -1.
         21   -1    0    0  501  502 -0.00000000000E+00 -0.00000000000E+00 -0.53358341169E+02  0.53358341169E+02  0.00000000000E+00 0. -1.
         25    1    1    2    0    0 -0.12862882249E+03 -0.14115449995E+03  0.61394870309E+03  0.65500227241E+03  0.12500000000E+03 0.  0.
         25    1    1    2    0    0  0.48866887800E+02  0.58742339579E+02  0.26187024840E+03  0.30006609635E+03  0.12500000000E+03 0.  0.
         25    1    1    2    0    0  0.79761934691E+02  0.82412160375E+02  0.51013960948E+03  0.53760687455E+03  0.12500000000E+03 0.  0.
</event>
<event>
 5    0  0.5452999E-005  0.2848719E+03  0.7546771E-02  0.1093057E+00
         21   -1    0    0  502  501  0.00000000000E+00  0.00000000000E+00  0.84808472793E+03  0.84808472793E+03  0.00000000000E+00 0.  1.
         21   -1    0    0  501  502 -0.00000000000E+00 -0.00000000000E+00 -0.95688528965E+02  0.95688528965E+02  0.00000000000E+00 0.  1.
         25    1    1    2    0    0 -0.90740705418E+01 -0.54365768726E+02  0.20293751163E+03  0.24463566623E+03  0.12500000000E+03 0.  0.
         25    1    1    2    0    0  0.12941312299E+03  0.13370271926E+03  0.39284086128E+03  0.45229759653E+03  0.12500000000E+03 0.  0.
         25    1    1    2    0    0 -0.12033905245E+03 -0.79336950538E+02  0.15661782607E+03  0.24683999414E+03  0.12500000000E+03 0.  0.
</event>
<event>
 5    0  0.5452999E-005  0.2205038E+03  0.7546771E-02  0.1133508E+00
         21   -1    0    0  502  501  0.00000000000E+00  0.00000000000E+00  0.20809864968E+03  0.20809864968E+03  0.00000000000E+00 0. -1.
         21   -1    0    0  501  502 -0.00000000000E+00 -0.00000000000E+00 -0.23364842944E+03  0.23364842944E+03  0.00000000000E+00 0. -1.
         25    1    1    2    0    0 -0.39023960754E+02  0.84403095645E+02 -0.50306816181E+02  0.16371477582E+03  0.12500000000E+03 0.  0.
         25    1    1    2    0    0  0.17201515304E+02 -0.80891597806E+02  0.95415388262E+01  0.15018449883E+03  0.12500000000E+03 0.  0.
         25    1    1    2    0    0  0.21822445450E+02 -0.35114978388E+01  0.15215497587E+02  0.12784780448E+03  0.12500000000E+03 0.  0.
</event>
<event>
 5    0  0.5755766E-005  0.8061872E+03  0.7546771E-02  0.9551104E-01
         21   -1    0    0  502  501  0.00000000000E+00  0.00000000000E+00  0.91535211101E+03  0.91535211101E+03  0.00000000000E+00 0. -1.
         21   -1    0    0  501  502 -0.00000000000E+00 -0.00000000000E+00 -0.71004126181E+03  0.71004126181E+03  0.00000000000E+00 0. -1.
         25    1    1    2    0    0 -0.39039111252E+03 -0.41388079630E+03 -0.15715858620E+03  0.60334596667E+03  0.12500000000E+03 0.  0.
         25    1    1    2    0    0  0.29137374125E+03  0.53497563121E+03  0.16234180023E+02  0.62208209400E+03  0.12500000000E+03 0.  0.
         25    1    1    2    0    0  0.99017371270E+02 -0.12109483491E+03  0.34623525538E+03  0.39996531215E+03  0.12500000000E+03 0.  0.
</event>
<event>
 5    0  0.5452999E-005  0.2521816E+03  0.7546771E-02  0.1111934E+00
         21   -1    0    0  502  501  0.00000000000E+00  0.00000000000E+00  0.59082422069E+02  0.59082422069E+02  0.00000000000E+00 0.  1.
         21   -1    0    0  501  502 -0.00000000000E+00 -0.00000000000E+00 -0.10763871083E+04  0.10763871083E+04  0.00000000000E+00 0.  1.
         25    1    1    2    0    0 -0.69981825477E+02 -0.83300652488E+02 -0.51606722873E+03  0.54202106894E+03  0.12500000000E+03 0.  0.
         25    1    1    2    0    0 -0.29413932994E+01 -0.35139042941E+02 -0.22676824017E+03  0.26132783794E+03  0.12500000000E+03 0.  0.
         25    1    1    2    0    0  0.72923218776E+02  0.11843969543E+03 -0.27446921737E+03  0.33212062353E+03  0.12500000000E+03 0.  0.
</event>
<event>
 5    0  0.5452999E-005  0.4641277E+03  0.7546771E-02  0.1023591E+00
         21   -1    0    0  502  501  0.00000000000E+00  0.00000000000E+00  0.20024441529E+04  0.20024441529E+04  0.00000000000E+00 0.  1.
         21   -1    0    0  501  502 -0.00000000000E+00 -0.00000000000E+00 -0.10757581367E+03  0.10757581367E+03  0.00000000000E+00 0.  1.
         25    1    1    2    0    0 -0.15128368041E+03  0.19355190167E+03  0.68078420189E+03  0.73446662290E+03  0.12500000000E+03 0.  0.
         25    1    1    2    0    0  0.35391247975E+03 -0.12516692802E+03  0.67793279120E+03  0.78494501245E+03  0.12500000000E+03 0.  0.
         25    1    1    2    0    0 -0.20262879933E+03 -0.68384973649E+02  0.53615134613E+03  0.59060833121E+03  0.12500000000E+03 0.  0.
</event>
<event>
 5    0  0.5452999E-005  0.2678577E+03  0.7546771E-02  0.1102512E+00
         21   -1    0    0  502  501  0.00000000000E+00  0.00000000000E+00  0.81407777403E+02  0.81407777403E+02  0.00000000000E+00 0.  1.
         21   -1    0    0  501  502 -0.00000000000E+00 -0.00000000000E+00 -0.88133780883E+03  0.88133780883E+03  0.00000000000E+00 0.  1.
         25    1    1    2    0    0 -0.29442214038E+01 -0.11375375720E+02 -0.69615656322E+02  0.14355976880E+03  0.12500000000E+03 0.  0.
         25    1    1    2    0    0 -0.48479242712E+02  0.62036236566E+02 -0.11512804401E+03  0.18729174605E+03  0.12500000000E+03 0.  0.
         25    1    1    2    0    0  0.51423464116E+02 -0.50660860846E+02 -0.61518633109E+03  0.63189407138E+03  0.12500000000E+03 0.  0.
</event>
<event>
 5    0  0.5452999E-005  0.3058909E+03  0.7546771E-02  0.1082332E+00
         21   -1    0    0  502  501  0.00000000000E+00  0.00000000000E+00  0.52359098205E+02  0.52359098205E+02  0.00000000000E+00 0.  1.
         21   -1    0    0  501  502 -0.00000000000E+00 -0.00000000000E+00 -0.17870679511E+04  0.17870679511E+04  0.00000000000E+00 0.  1.
         25    1    1    2    0    0  0.44812442232E+02  0.13268828855E+03 -0.68040309018E+03  0.70582412967E+03  0.12500000000E+03 0.  0.
         25    1    1    2    0    0 -0.11779735384E+03 -0.47810692591E+02 -0.22289355842E+03  0.28542707875E+03  0.12500000000E+03 0.  0.
         25    1    1    2    0    0  0.72984911603E+02 -0.84877595960E+02 -0.83141220433E+03  0.84817584093E+03  0.12500000000E+03 0.  0.
</event>
<event>
 5    0  0.5452999E-005  0.5561722E+03  0.7546771E-02  0.1000075E+00
         21   -1    0    0  502  501  0.00000000000E+00  0.00000000000E+00  0.34611261018E+03  0.34611261018E+03  0.00000000000E+00 0. -1.
         21   -1    0    0  501  502 -0.00000000000E+00 -0.00000000000E+00 -0.89371932371E+03  0.89371932371E+03  0.00000000000E+00 0. -1.
         25    1    1    2    0    0 -0.44407970537E+03 -0.12485802797E+03 -0.52408143101E+03  0.70928320028E+03  0.12500000000E+03 0.  0.
         25    1    1    2    0    0  0.26978792561E+03  0.10131182999E+03 -0.81512990043E+01  0.31423089501E+03  0.12500000000E+03 0.  0.
         25    1    1    2    0    0  0.17429177976E+03  0.23546197983E+02 -0.15373983512E+02  0.21631783861E+03  0.12500000000E+03 0.  0.
</event>
<event>
 5    0  0.5452999E-005  0.3340556E+03  0.7546771E-02  0.1069356E+00
         21   -1    0    0  502  501  0.00000000000E+00  0.00000000000E+00  0.18239619390E+04  0.18239619390E+04  0.00000000000E+00 0. -1.
         21   -1    0    0  501  502 -0.00000000000E+00 -0.00000000000E+00 -0.61181715173E+02  0.61181715173E+02  0.00000000000E+00 0. -1.
         25    1    1    2    0    0  0.98738779470E+02  0.61390347049E+02  0.21755075609E+03  0.27653472251E+03  0.12500000000E+03 0.  0.
         25    1    1    2    0    0  0.65957345781E+02 -0.21391563514E+01  0.19214409692E+03  0.23853574456E+03  0.12500000000E+03 0.  0.
         25    1    1    2    0    0 -0.16469612525E+03 -0.59251190697E+02  0.13530853708E+04  0.13700731871E+04  0.12500000000E+03 0.  0.
</event>
<event>
 5    0  0.5452999E-005  0.3116928E+03  0.7546771E-02  0.1079537E+00
         21   -1    0    0  502  501  0.00000000000E+00  0.00000000000E+00  0.14284632911E+03  0.14284632911E+03  0.00000000000E+00 0.  1.
         21   -1    0    0  501  502 -0.00000000000E+00 -0.00000000000E+00 -0.68011823939E+03  0.68011823939E+03  0.00000000000E+00 0.  1.
         25    1    1    2    0    0  0.99199457987E+02  0.15959995284E+03 -0.11424808501E+03  0.25296304540E+03  0.12500000000E+03 0.  0.
         25    1    1    2    0    0 -0.20091210694E+02 -0.16967602361E+03 -0.15048077656E+03  0.25973654700E+03  0.12500000000E+03 0.  0.
         25    1    1    2    0    0 -0.79108247293E+02  0.10076070769E+02 -0.27254304871E+03  0.31026497609E+03  0.12500000000E+03 0.  0.
</event>
<event>
 5    0  0.5452999E-005  0.4036309E+03  0.7546771E-02  0.1042530E+00
         21   -1    0    0  502  501  0.00000000000E+00  0.00000000000E+00  0.41273203512E+02  0.41273203512E+02  0.00000000000E+00 0. -1.
         21   -1    0    0  501  502 -0.00000000000E+00 -0.00000000000E+00 -0.39473053568E+04  0.39473053568E+04  0.00000000000E+00 0. -1.
         25    1    1    2    0    0 -0.14630961664E+03  0.16731299513E+03 -0.52896922427E+03  0.58722532514E+03  0.12500000000E+03 0.  0.
         25    1    1    2    0    0  0.16720240731E+03 -0.16261206121E+03 -0.18203838174E+04  0.18395166675E+04  0.12500000000E+03 0.  0.
         25    1    1    2    0    0 -0.20892790675E+02 -0.47009339257E+01 -0.15566791117E+04  0.15618365677E+04  0.12500000000E+03 0.  0.
</event>
<event>
 5    0  0.5452999E-005  0.3220949E+03  0.7546771E-02  0.1074689E+00
         21   -1    0    0  502  501  0.00000000000E+00  0.00000000000E+00  0.29448140481E+03  0.29448140481E+03  0.00000000000E+00 0. -1.
         21   -1    0    0  501  502 -0.00000000000E+00 -0.00000000000E+00 -0.35229771844E+03  0.35229771844E+03  0.00000000000E+00 0. -1.
         25    1    1    2    0    0  0.11280684932E+03 -0.53570040241E+01  0.18829712630E+02  0.16951000213E+03  0.12500000000E+03 0.  0.
         25    1    1    2    0    0  0.10664984433E+03 -0.71891561019E+02  0.47354115259E+02  0.18549932095E+03  0.12500000000E+03 0.  0.
         25    1    1    2    0    0 -0.21945669365E+03  0.77248565043E+02 -0.12400014152E+03  0.29176980016E+03  0.12500000000E+03 0.  0.
</event>
<event>
 5    0  0.5452999E-005  0.2710069E+03  0.7546771E-02  0.1100705E+00
         21   -1    0    0  502  501  0.00000000000E+00  0.00000000000E+00  0.13041993114E+03  0.13041993114E+03  0.00000000000E+00 0. -1.
         21   -1    0    0  501  502 -0.00000000000E+00 -0.00000000000E+00 -0.56314052519E+03  0.56314052519E+03  0.00000000000E+00 0. -1.
         25    1    1    2    0    0  0.61710643933E+02 -0.75135562307E+01 -0.30827007740E+03  0.33840818211E+03  0.12500000000E+03 0.  0.
         25    1    1    2    0    0  0.65678287127E+02 -0.39986960610E+02 -0.40246078046E+02  0.15217536337E+03  0.12500000000E+03 0.  0.
         25    1    1    2    0    0 -0.12738893106E+03  0.47500516841E+02 -0.84204438605E+02  0.20297691085E+03  0.12500000000E+03 0.  0.
</event>
<event>
 5    0  0.5452999E-005  0.4226066E+03  0.7546771E-02  0.1036221E+00
         21   -1    0    0  502  501  0.00000000000E+00  0.00000000000E+00  0.45090665828E+03  0.45090665828E+03  0.00000000000E+00 0.  1.
         21   -1    0    0  501  502 -0.00000000000E+00 -0.00000000000E+00 -0.39608281299E+03  0.39608281299E+03  0.00000000000E+00 0.  1.
         25    1    1    2    0    0  0.14375216358E+03 -0.18659461188E+03  0.53443125595E+02  0.27196213227E+03  0.12500000000E+03 0.  0.
         25    1    1    2    0    0  0.72798339984E+02  0.27140238125E+03 -0.30621857186E+02  0.30906560629E+03  0.12500000000E+03 0.  0.
         25    1    1    2    0    0 -0.21655050356E+03 -0.84807769376E+02  0.32002576875E+02  0.26596173271E+03  0.12500000000E+03 0.  0.
</event>
<event>
 5    0  0.5452999E-005  0.3041522E+03  0.7546771E-02  0.1083183E+00
         21   -1    0    0  502  501  0.00000000000E+00  0.00000000000E+00  0.11898513040E+03  0.11898513040E+03  0.00000000000E+00 0.  1.
         21   -1    0    0  501  502 -0.00000000000E+00 -0.00000000000E+00 -0.77748022680E+03  0.77748022680E+03  0.00000000000E+00 0.  1.
         25    1    1    2    0    0 -0.16228073109E+03 -0.93973183842E+02 -0.41951186367E+03  0.47621549610E+03  0.12500000000E+03 0.  0.
         25    1    1    2    0    0  0.16525157753E+03  0.52873960220E+02 -0.14055374328E+03  0.25589860160E+03  0.12500000000E+03 0.  0.
         25    1    1    2    0    0 -0.29708464478E+01  0.41099223621E+02 -0.98429489433E+02  0.16435125951E+03  0.12500000000E+03 0.  0.
</event>
<event>
 5    0  0.5452999E-005  0.3687535E+03  0.7546771E-02  0.1055171E+00
         21   -1    0    0  502  501  0.00000000000E+00  0.00000000000E+00  0.56941714378E+03  0.56941714378E+03  0.00000000000E+00 0. -1.
         21   -1    0    0  501  502 -0.00000000000E+00 -0.00000000000E+00 -0.23880405000E+03  0.23880405000E+03  0.00000000000E+00 0. -1.
         25    1    1    2    0    0 -0.16264443590E+03  0.52619000469E+02  0.19913188833E+03  0.29068966388E+03  0.12500000000E+03 0.  0.
         25    1    1    2    0    0  0.13986863726E+03 -0.17205501918E+03  0.20643003614E+03  0.32772629606E+03  0.12500000000E+03 0.  0.
         25    1    1    2    0    0  0.22775798645E+02  0.11943601871E+03 -0.74948830692E+02  0.18980523383E+03  0.12500000000E+03 0.  0.
</event>
<event>
 5    0  0.5452999E-005  0.3333823E+03  0.7546771E-02  0.1069650E+00
         21   -1    0    0  502  501  0.00000000000E+00  0.00000000000E+00  0.16819518915E+03  0.16819518915E+03  0.00000000000E+00 0. -1.
         21   -1    0    0  501  502 -0.00000000000E+00 -0.00000000000E+00 -0.66080239573E+03  0.66080239573E+03  0.00000000000E+00 0. -1.
         25    1    1    2    0    0  0.86155743811E+00 -0.18652304169E+01 -0.16345798603E+03  0.20578565199E+03  0.12500000000E+03 0.  0.
         25    1    1    2    0    0 -0.89453279546E+02 -0.11406614363E+03 -0.37911207229E+03  0.42469275682E+03  0.12500000000E+03 0.  0.
         25    1    1    2    0    0  0.88591722108E+02  0.11593137405E+03  0.49962851740E+02  0.19851917607E+03  0.12500000000E+03 0.  0.
</event>
<event>
 5    0  0.5452999E-005  0.4723839E+03  0.7546771E-02  0.1021250E+00
         21   -1    0    0  502  501  0.00000000000E+00  0.00000000000E+00  0.16205734226E+03  0.16205734226E+03  0.00000000000E+00 0.  1.
         21   -1    0    0  501  502 -0.00000000000E+00 -0.00000000000E+00 -0.13769605375E+04  0.13769605375E+04  0.00000000000E+00 0.  1.
         25    1    1    2    0    0 -0.59566346431E+02 -0.24758175532E+02 -0.26397591218E+02  0.14311865603E+03  0.12500000000E+03 0.  0.
         25    1    1    2    0    0  0.15278888133E+03 -0.29202609560E+03 -0.40756623259E+03  0.53884962347E+03  0.12500000000E+03 0.  0.
         25    1    1    2    0    0 -0.93222534898E+02  0.31678427113E+03 -0.78093937144E+03  0.85704960026E+03  0.12500000000E+03 0.  0.
</event>
<event>
 5    0  0.5452999E-005  0.3469609E+03  0.7546771E-02  0.1063869E+00
         21   -1    0    0  502  501  0.00000000000E+00  0.00000000000E+00  0.13214340412E+04  0.13214340412E+04  0.00000000000E+00 0.  1.
         21   -1    0    0  501  502 -0.00000000000E+00 -0.00000000000E+00 -0.91099429689E+02  0.91099429689E+02  0.00000000000E+00 0.  1.
         25    1    1    2    0    0 -0.93795496872E+01 -0.70686445392E+02  0.61196070481E+03  0.62865368347E+03  0.12500000000E+03 0.  0.
         25    1    1    2    0    0 -0.48264785944E+02  0.19085834590E+03  0.14047794295E+03  0.27224152920E+03  0.12500000000E+03 0.  0.
         25    1    1    2    0    0  0.57644335631E+02 -0.12017190051E+03  0.47789596371E+03  0.51163825818E+03  0.12500000000E+03 0.  0.
</event>
<event>
 5    0  0.5452999E-005  0.2178812E+03  0.7546771E-02  0.1135473E+00
         21   -1    0    0  502  501  0.00000000000E+00  0.00000000000E+00  0.10436802838E+04  0.10436802838E+04  0.00000000000E+00 0. -1.
         21   -1    0    0  501  502 -0.00000000000E+00 -0.00000000000E+00 -0.45485403551E+02  0.45485403551E+02  0.00000000000E+00 0. -1.
         25    1    1    2    0    0 -0.54524895623E+02 -0.58238811394E+01  0.47356527550E+03  0.49284475445E+03  0.12500000000E+03 0.  0.
         25    1    1    2    0    0  0.73287965577E+02 -0.23465515040E+02  0.34317038925E+03  0.37324612839E+03  0.12500000000E+03 0.  0.
         25    1    1    2    0    0 -0.18763069954E+02  0.29289396180E+02  0.18145921554E+03  0.22307480455E+03  0.12500000000E+03 0.  0.
</event>
<event>
 5    0  0.5452999E-005  0.1958830E+03  0.7546771E-02  0.1153260E+00
         21   -1    0    0  502  501  0.00000000000E+00  0.00000000000E+00  0.90985962662E+03  0.90985962662E+03  0.00000000000E+00 0. -1.
         21   -1    0    0  501  502 -0.00000000000E+00 -0.00000000000E+00 -0.42171520729E+02  0.42171520729E+02  0.00000000000E+00 0. -1.
         25    1    1    2    0    0  0.28580841267E+02 -0.71594324854E+00  0.23625908124E+03  0.26881356091E+03  0.12500000000E+03 0.  0.
         25    1    1    2    0    0 -0.26399030199E+02 -0.10012692444E+02  0.23861539641E+03  0.27084953426E+03  0.12500000000E+03 0.  0.
         25    1    1    2    0    0 -0.21818110679E+01  0.10728635693E+02  0.39281362824E+03  0.41236805217E+03  0.12500000000E+03 0.  0.
</event>
<event>
 5    0  0.5452999E-005  0.4070940E+03  0.7546771E-02  0.1041351E+00
         21   -1    0    0  502  501  0.00000000000E+00  0.00000000000E+00  0.18019594574E+03  0.18019594574E+03  0.00000000000E+00 0. -1.
         21   -1    0    0  501  502 -0.00000000000E+00 -0.00000000000E+00 -0.91969624058E+03  0.91969624058E+03  0.00000000000E+00 0. -1.
         25    1    1    2    0    0 -0.25990180739E+03 -0.13918063975E+03 -0.10767689900E+03  0.33784540036E+03  0.12500000000E+03 0.  0.
         25    1    1    2    0    0  0.98979997978E+02  0.14386663357E+03 -0.39489066530E+03  0.44950893851E+03  0.12500000000E+03 0.  0.
         25    1    1    2    0    0  0.16092180942E+03 -0.46859938197E+01 -0.23693273054E+03  0.31253784745E+03  0.12500000000E+03 0.  0.
</event>
<event>
 5    0  0.5452999E-005  0.3401266E+03  0.7546771E-02  0.1066742E+00
         21   -1    0    0  502  501  0.00000000000E+00  0.00000000000E+00  0.69103297551E+02  0.69103297551E+02  0.00000000000E+00 0. -1.
         21   -1    0    0  501  502 -0.00000000000E+00 -0.00000000000E+00 -0.16741037325E+04  0.16741037325E+04  0.00000000000E+00 0. -1.
         25    1    1    2    0    0 -0.14214471923E+03  0.19720163895E+03 -0.98438251861E+03  0.10216298501E+04  0.12500000000E+03 0.  0.
         25    1    1    2    0    0  0.32318240370E+02 -0.30865943871E+02 -0.23152427183E+03  0.26688136615E+03  0.12500000000E+03 0.  0.
         25    1    1    2    0    0  0.10982647886E+03 -0.16633569508E+03 -0.38909364450E+03  0.45469581382E+03  0.12500000000E+03 0.  0.
</event>
<event>
 5    0  0.5452999E-005  0.4362041E+03  0.7546771E-02  0.1031918E+00
         21   -1    0    0  502  501  0.00000000000E+00  0.00000000000E+00  0.13035526031E+04  0.13035526031E+04  0.00000000000E+00 0.  1.
         21   -1    0    0  501  502 -0.00000000000E+00 -0.00000000000E+00 -0.14596575583E+03  0.14596575583E+03  0.00000000000E+00 0.  1.
         25    1    1    2    0    0 -0.63188729701E+02 -0.10423441350E+03  0.73484761841E+02  0.18942713307E+03  0.12500000000E+03 0.  0.
         25    1    1    2    0    0 -0.18487301931E+03 -0.42767500207E+02  0.81583769630E+03  0.84689033472E+03  0.12500000000E+03 0.  0.
         25    1    1    2    0    0  0.24806174901E+03  0.14700191371E+03  0.26826438908E+03  0.41320089109E+03  0.12500000000E+03 0.  0.
</event>
<event>
 5    0  0.5452999E-005  0.4151399E+03  0.7546771E-02  0.1038660E+00
         21   -1    0    0  502  501  0.00000000000E+00  0.00000000000E+00  0.21228857790E+03  0.21228857790E+03  0.00000000000E+00 0. -1.
         21   -1    0    0  501  502 -0.00000000000E+00 -0.00000000000E+00 -0.81182493079E+03  0.81182493079E+03  0.00000000000E+00 0. -1.
         25    1    1    2    0    0  0.22021381050E+03  0.94384438853E+02 -0.16449284967E+03  0.31636283319E+03  0.12500000000E+03 0.  0.
         25    1    1    2    0    0 -0.27719296607E+03  0.52582786765E+02 -0.11417362379E+03  0.32903116307E+03  0.12500000000E+03 0.  0.
         25    1    1    2    0    0  0.56979155575E+02 -0.14696722562E+03 -0.32086987943E+03  0.37871951244E+03  0.12500000000E+03 0.  0.
</event>
<event>
 5    0  0.5452999E-005  0.2587028E+03  0.7546771E-02  0.1107925E+00
         21   -1    0    0  502  501  0.00000000000E+00  0.00000000000E+00  0.32752128198E+03  0.32752128198E+03  0.00000000000E+00 0. -1.
         21   -1    0    0  501  502 -0.00000000000E+00 -0.00000000000E+00 -0.20434436754E+03  0.20434436754E+03  0.00000000000E+00 0. -1.
         25    1    1    2    0    0 -0.93696806643E+02  0.83594614576E+02 -0.12733045398E+02  0.17763524877E+03  0.12500000000E+03 0.  0.
         25    1    1    2    0    0  0.10836691992E+03 -0.10672289820E+03  0.61744960639E+02  0.20632645613E+03  0.12500000000E+03 0.  0.
         25    1    1    2    0    0 -0.14670113277E+02  0.23128283628E+02  0.74164999205E+02  0.14790394462E+03  0.12500000000E+03 0.  0.
</event>
<event>
 5    0  0.5452999E-005  0.5492907E+03  0.7546771E-02  0.1001658E+00
         21   -1    0    0  502  501  0.00000000000E+00  0.00000000000E+00  0.11696381937E+04  0.11696381937E+04  0.00000000000E+00 0. -1.
         21   -1    0    0  501  502 -0.00000000000E+00 -0.00000000000E+00 -0.25796032787E+03  0.25796032787E+03  0.00000000000E+00 0. -1.
         25    1    1    2    0    0  0.11026261520E+03  0.17844789485E+03 -0.14217786180E+03  0.28256156829E+03  0.12500000000E+03 0.  0.
         25    1    1    2    0    0  0.89371957099E+02 -0.23008000380E+02  0.26461628566E+03  0.30686070689E+03  0.12500000000E+03 0.  0.
         25    1    1    2    0    0 -0.19963457230E+03 -0.15543989447E+03  0.78923944196E+03  0.83817624638E+03  0.12500000000E+03 0.  0.
</event>
<event>
 5    0  0.5452999E-005  0.4117097E+03  0.7546771E-02  0.1039799E+00
         21   -1    0    0  502  501  0.00000000000E+00  0.00000000000E+00  0.81695917801E+03  0.81695917801E+03  0.00000000000E+00 0. -1.
         21   -1    0    0  501  502 -0.00000000000E+00 -0.00000000000E+00 -0.20748265988E+03  0.20748265988E+03  0.00000000000E+00 0. -1.
         25    1    1    2    0    0  0.15757373213E+03  0.57199340574E+02  0.84449225953E+01  0.20927867148E+03  0.12500000000E+03 0.  0.
         25    1    1    2    0    0 -0.10645621374E+03  0.19005602162E+03  0.38698578893E+03  0.46134284175E+03  0.12500000000E+03 0.  0.
         25    1    1    2    0    0 -0.51117518387E+02 -0.24725536219E+03  0.21404580661E+03  0.35382032467E+03  0.12500000000E+03 0.  0.
</event>
<event>
 5    0  0.5576951E-005  0.4017632E+03  0.7546771E-02  0.1043171E+00
         21   -1    0    0  502  501  0.00000000000E+00  0.00000000000E+00  0.45487285766E+03  0.45487285766E+03  0.00000000000E+00 0. -1.
         21   -1    0    0  501  502 -0.00000000000E+00 -0.00000000000E+00 -0.35485448150E+03  0.35485448150E+03  0.00000000000E+00 0. -1.
         25    1    1    2    0    0  0.20208923359E+03  0.13765742566E+03  0.20882030032E+02  0.27541002950E+03  0.12500000000E+03 0.  0.
         25    1    1    2    0    0 -0.12343044738E+03 -0.56163402924E+02 -0.15830837887E+03  0.24305543810E+03  0.12500000000E+03 0.  0.
         25    1    1    2    0    0 -0.78658786209E+02 -0.81494022738E+02  0.23744472500E+03  0.29126187156E+03  0.12500000000E+03 0.  0.
</event>
<event>
 5    0  0.5452999E-005  0.2594215E+03  0.7546771E-02  0.1107491E+00
         21   -1    0    0  502  501  0.00000000000E+00  0.00000000000E+00  0.32269547220E+03  0.32269547220E+03  0.00000000000E+00 0. -1.
         21   -1    0    0  501  502 -0.00000000000E+00 -0.00000000000E+00 -0.20855430408E+03  0.20855430408E+03  0.00000000000E+00 0. -1.
         25    1    1    2    0    0 -0.38194834657E+02 -0.85149017832E+02  0.72192019853E+02  0.17188917465E+03  0.12500000000E+03 0.  0.
         25    1    1    2    0    0 -0.82674448986E+02  0.73610698909E+01 -0.34738289168E+02  0.15401622836E+03  0.12500000000E+03 0.  0.
         25    1    1    2    0    0  0.12086928364E+03  0.77787947941E+02  0.76687437435E+02  0.20534437327E+03  0.12500000000E+03 0.  0.
</event>
<event>
 5    0  0.5452999E-005  0.2924726E+03  0.7546771E-02  0.1089065E+00
         21   -1    0    0  502  501  0.00000000000E+00  0.00000000000E+00  0.29401488529E+03  0.29401488529E+03  0.00000000000E+00 0. -1.
         21   -1    0    0  501  502 -0.00000000000E+00 -0.00000000000E+00 -0.29093834572E+03  0.29093834572E+03  0.00000000000E+00 0. -1.
         25    1    1    2    0    0  0.63542389641E+02  0.11439807504E+03 -0.71416040134E+02  0.19455026508E+03  0.12500000000E+03 0.  0.
         25    1    1    2    0    0  0.88619398761E+02 -0.32791758842E+01  0.57364304563E+02  0.16364539184E+03  0.12500000000E+03 0.  0.
         25    1    1    2    0    0 -0.15216178840E+03 -0.11111889916E+03  0.17128275142E+02  0.22675757410E+03  0.12500000000E+03 0.  0.
</event>
<event>
 5    0  0.5452999E-005  0.3037432E+03  0.7546771E-02  0.1083384E+00
         21   -1    0    0  502  501  0.00000000000E+00  0.00000000000E+00  0.29808094817E+03  0.29808094817E+03  0.00000000000E+00 0.  1.
         21   -1    0    0  501  502 -0.00000000000E+00 -0.00000000000E+00 -0.30951298121E+03  0.30951298121E+03  0.00000000000E+00 0.  1.
         25    1    1    2    0    0  0.10465459308E+03  0.75100214134E+02 -0.98087483427E+02  0.20454530164E+03  0.12500000000E+03 0.  0.
         25    1    1    2    0    0 -0.35767729258E+00 -0.13228880475E+03  0.13177187626E+03  0.22469820464E+03  0.12500000000E+03 0.  0.
         25    1    1    2    0    0 -0.10429691579E+03  0.57188590615E+02 -0.45116425873E+02  0.17835042311E+03  0.12500000000E+03 0.  0.
</event>
<event>
 5    0  0.5452999E-005  0.3979800E+03  0.7546771E-02  0.1044481E+00
         21   -1    0    0  502  501  0.00000000000E+00  0.00000000000E+00  0.68258855411E+03  0.68258855411E+03  0.00000000000E+00 0.  1.
         21   -1    0    0  501  502 -0.00000000000E+00 -0.00000000000E+00 -0.23204038816E+03  0.23204038816E+03  0.00000000000E+00 0.  1.
         25    1    1    2    0    0  0.15048054862E+03 -0.75712868541E+02 -0.61743062086E+02  0.21866421676E+03  0.12500000000E+03 0.  0.
         25    1    1    2    0    0  0.45296612600E+02  0.12825903386E+03  0.38242812637E+03  0.42470982414E+03  0.12500000000E+03 0.  0.
         25    1    1    2    0    0 -0.19577716122E+03 -0.52546165319E+02  0.12986310166E+03  0.27125490137E+03  0.12500000000E+03 0.  0.
</event>
<event>
 5    0  0.8128431E-005  0.5947619E+03  0.7546771E-02  0.9916333E-01
         21   -1    0    0  502  501  0.00000000000E+00  0.00000000000E+00  0.55580959088E+03  0.55580959088E+03  0.00000000000E+00 0. -1.
         21   -1    0    0  501  502 -0.00000000000E+00 -0.00000000000E+00 -0.63644406459E+03  0.63644406459E+03  0.00000000000E+00 0. -1.
         25    1    1    2    0    0 -0.15159658814E+03  0.32815723524E+03 -0.22425345763E+03  0.44337716431E+03  0.12500000000E+03 0.  0.
         25    1    1    2    0    0  0.36934267698E+03 -0.15327290350E+03  0.21774950209E+02  0.41953038560E+03  0.12500000000E+03 0.  0.
         25    1    1    2    0    0 -0.21774608884E+03 -0.17488433174E+03  0.12184403371E+03  0.32934610556E+03  0.12500000000E+03 0.  0.
</event>
<event>
 5    0  0.5452999E-005  0.3307942E+03  0.7546771E-02  0.1070786E+00
         21   -1    0    0  502  501  0.00000000000E+00  0.00000000000E+00  0.75155902681E+03  0.75155902681E+03  0.00000000000E+00 0. -1.
         21   -1    0    0  501  502 -0.00000000000E+00 -0.00000000000E+00 -0.14559708968E+03  0.14559708968E+03  0.00000000000E+00 0. -1.
         25    1    1    2    0    0  0.92869627285E+02 -0.15629748904E+03  0.20426200038E+03  0.30066865076E+03  0.12500000000E+03 0.  0.
         25    1    1    2    0    0 -0.11367988145E+03  0.15684117646E+03  0.40906231688E+03  0.46955217939E+03  0.12500000000E+03 0.  0.
         25    1    1    2    0    0  0.20810254169E+02 -0.54368741976E+00 -0.73623801319E+01  0.12693528633E+03  0.12500000000E+03 0.  0.
</event>
<event>
 5    0  0.5452999E-005  0.4068775E+03  0.7546771E-02  0.1041424E+00
         21   -1    0    0  502  501  0.00000000000E+00  0.00000000000E+00  0.65560712840E+03  0.65560712840E+03  0.00000000000E+00 0. -1.
         21   -1    0    0  501  502 -0.00000000000E+00 -0.00000000000E+00 -0.25251297691E+03  0.25251297691E+03  0.00000000000E+00 0. -1.
         25    1    1    2    0    0 -0.23626895652E+03 -0.68165544696E+02  0.15490764089E+03  0.31637151975E+03  0.12500000000E+03 0.  0.
         25    1    1    2    0    0  0.25455033659E+03  0.16837186570E+03  0.45780078579E+02  0.33296512522E+03  0.12500000000E+03 0.  0.
         25    1    1    2    0    0 -0.18281380065E+02 -0.10020632100E+03  0.20240643203E+03  0.25878346035E+03  0.12500000000E+03 0.  0.
</event>
<event>
 5    0  0.5452999E-005  0.2480193E+03  0.7546771E-02  0.1114563E+00
         21   -1    0    0  502  501  0.00000000000E+00  0.00000000000E+00  0.30805698173E+03  0.30805698173E+03  0.00000000000E+00 0.  1.
         21   -1    0    0  501  502 -0.00000000000E+00 -0.00000000000E+00 -0.19968245451E+03  0.19968245451E+03  0.00000000000E+00 0.  1.
         25    1    1    2    0    0  0.71667924658E+01  0.41094290010E+02  0.72417499426E+01  0.13197555277E+03  0.12500000000E+03 0.  0.
         25    1    1    2    0    0  0.11007931288E+03 -0.53793286663E+02  0.10454797524E+03  0.20387852251E+03  0.12500000000E+03 0.  0.
         25    1    1    2    0    0 -0.11724610535E+03  0.12698996653E+02 -0.34151979640E+01  0.17188536096E+03  0.12500000000E+03 0.  0.
</event>
<event>
 5    0  0.5452999E-005  0.4173458E+03  0.7546771E-02  0.1037934E+00
         21   -1    0    0  502  501  0.00000000000E+00  0.00000000000E+00  0.85705705437E+03  0.85705705437E+03  0.00000000000E+00 0. -1.
         21   -1    0    0  501  502 -0.00000000000E+00 -0.00000000000E+00 -0.20322740769E+03  0.20322740769E+03  0.00000000000E+00 0. -1.
         25    1    1    2    0    0  0.36459700858E+02 -0.33642727112E+02  0.24800347513E+03  0.28212030510E+03  0.12500000000E+03 0.  0.
         25    1    1    2    0    0 -0.16346895114E+03 -0.41228474276E+02  0.51503441207E+03  0.55615405302E+03  0.12500000000E+03 0.  0.
         25    1    1    2    0    0  0.12700925029E+03  0.74871201388E+02 -0.10920824051E+03  0.22201010394E+03  0.12500000000E+03 0.  0.
</event>
<event>
 5    0  0.5452999E-005  0.3345719E+03  0.7546771E-02  0.1069132E+00
         21   -1    0    0  502  501  0.00000000000E+00  0.00000000000E+00  0.10539314817E+04  0.10539314817E+04  0.00000000000E+00 0. -1.
         21   -1    0    0  501  502 -0.00000000000E+00 -0.00000000000E+00 -0.10621025995E+03  0.10621025995E+03  0.00000000000E+00 0. -1.
         25    1    1    2    0    0 -0.12596484212E+03 -0.16499650453E+03  0.25939592338E+03  0.35496793238E+03  0.12500000000E+03 0.  0.
         25    1    1    2    0    0 -0.30601688021E+02  0.17467712386E+03  0.34506554610E+03  0.40760739936E+03  0.12500000000E+03 0.  0.
         25    1    1    2    0    0  0.15656653014E+03 -0.96806193289E+01  0.34325975230E+03  0.39756640992E+03  0.12500000000E+03 0.  0.
</event>
<event>
 5    0  0.5719951E-005  0.4027209E+03  0.7546771E-02  0.1042842E+00
         21   -1    0    0  502  501  0.00000000000E+00  0.00000000000E+00  0.72888626982E+03  0.72888626982E+03  0.00000000000E+00 0. -1.
         21   -1    0    0  501  502 -0.00000000000E+00 -0.00000000000E+00 -0.22250947938E+03  0.22250947938E+03  0.00000000000E+00 0. -1.
         25    1    1    2    0    0  0.44394101548E+02 -0.68433856640E+02  0.33246458359E+03  0.36443343471E+03  0.12500000000E+03 0.  0.
         25    1    1    2    0    0  0.43779081430E+02 -0.20173567316E+03  0.24971291966E+02  0.24261585937E+03  0.12500000000E+03 0.  0.
         25    1    1    2    0    0 -0.88173182978E+02  0.27016952980E+03  0.14894091488E+03  0.34434645512E+03  0.12500000000E+03 0.  0.
</event>
<event>
 5    0  0.5452999E-005  0.3622418E+03  0.7546771E-02  0.1057700E+00
         21   -1    0    0  502  501  0.00000000000E+00  0.00000000000E+00  0.15276957329E+04  0.15276957329E+04  0.00000000000E+00 0. -1.
         21   -1    0    0  501  502 -0.00000000000E+00 -0.00000000000E+00 -0.85893483669E+02  0.85893483669E+02  0.00000000000E+00 0. -1.
         25    1    1    2    0    0  0.11907566057E+02 -0.42793529494E+02  0.17143887076E+03  0.21677029941E+03  0.12500000000E+03 0.  0.
         25    1    1    2    0    0 -0.72294466903E+02  0.21014548928E+03  0.10739602321E+04  0.11038130262E+04  0.12500000000E+03 0.  0.
         25    1    1    2    0    0  0.60386900847E+02 -0.16735195979E+03  0.19640314629E+03  0.29300589092E+03  0.12500000000E+03 0.  0.
</event>
<event>
 5    0  0.5452999E-005  0.2654064E+03  0.7546771E-02  0.1103938E+00
         21   -1    0    0  502  501  0.00000000000E+00  0.00000000000E+00  0.48879964434E+03  0.48879964434E+03  0.00000000000E+00 0. -1.
         21   -1    0    0  501  502 -0.00000000000E+00 -0.00000000000E+00 -0.14410923180E+03  0.14410923180E+03  0.00000000000E+00 0. -1.
         25    1    1    2    0    0 -0.40732964354E+02 -0.61189571148E+02  0.49541069526E+02  0.15324051544E+03  0.12500000000E+03 0.  0.
         25    1    1    2    0    0  0.81463591542E+02  0.15571832169E+03  0.15599611723E+03  0.26616592766E+03  0.12500000000E+03 0.  0.
         25    1    1    2    0    0 -0.40730627189E+02 -0.94528750538E+02  0.13915322578E+03  0.21350243304E+03  0.12500000000E+03 0.  0.
</event>
<event>
 5    0  0.5452999E-005  0.3659636E+03  0.7546771E-02  0.1056247E+00
         21   -1    0    0  502  501  0.00000000000E+00  0.00000000000E+00  0.99937885387E+03  0.99937885387E+03  0.00000000000E+00 0.  1.
         21   -1    0    0  501  502 -0.00000000000E+00 -0.00000000000E+00 -0.13401258154E+03  0.13401258154E+03  0.00000000000E+00 0.  1.
         25    1    1    2    0    0  0.11339574863E+03 -0.28212139636E+02  0.18650346146E+03  0.25310681889E+03  0.12500000000E+03 0.  0.
         25    1    1    2    0    0 -0.23246856776E+03 -0.11316376894E+03  0.55543571951E+03  0.62528514464E+03  0.12500000000E+03 0.  0.
         25    1    1    2    0    0  0.11907281914E+03  0.14137590857E+03  0.12342709136E+03  0.25499947189E+03  0.12500000000E+03 0.  0.
</event>
<event>
 5    0  0.5452999E-005  0.4904521E+03  0.7546771E-02  0.1016302E+00
         21   -1    0    0  502  501  0.00000000000E+00  0.00000000000E+00  0.30325519394E+03  0.30325519394E+03  0.00000000000E+00 0. -1.
         21   -1    0    0  501  502 -0.00000000000E+00 -0.00000000000E+00 -0.79320420655E+03  0.79320420655E+03  0.00000000000E+00 0. -1.
         25    1    1    2    0    0 -0.96887916674E+02 -0.28533037636E+03 -0.38975540627E+03  0.50826663159E+03  0.12500000000E+03 0.  0.
         25    1    1    2    0    0 -0.51866867123E+02  0.34395927669E+03 -0.20632028955E+02  0.37020107583E+03  0.12500000000E+03 0.  0.
         25    1    1    2    0    0  0.14875478380E+03 -0.58628900328E+02 -0.79561577392E+02  0.21799169308E+03  0.12500000000E+03 0.  0.
</event>
<event>
 5    0  0.5452999E-005  0.3452726E+03  0.7546771E-02  0.1064572E+00
         21   -1    0    0  502  501  0.00000000000E+00  0.00000000000E+00  0.22818816145E+03  0.22818816145E+03  0.00000000000E+00 0.  1.
         21   -1    0    0  501  502 -0.00000000000E+00 -0.00000000000E+00 -0.52243354537E+03  0.52243354537E+03  0.00000000000E+00 0.  1.
         25    1    1    2    0    0  0.10966266899E+02 -0.11243683430E+03  0.10905002940E+03  0.20069681021E+03  0.12500000000E+03 0.  0.
         25    1    1    2    0    0 -0.61502130923E+01 -0.66824795695E+02 -0.23312984923E+03  0.27290640344E+03  0.12500000000E+03 0.  0.
         25    1    1    2    0    0 -0.48160538067E+01  0.17926162999E+03 -0.17016556409E+03  0.27701849318E+03  0.12500000000E+03 0.  0.
</event>
<event>
 5    0  0.5452999E-005  0.4008342E+03  0.7546771E-02  0.1043491E+00
         21   -1    0    0  502  501  0.00000000000E+00  0.00000000000E+00  0.23245519580E+03  0.23245519580E+03  0.00000000000E+00 0.  1.
         21   -1    0    0  501  502 -0.00000000000E+00 -0.00000000000E+00 -0.69117845871E+03  0.69117845871E+03  0.00000000000E+00 0.  1.
         25    1    1    2    0    0  0.24595934960E+03  0.16515320587E+03 -0.21268772477E+03  0.38552905381E+03  0.12500000000E+03 0.  0.
         25    1    1    2    0    0 -0.45103719715E+02 -0.18265134151E+03 -0.18801964470E+03  0.29389155292E+03  0.12500000000E+03 0.  0.
         25    1    1    2    0    0 -0.20085562989E+03  0.17498135640E+02 -0.58015893445E+02  0.24421304777E+03  0.12500000000E+03 0.  0.
</event>
<event>
 5    0  0.5452999E-005  0.3782783E+03  0.7546771E-02  0.1051572E+00
         21   -1    0    0  502  501  0.00000000000E+00  0.00000000000E+00  0.99626647247E+03  0.99626647247E+03  0.00000000000E+00 0. -1.
         21   -1    0    0  501  502 -0.00000000000E+00 -0.00000000000E+00 -0.14363068892E+03  0.14363068892E+03  0.00000000000E+00 0. -1.
         25    1    1    2    0    0 -0.14278626238E+03  0.25834908729E+02  0.62855615850E+03  0.65708690720E+03  0.12500000000E+03 0.  0.
         25    1    1    2    0    0  0.67417248834E+01 -0.35482929702E+02  0.26330091444E+03  0.29369518331E+03  0.12500000000E+03 0.  0.
         25    1    1    2    0    0  0.13604453750E+03  0.96480209730E+01 -0.39221289385E+02  0.18911507088E+03  0.12500000000E+03 0.  0.
</event>
<event>
 5    0  0.5452999E-005  0.3607046E+03  0.7546771E-02  0.1058305E+00
         21   -1    0    0  502  501  0.00000000000E+00  0.00000000000E+00  0.11621374288E+04  0.11621374288E+04  0.00000000000E+00 0. -1.
         21   -1    0    0  501  502 -0.00000000000E+00 -0.00000000000E+00 -0.11195563266E+03  0.11195563266E+03  0.00000000000E+00 0. -1.
         25    1    1    2    0    0  0.12796728884E+03  0.47669841475E+02  0.19560412798E+03  0.26932139849E+03  0.12500000000E+03 0.  0.
         25    1    1    2    0    0 -0.35183169467E+02 -0.12331648016E+03  0.55968954968E+02  0.18762284939E+03  0.12500000000E+03 0.  0.
         25    1    1    2    0    0 -0.92784119371E+02  0.75646638683E+02  0.79860871324E+03  0.81714881363E+03  0.12500000000E+03 0.  0.
</event>
<event>
 5    0  0.5452999E-005  0.2451234E+03  0.7546771E-02  0.1116426E+00
         21   -1    0    0  502  501  0.00000000000E+00  0.00000000000E+00  0.10193584004E+03  0.10193584004E+03  0.00000000000E+00 0. -1.
         21   -1    0    0  501  502 -0.00000000000E+00 -0.00000000000E+00 -0.58944425889E+03  0.58944425889E+03  0.00000000000E+00 0. -1.
         25    1    1    2    0    0 -0.28390139574E+02  0.37064356562E+02 -0.14076916845E+03  0.19396062832E+03  0.12500000000E+03 0.  0.
         25    1    1    2    0    0  0.78704496658E+02  0.33593854821E+02 -0.30356606585E+03  0.33926435299E+03  0.12500000000E+03 0.  0.
         25    1    1    2    0    0 -0.50314357084E+02 -0.70658211382E+02 -0.43173184546E+02  0.15815511762E+03  0.12500000000E+03 0.  0.
</event>
<event>
 5    0  0.5452999E-005  0.4103344E+03  0.7546771E-02  0.1040259E+00
         21   -1    0    0  502  501  0.00000000000E+00  0.00000000000E+00  0.15888753616E+04  0.15888753616E+04  0.00000000000E+00 0. -1.
         21   -1    0    0  501  502 -0.00000000000E+00 -0.00000000000E+00 -0.10597074485E+03  0.10597074485E+03  0.00000000000E+00 0. -1.
         25    1    1    2    0    0 -0.52749058286E+02 -0.25342495942E+02  0.29171955947E+03  0.32272280153E+03  0.12500000000E+03 0.  0.
         25    1    1    2    0    0  0.66712097994E+02 -0.24480575315E+03  0.22620539983E+03  0.36217984995E+03  0.12500000000E+03 0.  0.
         25    1    1    2    0    0 -0.13963039707E+02  0.27014824909E+03  0.96497965742E+03  0.10099434550E+04  0.12500000000E+03 0.  0.
</event>
<event>
 5    0  0.5452999E-005  0.2855333E+03  0.7546771E-02  0.1092705E+00
         21   -1    0    0  502  501  0.00000000000E+00  0.00000000000E+00  0.71232303784E+02  0.71232303784E+02  0.00000000000E+00 0. -1.
         21   -1    0    0  501  502 -0.00000000000E+00 -0.00000000000E+00 -0.11445547336E+04  0.11445547336E+04  0.00000000000E+00 0. -1.
         25    1    1    2    0    0  0.31484132193E+02  0.18065303545E+03 -0.30191261847E+03  0.37470388173E+03  0.12500000000E+03 0.  0.
         25    1    1    2    0    0 -0.41899294136E+02 -0.16105692483E+03 -0.46941865371E+03  0.51349172957E+03  0.12500000000E+03 0.  0.
         25    1    1    2    0    0  0.10415161943E+02 -0.19596110616E+02 -0.30199115765E+03  0.32759142609E+03  0.12500000000E+03 0.  0.
</event>
<event>
 5    0  0.5452999E-005  0.3343809E+03  0.7546771E-02  0.1069215E+00
         21   -1    0    0  502  501  0.00000000000E+00  0.00000000000E+00  0.11378230573E+03  0.11378230573E+03  0.00000000000E+00 0.  1.
         21   -1    0    0  501  502 -0.00000000000E+00 -0.00000000000E+00 -0.98267110494E+03  0.98267110494E+03  0.00000000000E+00 0.  1.
         25    1    1    2    0    0  0.14584869895E+03  0.33729874282E+02 -0.94316432235E+02  0.21663364649E+03  0.12500000000E+03 0.  0.
         25    1    1    2    0    0 -0.26375838599E+02 -0.39813574262E+02 -0.65734576506E+03  0.67082729551E+03  0.12500000000E+03 0.  0.
         25    1    1    2    0    0 -0.11947286035E+03  0.60836999807E+01 -0.11722660191E+03  0.20899246867E+03  0.12500000000E+03 0.  0.
</event>
<event>
 5    0  0.5452999E-005  0.2788142E+03  0.7546771E-02  0.1096338E+00
         21   -1    0    0  502  501  0.00000000000E+00  0.00000000000E+00  0.13878815185E+04  0.13878815185E+04  0.00000000000E+00 0.  1.
         21   -1    0    0  501  502 -0.00000000000E+00 -0.00000000000E+00 -0.56011514372E+02  0.56011514372E+02  0.00000000000E+00 0.  1.
         25    1    1    2    0    0  0.65300364571E+01  0.73182590107E+02  0.24220658279E+03  0.28228949966E+03  0.12500000000E+03 0.  0.
         25    1    1    2    0    0  0.35751603279E+02 -0.79778662661E+02  0.97440772724E+03  0.98627492671E+03  0.12500000000E+03 0.  0.
         25    1    1    2    0    0 -0.42281639736E+02  0.65960725540E+01  0.11525569407E+03  0.17532860647E+03  0.12500000000E+03 0.  0.
</event>
<event>
 5    0  0.5452999E-005  0.3774064E+03  0.7546771E-02  0.1051897E+00
         21   -1    0    0  502  501  0.00000000000E+00  0.00000000000E+00  0.18240999764E+03  0.18240999764E+03  0.00000000000E+00 0.  1.
         21   -1    0    0  501  502 -0.00000000000E+00 -0.00000000000E+00 -0.78085398862E+03  0.78085398862E+03  0.00000000000E+00 0.  1.
         25    1    1    2    0    0  0.89225896548E+02  0.45956213048E+02 -0.66436444797E+02  0.17352819751E+03  0.12500000000E+03 0.  0.
         25    1    1    2    0    0 -0.11876502580E+03 -0.27042111448E+03 -0.24639886008E+03  0.40443801597E+03  0.12500000000E+03 0.  0.
         25    1    1    2    0    0  0.29539129248E+02  0.22446490143E+03 -0.28560868610E+03  0.38529777278E+03  0.12500000000E+03 0.  0.
</event>
<event>
 5    0  0.5771574E-005  0.2795411E+03  0.7546771E-02  0.1095940E+00
         21   -1    0    0  502  501  0.00000000000E+00  0.00000000000E+00  0.19842206532E+03  0.19842206532E+03  0.00000000000E+00 0.  1.
         21   -1    0    0  501  502 -0.00000000000E+00 -0.00000000000E+00 -0.39382324790E+03  0.39382324790E+03  0.00000000000E+00 0.  1.
         25    1    1    2    0    0  0.93738957297E+02 -0.17542925008E+02 -0.10824619979E+03  0.19088474560E+03  0.12500000000E+03 0.  0.
         25    1    1    2    0    0 -0.51318735761E+02  0.74153934019E+02  0.85909524365E+02  0.17645924444E+03  0.12500000000E+03 0.  0.
         25    1    1    2    0    0 -0.42420221536E+02 -0.56611009010E+02 -0.17306450715E+03  0.22490132319E+03  0.12500000000E+03 0.  0.
</event>
<event>
 5    0  0.5452999E-005  0.2852107E+03  0.7546771E-02  0.1092877E+00
         21   -1    0    0  502  501  0.00000000000E+00  0.00000000000E+00  0.30703310203E+03  0.30703310203E+03  0.00000000000E+00 0. -1.
         21   -1    0    0  501  502 -0.00000000000E+00 -0.00000000000E+00 -0.26493929441E+03  0.26493929441E+03  0.00000000000E+00 0. -1.
         25    1    1    2    0    0  0.39267979185E+02 -0.37463029558E+02  0.12801352666E+03  0.18697036070E+03  0.12500000000E+03 0.  0.
         25    1    1    2    0    0  0.94172904298E+00 -0.11443302865E+03 -0.81026658214E+01  0.16966572457E+03  0.12500000000E+03 0.  0.
         25    1    1    2    0    0 -0.40209708228E+02  0.15189605821E+03 -0.77817053218E+02  0.21533631117E+03  0.12500000000E+03 0.  0.
</event>
<event>
 5    0  0.5452999E-005  0.2207330E+03  0.7546771E-02  0.1133338E+00
         21   -1    0    0  502  501  0.00000000000E+00  0.00000000000E+00  0.70876413678E+03  0.70876413678E+03  0.00000000000E+00 0.  1.
         21   -1    0    0  501  502 -0.00000000000E+00 -0.00000000000E+00 -0.68743661038E+02  0.68743661038E+02  0.00000000000E+00 0.  1.
         25    1    1    2    0    0  0.30621094684E+02  0.54350421826E+02  0.30625013407E+03  0.33660921617E+03  0.12500000000E+03 0.  0.
         25    1    1    2    0    0  0.27271494251E+02 -0.75098654198E+02  0.18395445207E+03  0.23632135472E+03  0.12500000000E+03 0.  0.
         25    1    1    2    0    0 -0.57892588934E+02  0.20748232373E+02  0.14981588960E+03  0.20457722693E+03  0.12500000000E+03 0.  0.
</event>
<event>
 5    0  0.5452999E-005  0.2736000E+03  0.7546771E-02  0.1099237E+00
         21   -1    0    0  502  501  0.00000000000E+00  0.00000000000E+00  0.35324731339E+03  0.35324731339E+03  0.00000000000E+00 0.  1.
         21   -1    0    0  501  502 -0.00000000000E+00 -0.00000000000E+00 -0.21191089932E+03  0.21191089932E+03  0.00000000000E+00 0.  1.
         25    1    1    2    0    0 -0.12117493778E+03  0.41287089158E+02 -0.18136148105E+02  0.17983856412E+03  0.12500000000E+03 0.  0.
         25    1    1    2    0    0  0.11310054891E+03  0.26034593858E+02  0.17240879821E+03  0.24252696333E+03  0.12500000000E+03 0.  0.
         25    1    1    2    0    0  0.80743888780E+01 -0.67321683016E+02 -0.12936236042E+02  0.14279268526E+03  0.12500000000E+03 0.  0.
</event>
<event>
 5    0  0.5452999E-005  0.3942785E+03  0.7546771E-02  0.1045779E+00
         21   -1    0    0  502  501  0.00000000000E+00  0.00000000000E+00  0.24375307631E+03  0.24375307631E+03  0.00000000000E+00 0.  1.
         21   -1    0    0  501  502 -0.00000000000E+00 -0.00000000000E+00 -0.63775828459E+03  0.63775828459E+03  0.00000000000E+00 0.  1.
         25    1    1    2    0    0  0.35333602703E+02  0.12482810693E+03 -0.57010765677E+02  0.18895964427E+03  0.12500000000E+03 0.  0.
         25    1    1    2    0    0  0.10118674625E+03  0.17658185294E+03 -0.20586386050E+03  0.31531704277E+03  0.12500000000E+03 0.  0.
         25    1    1    2    0    0 -0.13652034895E+03 -0.30140995988E+03 -0.13113058210E+03  0.37723467385E+03  0.12500000000E+03 0.  0.
</event>
<event>
 5    0  0.5452999E-005  0.3161407E+03  0.7546771E-02  0.1077439E+00
         21   -1    0    0  502  501  0.00000000000E+00  0.00000000000E+00  0.80433837335E+02  0.80433837335E+02  0.00000000000E+00 0. -1.
         21   -1    0    0  501  502 -0.00000000000E+00 -0.00000000000E+00 -0.12425732794E+04  0.12425732794E+04  0.00000000000E+00 0. -1.
         25    1    1    2    0    0  0.16065993384E+03  0.38901846341E+02 -0.30389118442E+03  0.36783123843E+03  0.12500000000E+03 0.  0.
         25    1    1    2    0    0 -0.92908148492E+02  0.35365911502E+02 -0.73697830872E+03  0.75408533952E+03  0.12500000000E+03 0.  0.
         25    1    1    2    0    0 -0.67751785352E+02 -0.74267757843E+02 -0.12126994888E+03  0.20109053875E+03  0.12500000000E+03 0.  0.
</event>
<event>
 5    0  0.5452999E-005  0.2586620E+03  0.7546771E-02  0.1107950E+00
         21   -1    0    0  502  501  0.00000000000E+00  0.00000000000E+00  0.13225358288E+04  0.13225358288E+04  0.00000000000E+00 0.  1.
         21   -1    0    0  501  502 -0.00000000000E+00 -0.00000000000E+00 -0.50589208659E+02  0.50589208659E+02  0.00000000000E+00 0.  1.
         25    1    1    2    0    0  0.35215757150E+02  0.19477106527E+02  0.14968233426E+03  0.19912134095E+03  0.12500000000E+03 0.  0.
         25    1    1    2    0    0  0.67922456080E+02 -0.67276809971E+02  0.35436173614E+03  0.38773298704E+03  0.12500000000E+03 0.  0.
         25    1    1    2    0    0 -0.10313821323E+03  0.47799703444E+02  0.76790254978E+03  0.78627070952E+03  0.12500000000E+03 0.  0.
</event>
<event>
 5    0  0.5452999E-005  0.3179812E+03  0.7546771E-02  0.1076582E+00
         21   -1    0    0  502  501  0.00000000000E+00  0.00000000000E+00  0.81919895342E+03  0.81919895342E+03  0.00000000000E+00 0.  1.
         21   -1    0    0  501  502 -0.00000000000E+00 -0.00000000000E+00 -0.12342791469E+03  0.12342791469E+03  0.00000000000E+00 0.  1.
         25    1    1    2    0    0 -0.20718268394E+02 -0.93733533770E+02  0.18540178643E+03  0.24333936059E+03  0.12500000000E+03 0.  0.
         25    1    1    2    0    0  0.19448047505E+03  0.11491921507E+03  0.22887183301E+03  0.34501651716E+03  0.12500000000E+03 0.  0.
         25    1    1    2    0    0 -0.17376220665E+03 -0.21185681303E+02  0.28149741928E+03  0.35427099037E+03  0.12500000000E+03 0.  0.
</event>
<event>
 5    0  0.5452999E-005  0.3666569E+03  0.7546771E-02  0.1055979E+00
         21   -1    0    0  502  501  0.00000000000E+00  0.00000000000E+00  0.60669225702E+03  0.60669225702E+03  0.00000000000E+00 0. -1.
         21   -1    0    0  501  502 -0.00000000000E+00 -0.00000000000E+00 -0.22159058628E+03  0.22159058628E+03  0.00000000000E+00 0. -1.
         25    1    1    2    0    0  0.18186007966E+03 -0.49049892967E+02 -0.52228027092E+01  0.22612221970E+03  0.12500000000E+03 0.  0.
         25    1    1    2    0    0 -0.23008138503E+02  0.14281890833E+03  0.53904448063E+02  0.19863862800E+03  0.12500000000E+03 0.  0.
         25    1    1    2    0    0 -0.15885194116E+03 -0.93769015360E+02  0.33642002538E+03  0.40352199559E+03  0.12500000000E+03 0.  0.
</event>
<event>
 5    0  0.5452999E-005  0.3318605E+03  0.7546771E-02  0.1070317E+00
         21   -1    0    0  502  501  0.00000000000E+00  0.00000000000E+00  0.25240808181E+03  0.25240808181E+03  0.00000000000E+00 0. -1.
         21   -1    0    0  501  502 -0.00000000000E+00 -0.00000000000E+00 -0.43632265429E+03  0.43632265429E+03  0.00000000000E+00 0. -1.
         25    1    1    2    0    0  0.98762307151E+02  0.14993523179E+03 -0.28383280606E+02  0.22060185327E+03  0.12500000000E+03 0.  0.
         25    1    1    2    0    0 -0.56258102877E+02  0.61165681069E+02 -0.15961417580E+03  0.21910705100E+03  0.12500000000E+03 0.  0.
         25    1    1    2    0    0 -0.42504204273E+02 -0.21110091286E+03  0.40828839198E+01  0.24902183184E+03  0.12500000000E+03 0.  0.
</event>
<event>
 5    0  0.5452999E-005  0.3130480E+03  0.7546771E-02  0.1078894E+00
         21   -1    0    0  502  501  0.00000000000E+00  0.00000000000E+00  0.80902499634E+03  0.80902499634E+03  0.00000000000E+00 0.  1.
         21   -1    0    0  501  502 -0.00000000000E+00 -0.00000000000E+00 -0.12113231328E+03  0.12113231328E+03  0.00000000000E+00 0.  1.
         25    1    1    2    0    0 -0.29917980741E+02 -0.69665835316E+02  0.44781901607E+00  0.14619717755E+03  0.12500000000E+03 0.  0.
         25    1    1    2    0    0  0.25906095969E+02  0.72960385366E+01  0.60186160224E+02  0.14132137796E+03  0.12500000000E+03 0.  0.
         25    1    1    2    0    0  0.40118847715E+01  0.62369796779E+02  0.62725870381E+03  0.64263875411E+03  0.12500000000E+03 0.  0.
</event>
<event>
 5    0  0.5452999E-005  0.3816340E+03  0.7546771E-02  0.1050331E+00
         21   -1    0    0  502  501  0.00000000000E+00  0.00000000000E+00  0.67830849603E+03  0.67830849603E+03  0.00000000000E+00 0.  1.
         21   -1    0    0  501  502 -0.00000000000E+00 -0.00000000000E+00 -0.21471724162E+03  0.21471724162E+03  0.00000000000E+00 0.  1.
         25    1    1    2    0    0  0.63590514188E+02  0.16265430840E+02  0.15417237408E+02  0.14202467724E+03  0.12500000000E+03 0.  0.
         25    1    1    2    0    0 -0.22408450394E+03 -0.18287923810E+03  0.13695734627E+03  0.34357094658E+03  0.12500000000E+03 0.  0.
         25    1    1    2    0    0  0.16049398975E+03  0.16661380726E+03  0.31121667073E+03  0.40743011383E+03  0.12500000000E+03 0.  0.
</event>
<event>
 5    0  0.5452999E-005  0.3327743E+03  0.7546771E-02  0.1069916E+00
         21   -1    0    0  502  501  0.00000000000E+00  0.00000000000E+00  0.28341733701E+03  0.28341733701E+03  0.00000000000E+00 0.  1.
         21   -1    0    0  501  502 -0.00000000000E+00 -0.00000000000E+00 -0.39072668461E+03  0.39072668461E+03  0.00000000000E+00 0.  1.
         25    1    1    2    0    0  0.41515873910E+02 -0.47452576379E+02 -0.17662520214E+03  0.22538140301E+03  0.12500000000E+03 0.  0.
         25    1    1    2    0    0 -0.48984829944E+02  0.19781030881E+03 -0.58733677606E+01  0.23913997634E+03  0.12500000000E+03 0.  0.
         25    1    1    2    0    0  0.74689560337E+01 -0.15035773243E+03  0.75189222298E+02  0.20962264228E+03  0.12500000000E+03 0.  0.
</event>
<event>
 5    0  0.5452999E-005  0.2408267E+03  0.7546771E-02  0.1119243E+00
         21   -1    0    0  502  501  0.00000000000E+00  0.00000000000E+00  0.14121252042E+03  0.14121252042E+03  0.00000000000E+00 0.  1.
         21   -1    0    0  501  502 -0.00000000000E+00 -0.00000000000E+00 -0.41071072457E+03  0.41071072457E+03  0.00000000000E+00 0.  1.
         25    1    1    2    0    0  0.73697588297E+02 -0.73924308508E+02 -0.56074116668E+02  0.17223659445E+03  0.12500000000E+03 0.  0.
         25    1    1    2    0    0 -0.79244804602E+02  0.72842286296E+02 -0.47097573085E+02  0.17154859113E+03  0.12500000000E+03 0.  0.
         25    1    1    2    0    0  0.55472163045E+01  0.10820222116E+01 -0.16632651439E+03  0.20813805940E+03  0.12500000000E+03 0.  0.
</event>
<event>
 5    0  0.5452999E-005  0.4777959E+03  0.7546771E-02  0.1019743E+00
         21   -1    0    0  502  501  0.00000000000E+00  0.00000000000E+00  0.38652300985E+03  0.38652300985E+03  0.00000000000E+00 0. -1.
         21   -1    0    0  501  502 -0.00000000000E+00 -0.00000000000E+00 -0.59062175374E+03  0.59062175374E+03  0.00000000000E+00 0. -1.
         25    1    1    2    0    0  0.27921154577E+03  0.26425283735E+02  0.12792598027E+03  0.33263709856E+03  0.12500000000E+03 0.  0.
         25    1    1    2    0    0  0.78660059091E+01 -0.16469503694E+03 -0.15921087205E+03  0.26107361226E+03  0.12500000000E+03 0.  0.
         25    1    1    2    0    0 -0.28707755168E+03  0.13826975321E+03 -0.17281385212E+03  0.38343405276E+03  0.12500000000E+03 0.  0.
</event>
<event>
 5    0  0.5452999E-005  0.2365855E+03  0.7546771E-02  0.1122089E+00
         21   -1    0    0  502  501  0.00000000000E+00  0.00000000000E+00  0.10244883368E+03  0.10244883368E+03  0.00000000000E+00 0. -1.
         21   -1    0    0  501  502 -0.00000000000E+00 -0.00000000000E+00 -0.54634786383E+03  0.54634786383E+03  0.00000000000E+00 0. -1.
         25    1    1    2    0    0 -0.84291091455E+02 -0.35699134667E+02 -0.22058874122E+03  0.26956225453E+03  0.12500000000E+03 0.  0.
         25    1    1    2    0    0  0.94650275491E+02 -0.21635500597E+02 -0.16751835728E+03  0.23046511571E+03  0.12500000000E+03 0.  0.
         25    1    1    2    0    0 -0.10359184036E+02  0.57334635264E+02 -0.55791931653E+02  0.14876932726E+03  0.12500000000E+03 0.  0.
</event>
<event>
 5    0  0.5452999E-005  0.4107247E+03  0.7546771E-02  0.1040128E+00
         21   -1    0    0  502  501  0.00000000000E+00  0.00000000000E+00  0.46831556123E+03  0.46831556123E+03  0.00000000000E+00 0. -1.
         21   -1    0    0  501  502 -0.00000000000E+00 -0.00000000000E+00 -0.36021596435E+03  0.36021596435E+03  0.00000000000E+00 0. -1.
         25    1    1    2    0    0  0.33836122191E+02  0.25207826265E+03 -0.19457501053E+03  0.34376266288E+03  0.12500000000E+03 0.  0.
         25    1    1    2    0    0 -0.24095276792E+02 -0.87403423138E+02  0.59613893227E+02  0.16552569893E+03  0.12500000000E+03 0.  0.
         25    1    1    2    0    0 -0.97408453989E+01 -0.16467483951E+03  0.24306071419E+03  0.31924316378E+03  0.12500000000E+03 0.  0.
</event>
<event>
 5    0  0.5452999E-005  0.3664149E+03  0.7546771E-02  0.1056072E+00
         21   -1    0    0  502  501  0.00000000000E+00  0.00000000000E+00  0.18380549852E+04  0.18380549852E+04  0.00000000000E+00 0. -1.
         21   -1    0    0  501  502 -0.00000000000E+00 -0.00000000000E+00 -0.73044535518E+02  0.73044535518E+02  0.00000000000E+00 0. -1.
         25    1    1    2    0    0  0.14947979023E+03 -0.60428258863E+02  0.27528765595E+03  0.34264278144E+03  0.12500000000E+03 0.  0.
         25    1    1    2    0    0 -0.21607184746E+03  0.65337805910E+02  0.13305449768E+04  0.13553342788E+04  0.12500000000E+03 0.  0.
         25    1    1    2    0    0  0.66592057229E+02 -0.49095470470E+01  0.15917781696E+03  0.21312246046E+03  0.12500000000E+03 0.  0.
</event>
<event>
 5    0  0.5452999E-005  0.3124210E+03  0.7546771E-02  0.1079191E+00
         21   -1    0    0  502  501  0.00000000000E+00  0.00000000000E+00  0.29275912149E+03  0.29275912149E+03  0.00000000000E+00 0.  1.
         21   -1    0    0  501  502 -0.00000000000E+00 -0.00000000000E+00 -0.33340327956E+03  0.33340327956E+03  0.00000000000E+00 0.  1.
         25    1    1    2    0    0 -0.99882441944E+02 -0.75129592352E+01 -0.12463859217E+03  0.20295991088E+03  0.12500000000E+03 0.  0.
         25    1    1    2    0    0 -0.49151850286E+02  0.65170505683E+02  0.14824423517E+03  0.21039118912E+03  0.12500000000E+03 0.  0.
         25    1    1    2    0    0  0.14903429223E+03 -0.57657546448E+02 -0.64249801063E+02  0.21281130106E+03  0.12500000000E+03 0.  0.
</event>
<event>
 5    0  0.5452999E-005  0.3386425E+03  0.7546771E-02  0.1067376E+00
         21   -1    0    0  502  501  0.00000000000E+00  0.00000000000E+00  0.72213883930E+03  0.72213883930E+03  0.00000000000E+00 0. -1.
         21   -1    0    0  501  502 -0.00000000000E+00 -0.00000000000E+00 -0.15880425486E+03  0.15880425486E+03  0.00000000000E+00 0. -1.
         25    1    1    2    0    0 -0.12896790475E+03  0.95504851570E+02  0.41568311469E+03  0.46278650474E+03  0.12500000000E+03 0.  0.
         25    1    1    2    0    0  0.10435692488E+03 -0.83167766391E+01 -0.47029768743E+02  0.16969483107E+03  0.12500000000E+03 0.  0.
         25    1    1    2    0    0  0.24610979877E+02 -0.87188074931E+02  0.19468123849E+03  0.24846175835E+03  0.12500000000E+03 0.  0.
</event>
<event>
 5    0  0.5452999E-005  0.3342099E+03  0.7546771E-02  0.1069289E+00
         21   -1    0    0  502  501  0.00000000000E+00  0.00000000000E+00  0.91948889937E+02  0.91948889937E+02  0.00000000000E+00 0. -1.
         21   -1    0    0  501  502 -0.00000000000E+00 -0.00000000000E+00 -0.12147647254E+04  0.12147647254E+04  0.00000000000E+00 0. -1.
         25    1    1    2    0    0  0.78851213328E+02  0.60371396249E+02 -0.73435260382E+03  0.75150579909E+03  0.12500000000E+03 0.  0.
         25    1    1    2    0    0  0.20470152762E+02  0.10173310447E+03 -0.11282921434E+03  0.19779808722E+03  0.12500000000E+03 0.  0.
         25    1    1    2    0    0 -0.99321366090E+02 -0.16210450072E+03 -0.27563401734E+03  0.35740972906E+03  0.12500000000E+03 0.  0.
</event>
<event>
 5    0  0.5452999E-005  0.1991317E+03  0.7546771E-02  0.1150474E+00
         21   -1    0    0  502  501  0.00000000000E+00  0.00000000000E+00  0.13627288860E+04  0.13627288860E+04  0.00000000000E+00 0. -1.
         21   -1    0    0  501  502 -0.00000000000E+00 -0.00000000000E+00 -0.29098541279E+02  0.29098541279E+02  0.00000000000E+00 0. -1.
         25    1    1    2    0    0 -0.36013697354E+02 -0.35808150177E+01  0.50106621862E+03  0.51768925436E+03  0.12500000000E+03 0.  0.
         25    1    1    2    0    0  0.58012969847E+02 -0.66927234681E+01  0.47190337108E+03  0.49165850837E+03  0.12500000000E+03 0.  0.
         25    1    1    2    0    0 -0.21999272492E+02  0.10273538486E+02  0.36066075502E+03  0.38247966455E+03  0.12500000000E+03 0.  0.
</event>
<event>
 5    0  0.5452999E-005  0.2975496E+03  0.7546771E-02  0.1086472E+00
         21   -1    0    0  502  501  0.00000000000E+00  0.00000000000E+00  0.57183313261E+03  0.57183313261E+03  0.00000000000E+00 0. -1.
         21   -1    0    0  501  502 -0.00000000000E+00 -0.00000000000E+00 -0.15482797906E+03  0.15482797906E+03  0.00000000000E+00 0. -1.
         25    1    1    2    0    0  0.20769555745E+01 -0.65299505324E+02  0.38804211935E+03  0.41288015880E+03  0.12500000000E+03 0.  0.
         25    1    1    2    0    0 -0.24488358546E+02 -0.18346012377E+02 -0.55141887752E+02  0.14000672719E+03  0.12500000000E+03 0.  0.
         25    1    1    2    0    0  0.22411402972E+02  0.83645517701E+02  0.84104921939E+02  0.17377422568E+03  0.12500000000E+03 0.  0.
</event>
<event>
 5    0  0.5452999E-005  0.4696803E+03  0.7546771E-02  0.1022010E+00
         21   -1    0    0  502  501  0.00000000000E+00  0.00000000000E+00  0.16409848676E+04  0.16409848676E+04  0.00000000000E+00 0.  1.
         21   -1    0    0  501  502 -0.00000000000E+00 -0.00000000000E+00 -0.13443119833E+03  0.13443119833E+03  0.00000000000E+00 0.  1.
         25    1    1    2    0    0 -0.13427694395E+03 -0.30251253428E+03  0.37094313268E+03  0.51260895306E+03  0.12500000000E+03 0.  0.
         25    1    1    2    0    0  0.22375430688E+03  0.72427875833E+02  0.67255095719E+03  0.72336821679E+03  0.12500000000E+03 0.  0.
         25    1    1    2    0    0 -0.89477362930E+02  0.23008465845E+03  0.46305957940E+03  0.53943889608E+03  0.12500000000E+03 0.  0.
</event>
<event>
 5    0  0.5452999E-005  0.2827160E+03  0.7546771E-02  0.1094215E+00
         21   -1    0    0  502  501  0.00000000000E+00  0.00000000000E+00  0.13594709285E+03  0.13594709285E+03  0.00000000000E+00 0. -1.
         21   -1    0    0  501  502 -0.00000000000E+00 -0.00000000000E+00 -0.58793690804E+03  0.58793690804E+03  0.00000000000E+00 0. -1.
         25    1    1    2    0    0 -0.10715336390E+03 -0.26594890421E+02 -0.13801037681E+03  0.21647400699E+03  0.12500000000E+03 0.  0.
         25    1    1    2    0    0  0.54094684838E+02 -0.11438099396E+03 -0.23873375137E+03  0.29770463676E+03  0.12500000000E+03 0.  0.
         25    1    1    2    0    0  0.53058679067E+02  0.14097588438E+03 -0.75245687001E+02  0.20970535714E+03  0.12500000000E+03 0.  0.
</event>
<event>
 5    0  0.5452999E-005  0.2937168E+03  0.7546771E-02  0.1088424E+00
         21   -1    0    0  502  501  0.00000000000E+00  0.00000000000E+00  0.72469464839E+03  0.72469464839E+03  0.00000000000E+00 0. -1.
         21   -1    0    0  501  502 -0.00000000000E+00 -0.00000000000E+00 -0.11904261514E+03  0.11904261514E+03  0.00000000000E+00 0. -1.
         25    1    1    2    0    0  0.16290148274E+03 -0.90353574908E+02  0.29234966569E+03  0.36850235902E+03  0.12500000000E+03 0.  0.
         25    1    1    2    0    0 -0.14839575653E+03  0.67253539622E+02  0.10464898443E+03  0.23047938973E+03  0.12500000000E+03 0.  0.
         25    1    1    2    0    0 -0.14505726215E+02  0.23100035286E+02  0.20865338312E+03  0.24475551477E+03  0.12500000000E+03 0.  0.
</event>
<event>
 5    0  0.5658561E-005  0.2885901E+03  0.7546771E-02  0.1091088E+00
         21   -1    0    0  502  501  0.00000000000E+00  0.00000000000E+00  0.60228240202E+03  0.60228240202E+03  0.00000000000E+00 0. -1.
         21   -1    0    0  501  502 -0.00000000000E+00 -0.00000000000E+00 -0.13828103767E+03  0.13828103767E+03  0.00000000000E+00 0. -1.
         25    1    1    2    0    0 -0.19221078884E+02 -0.19525150293E+03  0.19637636479E+03  0.30443599642E+03  0.12500000000E+03 0.  0.
         25    1    1    2    0    0 -0.51274511609E+02  0.12612349806E+03  0.13556506392E+03  0.22921408957E+03  0.12500000000E+03 0.  0.
         25    1    1    2    0    0  0.70495590493E+02  0.69128004876E+02  0.13205993564E+03  0.20691335370E+03  0.12500000000E+03 0.  0.
</event>
<event>
 5    0  0.5452999E-005  0.2569783E+03  0.7546771E-02  0.1108972E+00
         21   -1    0    0  502  501  0.00000000000E+00  0.00000000000E+00  0.83856875170E+03  0.83856875170E+03  0.00000000000E+00 0. -1.
         21   -1    0    0  501  502 -0.00000000000E+00 -0.00000000000E+00 -0.78750675461E+02  0.78750675461E+02  0.00000000000E+00 0. -1.
         25    1    1    2    0    0 -0.69125163398E+01 -0.59791201654E+02  0.47655274266E+03  0.49633686869E+03  0.12500000000E+03 0.  0.
         25    1    1    2    0    0 -0.40818227570E+02 -0.29822505642E+02  0.19576432970E+03  0.23770608391E+03  0.12500000000E+03 0.  0.
         25    1    1    2    0    0  0.47730743910E+02  0.89613707295E+02  0.87501003874E+02  0.18327647456E+03  0.12500000000E+03 0.  0.
</event>
<event>
 5    0  0.5452999E-005  0.2356324E+03  0.7546771E-02  0.1122737E+00
         21   -1    0    0  502  501  0.00000000000E+00  0.00000000000E+00  0.46669051767E+03  0.46669051767E+03  0.00000000000E+00 0. -1.
         21   -1    0    0  501  502 -0.00000000000E+00 -0.00000000000E+00 -0.11897098274E+03  0.11897098274E+03  0.00000000000E+00 0. -1.
         25    1    1    2    0    0 -0.60163669711E+02 -0.19392893550E+02  0.17770501267E+03  0.22627377886E+03  0.12500000000E+03 0.  0.
         25    1    1    2    0    0  0.77899105134E+02 -0.73055198381E+01  0.19296905175E+01  0.14748004918E+03  0.12500000000E+03 0.  0.
         25    1    1    2    0    0 -0.17735435422E+02  0.26698413389E+02  0.16808483174E+03  0.21190767237E+03  0.12500000000E+03 0.  0.
</event>
<event>
 5    0  0.5452999E-005  0.3423214E+03  0.7546771E-02  0.1065811E+00
         21   -1    0    0  502  501  0.00000000000E+00  0.00000000000E+00  0.69951450312E+03  0.69951450312E+03  0.00000000000E+00 0. -1.
         21   -1    0    0  501  502 -0.00000000000E+00 -0.00000000000E+00 -0.16752183477E+03  0.16752183477E+03  0.00000000000E+00 0. -1.
         25    1    1    2    0    0  0.48897105514E+02 -0.26527973633E+02  0.15975464292E+03  0.21033593665E+03  0.12500000000E+03 0.  0.
         25    1    1    2    0    0 -0.71198645306E+02 -0.21706138927E+03  0.22964974563E+03  0.34720152574E+03  0.12500000000E+03 0.  0.
         25    1    1    2    0    0  0.22301539792E+02  0.24358936291E+03  0.14258827981E+03  0.30949887550E+03  0.12500000000E+03 0.  0.
</event>
<event>
 5    0  0.5452999E-005  0.2556349E+03  0.7546771E-02  0.1109795E+00
         21   -1    0    0  502  501  0.00000000000E+00  0.00000000000E+00  0.81977051132E+03  0.81977051132E+03  0.00000000000E+00 0.  1.
         21   -1    0    0  501  502 -0.00000000000E+00 -0.00000000000E+00 -0.79716433815E+02  0.79716433815E+02  0.00000000000E+00 0.  1.
         25    1    1    2    0    0  0.29822787855E+02  0.11733521419E+03  0.38829028102E+03  0.42550122620E+03  0.12500000000E+03 0.  0.
         25    1    1    2    0    0 -0.69378552720E+01  0.23438123713E+02  0.15658623981E+03  0.20184580743E+03  0.12500000000E+03 0.  0.
         25    1    1    2    0    0 -0.22884932583E+02 -0.14077333790E+03  0.19517755667E+03  0.27213991150E+03  0.12500000000E+03 0.  0.
</event>
<event>
 5    0  0.5452999E-005  0.2054523E+03  0.7546771E-02  0.1145219E+00
         21   -1    0    0  502  501  0.00000000000E+00  0.00000000000E+00  0.18611496508E+03  0.18611496508E+03  0.00000000000E+00 0. -1.
         21   -1    0    0  501  502 -0.00000000000E+00 -0.00000000000E+00 -0.22679888005E+03  0.22679888005E+03  0.00000000000E+00 0. -1.
         25    1    1    2    0    0 -0.67882713968E+02 -0.75838819794E+01  0.26686024782E+01  0.14246999530E+03  0.12500000000E+03 0.  0.
         25    1    1    2    0    0  0.50831050975E+01  0.14649201430E+02 -0.31745559030E+02  0.12989694984E+03  0.12500000000E+03 0.  0.
         25    1    1    2    0    0  0.62799608870E+02 -0.70653194505E+01 -0.11606958425E+02  0.14054689999E+03  0.12500000000E+03 0.  0.
</event>
<event>
 5    0  0.5452999E-005  0.5115388E+03  0.7546771E-02  0.1010810E+00
         21   -1    0    0  502  501  0.00000000000E+00  0.00000000000E+00  0.16536818060E+04  0.16536818060E+04  0.00000000000E+00 0.  1.
         21   -1    0    0  501  502 -0.00000000000E+00 -0.00000000000E+00 -0.15823596717E+03  0.15823596717E+03  0.00000000000E+00 0.  1.
         25    1    1    2    0    0 -0.22930067289E+02  0.13921171868E+03 -0.30626341122E+01  0.18852074244E+03  0.12500000000E+03 0.  0.
         25    1    1    2    0    0  0.12256785617E+03 -0.21840788005E+03  0.13826103760E+04  0.14106598928E+04  0.12500000000E+03 0.  0.
         25    1    1    2    0    0 -0.99637788880E+02  0.79196161375E+02  0.11589809688E+03  0.21273713783E+03  0.12500000000E+03 0.  0.
</event>
<event>
 5    0  0.5452999E-005  0.2443838E+03  0.7546771E-02  0.1116906E+00
         21   -1    0    0  502  501  0.00000000000E+00  0.00000000000E+00  0.95915626367E+02  0.95915626367E+02  0.00000000000E+00 0.  1.
         21   -1    0    0  501  502 -0.00000000000E+00 -0.00000000000E+00 -0.62266619730E+03  0.62266619730E+03  0.00000000000E+00 0.  1.
         25    1    1    2    0    0  0.84849290591E+02  0.10705924774E+03 -0.18348342095E+03  0.26067652446E+03  0.12500000000E+03 0.  0.
         25    1    1    2    0    0 -0.57786807229E+02 -0.13524126086E+02 -0.11439102981E+03  0.17953418832E+03  0.12500000000E+03 0.  0.
         25    1    1    2    0    0 -0.27062483362E+02 -0.93535121656E+02 -0.22887612017E+03  0.27837111088E+03  0.12500000000E+03 0.  0.
</event>
<event>
 5    0  0.5452999E-005  0.2262438E+03  0.7546771E-02  0.1129312E+00
         21   -1    0    0  502  501  0.00000000000E+00  0.00000000000E+00  0.53679283406E+03  0.53679283406E+03  0.00000000000E+00 0.  1.
         21   -1    0    0  501  502 -0.00000000000E+00 -0.00000000000E+00 -0.95355724863E+02  0.95355724863E+02  0.00000000000E+00 0.  1.
         25    1    1    2    0    0 -0.32708892285E+02 -0.46462117919E+01  0.34097678171E+02  0.13371279137E+03  0.12500000000E+03 0.  0.
         25    1    1    2    0    0 -0.41480762423E+02  0.27506511296E+02  0.24366077054E+03  0.27833942034E+03  0.12500000000E+03 0.  0.
         25    1    1    2    0    0  0.74189654708E+02 -0.22860299504E+02  0.16367866049E+03  0.22009634722E+03  0.12500000000E+03 0.  0.
</event>
<event>
 5    0  0.5452999E-005  0.4345561E+03  0.7546771E-02  0.1032430E+00
         21   -1    0    0  502  501  0.00000000000E+00  0.00000000000E+00  0.47629209009E+03  0.47629209009E+03  0.00000000000E+00 0.  1.
         21   -1    0    0  501  502 -0.00000000000E+00 -0.00000000000E+00 -0.39647734415E+03  0.39647734415E+03  0.00000000000E+00 0.  1.
         25    1    1    2    0    0  0.18968899688E+03 -0.12523696208E+03  0.27418181160E+03  0.37744784808E+03  0.12500000000E+03 0.  0.
         25    1    1    2    0    0 -0.25648109309E+03  0.52513503120E+02 -0.16366873318E+03  0.33309559190E+03  0.12500000000E+03 0.  0.
         25    1    1    2    0    0  0.66792096216E+02  0.72723458959E+02 -0.30698332477E+02  0.16222599427E+03  0.12500000000E+03 0.  0.
</event>
<event>
 5    0  0.6048701E-005  0.2487261E+03  0.7546771E-02  0.1114113E+00
         21   -1    0    0  502  501  0.00000000000E+00  0.00000000000E+00  0.42304758440E+03  0.42304758440E+03  0.00000000000E+00 0. -1.
         21   -1    0    0  501  502 -0.00000000000E+00 -0.00000000000E+00 -0.14623570849E+03  0.14623570849E+03  0.00000000000E+00 0. -1.
         25    1    1    2    0    0  0.64665379162E+02 -0.58494493973E+02  0.17163499201E+03  0.22953602674E+03  0.12500000000E+03 0.  0.
         25    1    1    2    0    0  0.27653352679E+01 -0.57452688453E+02  0.64390699187E+02  0.15191978354E+03  0.12500000000E+03 0.  0.
         25    1    1    2    0    0 -0.67430714430E+02  0.11594718243E+03  0.40786184709E+02  0.18782748261E+03  0.12500000000E+03 0.  0.
</event>
<event>
 5    0  0.5452999E-005  0.2609496E+03  0.7546771E-02  0.1106574E+00
         21   -1    0    0  502  501  0.00000000000E+00  0.00000000000E+00  0.50258486768E+03  0.50258486768E+03  0.00000000000E+00 0. -1.
         21   -1    0    0  501  502 -0.00000000000E+00 -0.00000000000E+00 -0.13548893712E+03  0.13548893712E+03  0.00000000000E+00 0. -1.
         25    1    1    2    0    0 -0.39323423781E+02 -0.13990532111E+02  0.13617927076E+03  0.18950424911E+03  0.12500000000E+03 0.  0.
         25    1    1    2    0    0  0.10616336811E+03 -0.41787803612E+02 -0.31878430613E+01  0.16926914545E+03  0.12500000000E+03 0.  0.
         25    1    1    2    0    0 -0.66839944328E+02  0.55778335723E+02  0.23410450286E+03  0.27930041022E+03  0.12500000000E+03 0.  0.
</event>
<event>
 5    0  0.5452999E-005  0.4261277E+03  0.7546771E-02  0.1035090E+00
         21   -1    0    0  502  501  0.00000000000E+00  0.00000000000E+00  0.28583545176E+03  0.28583545176E+03  0.00000000000E+00 0. -1.
         21   -1    0    0  501  502 -0.00000000000E+00 -0.00000000000E+00 -0.63527735911E+03  0.63527735911E+03  0.00000000000E+00 0. -1.
         25    1    1    2    0    0 -0.97115704311E+02 -0.19580090811E+03 -0.29299336466E+03  0.38631537295E+03  0.12500000000E+03 0.  0.
         25    1    1    2    0    0  0.21872890900E+03  0.18073381735E+03  0.71235155757E+02  0.31812968391E+03  0.12500000000E+03 0.  0.
         25    1    1    2    0    0 -0.12161320469E+03  0.15067090755E+02 -0.12768369845E+03  0.21666775401E+03  0.12500000000E+03 0.  0.
</event>
<event>
 5    0  0.5688154E-005  0.2849185E+03  0.7546771E-02  0.1093032E+00
         21   -1    0    0  502  501  0.00000000000E+00  0.00000000000E+00  0.80413799563E+02  0.80413799563E+02  0.00000000000E+00 0. -1.
         21   -1    0    0  501  502 -0.00000000000E+00 -0.00000000000E+00 -0.10095105572E+04  0.10095105572E+04  0.00000000000E+00 0. -1.
         25    1    1    2    0    0  0.11646658054E+03 -0.85142080868E+02 -0.29912489211E+03  0.35484410577E+03  0.12500000000E+03 0.  0.
         25    1    1    2    0    0  0.15236721975E+02 -0.57439757976E+02 -0.31939261267E+03  0.34809212074E+03  0.12500000000E+03 0.  0.
         25    1    1    2    0    0 -0.13170330252E+03  0.14258183884E+03 -0.31057925291E+03  0.38698813031E+03  0.12500000000E+03 0.  0.
</event>
<event>
 5    0  0.5912883E-005  0.3585809E+03  0.7546771E-02  0.1059147E+00
         21   -1    0    0  502  501  0.00000000000E+00  0.00000000000E+00  0.28305059921E+03  0.28305059921E+03  0.00000000000E+00 0.  1.
         21   -1    0    0  501  502 -0.00000000000E+00 -0.00000000000E+00 -0.45426600670E+03  0.45426600670E+03  0.00000000000E+00 0.  1.
         25    1    1    2    0    0 -0.17146628899E+03  0.75587841536E+02  0.53458684296E+02  0.23151034744E+03  0.12500000000E+03 0.  0.
         25    1    1    2    0    0  0.17814398337E+03  0.12696190281E+02  0.18103056047E+02  0.21874458324E+03  0.12500000000E+03 0.  0.
         25    1    1    2    0    0 -0.66776943885E+01 -0.88284031818E+02 -0.24277714783E+03  0.28706167523E+03  0.12500000000E+03 0.  0.
</event>
<event>
 5    0  0.5452999E-005  0.2721394E+03  0.7546771E-02  0.1100061E+00
         21   -1    0    0  502  501  0.00000000000E+00  0.00000000000E+00  0.10021837615E+04  0.10021837615E+04  0.00000000000E+00 0. -1.
         21   -1    0    0  501  502 -0.00000000000E+00 -0.00000000000E+00 -0.73898483748E+02  0.73898483748E+02  0.00000000000E+00 0. -1.
         25    1    1    2    0    0  0.11426899675E+03 -0.22314865044E+02  0.30551111512E+03  0.35002485381E+03  0.12500000000E+03 0.  0.
         25    1    1    2    0    0  0.26242140274E+02 -0.37542373556E+02  0.97741794697E+02  0.16515610243E+03  0.12500000000E+03 0.  0.
         25    1    1    2    0    0 -0.14051113702E+03  0.59857238601E+02  0.52503236797E+03  0.56090128904E+03  0.12500000000E+03 0.  0.
</event>
<event>
 5    0  0.5452999E-005  0.5308250E+03  0.7546771E-02  0.1006032E+00
         21   -1    0    0  502  501  0.00000000000E+00  0.00000000000E+00  0.16192685179E+04  0.16192685179E+04  0.00000000000E+00 0. -1.
         21   -1    0    0  501  502 -0.00000000000E+00 -0.00000000000E+00 -0.17401383782E+03  0.17401383782E+03  0.00000000000E+00 0. -1.
         25    1    1    2    0    0  0.16552331436E+03  0.15296157082E+02 -0.42381062547E+02  0.21225714235E+03  0.12500000000E+03 0.  0.
         25    1    1    2    0    0  0.90723463629E+02 -0.14698386418E+03  0.74008109118E+03  0.77018181276E+03  0.12500000000E+03 0.  0.
         25    1    1    2    0    0 -0.25624677799E+03  0.13168770709E+03  0.74755465147E+03  0.81084340064E+03  0.12500000000E+03 0.  0.
</event>
<event>
 5    0  0.5452999E-005  0.2645317E+03  0.7546771E-02  0.1104451E+00
         21   -1    0    0  502  501  0.00000000000E+00  0.00000000000E+00  0.23138567258E+04  0.23138567258E+04  0.00000000000E+00 0.  1.
         21   -1    0    0  501  502 -0.00000000000E+00 -0.00000000000E+00 -0.30242594016E+02  0.30242594016E+02  0.00000000000E+00 0.  1.
         25    1    1    2    0    0  0.13707528765E+03 -0.18392275909E+02  0.94726473683E+03  0.96543430223E+03  0.12500000000E+03 0.  0.
         25    1    1    2    0    0 -0.89128566146E+02  0.72970509680E+02  0.97069503067E+03  0.98546559512E+03  0.12500000000E+03 0.  0.
         25    1    1    2    0    0 -0.47946721499E+02 -0.54578233771E+02  0.36565436424E+03  0.39319942242E+03  0.12500000000E+03 0.  0.
</event>
<event>
 5    0  0.5452999E-005  0.3355430E+03  0.7546771E-02  0.1068710E+00
         21   -1    0    0  502  501  0.00000000000E+00  0.00000000000E+00  0.15886302751E+04  0.15886302751E+04  0.00000000000E+00 0.  1.
         21   -1    0    0  501  502 -0.00000000000E+00 -0.00000000000E+00 -0.70871821049E+02  0.70871821049E+02  0.00000000000E+00 0.  1.
         25    1    1    2    0    0 -0.19825249642E+03  0.18688558980E+02  0.23541691712E+03  0.33271525279E+03  0.12500000000E+03 0.  0.
         25    1    1    2    0    0  0.83344660537E+02  0.12160458524E+02  0.81007468973E+03  0.82397828377E+03  0.12500000000E+03 0.  0.
         25    1    1    2    0    0  0.11490783588E+03 -0.30849017504E+02  0.47226684723E+03  0.50280855961E+03  0.12500000000E+03 0.  0.
</event>
<event>
 5    0  0.5452999E-005  0.2975371E+03  0.7546771E-02  0.1086478E+00
         21   -1    0    0  502  501  0.00000000000E+00  0.00000000000E+00  0.90527568153E+03  0.90527568153E+03  0.00000000000E+00 0. -1.
         21   -1    0    0  501  502 -0.00000000000E+00 -0.00000000000E+00 -0.97791593273E+02  0.97791593273E+02  0.00000000000E+00 0.  1.
         25    1    1    2    0    0  0.14530738614E+03  0.14824937944E+03  0.45252177004E+03  0.51331575792E+03  0.12500000000E+03 0.  0.
         25    1    1    2    0    0 -0.23187290982E+02 -0.72986302040E+02  0.14050060072E+03  0.20305188881E+03  0.12500000000E+03 0.  0.
         25    1    1    2    0    0 -0.12212009516E+03 -0.75263077399E+02  0.21446171750E+03  0.28669962807E+03  0.12500000000E+03 0.  0.
</event>
<event>
 5    0  0.5452999E-005  0.2767680E+03  0.7546771E-02  0.1097467E+00
         21   -1    0    0  502  501  0.00000000000E+00  0.00000000000E+00  0.18955149132E+03  0.18955149132E+03  0.00000000000E+00 0.  1.
         21   -1    0    0  501  502 -0.00000000000E+00 -0.00000000000E+00 -0.40411447679E+03  0.40411447679E+03  0.00000000000E+00 0.  1.
         25    1    1    2    0    0 -0.82061075802E+02  0.70808127670E+02 -0.22738811140E+03  0.28120840015E+03  0.12500000000E+03 0.  0.
         25    1    1    2    0    0 -0.19275065693E+02  0.12793246895E+02  0.29037624600E+02  0.13039700520E+03  0.12500000000E+03 0.  0.
         25    1    1    2    0    0  0.10133614149E+03 -0.83601374566E+02 -0.16212498670E+02  0.18206056277E+03  0.12500000000E+03 0.  0.
</event>
<event>
 5    0  0.5452999E-005  0.2895929E+03  0.7546771E-02  0.1090562E+00
         21   -1    0    0  502  501  0.00000000000E+00  0.00000000000E+00  0.18688982998E+04  0.18688982998E+04  0.00000000000E+00 0.  1.
         21   -1    0    0  501  502 -0.00000000000E+00 -0.00000000000E+00 -0.44873536416E+02  0.44873536416E+02  0.00000000000E+00 0.  1.
         25    1    1    2    0    0 -0.17517487045E+03  0.43559375772E+01  0.58256319391E+03  0.62105562096E+03  0.12500000000E+03 0.  0.
         25    1    1    2    0    0  0.54660676917E+02 -0.81205635496E+02  0.73199549631E+03  0.74901572177E+03  0.12500000000E+03 0.  0.
         25    1    1    2    0    0  0.12051419354E+03  0.76849697919E+02  0.50946607319E+03  0.54370049351E+03  0.12500000000E+03 0.  0.
</event>
<event>
 5    0  0.5452999E-005  0.3818010E+03  0.7546771E-02  0.1050270E+00
         21   -1    0    0  502  501  0.00000000000E+00  0.00000000000E+00  0.86052568777E+03  0.86052568777E+03  0.00000000000E+00 0.  1.
         21   -1    0    0  501  502 -0.00000000000E+00 -0.00000000000E+00 -0.16939876157E+03  0.16939876157E+03  0.00000000000E+00 0.  1.
         25    1    1    2    0    0  0.60473791421E+02  0.20779082338E+03  0.53580561738E+02  0.25559730501E+03  0.12500000000E+03 0.  0.
         25    1    1    2    0    0  0.11333216121E+03 -0.71035246538E+02  0.22818410026E+03  0.29254601113E+03  0.12500000000E+03 0.  0.
         25    1    1    2    0    0 -0.17380595263E+03 -0.13675557684E+03  0.40936226419E+03  0.48178113321E+03  0.12500000000E+03 0.  0.
</event>
<event>
 5    0  0.5452999E-005  0.6206380E+03  0.7546771E-02  0.9863490E-01
         21   -1    0    0  502  501  0.00000000000E+00  0.00000000000E+00  0.48475955147E+03  0.48475955147E+03  0.00000000000E+00 0.  1.
         21   -1    0    0  501  502 -0.00000000000E+00 -0.00000000000E+00 -0.79460319558E+03  0.79460319558E+03  0.00000000000E+00 0.  1.
         25    1    1    2    0    0  0.27605434106E+02  0.29735621046E+02 -0.16429006583E+03  0.21038653208E+03  0.12500000000E+03 0.  0.
         25    1    1    2    0    0  0.17572458374E+03 -0.40941047407E+03 -0.34596727037E+03  0.57776675032E+03  0.12500000000E+03 0.  0.
         25    1    1    2    0    0 -0.20333001785E+03  0.37967485302E+03  0.20041369209E+03  0.49120946464E+03  0.12500000000E+03 0.  0.
</event>
<event>
 5    0  0.5452999E-005  0.3017703E+03  0.7546771E-02  0.1084359E+00
         21   -1    0    0  502  501  0.00000000000E+00  0.00000000000E+00  0.32387020427E+03  0.32387020427E+03  0.00000000000E+00 0. -1.
         21   -1    0    0  501  502 -0.00000000000E+00 -0.00000000000E+00 -0.28117849878E+03  0.28117849878E+03  0.00000000000E+00 0. -1.
         25    1    1    2    0    0 -0.10165151793E+03  0.16235628396E+03 -0.28272821458E+02  0.23047114021E+03  0.12500000000E+03 0.  0.
         25    1    1    2    0    0  0.97661215747E+02  0.34441671830E+01  0.14308462420E+02  0.15930884296E+03  0.12500000000E+03 0.  0.
         25    1    1    2    0    0  0.39903021787E+01 -0.16580045114E+03  0.56656064525E+02  0.21526871988E+03  0.12500000000E+03 0.  0.
</event>
<event>
 5    0  0.5452999E-005  0.2838089E+03  0.7546771E-02  0.1093627E+00
         21   -1    0    0  502  501  0.00000000000E+00  0.00000000000E+00  0.38468717912E+03  0.38468717912E+03  0.00000000000E+00 0. -1.
         21   -1    0    0  501  502 -0.00000000000E+00 -0.00000000000E+00 -0.20938435063E+03  0.20938435063E+03  0.00000000000E+00 0. -1.
         25    1    1    2    0    0 -0.64397887421E+02  0.10931381910E+03 -0.11504067569E+02  0.17847672824E+03  0.12500000000E+03 0.  0.
         25    1    1    2    0    0  0.27579872233E+02 -0.16889413843E+03  0.50550979306E+02  0.21786757642E+03  0.12500000000E+03 0.  0.
         25    1    1    2    0    0  0.36818015188E+02  0.59580319326E+02  0.13625591675E+03  0.19772722509E+03  0.12500000000E+03 0.  0.
</event>
<event>
 5    0  0.5452999E-005  0.2911913E+03  0.7546771E-02  0.1089729E+00
         21   -1    0    0  502  501  0.00000000000E+00  0.00000000000E+00  0.50050594857E+03  0.50050594857E+03  0.00000000000E+00 0.  1.
         21   -1    0    0  501  502 -0.00000000000E+00 -0.00000000000E+00 -0.16941329348E+03  0.16941329348E+03  0.00000000000E+00 0.  1.
         25    1    1    2    0    0  0.49382001829E+02  0.18876570945E+03  0.54147413041E+02  0.23796642097E+03  0.12500000000E+03 0.  0.
         25    1    1    2    0    0  0.17910873587E+02 -0.77680323766E+02  0.96499070754E+02  0.17689573977E+03  0.12500000000E+03 0.  0.
         25    1    1    2    0    0 -0.67292875416E+02 -0.11108538568E+03  0.18044617129E+03  0.25505708131E+03  0.12500000000E+03 0.  0.
</event>
<event>
 5    0  0.5452999E-005  0.3004354E+03  0.7546771E-02  0.1085023E+00
         21   -1    0    0  502  501  0.00000000000E+00  0.00000000000E+00  0.10377504716E+03  0.10377504716E+03  0.00000000000E+00 0.  1.
         21   -1    0    0  501  502 -0.00000000000E+00 -0.00000000000E+00 -0.86977944696E+03  0.86977944696E+03  0.00000000000E+00 0.  1.
         25    1    1    2    0    0 -0.11592097592E+03 -0.26807201361E+02 -0.59449857871E+02  0.18252557164E+03  0.12500000000E+03 0.  0.
         25    1    1    2    0    0  0.13632581726E+03  0.98711292742E+02 -0.39867162795E+03  0.45043613832E+03  0.12500000000E+03 0.  0.
         25    1    1    2    0    0 -0.20404841343E+02 -0.71904091381E+02 -0.30788291397E+03  0.34059278416E+03  0.12500000000E+03 0.  0.
</event>
<event>
 5    0  0.5452999E-005  0.5171190E+03  0.7546771E-02  0.1009405E+00
         21   -1    0    0  502  501  0.00000000000E+00  0.00000000000E+00  0.14467746392E+04  0.14467746392E+04  0.00000000000E+00 0.  1.
         21   -1    0    0  501  502 -0.00000000000E+00 -0.00000000000E+00 -0.18483322369E+03  0.18483322369E+03  0.00000000000E+00 0.  1.
         25    1    1    2    0    0 -0.27218510831E+03 -0.30166359473E+03  0.41994465463E+03  0.59754846709E+03  0.12500000000E+03 0.  0.
         25    1    1    2    0    0  0.15265465967E+03 -0.41183608659E+02  0.18779579504E+03  0.27548465543E+03  0.12500000000E+03 0.  0.
         25    1    1    2    0    0  0.11953044864E+03  0.34284720339E+03  0.65420096580E+03  0.75857474034E+03  0.12500000000E+03 0.  0.
</event>
<event>
 5    0  0.5452999E-005  0.3008050E+03  0.7546771E-02  0.1084839E+00
         21   -1    0    0  502  501  0.00000000000E+00  0.00000000000E+00  0.31021299572E+03  0.31021299572E+03  0.00000000000E+00 0.  1.
         21   -1    0    0  501  502 -0.00000000000E+00 -0.00000000000E+00 -0.29168228523E+03  0.29168228523E+03  0.00000000000E+00 0.  1.
         25    1    1    2    0    0  0.33299529551E+02 -0.13627737686E+03  0.14786627372E+03  0.23910210584E+03  0.12500000000E+03 0.  0.
         25    1    1    2    0    0 -0.24440806327E+02  0.16344192707E+03 -0.10494744501E+03  0.23227049480E+03  0.12500000000E+03 0.  0.
         25    1    1    2    0    0 -0.88587232244E+01 -0.27164550218E+02 -0.24388118214E+02  0.13052268031E+03  0.12500000000E+03 0.  0.
</event>
<event>
 5    0  0.5452999E-005  0.2990403E+03  0.7546771E-02  0.1085721E+00
         21   -1    0    0  502  501  0.00000000000E+00  0.00000000000E+00  0.75492893132E+02  0.75492893132E+02  0.00000000000E+00 0.  1.
         21   -1    0    0  501  502 -0.00000000000E+00 -0.00000000000E+00 -0.11845496605E+04  0.11845496605E+04  0.00000000000E+00 0.  1.
         25    1    1    2    0    0 -0.10526292907E+01 -0.11467512438E+03 -0.49374773495E+03  0.52207596952E+03  0.12500000000E+03 0.  0.
         25    1    1    2    0    0 -0.25748984522E+02 -0.81408044785E+02 -0.13154683990E+03  0.20054887446E+03  0.12500000000E+03 0.  0.
         25    1    1    2    0    0  0.26801613813E+02  0.19608316917E+03 -0.48376219247E+03  0.53741770961E+03  0.12500000000E+03 0.  0.
</event>
<event>
 5    0  0.5452999E-005  0.2453473E+03  0.7546771E-02  0.1116281E+00
         21   -1    0    0  502  501  0.00000000000E+00  0.00000000000E+00  0.10007020468E+03  0.10007020468E+03  0.00000000000E+00 0. -1.
         21   -1    0    0  501  502 -0.00000000000E+00 -0.00000000000E+00 -0.60153068867E+03  0.60153068867E+03  0.00000000000E+00 0. -1.
         25    1    1    2    0    0  0.23170919693E+01  0.32124244152E+02 -0.15822675079E+03  0.20420098100E+03  0.12500000000E+03 0.  0.
         25    1    1    2    0    0 -0.87221304239E+02  0.76546507752E+02 -0.19786296463E+03  0.26123107881E+03  0.12500000000E+03 0.  0.
         25    1    1    2    0    0  0.84904212270E+02 -0.10867075190E+03 -0.14537076857E+03  0.23616883354E+03  0.12500000000E+03 0.  0.
</event>
<event>
 5    0  0.5452999E-005  0.3652917E+03  0.7546771E-02  0.1056508E+00
         21   -1    0    0  502  501  0.00000000000E+00  0.00000000000E+00  0.32228718000E+03  0.32228718000E+03  0.00000000000E+00 0. -1.
         21   -1    0    0  501  502 -0.00000000000E+00 -0.00000000000E+00 -0.41403463627E+03  0.41403463627E+03  0.00000000000E+00 0. -1.
         25    1    1    2    0    0 -0.78762220044E+02  0.15656447938E+03 -0.12790107291E+03  0.25039889769E+03  0.12500000000E+03 0.  0.
         25    1    1    2    0    0 -0.48238695811E+02 -0.22106607290E+03 -0.71187755401E+02  0.26812287646E+03  0.12500000000E+03 0.  0.
         25    1    1    2    0    0  0.12700091586E+03  0.64501593513E+02  0.10734137205E+03  0.21780004212E+03  0.12500000000E+03 0.  0.
</event>
<event>
 5    0  0.5452999E-005  0.4931933E+03  0.7546771E-02  0.1015571E+00
         21   -1    0    0  502  501  0.00000000000E+00  0.00000000000E+00  0.15344601475E+03  0.15344601475E+03  0.00000000000E+00 0. -1.
         21   -1    0    0  501  502 -0.00000000000E+00 -0.00000000000E+00 -0.15851804657E+04  0.15851804657E+04  0.00000000000E+00 0. -1.
         25    1    1    2    0    0 -0.32134341196E+03 -0.56240602566E+02 -0.41871825514E+03  0.54532061301E+03  0.12500000000E+03 0.  0.
         25    1    1    2    0    0  0.34870645381E+02 -0.43709269765E+02 -0.92339520356E+01  0.13724696005E+03  0.12500000000E+03 0.  0.
         25    1    1    2    0    0  0.28647276657E+03  0.99949872331E+02 -0.10037822438E+04  0.10560589074E+04  0.12500000000E+03 0.  0.
</event>
<event>
 5    0  0.5452999E-005  0.3432136E+03  0.7546771E-02  0.1065435E+00
         21   -1    0    0  502  501  0.00000000000E+00  0.00000000000E+00  0.24778699311E+03  0.24778699311E+03  0.00000000000E+00 0. -1.
         21   -1    0    0  501  502 -0.00000000000E+00 -0.00000000000E+00 -0.47539052319E+03  0.47539052319E+03  0.00000000000E+00 0. -1.
         25    1    1    2    0    0  0.51114712417E+02  0.17715687159E+02 -0.19557936253E+03  0.23833347739E+03  0.12500000000E+03 0.  0.
         25    1    1    2    0    0 -0.17736533370E+03  0.12733801641E+03 -0.42927127071E+02  0.25522768318E+03  0.12500000000E+03 0.  0.
         25    1    1    2    0    0  0.12625062129E+03 -0.14505370357E+03  0.10902959519E+02  0.22961635573E+03  0.12500000000E+03 0.  0.
</event>
<event>
 5    0  0.5452999E-005  0.2579783E+03  0.7546771E-02  0.1108364E+00
         21   -1    0    0  502  501  0.00000000000E+00  0.00000000000E+00  0.32325080667E+03  0.32325080667E+03  0.00000000000E+00 0.  1.
         21   -1    0    0  501  502 -0.00000000000E+00 -0.00000000000E+00 -0.20588597246E+03  0.20588597246E+03  0.00000000000E+00 0.  1.
         25    1    1    2    0    0  0.31143455257E+02 -0.98766465320E+02  0.54134063984E+02  0.17111465852E+03  0.12500000000E+03 0.  0.
         25    1    1    2    0    0  0.63487718222E+02  0.23194051903E+02  0.10779540258E+03  0.17836340215E+03  0.12500000000E+03 0.  0.
         25    1    1    2    0    0 -0.94631173479E+02  0.75572413418E+02 -0.44564632353E+02  0.17965871846E+03  0.12500000000E+03 0.  0.
</event>
<event>
 5    0  0.5452999E-005  0.3346969E+03  0.7546771E-02  0.1069077E+00
         21   -1    0    0  502  501  0.00000000000E+00  0.00000000000E+00  0.94745198120E+03  0.94745198120E+03  0.00000000000E+00 0.  1.
         21   -1    0    0  501  502 -0.00000000000E+00 -0.00000000000E+00 -0.11823502783E+03  0.11823502783E+03  0.00000000000E+00 0.  1.
         25    1    1    2    0    0  0.11586721570E+03 -0.46457705921E+02  0.14885303168E+03  0.23101029231E+03  0.12500000000E+03 0.  0.
         25    1    1    2    0    0 -0.99921286886E+02  0.18919858581E+03  0.20163239634E+03  0.31946986039E+03  0.12500000000E+03 0.  0.
         25    1    1    2    0    0 -0.15945928813E+02 -0.14274087989E+03  0.47873152536E+03  0.51520685633E+03  0.12500000000E+03 0.  0.
</event>
<event>
 5    0  0.5452999E-005  0.3340733E+03  0.7546771E-02  0.1069349E+00
         21   -1    0    0  502  501  0.00000000000E+00  0.00000000000E+00  0.10571593565E+03  0.10571593565E+03  0.00000000000E+00 0. -1.
         21   -1    0    0  501  502 -0.00000000000E+00 -0.00000000000E+00 -0.10557065176E+04  0.10557065176E+04  0.00000000000E+00 0. -1.
         25    1    1    2    0    0 -0.16671892365E+03  0.13130294593E+03 -0.33111644115E+03  0.41267270411E+03  0.12500000000E+03 0.  0.
         25    1    1    2    0    0  0.20144614958E+03 -0.16288403155E+03 -0.40963049865E+03  0.50053361959E+03  0.12500000000E+03 0.  0.
         25    1    1    2    0    0 -0.34727225932E+02  0.31581085615E+02 -0.20924364211E+03  0.24821612952E+03  0.12500000000E+03 0.  0.
</event>
<event>
 5    0  0.5452999E-005  0.3234260E+03  0.7546771E-02  0.1074083E+00
         21   -1    0    0  502  501  0.00000000000E+00  0.00000000000E+00  0.17766843104E+03  0.17766843104E+03  0.00000000000E+00 0.  1.
         21   -1    0    0  501  502 -0.00000000000E+00 -0.00000000000E+00 -0.58876185259E+03  0.58876185259E+03  0.00000000000E+00 0.  1.
         25    1    1    2    0    0 -0.63352335553E+02  0.14636118369E+03  0.29954293957E+02  0.20483499271E+03  0.12500000000E+03 0.  0.
         25    1    1    2    0    0  0.29354652218E+02 -0.38285306378E+02 -0.33878104406E+03  0.36431450164E+03  0.12500000000E+03 0.  0.
         25    1    1    2    0    0  0.33997683336E+02 -0.10807587731E+03 -0.10226667145E+03  0.19728078928E+03  0.12500000000E+03 0.  0.
</event>
<event>
 5    0  0.5452999E-005  0.3755165E+03  0.7546771E-02  0.1052603E+00
         21   -1    0    0  502  501  0.00000000000E+00  0.00000000000E+00  0.10686939010E+04  0.10686939010E+04  0.00000000000E+00 0.  1.
         21   -1    0    0  501  502 -0.00000000000E+00 -0.00000000000E+00 -0.13194856966E+03  0.13194856966E+03  0.00000000000E+00 0.  1.
         25    1    1    2    0    0  0.16817259813E+03 -0.65158546473E+02  0.34380379358E+03  0.40786481512E+03  0.12500000000E+03 0.  0.
         25    1    1    2    0    0 -0.19503050506E+03 -0.14343097708E+03  0.38521684900E+03  0.47183298300E+03  0.12500000000E+03 0.  0.
         25    1    1    2    0    0  0.26857906934E+02  0.20858952356E+03  0.20772468876E+03  0.32094467253E+03  0.12500000000E+03 0.  0.
</event>
<event>
 5    0  0.6814558E-005  0.3528162E+03  0.7546771E-02  0.1061465E+00
         21   -1    0    0  502  501  0.00000000000E+00  0.00000000000E+00  0.22205598746E+03  0.22205598746E+03  0.00000000000E+00 0. -1.
         21   -1    0    0  501  502 -0.00000000000E+00 -0.00000000000E+00 -0.56057616743E+03  0.56057616743E+03  0.00000000000E+00 0. -1.
         25    1    1    2    0    0 -0.14557480023E+03 -0.10061172073E+03 -0.14445459147E+03  0.26039752266E+03  0.12500000000E+03 0.  0.
         25    1    1    2    0    0  0.59456380551E+02  0.11766754500E+03  0.87695127643E+02  0.20173286234E+03  0.12500000000E+03 0.  0.
         25    1    1    2    0    0  0.86118419678E+02 -0.17055824273E+02 -0.28176071614E+03  0.32050176990E+03  0.12500000000E+03 0.  0.
</event>
<event>
 5    0  0.5452999E-005  0.3091440E+03  0.7546771E-02  0.1080757E+00
         21   -1    0    0  502  501  0.00000000000E+00  0.00000000000E+00  0.23036940878E+03  0.23036940878E+03  0.00000000000E+00 0. -1.
         21   -1    0    0  501  502 -0.00000000000E+00 -0.00000000000E+00 -0.41485546000E+03  0.41485546000E+03  0.00000000000E+00 0. -1.
         25    1    1    2    0    0 -0.38135704519E+02  0.76235713688E+02  0.38816557717E+02  0.15619840317E+03  0.12500000000E+03 0.  0.
         25    1    1    2    0    0  0.14380396746E+03 -0.15625388170E+03 -0.16941123615E+03  0.29903181024E+03  0.12500000000E+03 0.  0.
         25    1    1    2    0    0 -0.10566826294E+03  0.80018168013E+02 -0.53891372789E+02  0.18999465536E+03  0.12500000000E+03 0.  0.
</event>
<event>
 5    0  0.5452999E-005  0.2719501E+03  0.7546771E-02  0.1100169E+00
         21   -1    0    0  502  501  0.00000000000E+00  0.00000000000E+00  0.12243523426E+03  0.12243523426E+03  0.00000000000E+00 0.  1.
         21   -1    0    0  501  502 -0.00000000000E+00 -0.00000000000E+00 -0.60404894054E+03  0.60404894054E+03  0.00000000000E+00 0.  1.
         25    1    1    2    0    0  0.10298950306E+03 -0.12032283045E+03 -0.18900884268E+03  0.27646656919E+03  0.12500000000E+03 0.  0.
         25    1    1    2    0    0  0.25410114915E+02  0.90553925470E+02 -0.16908123857E+03  0.23034572406E+03  0.12500000000E+03 0.  0.
         25    1    1    2    0    0 -0.12839961798E+03  0.29768904978E+02 -0.12352362503E+03  0.21967188155E+03  0.12500000000E+03 0.  0.
</event>
<event>
 5    0  0.5452999E-005  0.2922566E+03  0.7546771E-02  0.1089177E+00
         21   -1    0    0  502  501  0.00000000000E+00  0.00000000000E+00  0.35250688323E+03  0.35250688323E+03  0.00000000000E+00 0. -1.
         21   -1    0    0  501  502 -0.00000000000E+00 -0.00000000000E+00 -0.24230425001E+03  0.24230425001E+03  0.00000000000E+00 0. -1.
         25    1    1    2    0    0 -0.37072575891E+02 -0.85349737226E+02 -0.16713480277E+02  0.15672681312E+03  0.12500000000E+03 0.  0.
         25    1    1    2    0    0  0.76264173929E+02 -0.34716815048E+02  0.19627718288E+03  0.24732815042E+03  0.12500000000E+03 0.  0.
         25    1    1    2    0    0 -0.39191598039E+02  0.12006655227E+03 -0.69361069388E+02  0.19075616970E+03  0.12500000000E+03 0.  0.
</event>
<event>
 5    0  0.5452999E-005  0.4486302E+03  0.7546771E-02  0.1028131E+00
         21   -1    0    0  502  501  0.00000000000E+00  0.00000000000E+00  0.30117635901E+03  0.30117635901E+03  0.00000000000E+00 0.  1.
         21   -1    0    0  501  502 -0.00000000000E+00 -0.00000000000E+00 -0.66827644769E+03  0.66827644769E+03  0.00000000000E+00 0. -1.
         25    1    1    2    0    0  0.24153373989E+03  0.15112501854E+03 -0.23241099566E+03  0.38835188893E+03  0.12500000000E+03 0.  0.
         25    1    1    2    0    0 -0.22143674676E+03  0.42652410148E+02 -0.21539263426E+03  0.33596495026E+03  0.12500000000E+03 0.  0.
         25    1    1    2    0    0 -0.20096993129E+02 -0.19377742868E+03  0.80703541236E+02  0.24513596751E+03  0.12500000000E+03 0.  0.
</event>
<event>
 5    0  0.5452999E-005  0.3135835E+03  0.7546771E-02  0.1078641E+00
         21   -1    0    0  502  501  0.00000000000E+00  0.00000000000E+00  0.12089281993E+03  0.12089281993E+03  0.00000000000E+00 0.  1.
         21   -1    0    0  501  502 -0.00000000000E+00 -0.00000000000E+00 -0.81340327144E+03  0.81340327144E+03  0.00000000000E+00 0.  1.
         25    1    1    2    0    0 -0.20586474881E+02  0.75924773121E+02 -0.55367636713E+02  0.15773062263E+03  0.12500000000E+03 0.  0.
         25    1    1    2    0    0  0.91961881125E+02 -0.19981220963E+03 -0.33728143289E+03  0.42162266504E+03  0.12500000000E+03 0.  0.
         25    1    1    2    0    0 -0.71375406243E+02  0.12388743651E+03 -0.29986138190E+03  0.35494280370E+03  0.12500000000E+03 0.  0.
</event>
<event>
 5    0  0.5452999E-005  0.4591795E+03  0.7546771E-02  0.1025019E+00
         21   -1    0    0  502  501  0.00000000000E+00  0.00000000000E+00  0.12200915849E+04  0.12200915849E+04  0.00000000000E+00 0.  1.
         21   -1    0    0  501  502 -0.00000000000E+00 -0.00000000000E+00 -0.17281149399E+03  0.17281149399E+03  0.00000000000E+00 0.  1.
         25    1    1    2    0    0 -0.12144622753E+03 -0.33886500011E+03  0.30609033493E+03  0.48876882841E+03  0.12500000000E+03 0.  0.
         25    1    1    2    0    0  0.49164869365E+02  0.20004934443E+03  0.15960770519E+03  0.28902689173E+03  0.12500000000E+03 0.  0.
         25    1    1    2    0    0  0.72281358167E+02  0.13881565569E+03  0.58158205081E+03  0.61510735878E+03  0.12500000000E+03 0.  0.
</event>
<event>
 5    0  0.5452999E-005  0.3767050E+03  0.7546771E-02  0.1052158E+00
         21   -1    0    0  502  501  0.00000000000E+00  0.00000000000E+00  0.10819134832E+04  0.10819134832E+04  0.00000000000E+00 0.  1.
         21   -1    0    0  501  502 -0.00000000000E+00 -0.00000000000E+00 -0.13116268286E+03  0.13116268286E+03  0.00000000000E+00 0.  1.
         25    1    1    2    0    0 -0.13959611846E+02  0.93713621180E+02 -0.25871138523E+02  0.15896990082E+03  0.12500000000E+03 0.  0.
         25    1    1    2    0    0 -0.17229282785E+01 -0.74014936836E+02  0.12109745632E+03  0.18913162952E+03  0.12500000000E+03 0.  0.
         25    1    1    2    0    0  0.15682540125E+02 -0.19698684344E+02  0.85552448258E+03  0.86497463577E+03  0.12500000000E+03 0.  0.
</event>
<event>
 5    0  0.5452999E-005  0.2397813E+03  0.7546771E-02  0.1119939E+00
         21   -1    0    0  502  501  0.00000000000E+00  0.00000000000E+00  0.80447653202E+02  0.80447653202E+02  0.00000000000E+00 0.  1.
         21   -1    0    0  501  502 -0.00000000000E+00 -0.00000000000E+00 -0.71468900707E+03  0.71468900707E+03  0.00000000000E+00 0.  1.
         25    1    1    2    0    0  0.40218188579E+02 -0.20687752219E+02 -0.16440649416E+03  0.21142370043E+03  0.12500000000E+03 0.  0.
         25    1    1    2    0    0  0.18135417241E+02  0.11909641826E+03 -0.27801223432E+03  0.32776310444E+03  0.12500000000E+03 0.  0.
         25    1    1    2    0    0 -0.58353605820E+02 -0.98408666046E+02 -0.19182262539E+03  0.25594985540E+03  0.12500000000E+03 0.  0.
</event>
<event>
 5    0  0.5452999E-005  0.2770949E+03  0.7546771E-02  0.1097286E+00
         21   -1    0    0  502  501  0.00000000000E+00  0.00000000000E+00  0.14363256033E+03  0.14363256033E+03  0.00000000000E+00 0. -1.
         21   -1    0    0  501  502 -0.00000000000E+00 -0.00000000000E+00 -0.53456947676E+03  0.53456947676E+03  0.00000000000E+00 0. -1.
         25    1    1    2    0    0  0.11989939141E+02  0.88952043833E+01 -0.27912362090E+02  0.12894566010E+03  0.12500000000E+03 0.  0.
         25    1    1    2    0    0  0.14813841796E+03  0.44659186908E+02 -0.21074352521E+03  0.28978831458E+03  0.12500000000E+03 0.  0.
         25    1    1    2    0    0 -0.16012835710E+03 -0.53554391291E+02 -0.15228102913E+03  0.25946806240E+03  0.12500000000E+03 0.  0.
</event>
<event>
 5    0  0.5452999E-005  0.2267913E+03  0.7546771E-02  0.1128919E+00
         21   -1    0    0  502  501  0.00000000000E+00  0.00000000000E+00  0.54470179056E+03  0.54470179056E+03  0.00000000000E+00 0. -1.
         21   -1    0    0  501  502 -0.00000000000E+00 -0.00000000000E+00 -0.94426529923E+02  0.94426529923E+02  0.00000000000E+00 0. -1.
         25    1    1    2    0    0  0.74198593753E+02 -0.56760424383E+02  0.17155135498E+03  0.23190956101E+03  0.12500000000E+03 0.  0.
         25    1    1    2    0    0 -0.65769364287E+02 -0.22352097188E+02  0.97254696896E+02  0.17294132414E+03  0.12500000000E+03 0.  0.
         25    1    1    2    0    0 -0.84292294664E+01  0.79112521571E+02  0.18146920876E+03  0.23427743533E+03  0.12500000000E+03 0.  0.
</event>
<event>
 5    0  0.5646199E-005  0.2760968E+03  0.7546771E-02  0.1097840E+00
         21   -1    0    0  502  501  0.00000000000E+00  0.00000000000E+00  0.16922544302E+03  0.16922544302E+03  0.00000000000E+00 0.  1.
         21   -1    0    0  501  502 -0.00000000000E+00 -0.00000000000E+00 -0.45046087402E+03  0.45046087402E+03  0.00000000000E+00 0.  1.
         25    1    1    2    0    0 -0.11845774290E+03 -0.15582705097E+02 -0.28633117273E+03  0.33449304631E+03  0.12500000000E+03 0.  0.
         25    1    1    2    0    0  0.83469805191E+02  0.49578563760E+01 -0.22502151106E+02  0.15206293277E+03  0.12500000000E+03 0.  0.
         25    1    1    2    0    0  0.34987937706E+02  0.10624848721E+02  0.27597892836E+02  0.13313033796E+03  0.12500000000E+03 0.  0.
</event>
<event>
 5    0  0.5452999E-005  0.2739971E+03  0.7546771E-02  0.1099014E+00
         21   -1    0    0  502  501  0.00000000000E+00  0.00000000000E+00  0.15047287218E+04  0.15047287218E+04  0.00000000000E+00 0. -1.
         21   -1    0    0  501  502 -0.00000000000E+00 -0.00000000000E+00 -0.49892323005E+02  0.49892323005E+02  0.00000000000E+00 0. -1.
         25    1    1    2    0    0  0.45651442988E+02 -0.11051407205E+03  0.36064665643E+03  0.39998553120E+03  0.12500000000E+03 0.  0.
         25    1    1    2    0    0  0.36768744681E+02  0.39275987194E+02  0.18066194537E+03  0.22618196714E+03  0.12500000000E+03 0.  0.
         25    1    1    2    0    0 -0.82420187669E+02  0.71238084859E+02  0.91352779701E+03  0.92845354649E+03  0.12500000000E+03 0.  0.
</event>
<event>
 5    0  0.5452999E-005  0.2607683E+03  0.7546771E-02  0.1106682E+00
         21   -1    0    0  502  501  0.00000000000E+00  0.00000000000E+00  0.20399304746E+03  0.20399304746E+03  0.00000000000E+00 0. -1.
         21   -1    0    0  501  502 -0.00000000000E+00 -0.00000000000E+00 -0.33334531026E+03  0.33334531026E+03  0.00000000000E+00 0. -1.
         25    1    1    2    0    0 -0.75685103117E+02  0.10072427773E+02  0.57296461385E+02  0.15728182706E+03  0.12500000000E+03 0.  0.
         25    1    1    2    0    0  0.73769246447E+01 -0.10187123229E+03 -0.84786034622E+02  0.18233441434E+03  0.12500000000E+03 0.  0.
         25    1    1    2    0    0  0.68308178472E+02  0.91798804519E+02 -0.10186268956E+03  0.19772211632E+03  0.12500000000E+03 0.  0.
</event>
<event>
 5    0  0.5452999E-005  0.2387975E+03  0.7546771E-02  0.1120596E+00
         21   -1    0    0  502  501  0.00000000000E+00  0.00000000000E+00  0.84315872030E+02  0.84315872030E+02  0.00000000000E+00 0.  1.
         21   -1    0    0  501  502 -0.00000000000E+00 -0.00000000000E+00 -0.67631710866E+03  0.67631710866E+03  0.00000000000E+00 0.  1.
         25    1    1    2    0    0 -0.32410442769E+02 -0.11564720343E+02 -0.24192516021E+03  0.27447579620E+03  0.12500000000E+03 0.  0.
         25    1    1    2    0    0 -0.30347778406E+02  0.10756625906E+03 -0.17587738461E+03  0.24300070403E+03  0.12500000000E+03 0.  0.
         25    1    1    2    0    0  0.62758221175E+02 -0.96001538716E+02 -0.17419869181E+03  0.24315648046E+03  0.12500000000E+03 0.  0.
</event>
<event>
 5    0  0.5452999E-005  0.2120973E+03  0.7546771E-02  0.1139916E+00
         21   -1    0    0  502  501  0.00000000000E+00  0.00000000000E+00  0.17881750931E+03  0.17881750931E+03  0.00000000000E+00 0.  1.
         21   -1    0    0  501  502 -0.00000000000E+00 -0.00000000000E+00 -0.25157079096E+03  0.25157079096E+03  0.00000000000E+00 0.  1.
         25    1    1    2    0    0 -0.49518922940E+02 -0.42467510291E+02  0.62839243190E+01  0.14113858744E+03  0.12500000000E+03 0.  0.
         25    1    1    2    0    0 -0.33415548845E+00  0.57847685938E+02 -0.67277066364E+02  0.15328949764E+03  0.12500000000E+03 0.  0.
         25    1    1    2    0    0  0.49853078429E+02 -0.15380175648E+02 -0.11760139608E+02  0.13596021519E+03  0.12500000000E+03 0.  0.
</event>
<event>
 5    0  0.5452999E-005  0.2748046E+03  0.7546771E-02  0.1098561E+00
         21   -1    0    0  502  501  0.00000000000E+00  0.00000000000E+00  0.64205992345E+02  0.64205992345E+02  0.00000000000E+00 0. -1.
         21   -1    0    0  501  502 -0.00000000000E+00 -0.00000000000E+00 -0.11761764151E+04  0.11761764151E+04  0.00000000000E+00 0. -1.
         25    1    1    2    0    0 -0.86708537513E+02  0.46703505554E+02 -0.68756277447E+03  0.70573873122E+03  0.12500000000E+03 0.  0.
         25    1    1    2    0    0  0.20479712826E+02  0.52026414822E+02 -0.27169756195E+03  0.30425438641E+03  0.12500000000E+03 0.  0.
         25    1    1    2    0    0  0.66228824688E+02 -0.98729920377E+02 -0.15271008634E+03  0.23038928983E+03  0.12500000000E+03 0.  0.
</event>
<event>
 5    0  0.5452999E-005  0.2463251E+03  0.7546771E-02  0.1115650E+00
         21   -1    0    0  502  501  0.00000000000E+00  0.00000000000E+00  0.12272484282E+04  0.12272484282E+04  0.00000000000E+00 0. -1.
         21   -1    0    0  501  502 -0.00000000000E+00 -0.00000000000E+00 -0.49440716415E+02  0.49440716415E+02  0.00000000000E+00 0. -1.
         25    1    1    2    0    0 -0.12254697359E+03  0.53256466845E+02  0.51624656348E+03  0.54771299629E+03  0.12500000000E+03 0.  0.
         25    1    1    2    0    0  0.19127117537E+02  0.82961278849E+01  0.21066949773E+03  0.24584814345E+03  0.12500000000E+03 0.  0.
         25    1    1    2    0    0  0.10341985605E+03 -0.61552594730E+02  0.45089165061E+03  0.48312800492E+03  0.12500000000E+03 0.  0.
</event>
<event>
 5    0  0.5452999E-005  0.3502822E+03  0.7546771E-02  0.1062499E+00
         21   -1    0    0  502  501  0.00000000000E+00  0.00000000000E+00  0.12183515309E+04  0.12183515309E+04  0.00000000000E+00 0. -1.
         21   -1    0    0  501  502 -0.00000000000E+00 -0.00000000000E+00 -0.10070788088E+03  0.10070788088E+03  0.00000000000E+00 0. -1.
         25    1    1    2    0    0 -0.49886477430E+01  0.13988594959E+03  0.33864979175E+03  0.38717134056E+03  0.12500000000E+03 0.  0.
         25    1    1    2    0    0 -0.38218059294E+01  0.10555488684E+03  0.83363278758E+02  0.18365967598E+03  0.12500000000E+03 0.  0.
         25    1    1    2    0    0  0.88104536724E+01 -0.24544083643E+03  0.69563057952E+03  0.74822839524E+03  0.12500000000E+03 0.  0.
</event>
<event>
 5    0  0.5452999E-005  0.2291430E+03  0.7546771E-02  0.1127244E+00
         21   -1    0    0  502  501  0.00000000000E+00  0.00000000000E+00  0.10465135079E+03  0.10465135079E+03  0.00000000000E+00 0. -1.
         21   -1    0    0  501  502 -0.00000000000E+00 -0.00000000000E+00 -0.50172813374E+03  0.50172813374E+03  0.00000000000E+00 0. -1.
         25    1    1    2    0    0  0.88414316851E+02  0.31892706123E+02 -0.11636680205E+03  0.19493708921E+03  0.12500000000E+03 0.  0.
         25    1    1    2    0    0  0.23209652860E+01 -0.11405875513E+02 -0.19955977422E+03  0.23576383175E+03  0.12500000000E+03 0.  0.
         25    1    1    2    0    0 -0.90735282137E+02 -0.20486830609E+02 -0.81150206686E+02  0.17567856357E+03  0.12500000000E+03 0.  0.
</event>
<event>
 5    0  0.5452999E-005  0.2497643E+03  0.7546771E-02  0.1113454E+00
         21   -1    0    0  502  501  0.00000000000E+00  0.00000000000E+00  0.85891950309E+03  0.85891950309E+03  0.00000000000E+00 0. -1.
         21   -1    0    0  501  502 -0.00000000000E+00 -0.00000000000E+00 -0.72628711728E+02  0.72628711728E+02  0.00000000000E+00 0. -1.
         25    1    1    2    0    0  0.10169726065E+03 -0.52275945566E+02  0.47349496088E+03  0.50288923760E+03  0.12500000000E+03 0.  0.
         25    1    1    2    0    0 -0.23079891612E+02 -0.16228743282E+02  0.11219583232E+03  0.17032016409E+03  0.12500000000E+03 0.  0.
         25    1    1    2    0    0 -0.78617369043E+02  0.68504688848E+02  0.20059999816E+03  0.25833881313E+03  0.12500000000E+03 0.  0.
</event>
<event>
 5    0  0.5452999E-005  0.2180763E+03  0.7546771E-02  0.1135325E+00
         21   -1    0    0  502  501  0.00000000000E+00  0.00000000000E+00  0.90853611738E+02  0.90853611738E+02  0.00000000000E+00 0. -1.
         21   -1    0    0  501  502 -0.00000000000E+00 -0.00000000000E+00 -0.52344934922E+03  0.52344934922E+03  0.00000000000E+00 0. -1.
         25    1    1    2    0    0 -0.37547156865E+02 -0.56431646171E+02 -0.17921614986E+03  0.22877444798E+03  0.12500000000E+03 0.  0.
         25    1    1    2    0    0  0.45050039979E+02 -0.28463797873E+02 -0.14939447841E+03  0.20194901355E+03  0.12500000000E+03 0.  0.
         25    1    1    2    0    0 -0.75028831137E+01  0.84895444044E+02 -0.10398510921E+03  0.18357949943E+03  0.12500000000E+03 0.  0.
</event>
<event>
 5    0  0.5452999E-005  0.5022853E+03  0.7546771E-02  0.1013184E+00
         21   -1    0    0  502  501  0.00000000000E+00  0.00000000000E+00  0.19525783338E+04  0.19525783338E+04  0.00000000000E+00 0.  1.
         21   -1    0    0  501  502 -0.00000000000E+00 -0.00000000000E+00 -0.12920890679E+03  0.12920890679E+03  0.00000000000E+00 0.  1.
         25    1    1    2    0    0 -0.18108481493E+03  0.37351992234E+03  0.10762188526E+04  0.11602503442E+04  0.12500000000E+03 0.  0.
         25    1    1    2    0    0  0.13279781178E+03 -0.34916140076E+03  0.62389329018E+03  0.73784604094E+03  0.12500000000E+03 0.  0.
         25    1    1    2    0    0  0.48287003148E+02 -0.24358521578E+02  0.12325728421E+03  0.18369085540E+03  0.12500000000E+03 0.  0.
</event>
<event>
 5    0  0.5452999E-005  0.2749906E+03  0.7546771E-02  0.1098457E+00
         21   -1    0    0  502  501  0.00000000000E+00  0.00000000000E+00  0.64483867435E+02  0.64483867435E+02  0.00000000000E+00 0.  1.
         21   -1    0    0  501  502 -0.00000000000E+00 -0.00000000000E+00 -0.11726935569E+04  0.11726935569E+04  0.00000000000E+00 0.  1.
         25    1    1    2    0    0 -0.93747141297E+02 -0.97663828891E+02 -0.21931743237E+03  0.28644700403E+03  0.12500000000E+03 0.  0.
         25    1    1    2    0    0  0.73630033752E+02  0.66889272660E+02 -0.71951224784E+03  0.73703353483E+03  0.12500000000E+03 0.  0.
         25    1    1    2    0    0  0.20117107545E+02  0.30774556232E+02 -0.16938000924E+03  0.21369688546E+03  0.12500000000E+03 0.  0.
</event>
<event>
 5    0  0.5452999E-005  0.1957830E+03  0.7546771E-02  0.1153346E+00
         21   -1    0    0  502  501  0.00000000000E+00  0.00000000000E+00  0.30191719333E+03  0.30191719333E+03  0.00000000000E+00 0. -1.
         21   -1    0    0  501  502 -0.00000000000E+00 -0.00000000000E+00 -0.12695857281E+03  0.12695857281E+03  0.00000000000E+00 0. -1.
         25    1    1    2    0    0  0.20609686054E+01 -0.41839971349E+01  0.44722395535E+02  0.13284143211E+03  0.12500000000E+03 0.  0.
         25    1    1    2    0    0  0.18331724502E+02 -0.23803647457E+02  0.99936867667E+02  0.16283440446E+03  0.12500000000E+03 0.  0.
         25    1    1    2    0    0 -0.20392693108E+02  0.27987644592E+02  0.30299357316E+02  0.13319992956E+03  0.12500000000E+03 0.  0.
</event>
<event>
 5    0  0.5452999E-005  0.3484050E+03  0.7546771E-02  0.1063272E+00
         21   -1    0    0  502  501  0.00000000000E+00  0.00000000000E+00  0.24684414835E+03  0.24684414835E+03  0.00000000000E+00 0. -1.
         21   -1    0    0  501  502 -0.00000000000E+00 -0.00000000000E+00 -0.49175177284E+03  0.49175177284E+03  0.00000000000E+00 0. -1.
         25    1    1    2    0    0 -0.15600184204E+03 -0.26331598468E+02 -0.22443016341E+03  0.30170155128E+03  0.12500000000E+03 0.  0.
         25    1    1    2    0    0  0.12474249133E+03 -0.77498307382E+02  0.11368242627E+03  0.22386462613E+03  0.12500000000E+03 0.  0.
         25    1    1    2    0    0  0.31259350713E+02  0.10382990585E+03 -0.13415988735E+03  0.21302974377E+03  0.12500000000E+03 0.  0.
</event>
<event>
 5    0  0.5452999E-005  0.2314735E+03  0.7546771E-02  0.1125607E+00
         21   -1    0    0  502  501  0.00000000000E+00  0.00000000000E+00  0.23993999328E+03  0.23993999328E+03  0.00000000000E+00 0.  1.
         21   -1    0    0  501  502 -0.00000000000E+00 -0.00000000000E+00 -0.22330583990E+03  0.22330583990E+03  0.00000000000E+00 0.  1.
         25    1    1    2    0    0  0.72030645936E+02 -0.70080624779E+02  0.19859440168E+02  0.16161406278E+03  0.12500000000E+03 0.  0.
         25    1    1    2    0    0  0.19875223361E+02 -0.85973194110E+01 -0.12157528844E+02  0.12744310069E+03  0.12500000000E+03 0.  0.
         25    1    1    2    0    0 -0.91905869297E+02  0.78677944190E+02  0.89322420555E+01  0.17418866973E+03  0.12500000000E+03 0.  0.
</event>
<event>
 5    0  0.5452999E-005  0.2788120E+03  0.7546771E-02  0.1096340E+00
         21   -1    0    0  502  501  0.00000000000E+00  0.00000000000E+00  0.13216286536E+04  0.13216286536E+04  0.00000000000E+00 0.  1.
         21   -1    0    0  501  502 -0.00000000000E+00 -0.00000000000E+00 -0.58818445973E+02  0.58818445973E+02  0.00000000000E+00 0.  1.
         25    1    1    2    0    0  0.48951571629E+02  0.16812399264E+02  0.19205500181E+03  0.23492347021E+03  0.12500000000E+03 0.  0.
         25    1    1    2    0    0 -0.16810115448E+03 -0.32226824345E+02  0.39951540857E+03  0.45225449476E+03  0.12500000000E+03 0.  0.
         25    1    1    2    0    0  0.11914958285E+03  0.15414425082E+02  0.67123979724E+03  0.69326913461E+03  0.12500000000E+03 0.  0.
</event>
<event>
 5    0  0.5452999E-005  0.3940079E+03  0.7546771E-02  0.1045874E+00
         21   -1    0    0  502  501  0.00000000000E+00  0.00000000000E+00  0.79987792412E+03  0.79987792412E+03  0.00000000000E+00 0. -1.
         21   -1    0    0  501  502 -0.00000000000E+00 -0.00000000000E+00 -0.19408241798E+03  0.19408241798E+03  0.00000000000E+00 0. -1.
         25    1    1    2    0    0  0.23845582125E+02  0.60756398967E+02  0.12820045399E+03  0.19057887660E+03  0.12500000000E+03 0.  0.
         25    1    1    2    0    0  0.99267127785E+01  0.13718187943E+03  0.52954770345E+03  0.56121580332E+03  0.12500000000E+03 0.  0.
         25    1    1    2    0    0 -0.33772294903E+02 -0.19793827840E+03 -0.51952651302E+02  0.24216566217E+03  0.12500000000E+03 0.  0.
</event>
<event>
 5    0  0.6002994E-005  0.3022830E+03  0.7546771E-02  0.1084105E+00
         21   -1    0    0  502  501  0.00000000000E+00  0.00000000000E+00  0.23523153457E+03  0.23523153457E+03  0.00000000000E+00 0.  1.
         21   -1    0    0  501  502 -0.00000000000E+00 -0.00000000000E+00 -0.38844702734E+03  0.38844702734E+03  0.00000000000E+00 0.  1.
         25    1    1    2    0    0  0.11048912061E+03 -0.49594684825E+02  0.16696664600E+02  0.17484638156E+03  0.12500000000E+03 0.  0.
         25    1    1    2    0    0  0.88373331566E+02  0.40006102357E+02  0.93101277068E+00  0.15822831840E+03  0.12500000000E+03 0.  0.
         25    1    1    2    0    0 -0.19886245217E+03  0.95885824684E+01 -0.17084317015E+03  0.29060386195E+03  0.12500000000E+03 0.  0.
</event>
<event>
 5    0  0.5452999E-005  0.2047051E+03  0.7546771E-02  0.1145829E+00
         21   -1    0    0  502  501  0.00000000000E+00  0.00000000000E+00  0.13041321596E+03  0.13041321596E+03  0.00000000000E+00 0.  1.
         21   -1    0    0  501  502 -0.00000000000E+00 -0.00000000000E+00 -0.32131851651E+03  0.32131851651E+03  0.00000000000E+00 0.  1.
         25    1    1    2    0    0  0.41185223412E+02 -0.18075692588E+02 -0.10832230770E+03  0.17141083874E+03  0.12500000000E+03 0.  0.
         25    1    1    2    0    0 -0.39506059965E+02  0.42083485085E+02 -0.63431658685E+02  0.15159262454E+03  0.12500000000E+03 0.  0.
         25    1    1    2    0    0 -0.16791634463E+01 -0.24007792497E+02 -0.19151334163E+02  0.12872826920E+03  0.12500000000E+03 0.  0.
</event>
<event>
 5    0  0.5452999E-005  0.3436328E+03  0.7546771E-02  0.1065259E+00
         21   -1    0    0  502  501  0.00000000000E+00  0.00000000000E+00  0.91246255437E+02  0.91246255437E+02  0.00000000000E+00 0.  1.
         21   -1    0    0  501  502 -0.00000000000E+00 -0.00000000000E+00 -0.12941186151E+04  0.12941186151E+04  0.00000000000E+00 0.  1.
         25    1    1    2    0    0  0.14458544160E+02 -0.72272763910E+02 -0.65996098598E+03  0.67572620559E+03  0.12500000000E+03 0.  0.
         25    1    1    2    0    0  0.10090994191E+03  0.18732028229E+03 -0.34717292243E+03  0.42594100836E+03  0.12500000000E+03 0.  0.
         25    1    1    2    0    0 -0.11536848607E+03 -0.11504751838E+03 -0.19573845128E+03  0.28369765662E+03  0.12500000000E+03 0.  0.
</event>
<event>
 5    0  0.5452999E-005  0.3165733E+03  0.7546771E-02  0.1077237E+00
         21   -1    0    0  502  501  0.00000000000E+00  0.00000000000E+00  0.21412695284E+04  0.21412695284E+04  0.00000000000E+00 0.  1.
         21   -1    0    0  501  502 -0.00000000000E+00 -0.00000000000E+00 -0.46803385631E+02  0.46803385631E+02  0.00000000000E+00 0.  1.
         25    1    1    2    0    0  0.82189794298E+02  0.82349596800E+02  0.10149618776E+04  0.10292274925E+04  0.12500000000E+03 0.  0.
         25    1    1    2    0    0  0.18421526962E+02  0.32912469309E+02  0.83187738778E+03  0.84206150107E+03  0.12500000000E+03 0.  0.
         25    1    1    2    0    0 -0.10061132126E+03 -0.11526206611E+03  0.24762687745E+03  0.31678392049E+03  0.12500000000E+03 0.  0.
</event>
<event>
 5    0  0.5954675E-005  0.3029230E+03  0.7546771E-02  0.1083788E+00
         21   -1    0    0  502  501  0.00000000000E+00  0.00000000000E+00  0.54205894008E+03  0.54205894008E+03  0.00000000000E+00 0.  1.
         21   -1    0    0  501  502 -0.00000000000E+00 -0.00000000000E+00 -0.16928485662E+03  0.16928485662E+03  0.00000000000E+00 0.  1.
         25    1    1    2    0    0 -0.37212861473E+02 -0.13586170317E+03 -0.47072086476E+02  0.19412362240E+03  0.12500000000E+03 0.  0.
         25    1    1    2    0    0  0.20583189284E+02  0.17062137358E+02  0.19918758324E+03  0.23667589131E+03  0.12500000000E+03 0.  0.
         25    1    1    2    0    0  0.16629672190E+02  0.11879956582E+03  0.22065858669E+03  0.28054428298E+03  0.12500000000E+03 0.  0.
</event>
<event>
 5    0  0.5452999E-005  0.2404970E+03  0.7546771E-02  0.1119462E+00
         21   -1    0    0  502  501  0.00000000000E+00  0.00000000000E+00  0.12404270123E+04  0.12404270123E+04  0.00000000000E+00 0. -1.
         21   -1    0    0  501  502 -0.00000000000E+00 -0.00000000000E+00 -0.46628158086E+02  0.46628158086E+02  0.00000000000E+00 0. -1.
         25    1    1    2    0    0  0.40395343361E+02 -0.12688061009E+03  0.38069338833E+03  0.42223563196E+03  0.12500000000E+03 0.  0.
         25    1    1    2    0    0  0.56299402083E+01  0.94998256253E+02  0.45947020736E+03  0.48558648701E+03  0.12500000000E+03 0.  0.
         25    1    1    2    0    0 -0.46025283570E+02  0.31882353832E+02  0.35363525856E+03  0.37923305145E+03  0.12500000000E+03 0.  0.
</event>
<event>
 5    0  0.5452999E-005  0.3991352E+03  0.7546771E-02  0.1044080E+00
         21   -1    0    0  502  501  0.00000000000E+00  0.00000000000E+00  0.35160096029E+03  0.35160096029E+03  0.00000000000E+00 0.  1.
         21   -1    0    0  501  502 -0.00000000000E+00 -0.00000000000E+00 -0.45309583938E+03  0.45309583938E+03  0.00000000000E+00 0.  1.
         25    1    1    2    0    0  0.14727173012E+03  0.40506277459E+02 -0.13924016843E+03  0.24154201604E+03  0.12500000000E+03 0.  0.
         25    1    1    2    0    0  0.95916782471E+02 -0.18357114290E+03 -0.39290669195E+02  0.24508600603E+03  0.12500000000E+03 0.  0.
         25    1    1    2    0    0 -0.24318851259E+03  0.14306486544E+03  0.77035958529E+02  0.31806877761E+03  0.12500000000E+03 0.  0.
</event>
<event>
 5    0  0.5452999E-005  0.2816683E+03  0.7546771E-02  0.1094781E+00
         21   -1    0    0  502  501  0.00000000000E+00  0.00000000000E+00  0.31166708107E+03  0.31166708107E+03  0.00000000000E+00 0.  1.
         21   -1    0    0  501  502 -0.00000000000E+00 -0.00000000000E+00 -0.25455693459E+03  0.25455693459E+03  0.00000000000E+00 0.  1.
         25    1    1    2    0    0  0.38585752990E+02 -0.57450510113E+02  0.14721011366E+03  0.20514687180E+03  0.12500000000E+03 0.  0.
         25    1    1    2    0    0  0.75998368741E+02 -0.15228974949E+02  0.16500605459E+02  0.14800318817E+03  0.12500000000E+03 0.  0.
         25    1    1    2    0    0 -0.11458412173E+03  0.72679485061E+02 -0.10660057264E+03  0.21307395568E+03  0.12500000000E+03 0.  0.
</event>
<event>
 5    0  0.5452999E-005  0.4480123E+03  0.7546771E-02  0.1028316E+00
         21   -1    0    0  502  501  0.00000000000E+00  0.00000000000E+00  0.59242376401E+03  0.59242376401E+03  0.00000000000E+00 0.  1.
         21   -1    0    0  501  502 -0.00000000000E+00 -0.00000000000E+00 -0.33880316060E+03  0.33880316060E+03  0.00000000000E+00 0.  1.
         25    1    1    2    0    0  0.18220416553E+03  0.20428314899E+03  0.28893958798E+03  0.41718227239E+03  0.12500000000E+03 0.  0.
         25    1    1    2    0    0 -0.10963455060E+03 -0.29540306965E+03 -0.49581854568E+02  0.34258731521E+03  0.12500000000E+03 0.  0.
         25    1    1    2    0    0 -0.72569614931E+02  0.91119920651E+02  0.14262869998E+02  0.17145733700E+03  0.12500000000E+03 0.  0.
</event>
<event>
 5    0  0.5452999E-005  0.4805904E+03  0.7546771E-02  0.1018973E+00
         21   -1    0    0  502  501  0.00000000000E+00  0.00000000000E+00  0.42618248446E+03  0.42618248446E+03  0.00000000000E+00 0.  1.
         21   -1    0    0  501  502 -0.00000000000E+00 -0.00000000000E+00 -0.54194426028E+03  0.54194426028E+03  0.00000000000E+00 0.  1.
         25    1    1    2    0    0  0.38575234002E+02 -0.21553983372E+03  0.88240961915E+02  0.26712719060E+03  0.12500000000E+03 0.  0.
         25    1    1    2    0    0 -0.22910540478E+03  0.16718916069E+02  0.92576827569E+02  0.27742436385E+03  0.12500000000E+03 0.  0.
         25    1    1    2    0    0  0.19053017078E+03  0.19882091765E+03 -0.29657956530E+03  0.42357519029E+03  0.12500000000E+03 0.  0.
</event>
<event>
 5    0  0.6442418E-005  0.3014674E+03  0.7546771E-02  0.1084509E+00
         21   -1    0    0  502  501  0.00000000000E+00  0.00000000000E+00  0.48975198528E+03  0.48975198528E+03  0.00000000000E+00 0.  1.
         21   -1    0    0  501  502 -0.00000000000E+00 -0.00000000000E+00 -0.18556865691E+03  0.18556865691E+03  0.00000000000E+00 0.  1.
         25    1    1    2    0    0 -0.14456018272E+02 -0.32749991482E+02  0.24409278207E+03  0.27656432284E+03  0.12500000000E+03 0.  0.
         25    1    1    2    0    0  0.11115269755E+03  0.46507737481E+02 -0.76212336477E+02  0.18960804848E+03  0.12500000000E+03 0.  0.
         25    1    1    2    0    0 -0.96696679279E+02 -0.13757745998E+02  0.13630288278E+03  0.20914827088E+03  0.12500000000E+03 0.  0.
</event>
<event>
 5    0  0.6574343E-005  0.6414344E+03  0.7546771E-02  0.9822986E-01
         21   -1    0    0  502  501  0.00000000000E+00  0.00000000000E+00  0.54539364434E+03  0.54539364434E+03  0.00000000000E+00 0. -1.
         21   -1    0    0  501  502 -0.00000000000E+00 -0.00000000000E+00 -0.75438739865E+03  0.75438739865E+03  0.00000000000E+00 0. -1.
         25    1    1    2    0    0 -0.24352123974E+03  0.18047533152E+02  0.29764078303E+03  0.40477567044E+03  0.12500000000E+03 0.  0.
         25    1    1    2    0    0 -0.19801245111E+02  0.43086522967E+02 -0.57424330939E+03  0.58960064124E+03  0.12500000000E+03 0.  0.
         25    1    1    2    0    0  0.26332248485E+03 -0.61134056119E+02  0.67608772059E+02  0.30540473130E+03  0.12500000000E+03 0.  0.
</event>
<event>
 5    0  0.5452999E-005  0.2667491E+03  0.7546771E-02  0.1103155E+00
         21   -1    0    0  502  501  0.00000000000E+00  0.00000000000E+00  0.37101847884E+03  0.37101847884E+03  0.00000000000E+00 0. -1.
         21   -1    0    0  501  502 -0.00000000000E+00 -0.00000000000E+00 -0.19178305774E+03  0.19178305774E+03  0.00000000000E+00 0. -1.
         25    1    1    2    0    0 -0.98739396903E+02  0.48505905435E+01  0.40284844007E+01  0.15941839736E+03  0.12500000000E+03 0.  0.
         25    1    1    2    0    0  0.13355072942E+03  0.76896716061E+02  0.14819865886E+03  0.24766256229E+03  0.12500000000E+03 0.  0.
         25    1    1    2    0    0 -0.34811332517E+02 -0.81747306605E+02  0.27008277837E+02  0.15572057693E+03  0.12500000000E+03 0.  0.
</event>
<event>
 5    0  0.5452999E-005  0.3655246E+03  0.7546771E-02  0.1056418E+00
         21   -1    0    0  502  501  0.00000000000E+00  0.00000000000E+00  0.73703497281E+02  0.73703497281E+02  0.00000000000E+00 0. -1.
         21   -1    0    0  501  502 -0.00000000000E+00 -0.00000000000E+00 -0.18127803989E+04  0.18127803989E+04  0.00000000000E+00 0. -1.
         25    1    1    2    0    0  0.28798329369E+01 -0.13172379303E+03 -0.42865271945E+03  0.46554012177E+03  0.12500000000E+03 0.  0.
         25    1    1    2    0    0 -0.56409982529E+01  0.28457589193E+03 -0.51657198103E+03  0.60289872343E+03  0.12500000000E+03 0.  0.
         25    1    1    2    0    0  0.27611653160E+01 -0.15285209891E+03 -0.79385220112E+03  0.81804505096E+03  0.12500000000E+03 0.  0.
</event>
<event>
 5    0  0.5452999E-005  0.6617054E+03  0.7546771E-02  0.9785059E-01
         21   -1    0    0  502  501  0.00000000000E+00  0.00000000000E+00  0.20765005734E+03  0.20765005734E+03  0.00000000000E+00 0.  1.
         21   -1    0    0  501  502 -0.00000000000E+00 -0.00000000000E+00 -0.21086150888E+04  0.21086150888E+04  0.00000000000E+00 0. -1.
         25    1    1    2    0    0  0.24092197963E+03  0.46429622565E+03 -0.46981784363E+03  0.71412057218E+03  0.12500000000E+03 0.  0.
         25    1    1    2    0    0 -0.16311351981E+03 -0.12089351435E+03 -0.18672567174E+03  0.30284111122E+03  0.12500000000E+03 0.  0.
         25    1    1    2    0    0 -0.77808459813E+02 -0.34340271130E+03 -0.12444215161E+04  0.12993034627E+04  0.12500000000E+03 0.  0.
</event>
<event>
 5    0  0.5452999E-005  0.5350305E+03  0.7546771E-02  0.1005019E+00
         21   -1    0    0  502  501  0.00000000000E+00  0.00000000000E+00  0.11847486009E+04  0.11847486009E+04  0.00000000000E+00 0.  1.
         21   -1    0    0  501  502 -0.00000000000E+00 -0.00000000000E+00 -0.24161891526E+03  0.24161891526E+03  0.00000000000E+00 0.  1.
         25    1    1    2    0    0  0.30051559625E+03  0.83190335879E+02  0.57601607472E+03  0.66682064598E+03  0.12500000000E+03 0.  0.
         25    1    1    2    0    0 -0.38599162978E+03 -0.33339556519E+02  0.57282225764E+02  0.41110499592E+03  0.12500000000E+03 0.  0.
         25    1    1    2    0    0  0.85476033528E+02 -0.49850779360E+02  0.30983138513E+03  0.34844187423E+03  0.12500000000E+03 0.  0.
</event>
<event>
 5    0  0.5452999E-005  0.2549444E+03  0.7546771E-02  0.1110219E+00
         21   -1    0    0  502  501  0.00000000000E+00  0.00000000000E+00  0.21321739138E+02  0.21321739138E+02  0.00000000000E+00 0.  1.
         21   -1    0    0  501  502 -0.00000000000E+00 -0.00000000000E+00 -0.30483745717E+04  0.30483745717E+04  0.00000000000E+00 0.  1.
         25    1    1    2    0    0 -0.11400185391E+03 -0.10263100755E+03 -0.98914163471E+03  0.10087396691E+04  0.12500000000E+03 0.  0.
         25    1    1    2    0    0  0.10301931402E+02  0.38118221258E+02 -0.97542942395E+03  0.98419850116E+03  0.12500000000E+03 0.  0.
         25    1    1    2    0    0  0.10369992251E+03  0.64512786289E+02 -0.10624817739E+04  0.10767581406E+04  0.12500000000E+03 0.  0.
</event>
<event>
 5    0  0.5452999E-005  0.4279143E+03  0.7546771E-02  0.1034521E+00
         21   -1    0    0  502  501  0.00000000000E+00  0.00000000000E+00  0.16404970560E+03  0.16404970560E+03  0.00000000000E+00 0. -1.
         21   -1    0    0  501  502 -0.00000000000E+00 -0.00000000000E+00 -0.11161900548E+04  0.11161900548E+04  0.00000000000E+00 0. -1.
         25    1    1    2    0    0  0.28559908655E+03  0.54080356202E+02 -0.46039452445E+03  0.55864088760E+03  0.12500000000E+03 0.  0.
         25    1    1    2    0    0 -0.25040974835E+03 -0.50368440396E+02 -0.51625551889E+03  0.58939526860E+03  0.12500000000E+03 0.  0.
         25    1    1    2    0    0 -0.35189338194E+02 -0.37119158059E+01  0.24509694182E+02  0.13220360415E+03  0.12500000000E+03 0.  0.
</event>
<event>
 5    0  0.5452999E-005  0.6286418E+03  0.7546771E-02  0.9847703E-01
         21   -1    0    0  502  501  0.00000000000E+00  0.00000000000E+00  0.23527911045E+04  0.23527911045E+04  0.00000000000E+00 0.  1.
         21   -1    0    0  501  502 -0.00000000000E+00 -0.00000000000E+00 -0.16796667272E+03  0.16796667272E+03  0.00000000000E+00 0.  1.
         25    1    1    2    0    0 -0.36842447321E+03  0.20525451278E+03  0.12567512318E+04  0.13315084176E+04  0.12500000000E+03 0.  0.
         25    1    1    2    0    0 -0.12770241270E+03  0.18309986263E+02  0.29252440066E+03  0.34327639998E+03  0.12500000000E+03 0.  0.
         25    1    1    2    0    0  0.49612688590E+03 -0.22356449905E+03  0.63554879934E+03  0.84597295967E+03  0.12500000000E+03 0.  0.
</event>
<event>
 5    0  0.5517241E-005  0.3130407E+03  0.7546771E-02  0.1078898E+00
         21   -1    0    0  502  501  0.00000000000E+00  0.00000000000E+00  0.29715443250E+03  0.29715443250E+03  0.00000000000E+00 0. -1.
         21   -1    0    0  501  502 -0.00000000000E+00 -0.00000000000E+00 -0.32977623264E+03  0.32977623264E+03  0.00000000000E+00 0. -1.
         25    1    1    2    0    0  0.14208097665E+03  0.92300672963E+02 -0.14441568122E+03  0.25531805095E+03  0.12500000000E+03 0.  0.
         25    1    1    2    0    0 -0.56150957762E+02 -0.13854629294E+03  0.75139740626E+02  0.20885158838E+03  0.12500000000E+03 0.  0.
         25    1    1    2    0    0 -0.85930018889E+02  0.46245619981E+02  0.36654140457E+02  0.16276102582E+03  0.12500000000E+03 0.  0.
</event>
<event>
 5    0  0.5452999E-005  0.2852444E+03  0.7546771E-02  0.1092859E+00
         21   -1    0    0  502  501  0.00000000000E+00  0.00000000000E+00  0.81708661235E+02  0.81708661235E+02  0.00000000000E+00 0.  1.
         21   -1    0    0  501  502 -0.00000000000E+00 -0.00000000000E+00 -0.99578659365E+03  0.99578659365E+03  0.00000000000E+00 0.  1.
         25    1    1    2    0    0 -0.64645843134E+02  0.82305323915E+02 -0.89571944284E+02  0.18601447412E+03  0.12500000000E+03 0.  0.
         25    1    1    2    0    0  0.39466520037E+02 -0.10161776499E+03 -0.23253335591E+03  0.28562306975E+03  0.12500000000E+03 0.  0.
         25    1    1    2    0    0  0.25179323098E+02  0.19312441073E+02 -0.59197263223E+03  0.60585771101E+03  0.12500000000E+03 0.  0.
</event>
<event>
 5    0  0.5452999E-005  0.4553709E+03  0.7546771E-02  0.1026132E+00
         21   -1    0    0  502  501  0.00000000000E+00  0.00000000000E+00  0.92857119376E+03  0.92857119376E+03  0.00000000000E+00 0. -1.
         21   -1    0    0  501  502 -0.00000000000E+00 -0.00000000000E+00 -0.22331372926E+03  0.22331372926E+03  0.00000000000E+00 0. -1.
         25    1    1    2    0    0 -0.49221732687E+02  0.20382337480E+03  0.20176789326E+03  0.31670495707E+03  0.12500000000E+03 0.  0.
         25    1    1    2    0    0  0.22952853836E+03  0.10131621173E+03  0.14412515878E+03  0.31519103108E+03  0.12500000000E+03 0.  0.
         25    1    1    2    0    0 -0.18030680567E+03 -0.30513958653E+03  0.35936441246E+03  0.51998893487E+03  0.12500000000E+03 0.  0.
</event>
<event>
 5    0  0.5452999E-005  0.2420427E+03  0.7546771E-02  0.1118439E+00
         21   -1    0    0  502  501  0.00000000000E+00  0.00000000000E+00  0.11762676506E+04  0.11762676506E+04  0.00000000000E+00 0.  1.
         21   -1    0    0  501  502 -0.00000000000E+00 -0.00000000000E+00 -0.49805568465E+02  0.49805568465E+02  0.00000000000E+00 0.  1.
         25    1    1    2    0    0  0.42500116184E+02 -0.39743249612E+02  0.36192060273E+03  0.38729485982E+03  0.12500000000E+03 0.  0.
         25    1    1    2    0    0  0.32758858270E+02 -0.69782649410E+02  0.22023150677E+03  0.26470677650E+03  0.12500000000E+03 0.  0.
         25    1    1    2    0    0 -0.75258974454E+02  0.10952589902E+03  0.54430997260E+03  0.57407158270E+03  0.12500000000E+03 0.  0.
</event>
<event>
 5    0  0.5452999E-005  0.3390916E+03  0.7546771E-02  0.1067183E+00
         21   -1    0    0  502  501  0.00000000000E+00  0.00000000000E+00  0.18088023447E+04  0.18088023447E+04  0.00000000000E+00 0. -1.
         21   -1    0    0  501  502 -0.00000000000E+00 -0.00000000000E+00 -0.63568639615E+02  0.63568639615E+02  0.00000000000E+00 0. -1.
         25    1    1    2    0    0  0.12958263978E+02 -0.42468613822E+02  0.31555371838E+02  0.13635336907E+03  0.12500000000E+03 0.  0.
         25    1    1    2    0    0  0.36221613119E+02  0.39953702125E+02  0.66694020871E+03  0.68069269540E+03  0.12500000000E+03 0.  0.
         25    1    1    2    0    0 -0.49179877097E+02  0.25149116971E+01  0.10467381245E+04  0.10553249198E+04  0.12500000000E+03 0.  0.
</event>
<event>
 5    0  0.5452999E-005  0.2642352E+03  0.7546771E-02  0.1104625E+00
         21   -1    0    0  502  501  0.00000000000E+00  0.00000000000E+00  0.20851525286E+03  0.20851525286E+03  0.00000000000E+00 0. -1.
         21   -1    0    0  501  502 -0.00000000000E+00 -0.00000000000E+00 -0.33484478041E+03  0.33484478041E+03  0.00000000000E+00 0. -1.
         25    1    1    2    0    0 -0.21978827451E+02 -0.84198868725E+01  0.23739807256E+02  0.12939297431E+03  0.12500000000E+03 0.  0.
         25    1    1    2    0    0  0.10213102210E+03 -0.10920415938E+03 -0.57935515663E+02  0.20331703833E+03  0.12500000000E+03 0.  0.
         25    1    1    2    0    0 -0.80152194649E+02  0.11762404626E+03 -0.92133819144E+02  0.21065002064E+03  0.12500000000E+03 0.  0.
</event>
<event>
 5    0  0.5452999E-005  0.5248820E+03  0.7546771E-02  0.1007481E+00
         21   -1    0    0  502  501  0.00000000000E+00  0.00000000000E+00  0.66755487666E+03  0.66755487666E+03  0.00000000000E+00 0. -1.
         21   -1    0    0  501  502 -0.00000000000E+00 -0.00000000000E+00 -0.41270176849E+03  0.41270176849E+03  0.00000000000E+00 0. -1.
         25    1    1    2    0    0  0.30486191654E+02  0.38742594607E+03  0.29082221439E+03  0.50122932072E+03  0.12500000000E+03 0.  0.
         25    1    1    2    0    0  0.94280769827E+01 -0.20919810421E+03  0.15309040668E+03  0.28794862051E+03  0.12500000000E+03 0.  0.
         25    1    1    2    0    0 -0.39914268636E+02 -0.17822784186E+03 -0.18905951290E+03  0.29107870391E+03  0.12500000000E+03 0.  0.
</event>
<event>
 5    0  0.5452999E-005  0.2465485E+03  0.7546771E-02  0.1115506E+00
         21   -1    0    0  502  501  0.00000000000E+00  0.00000000000E+00  0.15226908475E+03  0.15226908475E+03  0.00000000000E+00 0. -1.
         21   -1    0    0  501  502 -0.00000000000E+00 -0.00000000000E+00 -0.39920225685E+03  0.39920225685E+03  0.00000000000E+00 0. -1.
         25    1    1    2    0    0  0.69001397066E+02 -0.49872342729E+01 -0.49354231567E+01  0.14295252255E+03  0.12500000000E+03 0.  0.
         25    1    1    2    0    0 -0.75871525975E+02 -0.56605770884E+02 -0.21549629079E+03  0.26650394574E+03  0.12500000000E+03 0.  0.
         25    1    1    2    0    0  0.68701289091E+01  0.61593005157E+02 -0.26501458155E+02  0.14201487331E+03  0.12500000000E+03 0.  0.
</event>
<event>
 5    0  0.5452999E-005  0.4242751E+03  0.7546771E-02  0.1035684E+00
         21   -1    0    0  502  501  0.00000000000E+00  0.00000000000E+00  0.63334571261E+02  0.63334571261E+02  0.00000000000E+00 0.  1.
         21   -1    0    0  501  502 -0.00000000000E+00 -0.00000000000E+00 -0.28421975556E+04  0.28421975556E+04  0.00000000000E+00 0.  1.
         25    1    1    2    0    0  0.28048591631E+03  0.89251157711E+02 -0.18217324292E+04  0.18495870248E+04  0.12500000000E+03 0.  0.
         25    1    1    2    0    0 -0.34085878851E+02 -0.82292313464E+02 -0.21618971335E+03  0.26513555806E+03  0.12500000000E+03 0.  0.
         25    1    1    2    0    0 -0.24640003746E+03 -0.69588442468E+01 -0.74094084174E+03  0.79080954403E+03  0.12500000000E+03 0.  0.
</event>
<event>
 5    0  0.5452999E-005  0.3408288E+03  0.7546771E-02  0.1066443E+00
         21   -1    0    0  502  501  0.00000000000E+00  0.00000000000E+00  0.28120785136E+03  0.28120785136E+03  0.00000000000E+00 0.  1.
         21   -1    0    0  501  502 -0.00000000000E+00 -0.00000000000E+00 -0.41309036416E+03  0.41309036416E+03  0.00000000000E+00 0.  1.
         25    1    1    2    0    0 -0.17502663793E+03  0.12405443917E+03  0.37386200513E+02  0.25109073231E+03  0.12500000000E+03 0.  0.
         25    1    1    2    0    0  0.11075707588E+03  0.60127016322E+02 -0.63487141453E+02  0.18851526484E+03  0.12500000000E+03 0.  0.
         25    1    1    2    0    0  0.64269562054E+02 -0.18418145549E+03 -0.10578157186E+03  0.25469221837E+03  0.12500000000E+03 0.  0.
</event>
<event>
 5    0  0.5452999E-005  0.2239009E+03  0.7546771E-02  0.1131008E+00
         21   -1    0    0  502  501  0.00000000000E+00  0.00000000000E+00  0.67707704244E+03  0.67707704244E+03  0.00000000000E+00 0.  1.
         21   -1    0    0  501  502 -0.00000000000E+00 -0.00000000000E+00 -0.74041201867E+02  0.74041201867E+02  0.00000000000E+00 0.  1.
         25    1    1    2    0    0  0.55988283920E+02  0.16987161761E+02  0.25166449506E+03  0.28702485898E+03  0.12500000000E+03 0.  0.
         25    1    1    2    0    0 -0.31307814528E+02 -0.31206930136E+02  0.29620285748E+03  0.32452301077E+03  0.12500000000E+03 0.  0.
         25    1    1    2    0    0 -0.24680469391E+02  0.14219768374E+02  0.55168488037E+02  0.13957037456E+03  0.12500000000E+03 0.  0.
</event>
<event>
 5    0  0.5452999E-005  0.3122762E+03  0.7546771E-02  0.1079260E+00
         21   -1    0    0  502  501  0.00000000000E+00  0.00000000000E+00  0.75985704654E+02  0.75985704654E+02  0.00000000000E+00 0. -1.
         21   -1    0    0  501  502 -0.00000000000E+00 -0.00000000000E+00 -0.12833525993E+04  0.12833525993E+04  0.00000000000E+00 0. -1.
         25    1    1    2    0    0  0.92740565666E+01  0.48678582302E+02 -0.16913122439E+03  0.21606939525E+03  0.12500000000E+03 0.  0.
         25    1    1    2    0    0 -0.91422531545E+02  0.15366410978E+03 -0.59285899867E+03  0.63172583469E+03  0.12500000000E+03 0.  0.
         25    1    1    2    0    0  0.82148474979E+02 -0.20234269209E+03 -0.44537667161E+03  0.51154307404E+03  0.12500000000E+03 0.  0.
</event>
<event>
 5    0  0.5452999E-005  0.4124882E+03  0.7546771E-02  0.1039539E+00
         21   -1    0    0  502  501  0.00000000000E+00  0.00000000000E+00  0.29666650151E+03  0.29666650151E+03  0.00000000000E+00 0. -1.
         21   -1    0    0  501  502 -0.00000000000E+00 -0.00000000000E+00 -0.57352787552E+03  0.57352787552E+03  0.00000000000E+00 0. -1.
         25    1    1    2    0    0  0.50348787079E+02 -0.14727506503E+03 -0.35331867320E+03  0.40581280164E+03  0.12500000000E+03 0.  0.
         25    1    1    2    0    0 -0.58518521861E+02 -0.10465226433E+03  0.57041157486E+02  0.18236010386E+03  0.12500000000E+03 0.  0.
         25    1    1    2    0    0  0.81697347818E+01  0.25192732936E+03  0.19416141709E+02  0.28202147153E+03  0.12500000000E+03 0.  0.
</event>
<event>
 5    0  0.5452999E-005  0.2667641E+03  0.7546771E-02  0.1103146E+00
         21   -1    0    0  502  501  0.00000000000E+00  0.00000000000E+00  0.47792497136E+03  0.47792497136E+03  0.00000000000E+00 0. -1.
         21   -1    0    0  501  502 -0.00000000000E+00 -0.00000000000E+00 -0.14890011562E+03  0.14890011562E+03  0.00000000000E+00 0. -1.
         25    1    1    2    0    0  0.48132877710E+02 -0.14210481460E+03  0.15207174129E+03  0.24751033665E+03  0.12500000000E+03 0.  0.
         25    1    1    2    0    0 -0.81819749565E+02  0.13259728937E+03  0.14136856923E+03  0.24471735724E+03  0.12500000000E+03 0.  0.
         25    1    1    2    0    0  0.33686871855E+02  0.95075252315E+01  0.35584545219E+02  0.13459739310E+03  0.12500000000E+03 0.  0.
</event>
<event>
 5    0  0.5452999E-005  0.2967490E+03  0.7546771E-02  0.1086877E+00
         21   -1    0    0  502  501  0.00000000000E+00  0.00000000000E+00  0.24029560636E+02  0.24029560636E+02  0.00000000000E+00 0.  1.
         21   -1    0    0  501  502 -0.00000000000E+00 -0.00000000000E+00 -0.36646505081E+04  0.36646505081E+04  0.00000000000E+00 0.  1.
         25    1    1    2    0    0 -0.15326589265E+03  0.13312539538E+03 -0.13570067156E+04  0.13777899082E+04  0.12500000000E+03 0.  0.
         25    1    1    2    0    0  0.12505175456E+03 -0.28610642888E+02 -0.14510665949E+04  0.14620792636E+04  0.12500000000E+03 0.  0.
         25    1    1    2    0    0  0.28214138087E+02 -0.10451475249E+03 -0.83254763691E+03  0.84881089697E+03  0.12500000000E+03 0.  0.
</event>
<event>
 5    0  0.5728288E-005  0.5362763E+03  0.7546771E-02  0.1004721E+00
         21   -1    0    0  502  501  0.00000000000E+00  0.00000000000E+00  0.74803451128E+03  0.74803451128E+03  0.00000000000E+00 0.  1.
         21   -1    0    0  501  502 -0.00000000000E+00 -0.00000000000E+00 -0.38446395455E+03  0.38446395455E+03  0.00000000000E+00 0.  1.
         25    1    1    2    0    0 -0.15479216388E+03 -0.32230120333E+03 -0.44163069041E+01  0.37879174151E+03  0.12500000000E+03 0.  0.
         25    1    1    2    0    0  0.21112806115E+02  0.21384685438E+03  0.45925082441E+03  0.52221886927E+03  0.12500000000E+03 0.  0.
         25    1    1    2    0    0  0.13367935777E+03  0.10845434895E+03 -0.91263960776E+02  0.23148785505E+03  0.12500000000E+03 0.  0.
</event>
<event>
 5    0  0.5612254E-005  0.5418112E+03  0.7546771E-02  0.1003407E+00
         21   -1    0    0  502  501  0.00000000000E+00  0.00000000000E+00  0.28472718898E+03  0.28472718898E+03  0.00000000000E+00 0. -1.
         21   -1    0    0  501  502 -0.00000000000E+00 -0.00000000000E+00 -0.10310196550E+04  0.10310196550E+04  0.00000000000E+00 0. -1.
         25    1    1    2    0    0  0.74599406326E+02 -0.22339448103E+03 -0.58056221829E+03  0.63886434780E+03  0.12500000000E+03 0.  0.
         25    1    1    2    0    0 -0.39522299599E+02 -0.15640298607E+03  0.64667945571E+02  0.21408140835E+03  0.12500000000E+03 0.  0.
         25    1    1    2    0    0 -0.35077106727E+02  0.37979746710E+03 -0.23039819333E+03  0.46280108785E+03  0.12500000000E+03 0.  0.
</event>
<event>
 5    0  0.5452999E-005  0.4758507E+03  0.7546771E-02  0.1020282E+00
         21   -1    0    0  502  501  0.00000000000E+00  0.00000000000E+00  0.22553674354E+04  0.22553674354E+04  0.00000000000E+00 0. -1.
         21   -1    0    0  501  502 -0.00000000000E+00 -0.00000000000E+00 -0.10039776895E+03  0.10039776895E+03  0.00000000000E+00 0. -1.
         25    1    1    2    0    0  0.19419355999E+02 -0.21189535793E+03  0.31994551444E+03  0.40406297320E+03  0.12500000000E+03 0.  0.
         25    1    1    2    0    0 -0.37711951168E+02 -0.28685328685E+02  0.15577522231E+04  0.15634775432E+04  0.12500000000E+03 0.  0.
         25    1    1    2    0    0  0.18292595169E+02  0.24058068661E+03  0.27727192887E+03  0.38822468797E+03  0.12500000000E+03 0.  0.
</event>
<event>
 5    0  0.7372929E-005  0.4391004E+03  0.7546771E-02  0.1031023E+00
         21   -1    0    0  502  501  0.00000000000E+00  0.00000000000E+00  0.67873028176E+03  0.67873028176E+03  0.00000000000E+00 0.  1.
         21   -1    0    0  501  502 -0.00000000000E+00 -0.00000000000E+00 -0.28407333969E+03  0.28407333969E+03  0.00000000000E+00 0.  1.
         25    1    1    2    0    0  0.18688473140E+03  0.68540327382E+01  0.38503602871E+03  0.44592670249E+03  0.12500000000E+03 0.  0.
         25    1    1    2    0    0 -0.17894480428E+03 -0.14741438039E+03  0.12967617586E+03  0.29358670459E+03  0.12500000000E+03 0.  0.
         25    1    1    2    0    0 -0.79399271144E+01  0.14056034765E+03 -0.12005526250E+03  0.22329021436E+03  0.12500000000E+03 0.  0.
</event>
<event>
 5    0  0.5452999E-005  0.3873075E+03  0.7546771E-02  0.1048265E+00
         21   -1    0    0  502  501  0.00000000000E+00  0.00000000000E+00  0.15435162378E+03  0.15435162378E+03  0.00000000000E+00 0. -1.
         21   -1    0    0  501  502 -0.00000000000E+00 -0.00000000000E+00 -0.97185329631E+03  0.97185329631E+03  0.00000000000E+00 0. -1.
         25    1    1    2    0    0 -0.18266470186E+03  0.17333323446E+03 -0.15189094968E+03  0.31954133390E+03  0.12500000000E+03 0.  0.
         25    1    1    2    0    0  0.17507418426E+03 -0.90224784016E+02 -0.59794226773E+03  0.64183443129E+03  0.12500000000E+03 0.  0.
         25    1    1    2    0    0  0.75905175985E+01 -0.83108450440E+02 -0.67668455114E+02  0.16482915491E+03  0.12500000000E+03 0.  0.
</event>
<event>
 5    0  0.5452999E-005  0.3068701E+03  0.7546771E-02  0.1081856E+00
         21   -1    0    0  502  501  0.00000000000E+00  0.00000000000E+00  0.24838608003E+04  0.24838608003E+04  0.00000000000E+00 0. -1.
         21   -1    0    0  501  502 -0.00000000000E+00 -0.00000000000E+00 -0.37912460264E+02  0.37912460264E+02  0.00000000000E+00 0. -1.
         25    1    1    2    0    0  0.64212991328E+01  0.10357871430E+03  0.82377976931E+03  0.83964748047E+03  0.12500000000E+03 0.  0.
         25    1    1    2    0    0  0.34197131651E+02  0.10621491124E+03  0.37660990878E+03  0.41220271054E+03  0.12500000000E+03 0.  0.
         25    1    1    2    0    0 -0.40618430784E+02 -0.20979362554E+03  0.12455586620E+04  0.12699230696E+04  0.12500000000E+03 0.  0.
</event>
<event>
 5    0  0.5452999E-005  0.4658399E+03  0.7546771E-02  0.1023101E+00
         21   -1    0    0  502  501  0.00000000000E+00  0.00000000000E+00  0.65966289677E+03  0.65966289677E+03  0.00000000000E+00 0. -1.
         21   -1    0    0  501  502 -0.00000000000E+00 -0.00000000000E+00 -0.32896627854E+03  0.32896627854E+03  0.00000000000E+00 0. -1.
         25    1    1    2    0    0 -0.25876521676E+03  0.16843489669E+03  0.38150708596E+03  0.50646066823E+03  0.12500000000E+03 0.  0.
         25    1    1    2    0    0  0.13076004182E+03  0.27606936746E+02 -0.10544012495E+03  0.21119410845E+03  0.12500000000E+03 0.  0.
         25    1    1    2    0    0  0.12800517494E+03 -0.19604183343E+03  0.54629657225E+02  0.27097439863E+03  0.12500000000E+03 0.  0.
</event>
<event>
 5    0  0.5452999E-005  0.2639770E+03  0.7546771E-02  0.1104777E+00
         21   -1    0    0  502  501  0.00000000000E+00  0.00000000000E+00  0.12900207594E+03  0.12900207594E+03  0.00000000000E+00 0. -1.
         21   -1    0    0  501  502 -0.00000000000E+00 -0.00000000000E+00 -0.54017610984E+03  0.54017610984E+03  0.00000000000E+00 0. -1.
         25    1    1    2    0    0  0.91475670717E+02  0.16918738654E+02 -0.60720011750E+02  0.16723026603E+03  0.12500000000E+03 0.  0.
         25    1    1    2    0    0 -0.15316742055E+03  0.27409082546E+02 -0.26761060316E+03  0.33384420236E+03  0.12500000000E+03 0.  0.
         25    1    1    2    0    0  0.61691749834E+02 -0.44327821200E+02 -0.82843418980E+02  0.16810371738E+03  0.12500000000E+03 0.  0.
</event>
<event>
 5    0  0.5452999E-005  0.4308056E+03  0.7546771E-02  0.1033606E+00
         21   -1    0    0  502  501  0.00000000000E+00  0.00000000000E+00  0.46715459048E+03  0.46715459048E+03  0.00000000000E+00 0. -1.
         21   -1    0    0  501  502 -0.00000000000E+00 -0.00000000000E+00 -0.39728496983E+03  0.39728496983E+03  0.00000000000E+00 0. -1.
         25    1    1    2    0    0 -0.16451954215E+02  0.14478687567E+03  0.28404882781E+03  0.34284492521E+03  0.12500000000E+03 0.  0.
         25    1    1    2    0    0  0.18532918110E+03 -0.10126679257E+03 -0.17994677430E+03  0.30431514952E+03  0.12500000000E+03 0.  0.
         25    1    1    2    0    0 -0.16887722689E+03 -0.43520083103E+02 -0.34232432872E+02  0.21727948558E+03  0.12500000000E+03 0.  0.
</event>
<event>
 5    0  0.5452999E-005  0.2893991E+03  0.7546771E-02  0.1090663E+00
         21   -1    0    0  502  501  0.00000000000E+00  0.00000000000E+00  0.20140685948E+03  0.20140685948E+03  0.00000000000E+00 0. -1.
         21   -1    0    0  501  502 -0.00000000000E+00 -0.00000000000E+00 -0.41583395179E+03  0.41583395179E+03  0.00000000000E+00 0. -1.
         25    1    1    2    0    0 -0.33055539564E+02  0.13061555419E+03 -0.10178619092E+03  0.21009169511E+03  0.12500000000E+03 0.  0.
         25    1    1    2    0    0  0.14461832707E+03 -0.59248919506E+02 -0.15435394985E+02  0.20071907335E+03  0.12500000000E+03 0.  0.
         25    1    1    2    0    0 -0.11156278751E+03 -0.71366634680E+02 -0.97205506405E+02  0.20643004282E+03  0.12500000000E+03 0.  0.
</event>
<event>
 5    0  0.5497534E-005  0.3356167E+03  0.7546771E-02  0.1068678E+00
         21   -1    0    0  502  501  0.00000000000E+00  0.00000000000E+00  0.15323666319E+03  0.15323666319E+03  0.00000000000E+00 0.  1.
         21   -1    0    0  501  502 -0.00000000000E+00 -0.00000000000E+00 -0.73506292695E+03  0.73506292695E+03  0.00000000000E+00 0.  1.
         25    1    1    2    0    0  0.16153728969E+03  0.87508076347E+02 -0.29546124038E+03  0.36969487953E+03  0.12500000000E+03 0.  0.
         25    1    1    2    0    0 -0.12617829678E+03  0.52451871753E+02 -0.26937527047E+03  0.32689478088E+03  0.12500000000E+03 0.  0.
         25    1    1    2    0    0 -0.35358992917E+02 -0.13995994810E+03 -0.16989752916E+02  0.19170992973E+03  0.12500000000E+03 0.  0.
</event>
<event>
 5    0  0.5452999E-005  0.3980780E+03  0.7546771E-02  0.1044447E+00
         21   -1    0    0  502  501  0.00000000000E+00  0.00000000000E+00  0.33859389042E+03  0.33859389042E+03  0.00000000000E+00 0.  1.
         21   -1    0    0  501  502 -0.00000000000E+00 -0.00000000000E+00 -0.46801233836E+03  0.46801233836E+03  0.00000000000E+00 0.  1.
         25    1    1    2    0    0  0.54219436549E+02  0.19924202377E+01 -0.33185850491E+02  0.14024984032E+03  0.12500000000E+03 0.  0.
         25    1    1    2    0    0 -0.55624720901E+02  0.47978683622E+02 -0.35013736012E+03  0.37896864594E+03  0.12500000000E+03 0.  0.
         25    1    1    2    0    0  0.14052843520E+01 -0.49971103859E+02  0.25390476267E+03  0.28738774252E+03  0.12500000000E+03 0.  0.
</event>
<event>
 5    0  0.6171104E-005  0.3340250E+03  0.7546771E-02  0.1069370E+00
         21   -1    0    0  502  501  0.00000000000E+00  0.00000000000E+00  0.26890128125E+03  0.26890128125E+03  0.00000000000E+00 0.  1.
         21   -1    0    0  501  502 -0.00000000000E+00 -0.00000000000E+00 -0.41492078424E+03  0.41492078424E+03  0.00000000000E+00 0.  1.
         25    1    1    2    0    0 -0.45863910932E+01 -0.55120265926E+02  0.11839199233E+02  0.13720220602E+03  0.12500000000E+03 0.  0.
         25    1    1    2    0    0 -0.73349362438E+02  0.12490410328E+03 -0.28266305154E+03  0.34132765006E+03  0.12500000000E+03 0.  0.
         25    1    1    2    0    0  0.77935753531E+02 -0.69783837352E+02  0.12480434932E+03  0.20529220941E+03  0.12500000000E+03 0.  0.
</event>
<event>
 5    0  0.5452999E-005  0.2847459E+03  0.7546771E-02  0.1093125E+00
         21   -1    0    0  502  501  0.00000000000E+00  0.00000000000E+00  0.10066248095E+03  0.10066248095E+03  0.00000000000E+00 0.  1.
         21   -1    0    0  501  502 -0.00000000000E+00 -0.00000000000E+00 -0.80546610799E+03  0.80546610799E+03  0.00000000000E+00 0.  1.
         25    1    1    2    0    0 -0.12373034749E+03  0.13696135772E+02 -0.27898469796E+03  0.33008217874E+03  0.12500000000E+03 0.  0.
         25    1    1    2    0    0  0.16879903301E+03  0.12346933222E+02 -0.37768939293E+03  0.43234226932E+03  0.12500000000E+03 0.  0.
         25    1    1    2    0    0 -0.45068685523E+02 -0.26043068993E+02 -0.48129536140E+02  0.14370414088E+03  0.12500000000E+03 0.  0.
</event>
<event>
 5    0  0.5452999E-005  0.3233791E+03  0.7546771E-02  0.1074105E+00
         21   -1    0    0  502  501  0.00000000000E+00  0.00000000000E+00  0.14028240795E+04  0.14028240795E+04  0.00000000000E+00 0. -1.
         21   -1    0    0  501  502 -0.00000000000E+00 -0.00000000000E+00 -0.74545387242E+02  0.74545387242E+02  0.00000000000E+00 0. -1.
         25    1    1    2    0    0  0.61695883473E+02  0.96751523061E+02  0.24382323944E+03  0.29705556945E+03  0.12500000000E+03 0.  0.
         25    1    1    2    0    0 -0.96450113797E+02 -0.13737818442E+03  0.21407772542E+03  0.29938213462E+03  0.12500000000E+03 0.  0.
         25    1    1    2    0    0  0.34754230324E+02  0.40626661356E+02  0.87037772735E+03  0.88093176263E+03  0.12500000000E+03 0.  0.
</event>
<event>
 5    0  0.5676343E-005  0.3238331E+03  0.7546771E-02  0.1073899E+00
         21   -1    0    0  502  501  0.00000000000E+00  0.00000000000E+00  0.24339800151E+03  0.24339800151E+03  0.00000000000E+00 0. -1.
         21   -1    0    0  501  502 -0.00000000000E+00 -0.00000000000E+00 -0.43084928282E+03  0.43084928282E+03  0.00000000000E+00 0. -1.
         25    1    1    2    0    0  0.19524603308E+03  0.65900347693E+02 -0.16393259465E+03  0.29148372999E+03  0.12500000000E+03 0.  0.
         25    1    1    2    0    0 -0.92911465604E+02 -0.13436792443E+03 -0.25657493552E+02  0.20729347923E+03  0.12500000000E+03 0.  0.
         25    1    1    2    0    0 -0.10233456748E+03  0.68467576732E+02  0.21388068899E+01  0.17547007511E+03  0.12500000000E+03 0.  0.
</event>
<event>
 5    0  0.5452999E-005  0.2908162E+03  0.7546771E-02  0.1089924E+00
         21   -1    0    0  502  501  0.00000000000E+00  0.00000000000E+00  0.18366693574E+03  0.18366693574E+03  0.00000000000E+00 0. -1.
         21   -1    0    0  501  502 -0.00000000000E+00 -0.00000000000E+00 -0.46047503444E+03  0.46047503444E+03  0.00000000000E+00 0. -1.
         25    1    1    2    0    0  0.17066835753E+03 -0.62063027469E+02 -0.19058511730E+02  0.22128654390E+03  0.12500000000E+03 0.  0.
         25    1    1    2    0    0 -0.15492135360E+03  0.62638424071E+02 -0.14893206717E+03  0.25637854552E+03  0.12500000000E+03 0.  0.
         25    1    1    2    0    0 -0.15747003925E+02 -0.57539660171E+00 -0.10881751980E+03  0.16647688077E+03  0.12500000000E+03 0.  0.
</event>
<event>
 5    0  0.5452999E-005  0.2707314E+03  0.7546771E-02  0.1100862E+00
         21   -1    0    0  502  501  0.00000000000E+00  0.00000000000E+00  0.17986610014E+04  0.17986610014E+04  0.00000000000E+00 0.  1.
         21   -1    0    0  501  502 -0.00000000000E+00 -0.00000000000E+00 -0.40750038658E+02  0.40750038658E+02  0.00000000000E+00 0.  1.
         25    1    1    2    0    0 -0.40479802272E+02  0.73177712727E+02  0.22874795382E+03  0.27375941703E+03  0.12500000000E+03 0.  0.
         25    1    1    2    0    0  0.80569089546E+02 -0.18649997196E+02  0.11671065764E+04  0.11766911070E+04  0.12500000000E+03 0.  0.
         25    1    1    2    0    0 -0.40089287274E+02 -0.54527715531E+02  0.36205643252E+03  0.38896051605E+03  0.12500000000E+03 0.  0.
</event>
<event>
 5    0  0.5452999E-005  0.4743432E+03  0.7546771E-02  0.1020701E+00
         21   -1    0    0  502  501  0.00000000000E+00  0.00000000000E+00  0.10309449427E+04  0.10309449427E+04  0.00000000000E+00 0. -1.
         21   -1    0    0  501  502 -0.00000000000E+00 -0.00000000000E+00 -0.21824779157E+03  0.21824779157E+03  0.00000000000E+00 0. -1.
         25    1    1    2    0    0 -0.12275223125E+03 -0.94334694223E+02  0.31810099001E+03  0.37520712234E+03  0.12500000000E+03 0.  0.
         25    1    1    2    0    0  0.15059701823E+03 -0.23807493919E+03  0.40084675306E+03  0.50563055486E+03  0.12500000000E+03 0.  0.
         25    1    1    2    0    0 -0.27844786978E+02  0.33240963342E+03  0.93749408063E+02  0.36835505706E+03  0.12500000000E+03 0.  0.
</event>
<event>
 5    0  0.5452999E-005  0.2991610E+03  0.7546771E-02  0.1085661E+00
         21   -1    0    0  502  501  0.00000000000E+00  0.00000000000E+00  0.37406648165E+03  0.37406648165E+03  0.00000000000E+00 0.  1.
         21   -1    0    0  501  502 -0.00000000000E+00 -0.00000000000E+00 -0.23925508057E+03  0.23925508057E+03  0.00000000000E+00 0.  1.
         25    1    1    2    0    0 -0.43563509671E+02  0.12823346260E+03  0.69457999203E+02  0.19695434486E+03  0.12500000000E+03 0.  0.
         25    1    1    2    0    0 -0.56995089277E+02 -0.16451933791E+03  0.11671526788E+03  0.24405431056E+03  0.12500000000E+03 0.  0.
         25    1    1    2    0    0  0.10055859895E+03  0.36285875309E+02 -0.51361866005E+02  0.17231290680E+03  0.12500000000E+03 0.  0.
</event>
<event>
 5    0  0.5452999E-005  0.3442887E+03  0.7546771E-02  0.1064984E+00
         21   -1    0    0  502  501  0.00000000000E+00  0.00000000000E+00  0.34976213883E+03  0.34976213883E+03  0.00000000000E+00 0. -1.
         21   -1    0    0  501  502 -0.00000000000E+00 -0.00000000000E+00 -0.33890085290E+03  0.33890085290E+03  0.00000000000E+00 0. -1.
         25    1    1    2    0    0  0.58544623901E+02 -0.18108334975E+03 -0.15215841373E+03  0.27385367518E+03  0.12500000000E+03 0.  0.
         25    1    1    2    0    0  0.34187809624E+02  0.47637426428E+02  0.15786825710E+03  0.20972724507E+03  0.12500000000E+03 0.  0.
         25    1    1    2    0    0 -0.92732433524E+02  0.13344592332E+03  0.51514425523E+01  0.20508207147E+03  0.12500000000E+03 0.  0.
</event>
<event>
 5    0  0.5452999E-005  0.4961309E+03  0.7546771E-02  0.1014794E+00
         21   -1    0    0  502  501  0.00000000000E+00  0.00000000000E+00  0.34159328167E+03  0.34159328167E+03  0.00000000000E+00 0. -1.
         21   -1    0    0  501  502 -0.00000000000E+00 -0.00000000000E+00 -0.72058183025E+03  0.72058183025E+03  0.00000000000E+00 0. -1.
         25    1    1    2    0    0 -0.40653246509E+03  0.60847132431E+00 -0.22740402805E+03  0.48229307209E+03  0.12500000000E+03 0.  0.
         25    1    1    2    0    0  0.30417310339E+03 -0.10484579290E+03 -0.17755635161E+02  0.34562143987E+03  0.12500000000E+03 0.  0.
         25    1    1    2    0    0  0.10235936170E+03  0.10423732158E+03 -0.13382888537E+03  0.23426059997E+03  0.12500000000E+03 0.  0.
</event>
<event>
 5    0  0.5452999E-005  0.2645946E+03  0.7546771E-02  0.1104414E+00
         21   -1    0    0  502  501  0.00000000000E+00  0.00000000000E+00  0.68478641014E+02  0.68478641014E+02  0.00000000000E+00 0. -1.
         21   -1    0    0  501  502 -0.00000000000E+00 -0.00000000000E+00 -0.10223669021E+04  0.10223669021E+04  0.00000000000E+00 0. -1.
         25    1    1    2    0    0  0.10592319707E+01  0.41481284249E+02 -0.89128120942E+02  0.15903031427E+03  0.12500000000E+03 0.  0.
         25    1    1    2    0    0  0.10516509507E+03 -0.22019429196E+02 -0.57625543214E+03  0.59936622824E+03  0.12500000000E+03 0.  0.
         25    1    1    2    0    0 -0.10622432704E+03 -0.19461855052E+02 -0.28850470798E+03  0.33244900058E+03  0.12500000000E+03 0.  0.
</event>
<event>
 5    0  0.5452999E-005  0.2464093E+03  0.7546771E-02  0.1115595E+00
         21   -1    0    0  502  501  0.00000000000E+00  0.00000000000E+00  0.52838411254E+03  0.52838411254E+03  0.00000000000E+00 0. -1.
         21   -1    0    0  501  502 -0.00000000000E+00 -0.00000000000E+00 -0.11491177274E+03  0.11491177274E+03  0.00000000000E+00 0. -1.
         25    1    1    2    0    0  0.12885445394E+03 -0.47536973634E+02  0.23234168843E+03  0.29744057279E+03  0.12500000000E+03 0.  0.
         25    1    1    2    0    0 -0.88669186594E+02  0.19315589437E+02  0.13089059007E+03  0.20246644961E+03  0.12500000000E+03 0.  0.
         25    1    1    2    0    0 -0.40185267347E+02  0.28221384198E+02  0.50240061300E+02  0.14338886288E+03  0.12500000000E+03 0.  0.
</event>
<event>
 5    0  0.5452999E-005  0.2597522E+03  0.7546771E-02  0.1107292E+00
         21   -1    0    0  502  501  0.00000000000E+00  0.00000000000E+00  0.38090874453E+02  0.38090874453E+02  0.00000000000E+00 0.  1.
         21   -1    0    0  501  502 -0.00000000000E+00 -0.00000000000E+00 -0.17713224093E+04  0.17713224093E+04  0.00000000000E+00 0.  1.
         25    1    1    2    0    0  0.38840887318E+02  0.14197825118E+03 -0.44480980703E+03  0.48491979003E+03  0.12500000000E+03 0.  0.
         25    1    1    2    0    0 -0.23593623969E+02 -0.62414622364E+02 -0.84299643984E+03  0.85482176023E+03  0.12500000000E+03 0.  0.
         25    1    1    2    0    0 -0.15247263350E+02 -0.79563628818E+02 -0.44542528796E+03  0.46967173347E+03  0.12500000000E+03 0.  0.
</event>
<event>
 5    0  0.5452999E-005  0.3232889E+03  0.7546771E-02  0.1074146E+00
         21   -1    0    0  502  501  0.00000000000E+00  0.00000000000E+00  0.38727390713E+03  0.38727390713E+03  0.00000000000E+00 0.  1.
         21   -1    0    0  501  502 -0.00000000000E+00 -0.00000000000E+00 -0.26987545767E+03  0.26987545767E+03  0.00000000000E+00 0.  1.
         25    1    1    2    0    0  0.30743401713E+01 -0.83279252237E+02  0.16623442410E+02  0.15114967502E+03  0.12500000000E+03 0.  0.
         25    1    1    2    0    0  0.14930766491E+02  0.19954504002E+02 -0.16291320592E+03  0.20684975871E+03  0.12500000000E+03 0.  0.
         25    1    1    2    0    0 -0.18005106662E+02  0.63324748235E+02  0.26368821296E+03  0.29914993107E+03  0.12500000000E+03 0.  0.
</event>
<event>
 5    0  0.5452999E-005  0.3514949E+03  0.7546771E-02  0.1062003E+00
         21   -1    0    0  502  501  0.00000000000E+00  0.00000000000E+00  0.14885145417E+04  0.14885145417E+04  0.00000000000E+00 0. -1.
         21   -1    0    0  501  502 -0.00000000000E+00 -0.00000000000E+00 -0.83001302837E+02  0.83001302837E+02  0.00000000000E+00 0. -1.
         25    1    1    2    0    0 -0.68202047186E+02 -0.14211852840E+03  0.40687853313E+03  0.45389903731E+03  0.12500000000E+03 0.  0.
         25    1    1    2    0    0  0.52666619625E+02 -0.13064764597E+03  0.51391283740E+03  0.54733352233E+03  0.12500000000E+03 0.  0.
         25    1    1    2    0    0  0.15535427561E+02  0.27276617437E+03  0.48472186835E+03  0.57028328491E+03  0.12500000000E+03 0.  0.
</event>
<event>
 5    0  0.5452999E-005  0.3316361E+03  0.7546771E-02  0.1070415E+00
         21   -1    0    0  502  501  0.00000000000E+00  0.00000000000E+00  0.10420513570E+03  0.10420513570E+03  0.00000000000E+00 0. -1.
         21   -1    0    0  501  502 -0.00000000000E+00 -0.00000000000E+00 -0.10554423260E+04  0.10554423260E+04  0.00000000000E+00 0.  1.
         25    1    1    2    0    0 -0.19713226979E+03  0.90073879423E+02 -0.21151230597E+03  0.32762309309E+03  0.12500000000E+03 0.  0.
         25    1    1    2    0    0  0.17789227477E+03 -0.51951663844E+02 -0.30818058881E+03  0.38071631449E+03  0.12500000000E+03 0.  0.
         25    1    1    2    0    0  0.19239995020E+02 -0.38122215579E+02 -0.43154429557E+03  0.45130805418E+03  0.12500000000E+03 0.  0.
</event>
<event>
 5    0  0.5452999E-005  0.2174093E+03  0.7546771E-02  0.1135829E+00
         21   -1    0    0  502  501  0.00000000000E+00  0.00000000000E+00  0.54391257177E+03  0.54391257177E+03  0.00000000000E+00 0. -1.
         21   -1    0    0  501  502 -0.00000000000E+00 -0.00000000000E+00 -0.86901454065E+02  0.86901454065E+02  0.00000000000E+00 0. -1.
         25    1    1    2    0    0 -0.54553526823E+02 -0.82293967501E+01  0.76971130294E+02  0.15682271888E+03  0.12500000000E+03 0.  0.
         25    1    1    2    0    0  0.35371793660E+02 -0.28844259034E+02  0.10679426719E+03  0.17062582035E+03  0.12500000000E+03 0.  0.
         25    1    1    2    0    0  0.19181733163E+02  0.37073655784E+02  0.27324572022E+03  0.30336548660E+03  0.12500000000E+03 0.  0.
</event>
<event>
 5    0  0.5452999E-005  0.2053115E+03  0.7546771E-02  0.1145334E+00
         21   -1    0    0  502  501  0.00000000000E+00  0.00000000000E+00  0.25415759422E+03  0.25415759422E+03  0.00000000000E+00 0.  1.
         21   -1    0    0  501  502 -0.00000000000E+00 -0.00000000000E+00 -0.16585305168E+03  0.16585305168E+03  0.00000000000E+00 0.  1.
         25    1    1    2    0    0 -0.28348755572E+02 -0.41569187646E+02  0.41866491583E+02  0.14110085904E+03  0.12500000000E+03 0.  0.
         25    1    1    2    0    0  0.23883244659E+02 -0.28770826752E+02  0.10006512129E+02  0.13085602826E+03  0.12500000000E+03 0.  0.
         25    1    1    2    0    0  0.44655109139E+01  0.70340014398E+02  0.36431538825E+02  0.14805375860E+03  0.12500000000E+03 0.  0.
</event>
<event>
 5    0  0.5452999E-005  0.2727948E+03  0.7546771E-02  0.1099691E+00
         21   -1    0    0  502  501  0.00000000000E+00  0.00000000000E+00  0.95105776062E+03  0.95105776062E+03  0.00000000000E+00 0.  1.
         21   -1    0    0  501  502 -0.00000000000E+00 -0.00000000000E+00 -0.78246570279E+02  0.78246570279E+02  0.00000000000E+00 0.  1.
         25    1    1    2    0    0  0.23867988827E+02 -0.78018450227E+02  0.33294874291E+03  0.36487864403E+03  0.12500000000E+03 0.  0.
         25    1    1    2    0    0 -0.77510045165E+02 -0.78416972278E+02  0.32852017317E+03  0.36838503339E+03  0.12500000000E+03 0.  0.
         25    1    1    2    0    0  0.53642056338E+02  0.15643542251E+03  0.21134227426E+03  0.29604065348E+03  0.12500000000E+03 0.  0.
</event>
<event>
 5    0  0.5452999E-005  0.2379973E+03  0.7546771E-02  0.1121134E+00
         21   -1    0    0  502  501  0.00000000000E+00  0.00000000000E+00  0.54524795319E+03  0.54524795319E+03  0.00000000000E+00 0. -1.
         21   -1    0    0  501  502 -0.00000000000E+00 -0.00000000000E+00 -0.10388432955E+03  0.10388432955E+03  0.00000000000E+00 0. -1.
         25    1    1    2    0    0  0.75619184658E+02  0.15256874869E+02  0.71274449515E+02  0.16326689950E+03  0.12500000000E+03 0.  0.
         25    1    1    2    0    0  0.39781849461E+02  0.37696267824E+02  0.16768635080E+03  0.21621127722E+03  0.12500000000E+03 0.  0.
         25    1    1    2    0    0 -0.11540103412E+03 -0.52953142693E+02  0.20240282332E+03  0.26965410601E+03  0.12500000000E+03 0.  0.
</event>
<event>
 5    0  0.5452999E-005  0.3578094E+03  0.7546771E-02  0.1059455E+00
         21   -1    0    0  502  501  0.00000000000E+00  0.00000000000E+00  0.15126753264E+03  0.15126753264E+03  0.00000000000E+00 0. -1.
         21   -1    0    0  501  502 -0.00000000000E+00 -0.00000000000E+00 -0.84636506703E+03  0.84636506703E+03  0.00000000000E+00 0. -1.
         25    1    1    2    0    0  0.12490116048E+03 -0.83761151767E+02 -0.59110668216E+02  0.20429219645E+03  0.12500000000E+03 0.  0.
         25    1    1    2    0    0 -0.81137984268E+02 -0.98510669345E+02 -0.49815531226E+03  0.52921776198E+03  0.12500000000E+03 0.  0.
         25    1    1    2    0    0 -0.43763176208E+02  0.18227182111E+03 -0.13783155391E+03  0.26412264124E+03  0.12500000000E+03 0.  0.
</event>
<event>
 5    0  0.5452999E-005  0.3594502E+03  0.7546771E-02  0.1058802E+00
         21   -1    0    0  502  501  0.00000000000E+00  0.00000000000E+00  0.32112408588E+03  0.32112408588E+03  0.00000000000E+00 0. -1.
         21   -1    0    0  501  502 -0.00000000000E+00 -0.00000000000E+00 -0.40235061079E+03  0.40235061079E+03  0.00000000000E+00 0. -1.
         25    1    1    2    0    0 -0.47493556861E+02  0.20433986439E+02  0.17354380798E+02  0.13637947162E+03  0.12500000000E+03 0.  0.
         25    1    1    2    0    0 -0.16995426646E+03 -0.16357969703E+03  0.34385259523E+02  0.26916559223E+03  0.12500000000E+03 0.  0.
         25    1    1    2    0    0  0.21744782333E+03  0.14314571059E+03 -0.13296616523E+03  0.31792963282E+03  0.12500000000E+03 0.  0.
</event>
<event>
 5    0  0.5452999E-005  0.3545327E+03  0.7546771E-02  0.1060770E+00
         21   -1    0    0  502  501  0.00000000000E+00  0.00000000000E+00  0.10183720368E+03  0.10183720368E+03  0.00000000000E+00 0. -1.
         21   -1    0    0  501  502 -0.00000000000E+00 -0.00000000000E+00 -0.12342586580E+04  0.12342586580E+04  0.00000000000E+00 0. -1.
         25    1    1    2    0    0 -0.32628315750E+02  0.18422173030E+03 -0.29316219360E+03  0.36955557723E+03  0.12500000000E+03 0.  0.
         25    1    1    2    0    0 -0.76994775939E+02 -0.25604201201E+03 -0.46492399599E+03  0.55069504218E+03  0.12500000000E+03 0.  0.
         25    1    1    2    0    0  0.10962309169E+03  0.71820281711E+02 -0.37433526476E+03  0.41584524229E+03  0.12500000000E+03 0.  0.
</event>
<event>
 5    0  0.5452999E-005  0.4529871E+03  0.7546771E-02  0.1026835E+00
         21   -1    0    0  502  501  0.00000000000E+00  0.00000000000E+00  0.14722891878E+04  0.14722891878E+04  0.00000000000E+00 0. -1.
         21   -1    0    0  501  502 -0.00000000000E+00 -0.00000000000E+00 -0.13937293693E+03  0.13937293693E+03  0.00000000000E+00 0. -1.
         25    1    1    2    0    0  0.20992957406E+02 -0.93574686501E+01  0.12700170581E+04  0.12763606835E+04  0.12500000000E+03 0.  0.
         25    1    1    2    0    0 -0.81568163406E+02 -0.50450500825E+02 -0.26281745030E+02  0.15973211461E+03  0.12500000000E+03 0.  0.
         25    1    1    2    0    0  0.60575206000E+02  0.59807969475E+02  0.89180937818E+02  0.17556932666E+03  0.12500000000E+03 0.  0.
</event>
<event>
 5    0  0.5452999E-005  0.4300800E+03  0.7546771E-02  0.1033835E+00
         21   -1    0    0  502  501  0.00000000000E+00  0.00000000000E+00  0.27628619595E+03  0.27628619595E+03  0.00000000000E+00 0.  1.
         21   -1    0    0  501  502 -0.00000000000E+00 -0.00000000000E+00 -0.66948257267E+03  0.66948257267E+03  0.00000000000E+00 0.  1.
         25    1    1    2    0    0 -0.11580792049E+03 -0.15924894726E+03 -0.16952318698E+03  0.28833108153E+03  0.12500000000E+03 0.  0.
         25    1    1    2    0    0 -0.57338103943E+02  0.29449734787E+03 -0.24015431879E+03  0.40412305415E+03  0.12500000000E+03 0.  0.
         25    1    1    2    0    0  0.17314602443E+03 -0.13524840061E+03  0.16481129049E+02  0.25331463294E+03  0.12500000000E+03 0.  0.
</event>
<event>
 5    0  0.5452999E-005  0.4902674E+03  0.7546771E-02  0.1016351E+00
         21   -1    0    0  502  501  0.00000000000E+00  0.00000000000E+00  0.15664819923E+04  0.15664819923E+04  0.00000000000E+00 0.  1.
         21   -1    0    0  501  502 -0.00000000000E+00 -0.00000000000E+00 -0.15344071883E+03  0.15344071883E+03  0.00000000000E+00 0.  1.
         25    1    1    2    0    0 -0.84420638172E+02  0.24307803102E+03  0.12585889161E+03  0.31253677209E+03  0.12500000000E+03 0.  0.
         25    1    1    2    0    0 -0.38771056645E+02  0.11034431452E+03  0.46239213308E+03  0.49306241726E+03  0.12500000000E+03 0.  0.
         25    1    1    2    0    0  0.12319169482E+03 -0.35342234554E+03  0.82479024873E+03  0.91432352173E+03  0.12500000000E+03 0.  0.
</event>
<event>
 5    0  0.5452999E-005  0.2409535E+03  0.7546771E-02  0.1119159E+00
         21   -1    0    0  502  501  0.00000000000E+00  0.00000000000E+00  0.11235934184E+03  0.11235934184E+03  0.00000000000E+00 0.  1.
         21   -1    0    0  501  502 -0.00000000000E+00 -0.00000000000E+00 -0.51672223112E+03  0.51672223112E+03  0.00000000000E+00 0.  1.
         25    1    1    2    0    0 -0.28123024317E+02  0.26210222613E+02 -0.25724033188E+03  0.28857489255E+03  0.12500000000E+03 0.  0.
         25    1    1    2    0    0 -0.13424844750E+02  0.69958849680E+02 -0.64301484520E+02  0.15758854025E+03  0.12500000000E+03 0.  0.
         25    1    1    2    0    0  0.41547869068E+02 -0.96169072293E+02 -0.82821072880E+02  0.18291814017E+03  0.12500000000E+03 0.  0.
</event>
<event>
 5    0  0.5452999E-005  0.3006038E+03  0.7546771E-02  0.1084939E+00
         21   -1    0    0  502  501  0.00000000000E+00  0.00000000000E+00  0.32239296224E+03  0.32239296224E+03  0.00000000000E+00 0.  1.
         21   -1    0    0  501  502 -0.00000000000E+00 -0.00000000000E+00 -0.28028732560E+03  0.28028732560E+03  0.00000000000E+00 0.  1.
         25    1    1    2    0    0 -0.26700499527E+02  0.11230979298E+03  0.83226922925E+02  0.18941522371E+03  0.12500000000E+03 0.  0.
         25    1    1    2    0    0  0.26314795125E+02  0.71424377823E+02  0.72892688657E+02  0.16350001300E+03  0.12500000000E+03 0.  0.
         25    1    1    2    0    0  0.38570440119E+00 -0.18373417080E+03 -0.11401397495E+03  0.24976505114E+03  0.12500000000E+03 0.  0.
</event>
<event>
 5    0  0.5806479E-005  0.3387368E+03  0.7546771E-02  0.1067335E+00
         21   -1    0    0  502  501  0.00000000000E+00  0.00000000000E+00  0.27698543530E+03  0.27698543530E+03  0.00000000000E+00 0.  1.
         21   -1    0    0  501  502 -0.00000000000E+00 -0.00000000000E+00 -0.41425507582E+03  0.41425507582E+03  0.00000000000E+00 0.  1.
         25    1    1    2    0    0  0.22784592758E+03  0.59671016555E+02 -0.48652786414E+02  0.27104702646E+03  0.12500000000E+03 0.  0.
         25    1    1    2    0    0 -0.15817049078E+03 -0.75502204108E+02 -0.15133526901E+03  0.26314606329E+03  0.12500000000E+03 0.  0.
         25    1    1    2    0    0 -0.69675436793E+02  0.15831187553E+02  0.62718414891E+02  0.15704742137E+03  0.12500000000E+03 0.  0.
</event>
<event>
 5    0  0.5452999E-005  0.2421261E+03  0.7546771E-02  0.1118385E+00
         21   -1    0    0  502  501  0.00000000000E+00  0.00000000000E+00  0.34524631842E+02  0.34524631842E+02  0.00000000000E+00 0.  1.
         21   -1    0    0  501  502 -0.00000000000E+00 -0.00000000000E+00 -0.16980645603E+04  0.16980645603E+04  0.00000000000E+00 0.  1.
         25    1    1    2    0    0 -0.67015726422E+02 -0.83925684775E+01 -0.37522216465E+03  0.40122090628E+03  0.12500000000E+03 0.  0.
         25    1    1    2    0    0  0.10798691257E+03  0.26614014124E+02 -0.10004620533E+04  0.10143563472E+04  0.12500000000E+03 0.  0.
         25    1    1    2    0    0 -0.40971186147E+02 -0.18221445647E+02 -0.28785571054E+03  0.31701193868E+03  0.12500000000E+03 0.  0.
</event>
<event>
 5    0  0.5452999E-005  0.2235742E+03  0.7546771E-02  0.1131246E+00
         21   -1    0    0  502  501  0.00000000000E+00  0.00000000000E+00  0.36687324075E+03  0.36687324075E+03  0.00000000000E+00 0. -1.
         21   -1    0    0  501  502 -0.00000000000E+00 -0.00000000000E+00 -0.13624715698E+03  0.13624715698E+03  0.00000000000E+00 0. -1.
         25    1    1    2    0    0 -0.21323613952E+02  0.84244237927E+02  0.57032692035E+02  0.16257157223E+03  0.12500000000E+03 0.  0.
         25    1    1    2    0    0 -0.48955007848E+02 -0.61659941437E+02  0.91665102459E+02  0.17385635502E+03  0.12500000000E+03 0.  0.
         25    1    1    2    0    0  0.70278621800E+02 -0.22584296490E+02  0.81928289278E+02  0.16669247048E+03  0.12500000000E+03 0.  0.
</event>
<event>
 5    0  0.5452999E-005  0.2920007E+03  0.7546771E-02  0.1089309E+00
         21   -1    0    0  502  501  0.00000000000E+00  0.00000000000E+00  0.94432367516E+02  0.94432367516E+02  0.00000000000E+00 0. -1.
         21   -1    0    0  501  502 -0.00000000000E+00 -0.00000000000E+00 -0.90291501093E+03  0.90291501093E+03  0.00000000000E+00 0. -1.
         25    1    1    2    0    0 -0.26101743102E+02 -0.15877495090E+02 -0.18559858058E+03  0.22584337262E+03  0.12500000000E+03 0.  0.
         25    1    1    2    0    0  0.82892869751E+02 -0.42679365207E+02 -0.28322157203E+02  0.15849258866E+03  0.12500000000E+03 0.  0.
         25    1    1    2    0    0 -0.56791126649E+02  0.58556860298E+02 -0.59456190563E+03  0.61301141717E+03  0.12500000000E+03 0.  0.
</event>
<event>
 5    0  0.5452999E-005  0.3701634E+03  0.7546771E-02  0.1054631E+00
         21   -1    0    0  502  501  0.00000000000E+00  0.00000000000E+00  0.14122809226E+03  0.14122809226E+03  0.00000000000E+00 0.  1.
         21   -1    0    0  501  502 -0.00000000000E+00 -0.00000000000E+00 -0.97021016378E+03  0.97021016378E+03  0.00000000000E+00 0.  1.
         25    1    1    2    0    0  0.10814229102E+03 -0.85991441517E+02 -0.18374902497E+03  0.26168299008E+03  0.12500000000E+03 0.  0.
         25    1    1    2    0    0 -0.85514947521E+02  0.18672579636E+03 -0.67522578573E+02  0.24972710684E+03  0.12500000000E+03 0.  0.
         25    1    1    2    0    0 -0.22627343497E+02 -0.10073435484E+03 -0.57771046797E+03  0.60002815911E+03  0.12500000000E+03 0.  0.
</event>
<event>
 5    0  0.5452999E-005  0.4756739E+03  0.7546771E-02  0.1020331E+00
         21   -1    0    0  502  501  0.00000000000E+00  0.00000000000E+00  0.17929425520E+03  0.17929425520E+03  0.00000000000E+00 0.  1.
         21   -1    0    0  501  502 -0.00000000000E+00 -0.00000000000E+00 -0.12619795885E+04  0.12619795885E+04  0.00000000000E+00 0.  1.
         25    1    1    2    0    0  0.33444941210E+02 -0.47960434419E+02 -0.34801623583E+03  0.37437824158E+03  0.12500000000E+03 0.  0.
         25    1    1    2    0    0  0.30510296332E+03  0.64769590575E+02 -0.58747437206E+03  0.67678213327E+03  0.12500000000E+03 0.  0.
         25    1    1    2    0    0 -0.33854790453E+03 -0.16809156156E+02 -0.14719472541E+03  0.39011346885E+03  0.12500000000E+03 0.  0.
</event>
<event>
 5    0  0.5452999E-005  0.3832758E+03  0.7546771E-02  0.1049730E+00
         21   -1    0    0  502  501  0.00000000000E+00  0.00000000000E+00  0.73953238843E+03  0.73953238843E+03  0.00000000000E+00 0. -1.
         21   -1    0    0  501  502 -0.00000000000E+00 -0.00000000000E+00 -0.19863950665E+03  0.19863950665E+03  0.00000000000E+00 0. -1.
         25    1    1    2    0    0  0.17033840220E+03  0.19956275299E+02  0.11596543100E+03  0.24183962739E+03  0.12500000000E+03 0.  0.
         25    1    1    2    0    0 -0.11558347309E+03 -0.11918691543E+03 -0.31057993546E+02  0.21013010023E+03  0.12500000000E+03 0.  0.
         25    1    1    2    0    0 -0.54754929118E+02  0.99230640127E+02  0.45598544433E+03  0.48620216746E+03  0.12500000000E+03 0.  0.
</event>
<event>
 5    0  0.5452999E-005  0.2450234E+03  0.7546771E-02  0.1116491E+00
         21   -1    0    0  502  501  0.00000000000E+00  0.00000000000E+00  0.62021330928E+02  0.62021330928E+02  0.00000000000E+00 0.  1.
         21   -1    0    0  501  502 -0.00000000000E+00 -0.00000000000E+00 -0.96799699174E+03  0.96799699174E+03  0.00000000000E+00 0.  1.
         25    1    1    2    0    0  0.56873532238E+02  0.70365192199E+02 -0.33940586571E+03  0.37283669430E+03  0.12500000000E+03 0.  0.
         25    1    1    2    0    0 -0.24334684197E+02 -0.13613054348E+03 -0.35072090177E+03  0.39718239219E+03  0.12500000000E+03 0.  0.
         25    1    1    2    0    0 -0.32538848040E+02  0.65765351280E+02 -0.21584889333E+03  0.25999923618E+03  0.12500000000E+03 0.  0.
</event>
<event>
 5    0  0.5452999E-005  0.3303695E+03  0.7546771E-02  0.1070973E+00
         21   -1    0    0  502  501  0.00000000000E+00  0.00000000000E+00  0.32876037643E+03  0.32876037643E+03  0.00000000000E+00 0.  1.
         21   -1    0    0  501  502 -0.00000000000E+00 -0.00000000000E+00 -0.33198648680E+03  0.33198648680E+03  0.00000000000E+00 0.  1.
         25    1    1    2    0    0  0.14600151082E+03  0.58290531015E+02  0.12588952870E+03  0.23703881666E+03  0.12500000000E+03 0.  0.
         25    1    1    2    0    0 -0.12842966059E+03  0.22032843162E+02 -0.19005497880E+03  0.26215552419E+03  0.12500000000E+03 0.  0.
         25    1    1    2    0    0 -0.17571850235E+02 -0.80323374177E+02  0.60939339731E+02  0.16155252238E+03  0.12500000000E+03 0.  0.
</event>
<event>
 5    0  0.5452999E-005  0.3358845E+03  0.7546771E-02  0.1068562E+00
         21   -1    0    0  502  501  0.00000000000E+00  0.00000000000E+00  0.10886621991E+03  0.10886621991E+03  0.00000000000E+00 0.  1.
         21   -1    0    0  501  502 -0.00000000000E+00 -0.00000000000E+00 -0.10363032162E+04  0.10363032162E+04  0.00000000000E+00 0.  1.
         25    1    1    2    0    0 -0.14628019796E+03 -0.14999944755E+03 -0.52193519882E+03  0.57614154715E+03  0.12500000000E+03 0.  0.
         25    1    1    2    0    0  0.42071478712E+02  0.84671763039E+01 -0.29273382595E+02  0.13536481568E+03  0.12500000000E+03 0.  0.
         25    1    1    2    0    0  0.10420871924E+03  0.14153227124E+03 -0.37622841487E+03  0.43366307328E+03  0.12500000000E+03 0.  0.
</event>
<event>
 5    0  0.5452999E-005  0.3472336E+03  0.7546771E-02  0.1063756E+00
         21   -1    0    0  502  501  0.00000000000E+00  0.00000000000E+00  0.61954625123E+03  0.61954625123E+03  0.00000000000E+00 0.  1.
         21   -1    0    0  501  502 -0.00000000000E+00 -0.00000000000E+00 -0.19461210177E+03  0.19461210177E+03  0.00000000000E+00 0.  1.
         25    1    1    2    0    0 -0.20801758063E+02 -0.62586961069E+02  0.42222597222E+03  0.44525230202E+03  0.12500000000E+03 0.  0.
         25    1    1    2    0    0  0.25847120479E+02  0.16400741659E+03 -0.47771773494E+00  0.20782621237E+03  0.12500000000E+03 0.  0.
         25    1    1    2    0    0 -0.50453624154E+01 -0.10142045552E+03  0.31858949761E+01  0.16107983861E+03  0.12500000000E+03 0.  0.
</event>
<event>
 5    0  0.5452999E-005  0.2496653E+03  0.7546771E-02  0.1113517E+00
         21   -1    0    0  502  501  0.00000000000E+00  0.00000000000E+00  0.24549820306E+03  0.24549820306E+03  0.00000000000E+00 0. -1.
         21   -1    0    0  501  502 -0.00000000000E+00 -0.00000000000E+00 -0.25390309997E+03  0.25390309997E+03  0.00000000000E+00 0. -1.
         25    1    1    2    0    0  0.45799016958E+02  0.37750817247E+01  0.17246707367E+01  0.13319074925E+03  0.12500000000E+03 0.  0.
         25    1    1    2    0    0 -0.38755271556E+02 -0.13255737771E+03  0.67842956798E+00  0.18627637995E+03  0.12500000000E+03 0.  0.
         25    1    1    2    0    0 -0.70437454021E+01  0.12878229599E+03 -0.10807997213E+02  0.17993417383E+03  0.12500000000E+03 0.  0.
</event>
<event>
 5    0  0.5452999E-005  0.3924756E+03  0.7546771E-02  0.1046417E+00
         21   -1    0    0  502  501  0.00000000000E+00  0.00000000000E+00  0.75826811603E+02  0.75826811603E+02  0.00000000000E+00 0. -1.
         21   -1    0    0  501  502 -0.00000000000E+00 -0.00000000000E+00 -0.20314332492E+04  0.20314332492E+04  0.00000000000E+00 0. -1.
         25    1    1    2    0    0  0.26897867205E+03 -0.12045429164E+03 -0.66146457158E+03  0.73485994709E+03  0.12500000000E+03 0.  0.
         25    1    1    2    0    0 -0.28746242399E+03  0.73125122276E+02 -0.91035453138E+03  0.96558391739E+03  0.12500000000E+03 0.  0.
         25    1    1    2    0    0  0.18483751948E+02  0.47329169361E+02 -0.38378733459E+03  0.40681619628E+03  0.12500000000E+03 0.  0.
</event>
<event>
 5    0  0.5452999E-005  0.2433174E+03  0.7546771E-02  0.1117602E+00
         21   -1    0    0  502  501  0.00000000000E+00  0.00000000000E+00  0.16653067908E+03  0.16653067908E+03  0.00000000000E+00 0. -1.
         21   -1    0    0  501  502 -0.00000000000E+00 -0.00000000000E+00 -0.35551018202E+03  0.35551018202E+03  0.00000000000E+00 0. -1.
         25    1    1    2    0    0 -0.28350450868E+02  0.47322859652E+02  0.53668717474E+02  0.14679418362E+03  0.12500000000E+03 0.  0.
         25    1    1    2    0    0  0.26426484570E+02  0.27189296464E+02 -0.65946435249E+02  0.14632685759E+03  0.12500000000E+03 0.  0.
         25    1    1    2    0    0  0.19239662977E+01 -0.74512156116E+02 -0.17670178517E+03  0.22891981989E+03  0.12500000000E+03 0.  0.
</event>
<event>
 5    0  0.5452999E-005  0.2343169E+03  0.7546771E-02  0.1123638E+00
         21   -1    0    0  502  501  0.00000000000E+00  0.00000000000E+00  0.18132070004E+03  0.18132070004E+03  0.00000000000E+00 0. -1.
         21   -1    0    0  501  502 -0.00000000000E+00 -0.00000000000E+00 -0.30280264606E+03  0.30280264606E+03  0.00000000000E+00 0. -1.
         25    1    1    2    0    0  0.87582775976E+01 -0.25085762662E+02 -0.85332788183E+02  0.15366420420E+03  0.12500000000E+03 0.  0.
         25    1    1    2    0    0 -0.20625060500E+02  0.63618000216E+02 -0.11030965057E+03  0.17962700822E+03  0.12500000000E+03 0.  0.
         25    1    1    2    0    0  0.11866782902E+02 -0.38532237554E+02  0.74160492730E+02  0.15083213368E+03  0.12500000000E+03 0.  0.
</event>
<event>
 5    0  0.5452999E-005  0.3004375E+03  0.7546771E-02  0.1085022E+00
         21   -1    0    0  502  501  0.00000000000E+00  0.00000000000E+00  0.40099652571E+03  0.40099652571E+03  0.00000000000E+00 0.  1.
         21   -1    0    0  501  502 -0.00000000000E+00 -0.00000000000E+00 -0.22509596209E+03  0.22509596209E+03  0.00000000000E+00 0.  1.
         25    1    1    2    0    0 -0.97344262445E+02 -0.31180832860E+02  0.23659335909E+03  0.28644295651E+03  0.12500000000E+03 0.  0.
         25    1    1    2    0    0 -0.82225802472E+01  0.89568989772E+02 -0.61776782918E+02  0.16592644654E+03  0.12500000000E+03 0.  0.
         25    1    1    2    0    0  0.10556684269E+03 -0.58388156912E+02  0.10839874466E+01  0.17372308474E+03  0.12500000000E+03 0.  0.
</event>
<event>
 5    0  0.5452999E-005  0.2690701E+03  0.7546771E-02  0.1101813E+00
         21   -1    0    0  502  501  0.00000000000E+00  0.00000000000E+00  0.14990829712E+03  0.14990829712E+03  0.00000000000E+00 0.  1.
         21   -1    0    0  501  502 -0.00000000000E+00 -0.00000000000E+00 -0.48295352035E+03  0.48295352035E+03  0.00000000000E+00 0.  1.
         25    1    1    2    0    0 -0.10464617594E+03 -0.96233617674E+02 -0.18503764555E+03  0.26471807943E+03  0.12500000000E+03 0.  0.
         25    1    1    2    0    0  0.26999455388E+02 -0.16739619161E+02  0.28894649925E+01  0.12900594734E+03  0.12500000000E+03 0.  0.
         25    1    1    2    0    0  0.77646720552E+02  0.11297323684E+03 -0.15089704267E+03  0.23913779070E+03  0.12500000000E+03 0.  0.
</event>
<event>
 5    0  0.5452999E-005  0.3625902E+03  0.7546771E-02  0.1057563E+00
         21   -1    0    0  502  501  0.00000000000E+00  0.00000000000E+00  0.19516012913E+03  0.19516012913E+03  0.00000000000E+00 0.  1.
         21   -1    0    0  501  502 -0.00000000000E+00 -0.00000000000E+00 -0.67366038868E+03  0.67366038868E+03  0.00000000000E+00 0.  1.
         25    1    1    2    0    0  0.65656470355E+02  0.18741615534E+02 -0.36604227005E+02  0.14706083669E+03  0.12500000000E+03 0.  0.
         25    1    1    2    0    0  0.22270398656E+03 -0.19086333388E+02 -0.18709751510E+03  0.31716215712E+03  0.12500000000E+03 0.  0.
         25    1    1    2    0    0 -0.28836045691E+03  0.34471785361E+00 -0.25479851745E+03  0.40459752401E+03  0.12500000000E+03 0.  0.
</event>
<event>
 5    0  0.5452999E-005  0.2687117E+03  0.7546771E-02  0.1102019E+00
         21   -1    0    0  502  501  0.00000000000E+00  0.00000000000E+00  0.24452892470E+03  0.24452892470E+03  0.00000000000E+00 0.  1.
         21   -1    0    0  501  502 -0.00000000000E+00 -0.00000000000E+00 -0.29528595399E+03  0.29528595399E+03  0.00000000000E+00 0.  1.
         25    1    1    2    0    0 -0.50871382825E+02  0.47240296345E+02  0.28915077354E+02  0.14587880205E+03  0.12500000000E+03 0.  0.
         25    1    1    2    0    0 -0.55107616671E+02  0.43122800949E+02  0.65082175502E+02  0.15734393838E+03  0.12500000000E+03 0.  0.
         25    1    1    2    0    0  0.10597899950E+03 -0.90363097294E+02 -0.14475428214E+03  0.23659213826E+03  0.12500000000E+03 0.  0.
</event>
<event>
 5    0  0.5452999E-005  0.2233478E+03  0.7546771E-02  0.1131411E+00
         21   -1    0    0  502  501  0.00000000000E+00  0.00000000000E+00  0.16893467527E+03  0.16893467527E+03  0.00000000000E+00 0. -1.
         21   -1    0    0  501  502 -0.00000000000E+00 -0.00000000000E+00 -0.29528714697E+03  0.29528714697E+03  0.00000000000E+00 0. -1.
         25    1    1    2    0    0  0.57309024123E+01 -0.61825995891E+02 -0.32956201037E+02  0.14340993061E+03  0.12500000000E+03 0.  0.
         25    1    1    2    0    0  0.68493867143E+02  0.15543674399E+02 -0.28684310101E+01  0.14340935655E+03  0.12500000000E+03 0.  0.
         25    1    1    2    0    0 -0.74224769555E+02  0.46282321492E+02 -0.90527839652E+02  0.17740253507E+03  0.12500000000E+03 0.  0.
</event>
<event>
 5    0  0.5452999E-005  0.2354919E+03  0.7546771E-02  0.1122833E+00
         21   -1    0    0  502  501  0.00000000000E+00  0.00000000000E+00  0.47236562488E+02  0.47236562488E+02  0.00000000000E+00 0.  1.
         21   -1    0    0  501  502 -0.00000000000E+00 -0.00000000000E+00 -0.11740147093E+04  0.11740147093E+04  0.00000000000E+00 0.  1.
         25    1    1    2    0    0 -0.38802668681E+02  0.76137064654E+02 -0.19294917676E+03  0.24526900440E+03  0.12500000000E+03 0.  0.
         25    1    1    2    0    0  0.16058530707E+02 -0.24574819754E+01 -0.30089172842E+03  0.32622806112E+03  0.12500000000E+03 0.  0.
         25    1    1    2    0    0  0.22744137973E+02 -0.73679582679E+02 -0.63293724163E+03  0.64975420627E+03  0.12500000000E+03 0.  0.
</event>
